Membrane in water
40344
    1TMC1    C1    1   2.703   3.225  11.353  0.0467 -0.4503  0.2200
    1TMC1    C2    2   2.695   3.295  11.235 -0.5494  0.1637  0.3335
    1TMC1    C3    3   2.794   3.269  11.147  0.0887 -0.3632  0.0466
    1TMC1    C4    4   2.805   3.146  11.381 -0.1070 -0.2976 -0.3627
    1TMC1    C5    5   2.902   3.117  11.285 -0.3273  0.6074 -0.9546
    1TMC1    C6    6   2.892   3.171  11.160  0.1086 -0.0000  0.1224
    1TMC1     C    7   2.588   3.221  11.441  0.2017 -0.3919  0.1588
    1TMC1     O    8   2.601   3.179  11.552  0.4636  0.6855  0.2047
    1TMC1     H    9   2.619   3.372  11.225 -0.8379 -0.1073  0.4330
    1TMC1    H1   10   2.807   3.090  11.473  0.1620 -1.1349 -0.8766
    1TMC1    H2   11   2.955   3.147  11.076 -0.6162  1.3475 -0.8138
    1TMC1    C7   12   3.001   3.010  11.286 -0.7698 -0.7074  0.3927
    1TMC1    C8   13   2.773   3.298  11.006  0.7715 -0.0427 -0.4659
    1TMC1    O1   14   3.050   2.954  11.379 -0.3151  0.9414 -0.3277
    1TMC1    O2   15   2.764   3.405  10.949  0.1974 -0.4069  0.1212
    1TMC1    O3   16   2.968   2.938  11.180 -0.6765  0.1859 -0.0000
    1TMC1    H3   17   2.881   2.962  11.142  0.3019  2.1741 -1.0501
    1TMC1    O5   18   2.762   3.175  10.950  0.3674  0.1102  0.2359
    1TMC1    H5   19   2.747   3.097  11.008 -2.3346  2.1388  2.2291
    2MPD2     C   20   2.077   3.151  11.525  0.3359  0.0112  0.1890
    2MPD2    C1   21   2.181   3.130  11.613 -0.0547  0.0162  0.2961
    2MPD2    C2   22   2.309   3.162  11.572 -0.1163  0.9298 -0.2263
    2MPD2    C3   23   2.335   3.202  11.437  1.0887  0.6933 -0.3555
    2MPD2    C4   24   2.231   3.210  11.349 -0.2379  0.2217 -0.0585
    2MPD2    C5   25   2.104   3.187  11.396  0.0285 -0.1270  0.1121
    2MPD2     H   26   2.388   3.139  11.642 -0.5962  0.8635  0.2922
    2MPD2    H1   27   2.250   3.239  11.246  0.0444  0.8315  0.1628
    2MPD2    H2   28   1.973   3.131  11.548  0.2077 -1.5597 -1.7967
    2MPD2    H3   29   2.016   3.202  11.334 -0.6825 -0.2518  1.0943
    2MPD2     N   30   2.465   3.230  11.381 -0.3221  0.0107 -0.6468
    2MPD2    H5   31   2.464   3.243  11.280 -0.5776 -2.2975 -0.9572
    2MPD2    N1   32   2.171   3.068  11.741  0.7174  0.8188  0.7488
    2MPD2    H7   33   2.249   3.062  11.806  0.6653  0.4365  0.7749
    3TMC1    C1   34   2.091   3.128  10.949  0.2221 -0.3062  0.5683
    3TMC1    C2   35   2.171   3.229  10.997 -1.1611  0.1562 -0.1774
    3TMC1    C3   36   2.298   3.238  10.955  0.3526  0.2354  0.4554
    3TMC1    C4   37   2.147   3.025  10.884 -0.1652  0.0792  0.1715
    3TMC1    C5   38   2.275   3.029  10.841 -0.2876 -0.4130  0.5016
    3TMC1    C6   39   2.349   3.142  10.872  0.5757  0.2757 -0.0524
    3TMC1     C   40   1.956   3.099  11.001 -0.0643 -0.2542  0.3371
    3TMC1     O   41   1.905   2.991  10.976  0.5576  0.2133 -0.1490
    3TMC1     H   42   2.120   3.304  11.056  0.0076  0.9626 -0.1965
    3TMC1    H1   43   2.093   2.937  10.850  0.8273 -1.0473  1.5259
    3TMC1    H2   44   2.445   3.159  10.826  0.4778  3.1904  0.8005
    3TMC1    C7   45   2.338   2.923  10.761  0.5956 -0.0953  0.7763
    3TMC1    C8   46   2.396   3.321  11.019  0.1519 -0.3985  0.8860
    3TMC1    O1   47   2.267   2.877  10.670  0.2938  0.2751  0.0175
    3TMC1    O2   48   2.362   3.423  11.074 -0.0457 -0.1370  0.1287
    3TMC1    O3   49   2.474   2.924  10.775 -0.1538  0.1963 -0.0737
    3TMC1    H3   50   2.493   2.945  10.869 -2.6897  0.7926  0.3333
    3TMC1    O5   51   2.460   3.219  11.089 -0.3323  0.1960 -0.7537
    3TMC1    H5   52   2.474   3.129  11.054 -0.7281 -0.7771  1.5876
    4MPD2     C   53   1.553   3.292  11.259  0.7159  0.8044  0.1105
    4MPD2    C1   54   1.659   3.381  11.256 -0.2465  0.6004 -0.4102
    4MPD2    C2   55   1.776   3.345  11.201 -0.4163 -0.0267  0.3295
    4MPD2    C3   56   1.790   3.215  11.153  0.5915 -0.5928 -0.5626
    4MPD2    C4   57   1.687   3.120  11.166  0.2016  0.8059 -0.0978
    4MPD2    C5   58   1.566   3.162  11.220 -0.0593  0.3951  0.6716
    4MPD2     H   59   1.849   3.421  11.179  0.8036 -1.2348  0.1943
    4MPD2    H1   60   1.688   3.022  11.118  0.0721  1.0628 -0.6303
    4MPD2    H2   61   1.456   3.316  11.302  0.9765  0.4353  0.8980
    4MPD2    H3   62   1.482   3.096  11.240  0.3922 -0.2986  0.2546
    4MPD2     N   63   1.913   3.205  11.081  0.6964 -0.0146  0.0900
    4MPD2    H5   64   1.975   3.284  11.088  1.1616 -0.2299 -1.6464
    4MPD2    N1   65   1.657   3.514  11.299 -0.2622  0.1658 -1.0590
    4MPD2    H7   66   1.733   3.578  11.278 -0.1930  0.6127  0.5632
    5TCq1    O1   67   1.995   0.304  12.106 -0.0484  0.1390  0.2374
    5TCq1    C1   68   2.112   0.380  12.086  0.8478 -0.5980 -0.8172
    5TCq1    O2   69   2.200   0.398  12.172  0.3254 -0.5140 -0.3078
    5TCq1    C2   70   2.075   0.479  11.991  0.3884 -0.4656  0.3937
    5TCq1    C3   71   2.095   0.611  12.016 -0.7614 -0.6283  0.3451
    5TCq1    C4   72   2.074   0.704  11.916 -0.1511  0.3546 -0.2035
    5TCq1    C5   73   2.024   0.660  11.795  0.0118  0.5361 -0.3960
    5TCq1    C6   74   2.011   0.523  11.770 -0.1223  0.3012 -0.2335
    5TCq1    C7   75   2.025   0.435  11.871 -0.2169 -0.7155  0.0569
    5TCq1    C8   76   2.013   0.481  11.630  0.1900  0.2907 -0.4031
    5TCq1    O4   77   1.972   0.368  11.598  0.0336 -0.1174 -0.3415
    5TCq1    C9   78   2.110   0.844  11.946  0.2623  0.7119  0.4035
    5TCq1    O5   79   2.119   0.916  11.844 -0.1130  0.3217 -0.4526
    5TCq1    O6   80   2.159   0.869  12.059 -0.3488  0.6981  0.2576
    5TCq1    H1   81   1.931   0.334  12.039  0.6686 -0.9456 -0.9274
    5TCq1    H2   82   2.147   0.639  12.107 -0.0424  0.8487 -0.5248
    5TCq1    H3   83   1.984   0.734  11.727 -0.6647  1.5071  1.0549
    5TCq1    H4   84   2.004   0.330  11.860 -0.0811 -0.8091  0.6831
    6MPD2     C   85   2.223   0.635  11.373  0.5516 -0.0517  0.6009
    6MPD2    C1   86   2.161   0.528  11.437  0.1768 -0.6127 -0.6678
    6MPD2    C2   87   2.164   0.400  11.379  0.3810 -0.0949  0.1964
    6MPD2    C3   88   2.237   0.377  11.265 -0.8117  0.4699  0.4109
    6MPD2    C4   89   2.302   0.485  11.201 -0.1600  0.0214 -0.3685
    6MPD2    C5   90   2.301   0.609  11.260  0.1426 -0.1133 -0.0267
    6MPD2     H   91   2.123   0.309  11.419  0.2351 -0.3107 -0.4404
    6MPD2    H1   92   2.366   0.467  11.115  0.8629  0.2781  0.3368
    6MPD2    H2   93   2.227   0.738  11.404  0.8239  0.0495  0.2282
    6MPD2    H3   94   2.354   0.694  11.218  2.3688 -1.4674  0.0465
    6MPD2     N   95   2.254   0.240  11.224 -0.7297 -0.1361 -0.0234
    6MPD2    H5   96   2.181   0.176  11.253 -0.8590  0.2825  0.5636
    6MPD2    N1   97   2.111   0.558  11.560 -0.1628  0.3321  0.1760
    6MPD2    H7   98   2.140   0.644  11.606 -0.1077  0.8624 -0.8395
    7TCq1    O1   99   4.314   0.733  13.754 -0.1195 -0.1753  0.8978
    7TCq1    C1  100   4.427   0.661  13.741  1.1090  0.5627  0.0085
    7TCq1    O2  101   4.536   0.712  13.726  0.2515  0.4226 -0.1547
    7TCq1    C2  102   4.400   0.516  13.752 -0.7491 -0.4334  0.4101
    7TCq1    C3  103   4.274   0.462  13.743  0.4469  0.8431  0.4240
    7TCq1    C4  104   4.263   0.324  13.754  0.2354 -0.3017 -0.4606
    7TCq1    C5  105   4.373   0.249  13.774  0.3853 -0.4082  0.1193
    7TCq1    C6  106   4.495   0.304  13.795  0.1966 -0.0674 -0.0518
    7TCq1    C7  107   4.500   0.440  13.781 -0.0965  0.5068  0.3767
    7TCq1    C8  108   4.612   0.216  13.790 -1.4410 -0.1786  0.1255
    7TCq1    O4  109   4.591   0.097  13.785  0.4690  0.3170 -0.0798
    7TCq1    C9  110   4.136   0.249  13.742  0.9823  0.2282 -0.5407
    7TCq1    O5  111   4.030   0.314  13.722 -0.5100 -0.2691  0.8792
    7TCq1    O6  112   4.138   0.123  13.747 -0.2966 -0.4455 -0.1872
    7TCq1    H1  113   4.238   0.682  13.788 -2.3769  2.6172  0.0910
    7TCq1    H2  114   4.190   0.523  13.714 -1.5176 -2.1836 -0.2710
    7TCq1    H3  115   4.358   0.142  13.770 -0.1626 -0.2841 -0.9866
    7TCq1    H4  116   4.595   0.492  13.786  0.2204  0.0349 -0.6268
    8MPD2     C  117   0.371   0.100  13.734 -0.1872 -0.1997 -0.5400
    8MPD2    C1  118   0.258   0.019  13.728 -0.1203 -0.0235  0.0550
    8MPD2    C2  119   0.130   0.074  13.739  0.2470 -0.4932  1.1146
    8MPD2    C3  120   0.116   0.211  13.762 -0.6214  0.0267  0.3093
    8MPD2    C4  121   0.230   0.285  13.782 -0.3624  0.4122  0.9166
    8MPD2    C5  122   0.355   0.233  13.768 -0.1971  0.6033 -0.4598
    8MPD2     H  123   0.042   0.011  13.727  1.2323 -1.1096 -2.9063
    8MPD2    H1  124   0.228   0.392  13.795 -0.3892  0.6912 -1.4865
    8MPD2    H2  125   0.472   0.068  13.715  0.1974  1.0017 -0.5083
    8MPD2    H3  126   0.437   0.300  13.792  0.5122 -0.7515  0.9395
    8MPD2     N  127   0.001   0.276  13.780  0.8520  0.2247  0.7351
    8MPD2    H5  128   0.007   0.377  13.771  0.0098  0.1456 -0.7607
    8MPD2    N1  129   0.286   4.622  13.699 -0.1863  0.2048  0.2369
    8MPD2    H7  130   0.382   4.595  13.682 -0.4346 -0.1445 -0.6261
    9TMC1    C1  131   2.085   3.792  12.000  0.3084 -0.2185  0.8981
    9TMC1    C2  132   2.175   3.801  12.101  0.3111  0.0873 -0.8824
    9TMC1    C3  133   2.299   3.851  12.065 -0.0969 -0.4801 -0.3055
    9TMC1    C4  134   2.110   3.831  11.873  0.1374  0.1749  0.1199
    9TMC1    C5  135   2.230   3.885  11.842 -0.4029  1.4489 -0.0792
    9TMC1    C6  136   2.330   3.898  11.938  0.0185  0.4889 -0.0792
    9TMC1     C  137   1.963   3.705  12.018 -0.5495 -0.3824  0.2170
    9TMC1     O  138   1.892   3.698  11.920  0.0341  0.4323 -0.5486
    9TMC1     H  139   2.152   3.770  12.202 -0.1047 -1.3294 -1.4117
    9TMC1    H1  140   2.029   3.815  11.802 -1.4649  0.6860  1.8311
    9TMC1    H2  141   2.424   3.945  11.912 -0.1787  1.2791  0.6007
    9TMC1    C7  142   2.281   3.875  11.707  0.0391 -0.2490 -0.1902
    9TMC1    C8  143   2.387   3.897  12.160 -0.6672 -0.1904  0.2387
    9TMC1    O1  144   2.397   3.836  11.688 -0.3452  0.0954 -0.5093
    9TMC1    O2  145   2.450   4.004  12.152  0.0379  0.1607 -0.0704
    9TMC1    O3  146   2.179   3.850  11.619 -0.2859 -0.1087 -0.4507
    9TMC1    H3  147   2.090   3.887  11.640  0.4805  1.0519  0.7740
    9TMC1    O5  148   2.376   3.825  12.276 -0.5057  0.2503 -0.0695
    9TMC1    H5  149   2.369   3.730  12.253 -2.0427  0.2605  0.3375
   10MPD2     C  150   1.749   3.509  12.112 -0.0335 -0.2046  0.1836
   10MPD2    C1  151   1.840   3.573  12.197 -0.4178  0.7362 -0.5700
   10MPD2    C2  152   1.831   3.556  12.331  0.2041 -0.0697 -0.5227
   10MPD2    C3  153   1.738   3.469  12.386 -0.0662 -0.6328  0.0893
   10MPD2    C4  154   1.654   3.405  12.302  0.5712  0.2051 -0.2285
   10MPD2    C5  155   1.649   3.425  12.169  0.2406  0.1902  0.1170
   10MPD2     H  156   1.904   3.596  12.400  0.9319 -0.0995 -1.2750
   10MPD2    H1  157   1.569   3.352  12.344 -1.5576  2.0704 -2.1654
   10MPD2    H2  158   1.751   3.517  12.003 -2.3917  0.3566  0.1743
   10MPD2    H3  159   1.578   3.381  12.100  0.5074 -1.0229  0.6244
   10MPD2     N  160   1.734   3.429  12.517  0.3816  0.1290  0.0292
   10MPD2    H5  161   1.684   3.342  12.530 -0.5929  0.2261 -3.0513
   10MPD2    N1  162   1.941   3.663  12.151  0.4608  0.3903 -0.7043
   10MPD2    H7  163   1.999   3.700  12.226  1.4650  2.4348 -2.4785
   11TCq1    O1  164   2.826   3.381  14.557  0.2566  0.0928 -0.5156
   11TCq1    C1  165   2.738   3.316  14.481 -0.7488 -0.0979 -0.6202
   11TCq1    O2  166   2.771   3.231  14.398 -0.1139  0.5452 -0.1395
   11TCq1    C2  167   2.610   3.390  14.476 -0.1875  0.2152 -0.6285
   11TCq1    C3  168   2.587   3.513  14.538  0.0741  0.0777 -0.0490
   11TCq1    C4  169   2.457   3.552  14.546 -0.1992  0.2196 -0.0782
   11TCq1    C5  170   2.355   3.473  14.511  0.1738  0.5046  0.2558
   11TCq1    C6  171   2.382   3.353  14.449  0.2651 -0.0438 -0.1063
   11TCq1    C7  172   2.511   3.311  14.429 -0.5320 -0.8577  0.1046
   11TCq1    C8  173   2.272   3.279  14.392 -0.6976  0.6429  0.9200
   11TCq1    O4  174   2.161   3.330  14.409  0.4056  0.0190 -0.2138
   11TCq1    C9  175   2.437   3.679  14.604 -0.7152  0.2938  0.0573
   11TCq1    O5  176   2.324   3.727  14.606  0.0016 -0.0988 -0.3652
   11TCq1    O6  177   2.531   3.713  14.682 -0.0965  0.2104 -0.4684
   11TCq1    H1  178   2.791   3.456  14.610 -2.9415 -1.6376 -0.2357
   11TCq1    H2  179   2.665   3.585  14.560  2.5308 -2.3097 -1.0100
   11TCq1    H3  180   2.256   3.517  14.514 -0.8988 -1.7347 -1.6235
   11TCq1    H4  181   2.539   3.222  14.375  1.9885  1.0411 -1.7573
   12MPD2     C  182   2.110   3.114  14.201 -0.1823  0.1685 -0.3788
   12MPD2    C1  183   2.231   3.075  14.250 -0.0730 -0.5497 -0.5577
   12MPD2    C2  184   2.280   2.956  14.210  0.3989 -0.2061  0.5731
   12MPD2    C3  185   2.215   2.866  14.132 -0.6083 -0.4467  0.1934
   12MPD2    C4  186   2.086   2.908  14.085  0.0724 -0.6529  0.3277
   12MPD2    C5  187   2.037   3.029  14.126  0.3866  0.2894  0.2896
   12MPD2     H  188   2.381   2.926  14.234  0.7058 -0.0835 -0.5501
   12MPD2    H1  189   2.029   2.837  14.027  1.3983 -0.5237 -1.1405
   12MPD2    H2  190   2.070   3.210  14.233  1.5224  0.7956 -0.0969
   12MPD2    H3  191   1.940   3.063  14.091  0.6638 -1.4249 -2.1337
   12MPD2     N  192   2.267   2.748  14.081 -0.3293  0.3952 -0.2264
   12MPD2    H5  193   2.201   2.702  14.019 -0.8165  0.8017 -0.0165
   12MPD2    N1  194   2.311   3.160  14.334 -0.1634  0.5962 -0.0867
   12MPD2    H7  195   2.401   3.135  14.373 -1.1146 -0.0610  1.6755
   13TCq1    O1  196   2.726   2.762  11.622  0.2465  0.0515 -0.0253
   13TCq1    C1  197   2.759   2.708  11.501  0.2855 -0.4125  0.1173
   13TCq1    O2  198   2.865   2.683  11.453 -0.0299  0.0158 -0.5793
   13TCq1    C2  199   2.646   2.745  11.413 -0.1095 -0.1469 -0.4537
   13TCq1    C3  200   2.676   2.801  11.293 -0.3834 -0.2973  0.1442
   13TCq1    C4  201   2.575   2.849  11.214 -0.1077  0.4890  0.3427
   13TCq1    C5  202   2.442   2.850  11.256 -0.2184  0.0734 -0.0677
   13TCq1    C6  203   2.419   2.795  11.379  0.5198 -0.2307 -0.6370
   13TCq1    C7  204   2.516   2.734  11.454  0.2424  0.6336 -0.1920
   13TCq1    C8  205   2.282   2.792  11.430  0.1454 -0.5789 -0.1970
   13TCq1    O4  206   2.265   2.787  11.552  0.3295  0.0364  0.6668
   13TCq1    C9  207   2.613   2.909  11.093  1.0071 -0.3911 -0.4415
   13TCq1    O5  208   2.728   2.956  11.078 -0.1499 -1.0231  0.0177
   13TCq1    O6  209   2.520   2.962  11.026 -0.1758 -0.4261 -0.0671
   13TCq1    H1  210   2.638   2.803  11.637  0.7881  0.6535  1.4145
   13TCq1    H2  211   2.776   2.815  11.252 -0.3192 -1.8771 -0.2197
   13TCq1    H3  212   2.372   2.898  11.189  1.2136 -0.4339 -1.9289
   13TCq1    H4  213   2.496   2.685  11.548 -1.0609 -1.2905 -1.4803
   14MPD2     C  214   1.987   2.773  11.217 -0.5005  0.1989  0.3462
   14MPD2    C1  215   2.054   2.800  11.333  0.0228 -0.5087 -0.7793
   14MPD2    C2  216   1.981   2.830  11.449 -0.2531 -0.0744  0.0580
   14MPD2    C3  217   1.843   2.834  11.441  0.3579 -0.5817 -0.2678
   14MPD2    C4  218   1.776   2.806  11.323  0.3039  0.3696 -0.7117
   14MPD2    C5  219   1.851   2.786  11.209 -0.4937 -0.3943  0.5870
   14MPD2     H  220   2.033   2.843  11.543 -0.4353 -0.1869  0.1728
   14MPD2    H1  221   1.668   2.819  11.318  0.2582 -0.7598 -2.8292
   14MPD2    H2  222   2.035   2.757  11.121  0.4979 -1.7535  1.1726
   14MPD2    H3  223   1.794   2.764  11.120 -0.2502  0.2741  0.2664
   14MPD2     N  224   1.774   2.857  11.559  0.3727  0.6972  0.2812
   14MPD2    H5  225   1.830   2.900  11.632  0.5879 -0.4489  0.7901
   14MPD2    N1  226   2.196   2.792  11.326  0.1286  1.1970 -0.7825
   14MPD2    H7  227   2.241   2.781  11.235 -2.2935 -0.5736 -1.7813
   15TCq1    O1  228   3.708   3.666   1.875  0.9175  0.2106 -0.1672
   15TCq1    C1  229   3.750   3.549   1.812 -0.1770  0.3611  0.5649
   15TCq1    O2  230   3.695   3.489   1.720 -0.9120  0.8230 -0.5855
   15TCq1    C2  231   3.884   3.536   1.858 -0.2280 -1.0974  0.4714
   15TCq1    C3  232   3.950   3.625   1.939 -0.1376  0.8164 -0.1119
   15TCq1    C4  233   4.073   3.591   1.989 -0.3229  0.1318  0.1103
   15TCq1    C5  234   4.136   3.472   1.957  0.8908 -0.1205  0.0865
   15TCq1    C6  235   4.075   3.391   1.866  0.0609  0.1734 -0.4245
   15TCq1    C7  236   3.951   3.423   1.818 -0.4900 -0.0385  1.0441
   15TCq1    C8  237   4.123   3.250   1.862  0.8341  0.1846  0.0511
   15TCq1    O4  238   4.111   3.187   1.756  0.7562  0.4930  0.4255
   15TCq1    C9  239   4.142   3.685   2.085 -0.1326  0.0272 -0.0571
   15TCq1    O5  240   4.095   3.798   2.091  0.3290  0.2607  0.1060
   15TCq1    O6  241   4.247   3.645   2.136  0.1001  0.1849  0.4702
   15TCq1    H1  242   3.752   3.667   1.963  1.9970  2.6064 -0.7328
   15TCq1    H2  243   3.911   3.723   1.965  0.0373  0.6166  0.8948
   15TCq1    H3  244   4.230   3.455   2.009  0.6661 -0.8844  0.2347
   15TCq1    H4  245   3.904   3.349   1.754  1.7507  0.5343 -1.2766
   16MPD2     C  246   4.287   3.093   2.149 -0.4504  0.1699  0.6978
   16MPD2    C1  247   4.227   3.091   2.030  0.2279  0.0075 -0.3754
   16MPD2    C2  248   4.248   2.984   1.947  0.1135  0.7213 -0.1060
   16MPD2    C3  249   4.338   2.883   1.981  0.4382 -0.5064  0.1547
   16MPD2    C4  250   4.403   2.896   2.101  0.7064  0.4836 -0.1596
   16MPD2    C5  251   4.369   2.993   2.190  0.7898  0.3160  0.6128
   16MPD2     H  252   4.214   2.989   1.844 -2.1335 -0.9159  0.5582
   16MPD2    H1  253   4.472   2.818   2.132  0.6633 -0.4225 -2.3767
   16MPD2    H2  254   4.269   3.174   2.219 -2.8564 -0.9352  1.3755
   16MPD2    H3  255   4.418   2.992   2.287 -0.4142  2.0303  1.2404
   16MPD2     N  256   4.367   2.779   1.891 -0.5240 -0.1098  0.3503
   16MPD2    H5  257   4.302   2.763   1.814 -1.3429  1.5262  0.7005
   16MPD2    N1  258   4.172   3.209   1.987  0.0705  0.5418 -0.4542
   16MPD2    H7  259   4.155   3.278   2.059 -1.8156  0.4551 -0.8272
   17TMC1    C1  260   1.995   2.526  11.734  0.1191  0.0218  0.7002
   17TMC1    C2  261   1.912   2.601  11.818 -0.2470 -0.5908 -0.2076
   17TMC1    C3  262   1.782   2.616  11.781 -0.0851 -0.5816 -0.2918
   17TMC1    C4  263   1.946   2.457  11.630  0.0304 -0.1823 -0.2049
   17TMC1    C5  264   1.811   2.474  11.599  0.4212  0.0711  0.5680
   17TMC1    C6  265   1.723   2.551  11.671 -0.3720  0.3138 -0.5481
   17TMC1     C  266   2.140   2.533  11.768 -0.0416  0.3429  0.2838
   17TMC1     O  267   2.167   2.566  11.879  0.3784  0.3962 -0.5292
   17TMC1     H  268   1.960   2.657  11.897  0.1771  1.6620 -2.0518
   17TMC1    H1  269   2.003   2.385  11.572 -1.8027 -1.3028 -0.6300
   17TMC1    H2  270   1.620   2.565  11.640 -0.8946 -1.0550  0.5554
   17TMC1    C7  271   1.776   2.449  11.459  0.6591  0.1936  0.1203
   17TMC1    C8  272   1.695   2.646  11.897  0.1157 -0.0738  0.1116
   17TMC1    O1  273   1.842   2.376  11.389  0.4648 -0.3297  0.4742
   17TMC1    O2  274   1.737   2.695  11.999  0.8108 -0.0277  0.3857
   17TMC1    O3  275   1.695   2.547  11.418 -0.3037 -0.6105 -0.2799
   17TMC1    H3  276   1.667   2.611  11.486  0.2639 -1.1487  0.4574
   17TMC1    O5  277   1.578   2.584  11.868  0.0011 -0.1628  0.3297
   17TMC1    H5  278   1.510   2.613  11.932 -1.4451 -0.1260 -1.2104
   18MPD2     C  279   2.410   2.417  11.809  0.2130  0.4553 -0.3595
   18MPD2    C1  280   2.352   2.437  11.684  0.0020  0.4715  0.0472
   18MPD2    C2  281   2.420   2.416  11.567  0.5386  0.5934 -0.5977
   18MPD2    C3  282   2.559   2.388  11.582  0.0304  0.0076  0.1230
   18MPD2    C4  283   2.618   2.369  11.703  0.5468 -0.0126  0.0500
   18MPD2    C5  284   2.541   2.374  11.817  0.4109 -0.1344  0.1744
   18MPD2     H  285   2.373   2.428  11.471  1.1565  1.5040 -0.7992
   18MPD2    H1  286   2.726   2.361  11.705  0.4243 -1.5929  0.0696
   18MPD2    H2  287   2.354   2.432  11.901 -0.2882 -0.9558 -0.4269
   18MPD2    H3  288   2.590   2.359  11.913  0.0323  1.6830  0.6531
   18MPD2     N  289   2.651   2.380  11.476 -0.0671  0.4117  0.0779
   18MPD2    H5  290   2.748   2.364  11.501 -0.4812 -0.1784  1.3123
   18MPD2    N1  291   2.219   2.477  11.666  0.8201 -0.0756  0.1353
   18MPD2    H7  292   2.182   2.482  11.571  0.9375  0.3427  0.1105
   19TMC2    C1  293   3.615   3.669  14.349  0.0931  0.3216  0.0394
   19TMC2    C2  294   3.519   3.759  14.305 -0.0082 -0.0948  0.6352
   19TMC2    C3  295   3.407   3.709  14.251  0.3713  0.2201  0.8939
   19TMC2    C4  296   3.601   3.535  14.340  0.9001 -0.0338 -0.0312
   19TMC2    C5  297   3.492   3.498  14.266 -0.3630 -0.8929  0.4245
   19TMC2    C6  298   3.383   3.580  14.233 -0.5413 -0.3845  0.2758
   19TMC2     C  299   3.735   3.722  14.414  0.4907  0.3678  0.4234
   19TMC2     O  300   3.751   3.841  14.396  0.2948  0.2620 -0.0926
   19TMC2     H  301   3.541   3.865  14.300 -1.3618  0.1272 -0.5911
   19TMC2    H1  302   3.677   3.467  14.377  1.9592 -0.9175 -3.8837
   19TMC2    H2  303   3.305   3.557  14.161 -0.1516  0.5078 -0.4269
   19TMC2    C7  304   3.471   3.362  14.284  0.0415  0.4965  0.6229
   19TMC2    C8  305   3.298   3.789  14.211 -0.5753  0.0778  0.0854
   19TMC2    O1  306   3.560   3.277  14.284 -0.4328  0.4859  0.0108
   19TMC2    O2  307   3.232   3.771  14.111  0.2198 -0.1802 -0.4665
   19TMC2    O5  308   3.263   3.849  14.328 -0.4648 -0.0488 -0.1846
   19TMC2    H5  309   3.333   3.857  14.396 -1.1187  1.8422  0.2681
   20MPD2     C  310   4.007   3.794  14.513  0.6800 -0.1002 -0.1566
   20MPD2    C1  311   3.944   3.671  14.537 -0.3473  0.7729  0.1951
   20MPD2    C2  312   4.003   3.586  14.633 -0.1166 -0.6310 -0.5562
   20MPD2    C3  313   4.118   3.627  14.706  0.3430  0.5762 -0.4478
   20MPD2    C4  314   4.163   3.757  14.684 -0.1564 -1.2363 -0.4027
   20MPD2    C5  315   4.114   3.828  14.581  0.6312  0.4348 -0.2608
   20MPD2     H  316   3.963   3.486  14.637  1.1491 -1.1358 -0.5382
   20MPD2    H1  317   4.242   3.803  14.742  0.5228 -0.5029 -1.8892
   20MPD2    H2  318   3.976   3.865  14.437 -1.7006 -0.0277  0.8898
   20MPD2    H3  319   4.150   3.930  14.570  1.3718  0.2721  0.5842
   20MPD2     N  320   4.166   3.560  14.822  0.3837 -0.3499 -1.0763
   20MPD2    H5  321   4.232   3.607  14.883  1.5075 -1.3459 -1.5180
   20MPD2    N1  322   3.819   3.636  14.484 -0.5465 -0.1059  0.3127
   20MPD2    H7  323   3.793   3.541  14.509  1.5498 -0.8659 -0.4560
   21TMC2    C1  324   1.239   3.231  15.223  0.2762 -0.1984  0.2277
   21TMC2    C2  325   1.347   3.151  15.257 -0.4235 -0.9105 -0.2420
   21TMC2    C3  326   1.468   3.205  15.287 -1.0843 -0.0683 -0.0672
   21TMC2    C4  327   1.255   3.368  15.224  0.0021 -0.4000  0.5189
   21TMC2    C5  328   1.376   3.419  15.256  0.4364 -0.1003  0.1723
   21TMC2    C6  329   1.482   3.343  15.299  0.1787 -0.8083 -0.0828
   21TMC2     C  330   1.121   3.172  15.146  0.3845  0.1132  0.1592
   21TMC2     O  331   1.063   3.080  15.200 -0.4270  0.6028  0.4130
   21TMC2     H  332   1.334   3.043  15.255  0.7234 -1.0917  1.8668
   21TMC2    H1  333   1.173   3.432  15.196 -0.1397 -0.4119  0.9022
   21TMC2    H2  334   1.566   3.381  15.356 -0.5685  1.9411 -0.8288
   21TMC2    C7  335   1.387   3.561  15.269 -0.1433  0.1139  0.3368
   21TMC2    C8  336   1.564   3.133  15.361  0.4965 -0.7752  0.0412
   21TMC2    O1  337   1.462   3.601  15.355 -0.0491  0.3263 -0.4173
   21TMC2    O2  338   1.538   3.025  15.413 -0.6581 -0.3675  0.2484
   21TMC2    O5  339   1.673   3.160  15.286  0.2332 -0.1269 -0.3105
   21TMC2    H5  340   1.653   3.227  15.217  0.4280 -0.7289 -0.9434
   22MPD2     C  341   1.279   3.530  14.833 -0.0567  0.7336  0.3991
   22MPD2    C1  342   1.350   3.418  14.867  0.0056  0.2807 -0.0396
   22MPD2    C2  343   1.284   3.318  14.932 -0.1003 -0.4919 -0.3428
   22MPD2    C3  344   1.147   3.334  14.964  0.9916 -0.1719  0.0090
   22MPD2    C4  345   1.070   3.436  14.910 -0.0412  1.3619 -0.2202
   22MPD2    C5  346   1.143   3.533  14.843 -0.4353  0.4266  0.2004
   22MPD2     H  347   1.343   3.236  14.972 -2.2398 -1.0001  1.7425
   22MPD2    H1  348   0.963   3.450  14.920 -0.1274 -0.6494  1.6387
   22MPD2    H2  349   1.321   3.614  14.779 -2.6786  1.4030 -0.6261
   22MPD2    H3  350   1.093   3.624  14.812 -2.0877 -0.6072 -0.1682
   22MPD2     N  351   1.074   3.246  15.042 -0.4641  0.8149  0.4452
   22MPD2    H5  352   0.986   3.219  14.999 -0.5162  1.2428  0.2855
   22MPD2    N1  353   1.484   3.400  14.844  0.6895  0.4058  0.1462
   22MPD2    H7  354   1.528   3.310  14.860  0.7022  0.4666  0.4587
   23TMC2    C1  355   3.063   0.069  14.785  0.3360  0.1746  0.5958
   23TMC2    C2  356   3.000   0.188  14.791  0.1918 -0.2010 -0.5621
   23TMC2    C3  357   2.867   0.188  14.746  0.0504 -0.1281 -0.4697
   23TMC2    C4  358   2.998   4.689  14.759 -0.2518  0.4174 -0.0365
   23TMC2    C5  359   2.864   4.695  14.723 -0.5229  0.1901 -0.3444
   23TMC2    C6  360   2.799   0.080  14.705 -0.1417 -0.1032  0.5608
   23TMC2     C  361   3.158   0.055  14.892 -0.8562 -0.0682 -0.2088
   23TMC2     O  362   3.140   4.703  14.972  0.8930 -0.0501  0.3011
   23TMC2     H  363   3.049   0.283  14.809  0.1809 -0.8225  2.7942
   23TMC2    H1  364   3.053   4.596  14.763  1.1177  1.2331  0.0089
   23TMC2    H2  365   2.699   0.102  14.671 -0.1486 -0.0743  0.5999
   23TMC2    C7  366   2.777   4.577  14.722 -0.0156  0.1553 -0.5052
   23TMC2    C8  367   2.793   0.311  14.749  0.1914  0.0030  0.1149
   23TMC2    O1  368   2.827   4.464  14.730  0.5272  0.1875 -0.8705
   23TMC2    O2  369   2.677   0.300  14.789  0.3411  0.1418 -0.0128
   23TMC2    O5  370   2.830   0.382  14.639  0.0784 -0.2358 -0.4096
   23TMC2    H5  371   2.924   0.385  14.613  0.0609  0.6681 -0.3507
   24MPD2     C  372   3.545   0.261  15.168  0.3094 -1.0188  0.0183
   24MPD2    C1  373   3.461   0.154  15.188  0.0297  0.4500  0.2881
   24MPD2    C2  374   3.362   0.122  15.101 -0.3255  0.3711 -0.7004
   24MPD2    C3  375   3.340   0.193  14.989 -0.6227 -0.4187 -0.4001
   24MPD2    C4  376   3.414   0.312  14.978  1.1923 -0.6957  0.3537
   24MPD2    C5  377   3.516   0.343  15.059  0.5664 -0.0200  0.4236
   24MPD2     H  378   3.302   0.032  15.114  0.4278  0.2245  1.7802
   24MPD2    H1  379   3.390   0.384  14.901 -0.3910 -2.1279 -0.4814
   24MPD2    H2  380   3.627   0.288  15.234 -0.3643  4.2745 -1.2865
   24MPD2    H3  381   3.585   0.423  15.036  1.2353 -0.5534  0.5756
   24MPD2     N  382   3.243   0.161  14.884  0.9479  0.0124  0.2538
   24MPD2    H5  383   3.247   0.216  14.799 -3.2801  0.6777  0.5122
   24MPD2    N1  384   3.498   0.067  15.297 -0.5814 -0.1535 -0.1184
   24MPD2    H7  385   3.570   0.104  15.358  0.9669 -1.4066 -1.1894
   25TMC2    C1  386   2.391   1.808  11.545  0.4608  0.3442 -0.5807
   25TMC2    C2  387   2.491   1.863  11.618  0.2352 -0.3520 -0.3552
   25TMC2    C3  388   2.462   1.921  11.738 -0.3966  0.3908  0.3477
   25TMC2    C4  389   2.262   1.799  11.579 -0.1813 -0.4496 -0.6348
   25TMC2    C5  390   2.232   1.849  11.705  0.4005  0.4092  0.0427
   25TMC2    C6  391   2.331   1.912  11.782 -0.3990 -0.2721 -0.4084
   25TMC2     C  392   2.442   1.756  11.418  0.5665 -0.3261  0.6474
   25TMC2     O  393   2.552   1.789  11.382  0.8865 -0.3396 -0.2625
   25TMC2     H  394   2.596   1.851  11.594  1.2028  0.8223  3.3274
   25TMC2    H1  395   2.185   1.767  11.511 -0.5091  1.6738 -1.2521
   25TMC2    H2  396   2.298   1.947  11.879  1.1519 -0.5627  0.2365
   25TMC2    C7  397   2.091   1.869  11.755 -0.1730 -0.4117 -0.4325
   25TMC2    C8  398   2.545   2.013  11.810 -0.0967 -0.1240  0.1825
   25TMC2    O1  399   2.084   1.916  11.868  0.8556 -0.2524 -0.5485
   25TMC2    O2  400   2.526   2.043  11.927  0.6474 -0.0208 -0.2653
   25TMC2    O5  401   2.644   2.047  11.730  0.1265 -0.3755  0.3216
   25TMC2    H5  402   2.646   1.999  11.645 -0.0145  0.5615 -0.2089
   26MPD2     C  403   2.433   1.460  11.001  0.4992  0.2845 -0.2367
   26MPD2    C1  404   2.327   1.418  11.087 -0.0687  0.3522 -0.8316
   26MPD2    C2  405   2.296   1.497  11.195 -0.1225  0.2106 -0.0628
   26MPD2    C3  406   2.379   1.604  11.229  0.4691  1.0317  0.8828
   26MPD2    C4  407   2.489   1.635  11.149 -0.4103 -0.1878  0.2217
   26MPD2    C5  408   2.510   1.568  11.035  0.5181  0.1266  0.0072
   26MPD2     H  409   2.206   1.475  11.252 -1.1792  1.7376 -1.1470
   26MPD2    H1  410   2.557   1.717  11.169 -1.2120  0.6358 -0.4263
   26MPD2    H2  411   2.452   1.401  10.911  1.1322 -0.3173  0.2942
   26MPD2    H3  412   2.592   1.593  10.969 -0.2779  0.3504 -0.8954
   26MPD2     N  413   2.353   1.672  11.348 -0.6957 -0.7491 -0.4028
   26MPD2    H5  414   2.275   1.641  11.405  1.0930 -0.2400  2.3053
   26MPD2    N1  415   2.246   1.303  11.057  0.1549 -0.4214  0.1317
   26MPD2    H7  416   2.261   1.242  10.978  3.3259 -1.2499  1.3963
   27TMC2    C1  417   0.489   4.035  12.174 -0.4039 -0.1641  0.0132
   27TMC2    C2  418   0.573   4.052  12.074  0.9858 -0.1393  0.7813
   27TMC2    C3  419   0.660   4.155  12.078  0.0483 -1.3649  0.0733
   27TMC2    C4  420   0.492   4.124  12.282  0.5700 -0.1776 -0.0026
   27TMC2    C5  421   0.562   4.239  12.269 -0.5293  0.3421  0.9800
   27TMC2    C6  422   0.647   4.256  12.164  0.2219 -0.1708 -0.5291
   27TMC2     C  423   0.425   3.905  12.204  0.6681  0.6171 -0.1487
   27TMC2     O  424   0.475   3.811  12.148 -0.5232  0.1352 -0.2394
   27TMC2     H  425   0.578   3.970  12.003  0.8338  0.3605  0.2012
   27TMC2    H1  426   0.418   4.121  12.361  0.7291  0.9562  0.1903
   27TMC2    H2  427   0.713   4.341  12.153 -0.5549  0.5758  0.5075
   27TMC2    C7  428   0.629   4.269  12.398  0.3402 -0.8963 -0.2991
   27TMC2    C8  429   0.718   4.200  11.956 -0.2346  0.5269 -0.5249
   27TMC2    O1  430   0.621   4.184  12.484 -0.0642 -0.0143 -0.4856
   27TMC2    O2  431   0.673   4.187  11.843 -0.1444 -0.0044  0.3978
   27TMC2    O5  432   0.826   4.268  11.982 -0.2148 -0.3826 -0.6232
   27TMC2    H5  433   0.865   4.254  12.071 -0.4174  2.2789 -0.1339
   28MPD2     C  434   0.057   3.634  12.414 -0.1973 -0.0365 -0.1238
   28MPD2    C1  435   0.055   3.758  12.479  0.6443  0.4042 -0.6342
   28MPD2    C2  436   0.151   3.846  12.442  0.0272 -0.3174  0.4558
   28MPD2    C3  437   0.242   3.805  12.341  0.1825  0.5100 -0.0241
   28MPD2    C4  438   0.237   3.685  12.272  0.0831 -0.1446 -0.2964
   28MPD2    C5  439   0.140   3.598  12.314  0.1372 -0.0600  0.3000
   28MPD2     H  440   0.150   3.949  12.477 -0.4032 -0.5452  1.1202
   28MPD2    H1  441   0.299   3.650  12.190  1.1556  2.7680 -0.7289
   28MPD2    H2  442   4.718   3.562  12.444 -0.8106  0.0038 -1.6035
   28MPD2    H3  443   0.113   3.510  12.256 -4.2113  0.6432  1.2907
   28MPD2     N  444   0.331   3.911  12.304  0.0238  0.1464 -0.4632
   28MPD2    H5  445   0.311   4.004  12.340 -0.6382  1.0891 -3.3245
   28MPD2    N1  446   4.691   3.780  12.574 -0.4793 -0.1460 -0.3157
   28MPD2    H7  447   4.610   3.719  12.565 -1.2976  0.9773 -0.5387
   29TMC2    C1  448   0.069   1.852  14.740 -0.0753 -0.3021  0.1037
   29TMC2    C2  449   0.064   1.810  14.874  0.4920  0.4418 -0.7174
   29TMC2    C3  450   0.007   1.897  14.965 -0.2367  0.0887 -0.8026
   29TMC2    C4  451   0.013   1.974  14.698 -0.7906  0.2282  0.2780
   29TMC2    C5  452   4.683   2.052  14.794 -0.5427  0.1917 -0.2466
   29TMC2    C6  453   4.692   2.020  14.931 -0.6582 -0.3201 -0.9261
   29TMC2     C  454   0.069   1.736  14.650  0.0567 -0.0246  0.5976
   29TMC2     O  455   0.122   1.632  14.696 -0.3758 -0.0434 -0.7802
   29TMC2     H  456   0.115   1.721  14.909 -0.1405  0.3720  0.0192
   29TMC2    H1  457   0.022   2.023  14.602  1.1159 -0.2396  0.2079
   29TMC2    H2  458   4.646   2.085  15.004  1.7051 -0.5913  0.7997
   29TMC2    C7  459   4.682   2.192  14.781 -0.3746  0.5609  0.0127
   29TMC2    C8  460   0.047   1.890  15.099  0.4707  1.0859 -0.0266
   29TMC2    O1  461   4.572   2.246  14.765  0.2095 -0.4956 -0.7596
   29TMC2    O2  462   0.158   1.881  15.151  0.4417  0.2154  0.5048
   29TMC2    O5  463   4.672   1.922  15.172  0.4110 -0.2576 -0.7109
   29TMC2    H5  464   4.589   1.923  15.120 -0.7861 -1.1004  1.2158
   30MPD2     C  465   4.563   1.438  14.308  0.5465 -0.4900  0.3903
   30MPD2    C1  466   4.668   1.410  14.394  0.9169  0.2418 -0.0349
   30MPD2    C2  467   4.714   1.512  14.477  0.1461 -0.1458 -0.5944
   30MPD2    C3  468   4.657   1.639  14.471  0.1625 -0.3434  0.4538
   30MPD2    C4  469   4.549   1.668  14.392  0.5690 -0.3965 -0.0367
   30MPD2    C5  470   4.507   1.565  14.307 -0.3011 -0.3217  0.1108
   30MPD2     H  471   0.066   1.497  14.536 -0.2834 -0.7362 -0.0992
   30MPD2    H1  472   4.514   1.770  14.386 -0.8184 -0.8922 -0.3049
   30MPD2    H2  473   4.537   1.357  14.241 -4.6345  0.7513  0.8857
   30MPD2    H3  474   4.444   1.587  14.222  0.2201  4.1851  0.8492
   30MPD2     N  475   4.703   1.742  14.554  0.3151 -0.1358  0.5685
   30MPD2    H5  476   4.648   1.827  14.562 -0.9529 -0.7128 -1.8333
   30MPD2    N1  477   0.005   1.287  14.384 -0.1997  0.1358 -0.4744
   30MPD2    H7  478   0.092   1.287  14.436 -0.4870  0.0427  0.0069
   31TMC2    C1  479   2.838   0.932  15.310 -0.7586 -0.3106  0.3451
   31TMC2    C2  480   2.714   0.970  15.362  0.0108 -0.1133  0.3062
   31TMC2    C3  481   2.668   0.911  15.476 -0.2865  0.6915 -0.3481
   31TMC2    C4  482   2.913   0.844  15.379 -0.1497  0.1597 -1.1438
   31TMC2    C5  483   2.859   0.788  15.488 -0.5509 -0.4960 -1.1068
   31TMC2    C6  484   2.739   0.820  15.550 -0.5191  0.5082 -0.4726
   31TMC2     C  485   2.879   0.970  15.178  0.7520 -0.3374 -0.4797
   31TMC2     O  486   2.826   1.062  15.124  0.5109 -1.0608 -0.3032
   31TMC2     H  487   2.659   1.052  15.317 -1.8298 -0.1122  2.5521
   31TMC2    H1  488   3.015   0.821  15.349  0.0862 -1.6850  1.0421
   31TMC2    H2  489   2.713   0.755  15.633  0.5824  1.0558  0.2990
   31TMC2    C7  490   2.930   0.674  15.546  0.1276 -0.5120  0.5392
   31TMC2    C8  491   2.532   0.938  15.529 -0.1389 -0.5130  0.2261
   31TMC2    O1  492   2.923   0.661  15.669 -0.1066 -0.8702 -0.3281
   31TMC2    O2  493   2.497   0.905  15.642 -0.2750  0.3325 -0.0785
   31TMC2    O5  494   2.486   1.058  15.489  0.2033 -0.2870 -0.1211
   31TMC2    H5  495   2.497   1.083  15.395 -1.7654 -2.0985 -0.8350
   32MPD2     C  496   3.187   0.983  14.772  0.2080  0.9944  0.3237
   32MPD2    C1  497   3.062   1.031  14.785 -0.3629 -0.2182  0.3708
   32MPD2    C2  498   2.992   1.008  14.902 -0.9369  0.3276  0.3964
   32MPD2    C3  499   3.048   0.946  15.009 -0.2026 -0.3395  0.4969
   32MPD2    C4  500   3.180   0.909  15.000  0.0529 -0.0897 -0.3488
   32MPD2    C5  501   3.251   0.930  14.879  0.5794 -1.0623  0.4821
   32MPD2     H  502   2.888   1.038  14.909 -0.1707  2.7784  1.2536
   32MPD2    H1  503   3.229   0.868  15.087 -2.3741 -1.5340  0.3572
   32MPD2    H2  504   3.237   0.993  14.677 -1.5500  1.3074 -0.5666
   32MPD2    H3  505   3.356   0.902  14.874  0.5429 -1.2974  1.0454
   32MPD2     N  506   2.994   0.920  15.129 -0.1171 -0.3141  0.3733
   32MPD2    H5  507   3.039   0.859  15.196  1.8562 -0.2618 -0.9219
   32MPD2    N1  508   2.999   1.082  14.671  0.5933  0.3862  0.2649
   32MPD2    H7  509   3.061   1.093  14.591  2.3190  2.8121  1.9102
   33TMC2    C1  510   2.681   2.981  10.464 -0.4324 -0.2429  0.4477
   33TMC2    C2  511   2.548   2.963  10.424 -0.1213  0.6026 -0.4701
   33TMC2    C3  512   2.486   3.066  10.374  0.3466 -0.7637 -0.1054
   33TMC2    C4  513   2.750   3.096  10.458 -0.0535 -0.2728  0.0221
   33TMC2    C5  514   2.679   3.203  10.403 -0.4299  0.1823  0.1700
   33TMC2    C6  515   2.547   3.190  10.372  0.2890  0.4914  0.1507
   33TMC2     C  516   2.737   2.889  10.541 -0.8356  0.3339  0.3551
   33TMC2     O  517   2.688   2.782  10.553  0.6062 -0.8282  0.1133
   33TMC2     H  518   2.494   2.872  10.450 -1.6759  1.1416 -1.8710
   33TMC2    H1  519   2.858   3.104  10.456 -0.1865  1.3759 -0.2465
   33TMC2    H2  520   2.497   3.261  10.308 -0.0491 -1.4820 -1.8056
   33TMC2    C7  521   2.749   3.311  10.343  0.5890 -1.2901  0.3982
   33TMC2    C8  522   2.371   3.051  10.288  0.7411 -0.0323 -1.0953
   33TMC2    O1  523   2.869   3.296  10.328  0.0500  0.1457  0.1649
   33TMC2    O2  524   2.352   2.953  10.221 -0.6942 -0.3149 -0.4798
   33TMC2    O5  525   2.278   3.145  10.319 -0.0862  0.1558 -0.5164
   33TMC2    H5  526   2.297   3.204  10.395 -0.1748 -0.8872  0.3210
   34MPD2     C  527   3.121   2.724  10.834 -0.2518  0.7759  0.4299
   34MPD2    C1  528   2.997   2.673  10.826 -0.3125  0.4480  0.3515
   34MPD2    C2  529   2.908   2.732  10.735 -0.1002 -0.0852 -0.0345
   34MPD2    C3  530   2.943   2.851  10.670  0.7995 -0.0161  0.4336
   34MPD2    C4  531   3.066   2.902  10.696  0.0905 -0.2520 -0.3128
   34MPD2    C5  532   3.162   2.842  10.776 -0.3545 -0.6692 -1.1152
   34MPD2     H  533   2.804   2.700  10.733  0.2641 -1.3029  0.5051
   34MPD2    H1  534   3.095   3.001  10.660  2.8902 -0.2623  1.8954
   34MPD2    H2  535   3.192   2.690  10.909  1.8089 -0.2282 -1.9732
   34MPD2    H3  536   3.264   2.878  10.775 -1.0629  1.4852  3.1321
   34MPD2     N  537   2.855   2.928  10.587  0.7492 -0.4746 -0.3524
   34MPD2    H5  538   2.897   3.010  10.545  1.5295 -1.0403 -0.6741
   34MPD2    N1  539   2.971   2.565  10.906  0.6859  0.5703 -0.6120
   34MPD2    H7  540   3.053   2.537  10.959  1.1033  1.3801 -0.8387
   35TMC2    C1  541   3.475   4.017  11.578 -0.2063  0.7731  0.6522
   35TMC2    C2  542   3.394   4.118  11.552 -0.5972 -0.1374  0.2997
   35TMC2    C3  543   3.266   4.108  11.604  0.2542 -0.3043 -0.7726
   35TMC2    C4  544   3.437   3.906  11.649 -0.5516 -0.4359 -0.7740
   35TMC2    C5  545   3.303   3.905  11.696  1.2727 -0.3207  0.1331
   35TMC2    C6  546   3.213   3.996  11.658  0.2147 -0.0222 -0.3439
   35TMC2     C  547   3.611   4.012  11.522  0.0994 -0.2709  0.5157
   35TMC2     O  548   3.632   4.066  11.414 -0.0766  0.6490  0.6739
   35TMC2     H  549   3.424   4.194  11.480 -0.3892  1.4774  2.1017
   35TMC2    H1  550   3.503   3.820  11.658 -1.2126 -0.9696 -0.9808
   35TMC2    H2  551   3.111   3.986  11.690  0.8501  1.3775  2.1452
   35TMC2    C7  552   3.262   3.776  11.750 -0.5833  0.9240  0.4557
   35TMC2    C8  553   3.168   4.213  11.564 -0.2545  0.0623 -0.0959
   35TMC2    O1  554   3.347   3.713  11.814 -0.2257  0.2531 -0.0138
   35TMC2    O2  555   3.201   4.330  11.570  0.5917  0.3656 -0.6547
   35TMC2    O5  556   3.042   4.158  11.562 -0.0353  0.1887 -0.0116
   35TMC2    H5  557   3.038   4.061  11.575 -1.2346  0.4226  1.3296
   36MPD2     C  558   4.114   3.990  11.616  0.7880  0.9396  1.5889
   36MPD2    C1  559   4.049   3.926  11.719  0.3080 -0.5699 -1.2700
   36MPD2    C2  560   3.915   3.909  11.716 -0.4413 -0.4797  0.6918
   36MPD2    C3  561   3.836   3.956  11.607  0.9953  0.3242  0.1872
   36MPD2    C4  562   3.903   4.021  11.504  0.4482 -0.6023 -0.3438
   36MPD2    C5  563   4.038   4.030  11.506  0.4610  0.3387 -0.7234
   36MPD2     H  564   3.859   3.869  11.800 -1.3133 -0.9581 -0.1109
   36MPD2    H1  565   3.855   4.056  11.413 -0.9530 -1.6319 -0.0031
   36MPD2    H2  566   4.220   4.012  11.625  0.5994  2.3831  0.2900
   36MPD2    H3  567   4.079   4.064  11.412  0.7814  0.6195 -0.4845
   36MPD2     N  568   3.696   3.959  11.617 -0.0903  0.3678 -0.7017
   36MPD2    H5  569   3.653   3.928  11.704  3.3149 -2.8463 -0.1451
   36MPD2    N1  570   4.130   3.905  11.835 -0.0120 -0.1345 -0.3046
   36MPD2    H7  571   4.225   3.940  11.826 -0.2319  0.4106 -0.5606
   37TMC2    C1  572   1.624   4.454  11.689  0.1580  0.2233  0.0194
   37TMC2    C2  573   1.535   4.408  11.595 -0.2892 -0.1738  0.0917
   37TMC2    C3  574   1.586   4.366  11.476  0.5400 -0.2580  0.8374
   37TMC2    C4  575   1.764   4.475  11.670 -0.0076 -0.0445 -0.0044
   37TMC2    C5  576   1.801   4.426  11.548  0.7904  0.3810 -0.5774
   37TMC2    C6  577   1.719   4.363  11.457  0.3202 -1.1571 -0.1162
   37TMC2     C  578   1.577   4.435  11.824 -0.8559 -0.5617  0.4700
   37TMC2     O  579   1.458   4.421  11.851  0.7450 -0.1456  0.8814
   37TMC2     H  580   1.430   4.396  11.620 -0.0178  0.0129  1.3371
   37TMC2    H1  581   1.824   4.530  11.741  0.3551 -0.6590  0.1714
   37TMC2    H2  582   1.749   4.344  11.355 -1.1909  1.8205 -1.1227
   37TMC2    C7  583   1.943   4.444  11.512 -0.2580 -0.5320  0.4711
   37TMC2    C8  584   1.492   4.330  11.376 -0.7467 -0.0153 -0.2801
   37TMC2    O1  585   2.003   4.540  11.554 -0.3381 -0.5675  0.1242
   37TMC2    O2  586   1.525   4.244  11.297 -0.0801  0.2490 -0.1138
   37TMC2    O5  587   1.432   4.449  11.353 -1.0061 -0.0048 -0.6420
   37TMC2    H5  588   1.438   4.521  11.418 -0.3370 -0.0916 -0.6124
   38MPD2     C  589   1.702   4.415  12.315 -0.1764  0.2517  0.6657
   38MPD2    C1  590   1.821   4.425  12.247 -0.1350 -0.7571  0.1440
   38MPD2    C2  591   1.813   4.422  12.109  0.4307 -0.0188  0.3335
   38MPD2    C3  592   1.687   4.411  12.047 -0.2055 -0.0136  0.3388
   38MPD2    C4  593   1.571   4.420  12.123  0.1556  0.3751 -0.7435
   38MPD2    C5  594   1.579   4.425  12.256  0.0517 -0.2227 -0.2869
   38MPD2     H  595   1.905   4.423  12.052 -0.4040 -0.4405 -1.0337
   38MPD2    H1  596   1.471   4.406  12.086 -0.0280  0.3369 -0.2397
   38MPD2    H2  597   1.699   4.414  12.424 -4.0759 -0.1695  0.5592
   38MPD2    H3  598   1.486   4.422  12.312  1.6521 -0.3436  2.3669
   38MPD2     N  599   1.684   4.428  11.906  0.0788 -0.3430 -0.1786
   38MPD2    H5  600   1.779   4.438  11.870  0.0847  0.7051  0.1174
   38MPD2    N1  601   1.954   4.429  12.307 -0.7809 -0.1863  0.4639
   38MPD2    H7  602   2.030   4.429  12.241 -0.6457 -1.6178  0.6140
   39TMC2    C1  603   4.535   2.341   2.080 -0.0412  0.2165  0.1617
   39TMC2    C2  604   4.467   2.434   2.155  0.5094  0.1711  0.4278
   39TMC2    C3  605   4.542   2.508   2.242  0.9220 -0.7126  0.1443
   39TMC2    C4  606   4.671   2.329   2.080 -0.4998  0.3686 -0.5972
   39TMC2    C5  607   0.002   2.416   2.163 -0.5430  0.0403 -0.0192
   39TMC2    C6  608   4.681   2.501   2.246 -0.0512  0.2213 -0.0797
   39TMC2     C  609   4.458   2.278   1.972 -0.2196  0.3349 -0.0787
   39TMC2     O  610   4.341   2.309   1.971  0.1394 -0.2396 -0.2144
   39TMC2     H  611   4.359   2.441   2.151  0.5681  1.8642  1.9753
   39TMC2    H1  612   4.710   2.262   2.004  3.1225 -0.2245  1.8106
   39TMC2    H2  613   0.001   2.570   2.306  0.3330 -0.0574 -0.1243
   39TMC2    C7  614   0.139   2.448   2.145 -0.2630  0.2642 -0.0019
   39TMC2    C8  615   4.472   2.570   2.353 -0.3116 -0.1713 -0.3854
   39TMC2    O1  616   0.212   2.481   2.239 -0.1721 -0.3522  0.3033
   39TMC2    O2  617   4.363   2.545   2.398 -0.2299 -0.4643  0.8095
   39TMC2    O5  618   4.529   2.691   2.362  0.0844 -0.5227 -0.7771
   39TMC2    H5  619   4.590   2.709   2.288  0.8019  1.6422  0.3417
   40MPD2     C  620   4.567   2.036   1.700 -0.2024  0.3401  0.1863
   40MPD2    C1  621   4.485   2.130   1.760 -0.0155  0.8373 -0.1708
   40MPD2    C2  622   4.358   2.158   1.707  0.0312 -0.4126 -0.4559
   40MPD2    C3  623   4.319   2.098   1.588 -0.5942  0.6353  0.0245
   40MPD2    C4  624   4.410   2.009   1.524 -0.5666  0.2925  0.3244
   40MPD2    C5  625   4.525   1.972   1.588  0.1068  0.2934 -1.0040
   40MPD2     H  626   4.290   2.220   1.764  3.0677  0.6501  2.0181
   40MPD2    H1  627   4.370   1.953   1.440  2.3258  1.1885 -1.6422
   40MPD2    H2  628   4.667   2.018   1.737 -0.1380 -1.7228 -0.9946
   40MPD2    H3  629   4.597   1.896   1.561  0.2718 -0.2398  0.9541
   40MPD2     N  630   4.188   2.111   1.533 -0.0727 -0.6763  0.1721
   40MPD2    H5  631   4.172   2.071   1.441  0.4726 -0.1133 -0.1664
   40MPD2    N1  632   4.528   2.197   1.881 -0.5521  0.6863  0.1307
   40MPD2    H7  633   4.622   2.169   1.907 -0.4436 -1.0263 -2.0418
   41TMC2    C1  634   3.801   0.032  13.539  0.1955  0.3756  0.1357
   41TMC2    C2  635   3.811   0.167  13.553 -0.2760 -0.2479  0.0693
   41TMC2    C3  636   3.837   0.239  13.439 -0.2430  0.8575  0.4221
   41TMC2    C4  637   3.815   4.712  13.419 -0.0316  0.2620 -0.2220
   41TMC2    C5  638   3.848   0.053  13.312 -0.8300  0.2502  0.3699
   41TMC2    C6  639   3.863   0.187  13.310  0.4439 -0.4376  0.5786
   41TMC2     C  640   3.772   4.687  13.657 -0.1037 -0.1871 -0.3579
   41TMC2     O  641   3.835   4.582  13.665 -0.1982  0.1230 -0.4737
   41TMC2     H  642   3.791   0.214  13.649 -0.6819  0.4782 -0.3636
   41TMC2    H1  643   3.801   4.606  13.406 -1.7910  0.4281  0.3178
   41TMC2    H2  644   3.895   0.240  13.220  2.1218  0.5406  1.7369
   41TMC2    C7  645   3.787   0.003  13.188 -0.5659 -0.0291 -0.1543
   41TMC2    C8  646   3.862   0.380  13.445 -0.3258 -0.3915 -0.7768
   41TMC2    O1  647   3.803   0.080  13.096  0.3801  0.6748  0.4574
   41TMC2    O2  648   3.841   0.443  13.344  0.3733  0.2147  0.1729
   41TMC2    O5  649   3.873   0.426  13.572  0.0914 -0.8744  0.2839
   41TMC2    H5  650   3.923   0.364  13.629 -0.4178 -0.3422  1.3067
   42MPD2     C  651   3.738   4.600  13.945  0.1248  0.0636 -0.0528
   42MPD2    C1  652   3.658   4.689  13.880  0.0432  0.5006 -0.4315
   42MPD2    C2  653   3.550   0.006  13.950 -0.9129  0.3934 -0.1839
   42MPD2    C3  654   3.523   4.708  14.086  0.0174 -0.1635 -0.4886
   42MPD2    C4  655   3.603   4.621  14.144 -0.6998  0.0455 -0.4396
   42MPD2    C5  656   3.702   4.563  14.074  0.2210  0.4817 -0.6377
   42MPD2     H  657   3.489   0.081  13.901 -1.6442 -1.5009 -2.1749
   42MPD2    H1  658   3.586   4.581  14.243  1.0261 -0.9119 -0.5242
   42MPD2    H2  659   3.821   4.550  13.895 -0.0026  0.8277 -1.0310
   42MPD2    H3  660   3.759   4.486  14.125 -0.4088  1.7826  2.0086
   42MPD2     N  661   3.410   0.015  14.162 -0.4009 -0.1751  0.2680
   42MPD2    H5  662   3.405   4.735  14.261  0.4719 -0.9768  0.1761
   42MPD2    N1  663   3.689   0.002  13.750 -0.5268 -0.4420  0.5957
   42MPD2    H7  664   3.628   0.070  13.707  0.9698  0.6819  0.2638
   43TMC2    C1  665   0.165   3.587   0.723  0.6638 -0.4939 -0.2698
   43TMC2    C2  666   0.047   3.664   0.714  1.0783  0.7117  0.3253
   43TMC2    C3  667   0.031   3.753   0.816  0.2139  0.7697  0.3907
   43TMC2    C4  668   0.257   3.611   0.819  0.6166  0.5025 -0.9030
   43TMC2    C5  669   0.241   3.710   0.914  0.2547 -0.0159 -0.1619
   43TMC2    C6  670   0.120   3.778   0.920 -0.0976 -0.4024 -0.3462
   43TMC2     C  671   0.194   3.480   0.630 -0.2961  0.0811  0.0812
   43TMC2     O  672   0.269   3.394   0.673  0.3672  1.0938 -0.4539
   43TMC2     H  673   4.703   3.641   0.647 -0.3597 -2.1793  3.1096
   43TMC2    H1  674   0.346   3.550   0.830 -0.7341 -0.8459  2.6472
   43TMC2    H2  675   0.094   3.847   1.000  1.5615 -1.7108  1.3222
   43TMC2    C7  676   0.346   3.750   1.009  0.1227 -0.1475  0.2745
   43TMC2    C8  677   4.634   3.803   0.829 -0.3614 -1.3731 -0.2034
   43TMC2    O1  678   0.443   3.678   0.991  0.3094 -0.7004  0.3688
   43TMC2    O2  679   4.549   3.764   0.750 -0.2302 -0.0931 -0.1174
   43TMC2    O5  680   4.622   3.916   0.899  0.1327 -0.1774 -0.4855
   43TMC2    H5  681   4.709   3.951   0.927  0.4991  0.0187 -1.8680
   44MPD2     C  682   0.314   3.305   0.178  0.5895  0.0604 -0.0588
   44MPD2    C1  683   0.293   3.229   0.300 -0.2411  0.8054 -0.6108
   44MPD2    C2  684   0.249   3.302   0.403  0.5473 -0.5178  0.7908
   44MPD2    C3  685   0.207   3.438   0.394  0.2481 -0.7773 -0.4271
   44MPD2    C4  686   0.215   3.504   0.274 -0.0421  0.0440  0.5726
   44MPD2    C5  687   0.263   3.434   0.167  0.1603  0.0772  0.5372
   44MPD2     H  688   0.235   3.244   0.494 -0.8063  1.0675  1.5927
   44MPD2    H1  689   0.178   3.606   0.266 -1.8599 -0.6466  0.1735
   44MPD2    H2  690   0.354   3.270   0.083  0.1793  1.8379 -0.8977
   44MPD2    H3  691   0.271   3.488   0.073  1.0585  0.9020  1.0925
   44MPD2     N  692   0.161   3.515   0.499  0.1916  0.2832 -0.3228
   44MPD2    H5  693   0.115   3.604   0.478 -1.5290 -0.7090 -0.7400
   44MPD2    N1  694   0.339   3.096   0.320 -0.1216 -0.3621 -0.1872
   44MPD2    H7  695   0.339   3.062   0.416  0.3605  0.8892  0.2487
   45TMC2    C1  696   1.525   4.014   9.723 -0.3587 -1.1054 -0.1086
   45TMC2    C2  697   1.607   3.953   9.630 -0.3449  0.2502  0.2341
   45TMC2    C3  698   1.700   4.033   9.571  0.1628  0.7825 -0.9441
   45TMC2    C4  699   1.553   4.145   9.765  0.2355  0.7468 -0.2649
   45TMC2    C5  700   1.638   4.216   9.687  0.4452 -0.0186  0.2678
   45TMC2    C6  701   1.714   4.162   9.591  0.2704 -0.1431  0.6074
   45TMC2     C  702   1.407   3.956   9.768  0.3537 -0.2648 -0.0787
   45TMC2     O  703   1.416   3.838   9.800 -0.1280 -0.8104  0.1165
   45TMC2     H  704   1.589   3.854   9.590  0.1114 -0.4273  1.7056
   45TMC2    H1  705   1.496   4.200   9.840  1.8151  1.4171  0.4645
   45TMC2    H2  706   1.783   4.225   9.535 -0.3523  1.1730  1.3397
   45TMC2    C7  707   1.667   4.353   9.737  0.3736 -0.0634 -0.5399
   45TMC2    C8  708   1.794   3.972   9.479  0.1863  0.6818 -0.3801
   45TMC2    O1  709   1.639   4.373   9.855  0.4258 -0.2366 -0.1010
   45TMC2    O2  710   1.860   4.041   9.398 -0.7815 -0.2773 -0.1064
   45TMC2    O5  711   1.809   3.832   9.508 -0.4320  0.4186 -0.5472
   45TMC2    H5  712   1.752   3.812   9.585  0.9292  0.3180  0.4322
   46MPD2     C  713   1.125   3.868   9.782 -0.0543  0.8974  0.1708
   46MPD2    C1  714   1.171   3.976   9.712 -0.3255  0.0197 -0.1407
   46MPD2    C2  715   1.080   4.042   9.630 -0.1271  0.3913  0.6217
   46MPD2    C3  716   0.957   3.985   9.605 -0.1776 -0.9776  0.6867
   46MPD2    C4  717   0.913   3.872   9.669  0.4120  0.1984  0.4114
   46MPD2    C5  718   0.995   3.810   9.765  0.0890  0.3341  0.2426
   46MPD2     H  719   1.105   4.138   9.586 -2.5427  0.5878 -0.2693
   46MPD2    H1  720   0.815   3.829   9.652  1.3885 -3.1561  3.2189
   46MPD2    H2  721   1.189   3.828   9.860 -0.2516  1.0810  0.4286
   46MPD2    H3  722   0.968   3.721   9.819 -2.5588 -0.0301 -1.6756
   46MPD2     N  723   0.870   4.061   9.521 -0.2952 -0.2408  0.2347
   46MPD2    H5  724   0.908   4.152   9.500  1.6989 -1.1972 -0.2372
   46MPD2    N1  725   1.298   4.029   9.725 -0.1532 -0.4414 -0.3443
   46MPD2    H7  726   1.328   4.117   9.683 -3.1628  1.0644  0.6782
   47TMC2    C1  727   3.558   0.255   9.533 -0.5686 -0.4050  0.0046
   47TMC2    C2  728   3.533   0.159   9.436  0.4473  1.0349  0.7693
   47TMC2    C3  729   3.407   0.153   9.389  0.7373  0.0415  0.7301
   47TMC2    C4  730   3.453   0.316   9.604  0.8485 -0.3643 -0.1891
   47TMC2    C5  731   3.327   0.304   9.548  0.0974  0.7837 -0.1639
   47TMC2    C6  732   3.305   0.226   9.438 -0.7784  0.2130 -0.0831
   47TMC2     C  733   3.681   0.253   9.604  0.5880 -0.0962 -0.8515
   47TMC2     O  734   3.703   0.338   9.686 -0.4620 -0.2664  0.5025
   47TMC2     H  735   3.617   0.113   9.385  2.1076  1.0385  3.5111
   47TMC2    H1  736   3.477   0.379   9.689 -1.9596 -0.3524  0.5747
   47TMC2    H2  737   3.208   0.224   9.391  0.1509  0.3847 -1.9934
   47TMC2    C7  738   3.215   0.361   9.625 -0.3593 -0.4714 -0.5027
   47TMC2    C8  739   3.383   0.085   9.266  0.6297 -0.2115 -0.6454
   47TMC2    O1  740   3.105   0.373   9.573 -0.9767  0.8460  0.4317
   47TMC2    O2  741   3.292   0.106   9.186  0.5677 -0.1320 -0.1664
   47TMC2    O5  742   3.449   4.704   9.275  0.3173 -0.4343  0.5639
   47TMC2    H5  743   3.513   4.698   9.349  0.6222 -2.2634  0.1474
   48MPD2     C  744   3.958   0.212   9.711  0.0673 -0.0934  0.3840
   48MPD2    C1  745   3.892   0.123   9.626 -0.6351  0.4797 -0.2448
   48MPD2    C2  746   3.958   0.005   9.602 -0.1168  1.0509 -0.2649
   48MPD2    C3  747   4.078   4.710   9.666  0.0494  0.2495  0.4025
   48MPD2    C4  748   4.132   0.055   9.759 -0.2182 -0.0622  0.4365
   48MPD2    C5  749   4.063   0.170   9.783 -0.2881 -0.5677  0.9138
   48MPD2     H  750   3.916   4.671   9.531 -0.3257  0.6177  0.2918
   48MPD2    H1  751   4.226   0.040   9.811  0.2351 -1.2610 -0.7361
   48MPD2    H2  752   3.918   0.309   9.740 -0.6192 -0.6694  1.3440
   48MPD2    H3  753   4.105   0.240   9.855  0.0344  1.6849 -1.4385
   48MPD2     N  754   4.127   4.580   9.637  0.0692  0.2088  0.3723
   48MPD2    H5  755   4.098   4.523   9.559  2.1756 -1.6849  0.9627
   48MPD2    N1  756   3.761   0.146   9.573  0.4984  0.5015 -0.2453
   48MPD2    H7  757   3.715   0.071   9.524  0.0792  0.8541 -0.3970
   49TMC2    C1  758   1.763   2.445  10.404  0.9993  0.2891 -0.1648
   49TMC2    C2  759   1.642   2.384  10.392 -0.3895 -1.0064 -0.1258
   49TMC2    C3  760   1.595   2.375  10.261  0.4804  0.4925  0.0666
   49TMC2    C4  761   1.841   2.479  10.298 -1.0360  0.4539 -0.7460
   49TMC2    C5  762   1.782   2.482  10.174  0.2702  0.0821  0.3813
   49TMC2    C6  763   1.654   2.444  10.156 -0.5160 -0.3598 -0.0086
   49TMC2     C  764   1.825   2.443  10.539 -0.1181  1.2339  0.7089
   49TMC2     O  765   1.947   2.437  10.535  0.6527 -0.1894 -0.5135
   49TMC2     H  766   1.595   2.331  10.474 -1.8274 -1.4978 -1.2525
   49TMC2    H1  767   1.948   2.489  10.308 -1.0176  2.5682 -3.1244
   49TMC2    H2  768   1.604   2.458  10.060 -0.9747 -0.9651  0.1474
   49TMC2    C7  769   1.856   2.524  10.057 -0.4518  0.1319  0.4954
   49TMC2    C8  770   1.469   2.302  10.239  0.7249 -0.5117  0.7344
   49TMC2    O1  771   1.814   2.477   9.950  0.2491 -0.0822 -0.3246
   49TMC2    O2  772   1.382   2.288  10.322  0.1825  0.1875  0.5477
   49TMC2    O5  773   1.460   2.279  10.107  0.2911 -0.3385  0.1633
   49TMC2    H5  774   1.547   2.253  10.070  0.2698  1.1259 -0.8649
   50MPD2     C  775   1.898   2.474  10.828 -0.5501 -0.2132  0.0590
   50MPD2    C1  776   1.768   2.472  10.779  0.6864  0.6653 -0.3674
   50MPD2    C2  777   1.663   2.472  10.868 -0.0941  0.2788 -0.5526
   50MPD2    C3  778   1.686   2.478  11.005 -0.0844 -0.2115  0.2168
   50MPD2    C4  779   1.811   2.482  11.054 -0.1093  0.3126 -0.2448
   50MPD2    C5  780   1.921   2.479  10.961 -0.0482 -0.0485  0.4423
   50MPD2     H  781   1.567   2.445  10.825 -0.4935  0.6225  0.1273
   50MPD2    H1  782   1.836   2.474  11.159  0.1562  1.6231 -0.2072
   50MPD2    H2  783   1.980   2.478  10.757 -0.7662 -2.0415 -0.2761
   50MPD2    H3  784   2.022   2.480  11.001 -0.2273  0.3792  0.8814
   50MPD2     N  785   1.573   2.500  11.088 -0.9163  0.1878  0.7369
   50MPD2    H5  786   1.597   2.506  11.186  0.1287 -2.3643  0.6531
   50MPD2    N1  787   1.735   2.457  10.643 -0.0804  0.0686 -0.1248
   50MPD2    H7  788   1.640   2.472  10.609  0.3923  2.5414 -0.3528
   51TMC2    C1  789   3.384   0.823   1.541  0.3022 -0.0273  0.3160
   51TMC2    C2  790   3.398   0.819   1.678 -0.1036  0.2750  0.5052
   51TMC2    C3  791   3.477   0.913   1.740 -0.2521 -0.6017  0.5329
   51TMC2    C4  792   3.451   0.918   1.474  0.2317  0.4345 -0.8501
   51TMC2    C5  793   3.522   1.015   1.535 -0.6740  0.9156  0.5180
   51TMC2    C6  794   3.538   1.015   1.667 -0.0686 -0.4121 -0.0486
   51TMC2     C  795   3.273   0.757   1.476  0.6312  0.2137  0.0568
   51TMC2     O  796   3.248   0.793   1.362 -0.4041 -0.1697 -0.0934
   51TMC2     H  797   3.378   0.731   1.739 -2.0027  1.7338  2.0084
   51TMC2    H1  798   3.431   0.934   1.368  0.3046  3.0194 -0.4771
   51TMC2    H2  799   3.603   1.078   1.726  0.5358 -1.7595  0.7186
   51TMC2    C7  800   3.573   1.131   1.457  0.7180 -0.2479  0.6794
   51TMC2    C8  801   3.490   0.918   1.889 -0.1113 -0.0760 -0.0215
   51TMC2    O1  802   3.559   1.129   1.336  0.6495 -0.3967 -0.4227
   51TMC2    O2  803   3.575   0.996   1.928  0.0039  0.0824 -0.5797
   51TMC2    O5  804   3.360   0.900   1.940 -0.2110 -0.4301 -0.0645
   51TMC2    H5  805   3.295   0.849   1.887 -2.6290  1.2414  1.2347
   52MPD2     C  806   2.853   0.461   1.450  0.0468 -0.2752  0.7631
   52MPD2    C1  807   2.916   0.543   1.351 -0.2736 -0.2918 -0.1522
   52MPD2    C2  808   3.031   0.611   1.381  0.0529 -0.5162  0.3743
   52MPD2    C3  809   3.086   0.598   1.509 -0.7860  0.1612 -0.3879
   52MPD2    C4  810   3.016   0.520   1.600  0.6151  0.2377 -0.6290
   52MPD2    C5  811   2.896   0.464   1.577  0.0132 -0.3563  0.0782
   52MPD2     H  812   3.078   0.664   1.299  2.6371 -0.3139  2.0117
   52MPD2    H1  813   3.059   0.508   1.699  0.7699  0.5772 -0.6550
   52MPD2    H2  814   2.763   0.403   1.434 -1.2268  1.5779  1.2035
   52MPD2    H3  815   2.847   0.407   1.656  0.4224  0.8588  1.2103
   52MPD2     N  816   3.205   0.667   1.554 -0.1268 -0.2048 -0.2301
   52MPD2    H5  817   3.221   0.657   1.654  1.4913 -0.5632 -0.5242
   52MPD2    N1  818   2.883   0.548   1.212  0.3677  0.0540 -0.0037
   52MPD2    H7  819   2.928   0.610   1.147 -0.4624  0.8643  0.1945
   53TMC2    C1  820   2.653   4.512  11.635  0.7270 -0.2193  1.1566
   53TMC2    C2  821   2.782   4.488  11.670 -0.5940 -0.4477 -0.1851
   53TMC2    C3  822   2.834   4.545  11.780  0.5193  0.2572 -0.3655
   53TMC2    C4  823   2.571   4.584  11.722  0.5934 -0.3981  0.9301
   53TMC2    C5  824   2.636   4.659  11.816  0.3376 -0.3396 -0.7232
   53TMC2    C6  825   2.768   4.650  11.846  0.5881  0.2633 -0.0372
   53TMC2     C  826   2.593   4.401  11.567 -0.4272 -0.2145  1.0132
   53TMC2     O  827   2.643   4.292  11.572  1.0249  0.1026 -0.2681
   53TMC2     H  828   2.853   4.428  11.613  0.6151  2.8163 -2.1053
   53TMC2    H1  829   2.463   4.595  11.715  0.8227  1.2457 -0.0803
   53TMC2    H2  830   2.823   4.698  11.925 -1.6225  0.7973  1.1655
   53TMC2    C7  831   2.543   4.687  11.925 -0.3467 -0.7817  0.2267
   53TMC2    C8  832   2.980   4.545  11.800  0.0656  0.0492  0.0895
   53TMC2    O1  833   2.429   4.641  11.926 -0.1942  0.0091  0.6278
   53TMC2    O2  834   3.035   4.629  11.868 -0.0483  0.0365 -0.2647
   53TMC2    O5  835   3.016   4.417  11.803  0.1667 -0.1163  0.1394
   53TMC2    H5  836   2.941   4.360  11.777 -0.2152  0.7193 -0.5917
   54MPD2     C  837   2.388   4.202  11.488 -0.4760  0.2212  0.2193
   54MPD2    C1  838   2.362   4.336  11.501 -0.4056  0.2919  0.3811
   54MPD2    C2  839   2.235   4.383  11.485 -0.3518 -0.2539  0.2598
   54MPD2    C3  840   2.130   4.295  11.457  0.3252 -0.3240  0.5361
   54MPD2    C4  841   2.158   4.160  11.450 -0.2746  0.3308  0.2547
   54MPD2    C5  842   2.287   4.117  11.456 -0.1594  0.8296  0.6829
   54MPD2     H  843   2.215   4.490  11.486  0.8730 -0.0684  3.8992
   54MPD2    H1  844   2.086   4.081  11.435  0.1746 -0.4979  2.5116
   54MPD2    H2  845   2.486   4.159  11.504 -0.9202 -0.8480  0.0515
   54MPD2    H3  846   2.304   4.010  11.462  1.0336  0.8432 -2.2729
   54MPD2     N  847   1.992   4.329  11.462  0.0805 -0.1603 -0.4171
   54MPD2    H5  848   1.933   4.249  11.442  0.3237 -0.4596  0.0796
   54MPD2    N1  849   2.460   4.427  11.535  0.4246  0.9084  0.2063
   54MPD2    H7  850   2.437   4.525  11.549  1.2860  1.3476 -1.5252
   55TMC2    C1  851   3.075   2.894   0.340  0.2165  0.0302  0.1671
   55TMC2    C2  852   3.168   2.823   0.266 -0.2632  1.0561 -0.1429
   55TMC2    C3  853   3.177   2.683   0.283  0.0997  0.4441  0.4542
   55TMC2    C4  854   2.984   2.826   0.421 -0.1324 -0.2684  1.1295
   55TMC2    C5  855   2.994   2.690   0.431 -0.2480 -0.2720 -0.2985
   55TMC2    C6  856   3.085   2.620   0.364 -0.3890 -0.4741 -0.0107
   55TMC2     C  857   3.097   3.039   0.356 -0.3791 -0.1414 -0.1661
   55TMC2     O  858   3.032   3.093   0.448  0.3155 -0.1286  0.5548
   55TMC2     H  859   3.242   2.872   0.205  1.6768 -0.5218  0.9371
   55TMC2    H1  860   2.889   2.872   0.447 -0.0122 -0.2227  1.4780
   55TMC2    H2  861   3.091   2.513   0.382  0.8880 -0.4099  0.0059
   55TMC2    C7  862   2.948   2.631   0.556  1.0174 -0.0912 -0.0396
   55TMC2    C8  863   3.222   2.595   0.174  0.2609  0.2068 -0.1647
   55TMC2    O1  864   2.972   2.512   0.574 -0.0095  0.4604  0.5056
   55TMC2    O2  865   3.245   2.481   0.199  0.6345 -0.0303  0.1994
   55TMC2    O5  866   3.187   2.666   0.060  0.1745 -0.0810 -0.5975
   55TMC2    H5  867   3.151   2.756   0.078 -2.6385 -1.0171 -1.4881
   56MPD2     C  868   3.263   3.276   0.119  0.2924  0.0219 -0.1279
   56MPD2    C1  869   3.181   3.236   0.219  0.1043 -0.1210 -0.5411
   56MPD2    C2  870   3.111   3.329   0.290 -0.6239 -0.5334  0.3678
   56MPD2    C3  871   3.120   3.457   0.251  0.2197  0.2547 -0.5935
   56MPD2    C4  872   3.214   3.502   0.156  0.3072 -0.2573  0.3406
   56MPD2    C5  873   3.288   3.406   0.089  0.3161  0.2653  0.0230
   56MPD2     H  874   3.030   3.303   0.357  0.2751  0.6501  1.9021
   56MPD2    H1  875   3.231   3.608   0.136 -0.4240 -0.4125 -1.0439
   56MPD2    H2  876   3.322   3.204   0.063  1.4183  1.4516 -0.7947
   56MPD2    H3  877   3.362   3.425   0.012  1.1700 -1.8483  0.3300
   56MPD2     N  878   3.034   3.545   0.313  0.1840 -0.2794 -0.1870
   56MPD2    H5  879   2.977   3.517   0.393  1.6953 -0.3075  0.8732
   56MPD2    N1  880   3.166   3.097   0.253  0.7233  0.3377  0.0175
   56MPD2    H7  881   3.214   3.037   0.187  1.8875 -1.5245  2.6056
   57TMC2    C1  882   2.187   3.322  13.830  0.0364 -0.7275 -0.0438
   57TMC2    C2  883   2.171   3.194  13.788 -0.2947 -0.0159  0.2838
   57TMC2    C3  884   2.276   3.139  13.718 -0.1304 -0.5158  0.7678
   57TMC2    C4  885   2.303   3.390  13.794 -0.1722 -0.3621 -0.3095
   57TMC2    C5  886   2.401   3.331  13.724 -0.0267 -0.5653 -0.0371
   57TMC2    C6  887   2.390   3.201  13.681 -0.5720 -0.0647  0.6593
   57TMC2     C  888   2.083   3.379  13.914 -0.3278 -0.1906  0.1764
   57TMC2     O  889   2.114   3.464  13.996 -0.1282  0.3242 -0.4269
   57TMC2     H  890   2.099   3.127  13.833 -1.0514 -0.5102 -1.6818
   57TMC2    H1  891   2.304   3.497  13.811  2.9061 -0.2703 -0.9455
   57TMC2    H2  892   2.458   3.151  13.613 -1.8189 -0.0588 -0.5810
   57TMC2    C7  893   2.516   3.412  13.710  0.6952 -0.6979 -0.3999
   57TMC2    C8  894   2.241   3.006  13.679  0.4526  0.6028  0.2867
   57TMC2    O1  895   2.522   3.528  13.742 -0.5765  0.6026  0.7773
   57TMC2    O2  896   2.331   2.922  13.672  0.1412 -0.9869  0.0974
   57TMC2    O5  897   2.120   3.000  13.624 -0.2757 -0.4527 -0.7264
   57TMC2    H5  898   2.064   3.080  13.627  0.9760  0.4053 -0.4562
   58MPD2     C  899   1.606   3.315  14.106  0.0237  0.0953 -0.3839
   58MPD2    C1  900   1.716   3.375  14.165 -0.1818  0.2047 -0.5708
   58MPD2    C2  901   1.833   3.388  14.089 -0.2147 -0.1189 -0.1896
   58MPD2    C3  902   1.847   3.326  13.967 -0.0277 -0.3487 -0.0704
   58MPD2    C4  903   1.733   3.273  13.913 -0.3048 -0.5044 -0.6272
   58MPD2    C5  904   1.617   3.273  13.976 -0.1574  0.1595 -0.2116
   58MPD2     H  905   1.914   3.452  14.121 -0.1779 -0.7689  1.0115
   58MPD2    H1  906   1.731   3.229  13.814  1.9927  0.2927 -1.0203
   58MPD2    H2  907   1.506   3.315  14.146  0.1812  1.1186 -0.0052
   58MPD2    H3  908   1.529   3.226  13.935  0.0839 -1.1322  0.7599
   58MPD2     N  909   1.961   3.320  13.887  0.1906 -0.4871  0.2788
   58MPD2    H5  910   1.954   3.264  13.802  0.5662 -0.6449  0.3504
   58MPD2    N1  911   1.706   3.428  14.299  0.3622 -0.3474 -0.1660
   58MPD2    H7  912   1.793   3.467  14.335  0.9969  0.2384 -2.3152
   59TMC2    C1  913   0.096   3.368  12.925 -0.5375 -0.5687  0.2041
   59TMC2    C2  914   0.124   3.285  13.027  0.1207 -0.1320 -0.7488
   59TMC2    C3  915   0.045   3.174  13.026 -0.2387 -0.0793 -0.4990
   59TMC2    C4  916   4.730   3.352  12.835 -0.3449 -0.4913 -0.2805
   59TMC2    C5  917   4.654   3.238  12.840 -0.1899 -0.6415  0.2262
   59TMC2    C6  918   4.684   3.142  12.932  0.0169  0.3792 -0.6191
   59TMC2     C  919   0.184   3.483  12.902  0.2733  0.0201 -0.2895
   59TMC2     O  920   0.198   3.523  12.789 -0.0496  0.6822  0.2956
   59TMC2     H  921   0.212   3.292  13.089  0.1929  4.3023 -1.3074
   59TMC2    H1  922   4.719   3.438  12.769  1.0545 -0.8850 -1.0131
   59TMC2    H2  923   4.624   3.055  12.959 -1.4713  0.7095 -2.8333
   59TMC2    C7  924   4.523   3.233  12.780 -0.0529  0.0345 -0.6295
   59TMC2    C8  925   0.038   3.101  13.152  0.8238  0.9405  0.2619
   59TMC2    O1  926   4.460   3.136  12.820  0.4568  0.5185  0.3988
   59TMC2    O2  927   0.021   2.979  13.161 -0.1732 -0.4289 -0.1533
   59TMC2    O5  928   4.709   3.195  13.222  0.2166 -0.0901 -0.0399
   59TMC2    H5  929   4.721   3.284  13.184  1.2100 -0.7385 -1.2661
   60MPD2     C  930   0.422   3.667  12.941 -0.3927 -0.3952  0.3693
   60MPD2    C1  931   0.344   3.624  13.040  0.2651 -0.1206 -0.0278
   60MPD2    C2  932   0.393   3.652  13.172 -0.6898 -0.2081 -0.3286
   60MPD2    C3  933   0.491   3.750  13.187  0.1349  0.1941  0.6609
   60MPD2    C4  934   0.551   3.811  13.075 -0.4447  0.1551 -0.3222
   60MPD2    C5  935   0.519   3.759  12.952 -0.2819  0.8594  0.3188
   60MPD2     H  936   0.342   3.607  13.257 -2.8952 -1.7133 -2.4566
   60MPD2    H1  937   0.629   3.886  13.082 -0.8154  0.3004  2.5017
   60MPD2    H2  938   0.397   3.640  12.839 -0.4683  1.1446 -0.0167
   60MPD2    H3  939   0.571   3.782  12.860  0.2623 -2.2142 -0.1660
   60MPD2     N  940   0.543   3.800  13.309  0.8530  0.5786  0.5631
   60MPD2    H5  941   0.615   3.870  13.297  2.3790 -0.9953  0.5965
   60MPD2    N1  942   0.234   3.537  13.022 -0.1381  0.1716  0.0656
   60MPD2    H7  943   0.188   3.502  13.105  0.0794  0.2389  0.2140
   61TMC2    C1  944   3.929   0.271  15.871 -0.4460  0.1854 -0.1952
   61TMC2    C2  945   3.918   0.217  15.998  0.0630  0.0063  0.0375
   61TMC2    C3  946   3.926   0.306  16.104 -0.3741 -0.2406 -0.2923
   61TMC2    C4  947   3.947   0.403  15.859  0.0962  0.3083  0.0963
   61TMC2    C5  948   3.972   0.483  15.962 -0.9024 -0.0709 -0.0351
   61TMC2    C6  949   3.949   0.440  16.088 -0.2010  0.5546  0.1336
   61TMC2     C  950   3.956   0.187  15.761  0.4468  0.4444  0.6866
   61TMC2     O  951   3.938   0.065  15.774  0.8603 -0.1027 -0.1076
   61TMC2     H  952   3.891   0.112  16.003 -0.5194  0.1849  0.5810
   61TMC2    H1  953   3.969   0.444  15.761  2.8301  0.9211  0.9807
   61TMC2    H2  954   3.946   0.506  16.174 -1.1888  0.4063  0.2169
   61TMC2    C7  955   4.007   0.625  15.941 -0.5941  0.2153  0.1789
   61TMC2    C8  956   3.981   0.252  16.226 -0.0662 -0.3202 -0.1131
   61TMC2    O1  957   3.990   0.674  15.830  0.5732 -0.6474  0.0132
   61TMC2    O2  958   4.020   0.137  16.232  0.0761 -0.3175  0.3886
   61TMC2    O5  959   3.908   0.305  16.325 -0.1545  0.5348 -0.2642
   61TMC2    H5  960   3.871   0.395  16.308 -2.9486 -0.3793  1.0147
   62MPD2     C  961   4.113   0.057  15.547  0.1385  0.5400  0.8935
   62MPD2    C1  962   4.055   0.184  15.539 -0.1253 -0.4736 -0.8231
   62MPD2    C2  963   4.062   0.253  15.421  0.3280  0.3081 -0.6460
   62MPD2    C3  964   4.117   0.191  15.312  0.5467  0.0856 -0.1892
   62MPD2    C4  965   4.177   0.071  15.320  0.2126  0.5616  0.3925
   62MPD2    C5  966   4.170   0.001  15.437 -0.0622  0.1759  0.5412
   62MPD2     H  967   4.037   0.359  15.415  2.6185  0.9192  0.6235
   62MPD2    H1  968   4.236   0.019  15.244 -0.7038 -0.5657  0.4454
   62MPD2    H2  969   4.128   0.012  15.644  0.0480  0.4505  0.8664
   62MPD2    H3  970   4.230   4.648  15.448  0.6728  0.6240  0.2071
   62MPD2     N  971   4.123   0.252  15.185  0.0629  0.0722  0.3302
   62MPD2    H5  972   4.180   0.211  15.112 -1.9037 -2.0175 -0.0337
   62MPD2    N1  973   3.983   0.248  15.644 -0.1451 -0.3396 -0.3345
   62MPD2    H7  974   3.969   0.347  15.627  1.1005 -0.4610 -2.1237
   63TMC2    C1  975   3.842   4.704  11.067  0.3622 -0.0005  0.0836
   63TMC2    C2  976   3.942   4.718  11.162 -0.8954  0.5418  0.6085
   63TMC2    C3  977   4.070   0.006  11.120 -0.1101  0.3353 -0.0250
   63TMC2    C4  978   3.867   4.728  10.931  0.0432 -0.0626  0.4570
   63TMC2    C5  979   3.995   0.018  10.898 -0.2844 -0.2385 -0.5094
   63TMC2    C6  980   4.100   0.025  10.986 -0.2130  0.6676  0.2609
   63TMC2     C  981   3.704   4.671  11.103 -0.6509  0.1361 -0.6481
   63TMC2     O  982   3.652   4.709  11.209  0.1140 -0.8989 -0.2266
   63TMC2     H  983   3.909   4.724  11.265 -1.1023 -2.6093  0.7326
   63TMC2    H1  984   3.786   4.723  10.860 -0.4414  1.1258  0.9154
   63TMC2    H2  985   4.203   0.037  10.955 -0.3122  1.0599  0.0966
   63TMC2    C7  986   4.002   0.055  10.752 -0.0456 -0.0149  0.7983
   63TMC2    C8  987   4.176   0.026  11.216  0.0217  0.4055  0.3053
   63TMC2    O1  988   3.902   0.051  10.684  0.2772  0.2550 -0.1274
   63TMC2    O2  989   4.285   0.074  11.184 -0.1409  0.3303  0.4208
   63TMC2    O5  990   4.148   4.711  11.338 -0.2128  0.0161  0.2917
   63TMC2    H5  991   4.059   4.670  11.346  0.1478 -0.9618 -0.6639
   64MPD2     C  992   3.262   4.448  10.992 -0.3271  0.5837  0.2945
   64MPD2    C1  993   3.366   4.378  10.938  1.2005  0.7729 -0.6638
   64MPD2    C2  994   3.497   4.429  10.948 -0.6032  0.2227 -0.6514
   64MPD2    C3  995   3.517   4.541  11.015  0.1511 -0.3241 -0.5996
   64MPD2    C4  996   3.411   4.614  11.073  0.0666 -0.3560  0.1968
   64MPD2    C5  997   3.283   4.567  11.057  0.1602 -1.0321  0.4351
   64MPD2     H  998   3.587   4.398  10.897  0.2166  1.1099  0.2647
   64MPD2    H1  999   3.422   4.711  11.119  2.0871 -0.4334 -0.1465
   64MPD2    H2 1000   3.157   4.427  10.975 -0.2416  2.4703 -2.5559
   64MPD2    H3 1001   3.198   4.621  11.097  0.1436  1.6323 -3.1932
   64MPD2     N 1002   3.649   4.587  11.011 -0.2251 -0.1139 -0.0181
   64MPD2    H5 1003   3.712   4.541  10.946 -0.5236  0.3557 -0.6494
   64MPD2    N1 1004   3.351   4.259  10.859  0.7132 -0.4578 -0.2833
   64MPD2    H7 1005   3.432   4.224  10.809  1.3460 -0.2340  0.5665
   65TMC2    C1 1006   4.490   0.330  15.587  0.6490  0.3480 -0.5346
   65TMC2    C2 1007   4.448   0.311  15.453 -0.0613  0.6723 -0.4642
   65TMC2    C3 1008   4.460   0.418  15.369 -0.8789  0.9787 -0.0291
   65TMC2    C4 1009   4.532   0.450  15.635 -0.2750  0.2342 -0.3379
   65TMC2    C5 1010   4.553   0.546  15.544  0.7908  0.2966 -0.1891
   65TMC2    C6 1011   4.516   0.534  15.410 -0.2836 -0.4847  0.2250
   65TMC2     C 1012   4.476   0.226  15.682 -0.1483 -0.1376 -0.9450
   65TMC2     O 1013   4.481   0.251  15.804 -0.4562 -0.0217 -0.4482
   65TMC2     H 1014   4.391   0.227  15.417 -0.4270  0.4393  0.6780
   65TMC2    H1 1015   4.556   0.467  15.740  0.5222  0.4126 -0.5469
   65TMC2    H2 1016   4.539   0.614  15.340  1.4624  0.0139  1.3545
   65TMC2    C7 1017   4.584   0.684  15.588 -0.8035  0.0148  0.6391
   65TMC2    C8 1018   4.430   0.418  15.230  0.5261 -0.0196  0.9132
   65TMC2    O1 1019   4.595   0.766  15.497  0.6671 -0.0815  0.5986
   65TMC2    O2 1020   4.431   0.316  15.162  1.2278 -0.3995 -0.4891
   65TMC2    O5 1021   4.351   0.531  15.220 -0.0846 -0.4783 -0.0354
   65TMC2    H5 1022   4.350   0.585  15.303 -1.1086 -0.2384 -0.2038
   66MPD2     C 1023   4.375   4.706  15.800  0.4313  0.1643 -0.4260
   66MPD2    C1 1024   4.434   4.720  15.677  0.7755 -0.3850  0.1146
   66MPD2    C2 1025   4.459   4.606  15.607  0.1023  0.0955 -0.4393
   66MPD2    C3 1026   4.436   4.479  15.656  0.6080  0.8255  0.3541
   66MPD2    C4 1027   4.378   4.462  15.777 -0.3318 -0.1836  0.2512
   66MPD2    C5 1028   4.352   4.576  15.846  0.3426  0.7380 -0.2338
   66MPD2     H 1029   4.495   4.613  15.505 -0.3001 -2.4863 -0.7600
   66MPD2    H1 1030   4.358   4.365  15.821  0.1041 -0.5508 -0.3667
   66MPD2    H2 1031   4.353   0.052  15.866 -0.4991 -0.6945  0.3497
   66MPD2    H3 1032   4.313   4.571  15.947  3.0856  1.7093  0.8785
   66MPD2     N 1033   4.470   4.362  15.582 -0.0255  0.4530 -0.1870
   66MPD2    H5 1034   4.438   4.276  15.626 -1.7716  1.2440  0.0755
   66MPD2    N1 1035   4.456   0.104  15.613 -0.8370  0.2805 -0.0966
   66MPD2    H7 1036   4.486   0.104  15.516  1.2264  2.6596  0.5262
   67TMC2    C1 1037   0.273   4.107  14.614 -0.2270  0.5048  0.4152
   67TMC2    C2 1038   0.201   4.222  14.624  0.1763 -0.1767 -0.0014
   67TMC2    C3 1039   0.255   4.325  14.696 -0.2931 -0.7282  0.8824
   67TMC2    C4 1040   0.381   4.085  14.697 -0.3873 -0.6117  0.3362
   67TMC2    C5 1041   0.416   4.180  14.783  0.0070  0.3246 -0.0519
   67TMC2    C6 1042   0.362   4.306  14.777 -0.1306 -0.5514  0.4053
   67TMC2     C 1043   0.218   3.993  14.553  0.6827  0.0923 -0.0233
   67TMC2     O 1044   0.246   3.883  14.599 -0.3296  0.0218  0.5432
   67TMC2     H 1045   0.112   4.241  14.565  1.8729  2.9140 -1.5932
   67TMC2    H1 1046   0.436   3.992  14.692 -0.4505 -0.7746  2.6411
   67TMC2    H2 1047   0.408   4.384  14.836  1.3812  0.9880 -2.7922
   67TMC2    C7 1048   0.525   4.146  14.871  0.1696  0.2542  0.0448
   67TMC2    C8 1049   0.171   4.441  14.707 -0.6807 -0.3273  0.2403
   67TMC2    O1 1050   0.620   4.083  14.825 -0.3689 -0.2881  0.3057
   67TMC2    O2 1051   0.053   4.441  14.668 -0.7790 -0.2855  0.3806
   67TMC2    O5 1052   0.204   4.512  14.821 -1.0010 -0.0335 -0.2264
   67TMC2    H5 1053   0.298   4.507  14.849 -1.1497  1.5130  0.5115
   68MPD2     C 1054   0.049   3.822  14.361  0.2609  0.5221 -0.1322
   68MPD2    C1 1055   0.070   3.961  14.353 -0.5584  0.2394  0.5684
   68MPD2    C2 1056   0.001   4.037  14.262  0.3545  0.3607 -0.6186
   68MPD2    C3 1057   4.636   3.976  14.183 -0.1403  0.3240 -0.1488
   68MPD2    C4 1058   4.618   3.840  14.193  0.4566  0.2821  0.3375
   68MPD2    C5 1059   4.696   3.765  14.277  0.2255 -0.1399  0.2736
   68MPD2     H 1060   0.006   4.144  14.274  0.2703  0.3247 -0.2644
   68MPD2    H1 1061   4.541   3.787  14.139  0.0873  0.3307  0.8208
   68MPD2    H2 1062   0.101   3.764  14.436 -1.3605 -2.6658 -1.4669
   68MPD2    H3 1063   4.677   3.660  14.295  2.0983  0.0319  3.1931
   68MPD2     N 1064   4.555   4.046  14.085  0.4569 -0.3949 -0.5432
   68MPD2    H5 1065   4.473   3.991  14.061 -0.1886  0.8754 -1.2243
   68MPD2    N1 1066   0.157   4.037  14.436 -0.3868 -0.1389  0.7277
   68MPD2    H7 1067   0.153   4.137  14.422 -0.9412 -0.6147 -2.4195
   69TMC2    C1 1068   2.560   4.600  12.562  0.3008  0.4237  0.0887
   69TMC2    C2 1069   2.505   4.697  12.643  0.5192 -0.4683  0.8500
   69TMC2    C3 1070   2.586   0.066  12.663  0.0658  0.1723  0.4482
   69TMC2    C4 1071   2.677   4.613  12.491  0.6461 -0.1072 -0.7041
   69TMC2    C5 1072   2.745   4.734  12.510  0.0691 -0.3675 -0.4832
   69TMC2    C6 1073   2.713   0.082  12.611  0.1219  0.0439  1.0517
   69TMC2     C 1074   2.501   4.466  12.575  0.2456  0.0272  0.0428
   69TMC2     O 1075   2.407   4.457  12.651  0.2080 -0.2052 -0.4418
   69TMC2     H 1076   2.422   4.677  12.711 -0.1866 -1.1122 -0.1917
   69TMC2    H1 1077   2.720   4.535  12.430  0.9731  0.7360 -1.5695
   69TMC2    H2 1078   2.770   0.172  12.632 -0.0524  0.7733 -1.4986
   69TMC2    C7 1079   2.848   0.036  12.412  0.5116  0.0562  0.0231
   69TMC2    C8 1080   2.554   0.150  12.782  0.2833  0.5753 -0.0046
   69TMC2    O1 1081   2.895   4.684  12.339  0.0747 -0.3317 -0.3547
   69TMC2    O2 1082   2.628   0.206  12.858 -0.2461  0.0117  0.5388
   69TMC2    O5 1083   2.423   0.172  12.762  0.4107  0.0275 -0.1956
   69TMC2    H5 1084   2.379   0.134  12.684  2.0833 -2.4233  0.0403
   70MPD2     C 1085   2.597   4.143  12.432  0.4608 -0.4941 -0.1406
   70MPD2    C1 1086   2.544   4.233  12.520  0.1693  0.0328 -0.0092
   70MPD2    C2 1087   2.511   4.188  12.647  0.2805  0.4751  0.3793
   70MPD2    C3 1088   2.513   4.053  12.677  0.1472 -0.1937 -0.5460
   70MPD2    C4 1089   2.561   3.971  12.593 -0.3876  0.1808 -0.2551
   70MPD2    C5 1090   2.601   4.012  12.472  0.6381 -0.4156  0.7074
   70MPD2     H 1091   2.496   4.259  12.727 -1.6673 -1.7343  1.9702
   70MPD2    H1 1092   2.582   3.865  12.609  1.9242  0.7834  0.7842
   70MPD2    H2 1093   2.623   4.175  12.332 -0.6586  1.2201  0.1072
   70MPD2    H3 1094   2.648   3.936  12.410 -0.4181 -2.3202  2.2204
   70MPD2     N 1095   2.499   4.003  12.807  0.5691 -0.0904 -0.1184
   70MPD2    H5 1096   2.527   3.908  12.830  1.2416  0.3657  0.9482
   70MPD2    N1 1097   2.547   4.371  12.493 -0.3847 -0.3405 -0.4402
   70MPD2    H7 1098   2.586   4.407  12.406  2.5951  1.1142  1.5066
   71TMC2    C1 1099   4.242   1.337   1.500 -0.6753  1.4069 -0.2424
   71TMC2    C2 1100   4.357   1.330   1.561 -0.0232  0.2019 -0.8259
   71TMC2    C3 1101   4.380   1.219   1.638 -0.5706  0.6131  0.7175
   71TMC2    C4 1102   4.147   1.239   1.502  0.2704  0.2959  0.0498
   71TMC2    C5 1103   4.180   1.121   1.562  0.3749 -0.1789  0.1755
   71TMC2    C6 1104   4.296   1.113   1.632 -0.0252  0.3725  0.8583
   71TMC2     C 1105   4.237   1.423   1.383 -0.2026  0.5297  0.2743
   71TMC2     O 1106   4.262   1.544   1.412  0.0305  0.4423 -0.5213
   71TMC2     H 1107   4.428   1.411   1.553  2.6069 -2.0303 -0.1437
   71TMC2    H1 1108   4.054   1.264   1.453  1.1629 -1.0300 -2.2951
   71TMC2    H2 1109   4.323   1.021   1.682  1.6533 -0.3919 -1.4651
   71TMC2    C7 1110   4.080   1.015   1.585  0.3805  0.2807 -0.4354
   71TMC2    C8 1111   4.520   1.214   1.683 -0.3974 -0.0057 -0.1063
   71TMC2    O1 1112   4.078   0.961   1.699 -0.1356 -0.1558 -0.0785
   71TMC2    O2 1113   4.605   1.279   1.622 -0.0515  0.4282 -0.4290
   71TMC2    O5 1114   4.511   1.207   1.821 -0.3873  0.1668 -0.1533
   71TMC2    H5 1115   4.425   1.172   1.852 -1.3167  1.0820 -1.6770
   72MPD2     C 1116   4.104   1.521   0.889 -0.5460 -0.0843  0.4553
   72MPD2    C1 1117   4.152   1.607   0.982  0.5109 -0.1731 -0.0292
   72MPD2    C2 1118   4.168   1.555   1.114  0.4476 -0.1803 -0.2040
   72MPD2    C3 1119   4.174   1.419   1.136 -0.2041 -0.2959  0.1675
   72MPD2    C4 1120   4.138   1.330   1.039 -0.1255 -0.3796 -0.6553
   72MPD2    C5 1121   4.098   1.386   0.922 -0.1065  0.1256 -0.1845
   72MPD2     H 1122   4.198   1.622   1.194 -0.9395  0.0943  0.0827
   72MPD2    H1 1123   4.131   1.222   1.044 -0.7476 -0.3590 -0.9552
   72MPD2    H2 1124   4.076   1.550   0.788  3.3828 -1.4558 -1.0284
   72MPD2    H3 1125   4.056   1.318   0.849 -2.2306 -1.1622  2.2527
   72MPD2     N 1126   4.203   1.359   1.258 -0.3996  0.5394 -0.3772
   72MPD2    H5 1127   4.211   1.258   1.257 -2.7655  0.3746 -1.3329
   72MPD2    N1 1128   4.158   1.749   0.968 -0.3543 -0.5154 -0.4676
   72MPD2    H7 1129   4.177   1.803   1.052  2.5924  1.9165 -2.7321
   73TMC2    C1 1130   4.053   2.247  14.028  0.0962 -0.1709  0.4954
   73TMC2    C2 1131   4.057   2.239  13.893  0.6444 -0.4055  0.0373
   73TMC2    C3 1132   4.169   2.186  13.834 -0.3243  0.4552 -0.0140
   73TMC2    C4 1133   4.157   2.210  14.100  0.3506  0.2094  0.3343
   73TMC2    C5 1134   4.269   2.163  14.036  0.1735 -0.2626  0.0539
   73TMC2    C6 1135   4.274   2.133  13.905 -0.6415 -0.0615  0.1012
   73TMC2     C 1136   3.996   2.378  14.074  0.3964 -0.2359  0.6871
   73TMC2     O 1137   4.068   2.431  14.159 -0.4341  0.2427  0.2109
   73TMC2     H 1138   3.967   2.255  13.835 -0.1913 -3.2448  0.5309
   73TMC2    H1 1139   4.148   2.221  14.208 -1.5263  0.4463  0.1603
   73TMC2    H2 1140   4.361   2.085  13.862 -0.4897 -0.9213  1.3770
   73TMC2    C7 1141   4.388   2.229  14.088 -0.2619  0.0784 -0.7716
   73TMC2    C8 1142   4.150   2.124  13.705  0.4252 -0.3174 -0.4058
   73TMC2    O1 1143   4.486   2.213  14.014  0.0469  0.0825  0.3934
   73TMC2    O2 1144   4.141   2.001  13.686 -0.2861  0.2282  0.7762
   73TMC2    O5 1145   4.080   2.210  13.627 -0.4070  0.1264 -0.1745
   73TMC2    H5 1146   4.105   2.298  13.664  1.1640 -0.2790 -0.2553
   74MPD2     C 1147   3.754   2.813  14.082 -0.0100  0.0451 -0.7550
   74MPD2    C1 1148   3.887   2.790  14.092  0.1856 -0.0156  0.4375
   74MPD2    C2 1149   3.932   2.659  14.078 -0.3330  0.3987 -0.2456
   74MPD2    C3 1150   3.845   2.561  14.033 -0.5015 -0.3276 -0.5795
   74MPD2    C4 1151   3.713   2.591  14.012  0.2812 -0.9162 -0.2279
   74MPD2    C5 1152   3.673   2.719  14.037 -0.2947 -1.1032  0.2281
   74MPD2     H 1153   4.037   2.636  14.096 -0.5882 -2.2620 -2.1926
   74MPD2    H1 1154   3.634   2.518  14.001 -1.9744  1.8920 -2.8183
   74MPD2    H2 1155   3.718   2.910  14.114  3.2583  0.9819  0.0438
   74MPD2    H3 1156   3.568   2.745  14.029 -0.0200  0.3182  1.2647
   74MPD2     N 1157   3.883   2.427  14.021 -0.4514  0.0913 -0.3870
   74MPD2    H5 1158   3.828   2.361  13.966 -0.7277  0.2110 -0.2555
   74MPD2    N1 1159   3.968   2.898  14.138  0.0512  0.0111  0.2405
   74MPD2    H7 1160   3.935   2.992  14.119  0.7345 -0.3119 -2.5613
   75TMC2    C1 1161   4.432   4.230  13.986 -0.1051 -0.3946 -0.5212
   75TMC2    C2 1162   4.388   4.356  14.010 -0.6957 -0.9366  0.4386
   75TMC2    C3 1163   4.262   4.391  13.975  0.3137 -0.0294 -0.1000
   75TMC2    C4 1164   4.347   4.132  13.929 -0.8284  0.4832  0.3528
   75TMC2    C5 1165   4.217   4.173  13.898  0.1700 -0.1842  0.4457
   75TMC2    C6 1166   4.180   4.302  13.920  0.2060  0.2442  0.1938
   75TMC2     C 1167   4.547   4.181  14.068  0.3304  0.1218  0.0241
   75TMC2     O 1168   4.615   4.277  14.106 -0.5368 -0.0730 -0.2120
   75TMC2     H 1169   4.455   4.429  14.054 -0.3164 -0.5739 -0.7611
   75TMC2    H1 1170   4.368   4.026  13.922 -1.6553  0.1633  2.7791
   75TMC2    H2 1171   4.076   4.331  13.910  0.6898  1.6638 -0.8118
   75TMC2    C7 1172   4.133   4.090  13.817 -0.6786  0.7071  0.3093
   75TMC2    C8 1173   4.208   4.526  13.987  0.1618  0.2578 -0.6184
   75TMC2    O1 1174   4.151   3.968  13.810  0.0388 -0.5944 -0.1672
   75TMC2    O2 1175   4.094   4.560  13.973 -0.0509  0.0465 -0.1467
   75TMC2    O5 1176   4.315   4.609  13.960  0.0284  0.6400  0.0502
   75TMC2    H5 1177   4.403   4.567  13.951 -0.1327  0.3604 -0.2253
   76TMC2    C1 1178   3.062   3.871  12.038  0.5244  0.1131 -0.4416
   76TMC2    C2 1179   2.925   3.867  12.019 -0.0480  0.4645 -0.2912
   76TMC2    C3 1180   2.859   3.771  12.087 -0.2293 -0.1290 -0.1929
   76TMC2    C4 1181   3.127   3.767  12.114 -0.2220 -0.0357 -0.4785
   76TMC2    C5 1182   3.055   3.654  12.151  0.0831  0.5390  0.0870
   76TMC2    C6 1183   2.915   3.661  12.145  0.0351  0.7821  0.1515
   76TMC2     C 1184   3.126   3.992  12.002 -0.1951 -0.1913  0.0077
   76TMC2     O 1185   3.067   4.060  11.917 -0.0844 -0.2068 -0.5469
   76TMC2     H 1186   2.873   3.949  11.972 -0.7101  0.3026  0.1492
   76TMC2    H1 1187   3.236   3.772  12.112 -0.2927  1.1790 -1.7230
   76TMC2    H2 1188   2.857   3.582  12.191  0.1679 -0.4128 -1.7034
   76TMC2    C7 1189   3.110   3.562  12.247 -0.6183  0.3834  0.7702
   76TMC2    C8 1190   2.728   3.751  12.023  0.2165 -0.3150 -0.6283
   76TMC2    O1 1191   3.045   3.458  12.260  0.2969 -0.0558  0.3399
   76TMC2    O2 1192   2.709   3.796  11.913  0.2765  0.6180 -0.0326
   76TMC2    O5 1193   2.639   3.704  12.112 -0.5427 -0.1305  0.2744
   76TMC2    H5 1194   2.664   3.687  12.206  0.5459  0.9346  0.1747
   77MPD2     C 1195   3.503   4.329  12.032 -0.6964  0.5167 -0.3196
   77MPD2    C1 1196   3.387   4.336  11.963  0.3127 -0.0441  0.5760
   77MPD2    C2 1197   3.300   4.234  11.970  0.5665  0.2613 -0.1958
   77MPD2    C3 1198   3.329   4.125  12.045 -0.0459 -0.0811  0.6395
   77MPD2    C4 1199   3.456   4.116  12.112 -0.3467  1.1779  0.0471
   77MPD2    C5 1200   3.535   4.225  12.109 -0.5216 -0.2057  0.7579
   77MPD2     H 1201   3.217   4.235  11.901 -0.2800  1.6902  0.8395
   77MPD2    H1 1202   3.484   4.030  12.170 -0.8406 -0.8300 -2.6824
   77MPD2    H2 1203   3.573   4.412  12.024 -1.0275  0.9447  1.1170
   77MPD2    H3 1204   3.636   4.215  12.148  0.1519  1.6276 -0.5165
   77MPD2     N 1205   3.252   4.006  12.052  0.0280 -0.7157  0.1929
   77MPD2    H5 1206   3.291   3.926  12.102 -1.7599 -1.5766  0.1980
   77MPD2    N1 1207   3.356   4.443  11.880 -0.8780  0.1667 -0.1928
   77MPD2    H7 1208   3.275   4.440  11.819  0.0772 -0.0519 -1.4332
   78TMC2    C1 1209   3.807   0.204   1.000  0.0404  0.4161  0.2978
   78TMC2    C2 1210   3.671   0.213   0.976 -0.5366 -0.7749 -0.2919
   78TMC2    C3 1211   3.640   0.220   0.842 -0.1110  0.2122 -0.4858
   78TMC2    C4 1212   3.897   0.196   0.898 -0.3307  0.2431  0.0869
   78TMC2    C5 1213   3.853   0.179   0.770  0.2206  0.2917  0.1902
   78TMC2    C6 1214   3.722   0.206   0.738  0.0485  0.5560  0.4225
   78TMC2     C 1215   3.843   0.187   1.141 -0.6681  0.6358 -0.4527
   78TMC2     O 1216   3.755   0.144   1.212  0.0949 -0.3012 -0.0606
   78TMC2     H 1217   3.599   0.205   1.056  1.3077  2.2470  1.6773
   78TMC2    H1 1218   4.002   0.183   0.925  0.2812  1.5329 -1.6544
   78TMC2    H2 1219   3.687   0.211   0.635  0.3545 -0.3018  0.2779
   78TMC2    C7 1220   3.950   0.151   0.675 -0.0709 -0.0523 -0.0921
   78TMC2    C8 1221   3.502   0.235   0.806  0.4376 -0.5484 -0.2696
   78TMC2    O1 1222   3.909   0.096   0.573  0.1156  0.0227  0.3469
   78TMC2    O2 1223   3.468   0.209   0.692  0.4643 -0.3112 -0.2230
   78TMC2    O5 1224   3.437   0.316   0.893  0.2645  0.2546 -0.3817
   78TMC2    H5 1225   3.492   0.340   0.971  0.8151 -4.5191  0.6843
   79MPD1     C 1226   4.215   0.067   1.494  0.1135 -0.3764 -0.1753
   79MPD1    C1 1227   4.080   0.040   1.496  0.4596 -0.8378 -0.5199
   79MPD1    C2 1228   4.009   0.066   1.379 -0.3038 -0.1651  0.2306
   79MPD1    C3 1229   4.059   0.153   1.279 -0.1768  0.3185 -0.5737
   79MPD1    C4 1230   4.193   0.193   1.288  0.4363 -0.3290 -0.9462
   79MPD1    C5 1231   4.272   0.148   1.395 -0.2607 -0.9027  0.2845
   79MPD1     H 1232   3.909   0.024   1.374  1.1954 -3.8925  1.5471
   79MPD1    H1 1233   4.245   0.262   1.223 -0.8318  0.8201 -0.7403
   79MPD1    H2 1234   4.280   0.044   1.577  1.6801  1.0182 -1.0009
   79MPD1    H3 1235   4.380   0.161   1.396 -0.2614 -0.8945  0.0684
   79MPD1     N 1236   3.982   0.197   1.164 -0.1587  0.1926 -0.1601
   79MPD1    H5 1237   4.034   0.248   1.094  1.0442 -0.6173  0.1458
   79MPD1    N1 1238   4.048   4.672   1.587  0.5154 -1.1828 -0.1438
   79MPD1    H6 1239   4.113   4.664   1.664  1.0285 -0.0191 -0.4554
   79MPD1    H7 1240   3.950   4.664   1.616  0.3571  0.2736 -0.2569
   80TMC2    C1 1241   1.493   3.941  11.968 -0.2296 -0.1977  0.6714
   80TMC2    C2 1242   1.447   4.044  12.047 -0.0065  0.1006  0.4494
   80TMC2    C3 1243   1.391   4.011  12.167 -0.1008  0.3753  0.3175
   80TMC2    C4 1244   1.489   3.814  12.018 -0.1216 -0.9380 -0.0850
   80TMC2    C5 1245   1.426   3.793  12.136  0.4222  0.7385  0.7036
   80TMC2    C6 1246   1.363   3.884  12.209 -0.5546  0.1384  0.3847
   80TMC2     C 1247   1.611   3.968  11.888 -0.3674  0.2624 -0.5747
   80TMC2     O 1248   1.585   4.020  11.781  0.4516 -0.2111  0.1209
   80TMC2     H 1249   1.460   4.150  12.027  2.4777 -0.4937 -1.1277
   80TMC2    H1 1250   1.533   3.737  11.957  1.8545  0.5031 -0.4865
   80TMC2    H2 1251   1.274   3.865  12.268 -1.0665  2.6601  0.3940
   80TMC2    C7 1252   1.386   3.658  12.170  0.3046 -0.2979  0.2903
   80TMC2    C8 1253   1.324   4.124  12.227  0.4743 -0.6548 -0.1361
   80TMC2    O1 1254   1.391   3.569  12.092 -0.7559 -0.1620  0.3552
   80TMC2    O2 1255   1.299   4.231  12.175  0.1598 -0.8164  0.3928
   80TMC2    O5 1256   1.357   4.100  12.355  0.1360  0.1423  0.4705
   80TMC2    H5 1257   1.374   4.004  12.360 -0.1170  0.2300  2.7797
   81MPD2     C 1258   1.884   4.088  11.816 -0.6146 -0.4503  0.0776
   81MPD2    C1 1259   1.841   4.056  11.945 -1.3291 -0.1511  0.7871
   81MPD2    C2 1260   1.931   4.078  12.046 -0.3063 -0.0795  0.7453
   81MPD2    C3 1261   2.042   4.158  12.027  0.7047  0.1604  0.7384
   81MPD2    C4 1262   2.073   4.202  11.898  0.0587 -0.3661 -0.1662
   81MPD2    C5 1263   1.994   4.164  11.792  0.2032 -0.6946 -0.2419
   81MPD2     H 1264   1.902   4.051  12.147  1.7347 -1.5645  0.9426
   81MPD2    H1 1265   2.162   4.263  11.883  0.8771 -1.9380 -1.6115
   81MPD2    H2 1266   1.815   4.083  11.733  0.1477 -0.2947 -0.5640
   81MPD2    H3 1267   2.019   4.198  11.692  1.9184 -0.3882  0.3009
   81MPD2     N 1268   2.138   4.191  12.129  0.0525 -0.6598 -0.0809
   81MPD2    H5 1269   2.213   4.256  12.108 -1.2601  0.1170 -2.3292
   81MPD2    N1 1270   1.715   3.989  11.977 -0.2975  0.6825 -0.3217
   81MPD2    H7 1271   1.701   3.972  12.076 -3.0083  0.9176 -0.6744
   82TMC2    C1 1272   0.488   3.153  11.161 -0.7901  0.6398  0.1016
   82TMC2    C2 1273   0.548   3.230  11.250  0.0071  0.2817  0.2554
   82TMC2    C3 1274   0.535   3.194  11.381 -0.3428 -0.3429 -0.4500
   82TMC2    C4 1275   0.407   3.050  11.195  0.3414  0.1954 -0.3090
   82TMC2    C5 1276   0.394   3.021  11.330  0.0119  0.3591  0.3780
   82TMC2    C6 1277   0.469   3.087  11.427 -0.5425  0.2971  0.4954
   82TMC2     C 1278   0.472   3.210  11.031 -0.7115  0.8627 -0.5078
   82TMC2     O 1279   0.365   3.188  10.981 -0.2345 -0.2214 -0.1718
   82TMC2     H 1280   0.580   3.328  11.219 -1.8083  0.7783 -0.0673
   82TMC2    H1 1281   0.347   3.003  11.118  0.7561 -1.7653  0.5798
   82TMC2    H2 1282   0.444   3.081  11.533 -0.9917 -0.1565  0.3679
   82TMC2    C7 1283   0.291   2.925  11.377  0.2011 -0.4775  0.1193
   82TMC2    C8 1284   0.592   3.290  11.474 -1.0604 -0.4450  0.4357
   82TMC2    O1 1285   0.306   2.898  11.497 -0.5525  0.3078  0.1021
   82TMC2    O2 1286   0.572   3.294  11.596  0.2225 -0.5094 -0.1943
   82TMC2    O5 1287   0.702   3.337  11.416  0.0886  0.3490 -0.1210
   82TMC2    H5 1288   0.706   3.316  11.321  0.3386  0.5970 -0.1605
   83MPD2     C 1289   0.599   3.536  10.662  0.7112  0.3020 -0.3212
   83MPD2    C1 1290   0.480   3.482  10.691  0.0067  0.7727 -0.7087
   83MPD2    C2 1291   0.465   3.390  10.795  0.4790 -0.1051  0.1167
   83MPD2    C3 1292   0.578   3.361  10.876  0.5310  0.3674 -0.7584
   83MPD2    C4 1293   0.701   3.423  10.842 -0.1866  0.1234  0.8294
   83MPD2    C5 1294   0.711   3.506  10.735  0.6926 -0.2537 -0.5834
   83MPD2     H 1295   0.371   3.339  10.816  0.4369 -0.9812 -2.2126
   83MPD2    H1 1296   0.787   3.421  10.908  0.4227 -1.0107  0.0052
   83MPD2    H2 1297   0.606   3.614  10.588 -2.2379  0.5706 -0.3136
   83MPD2    H3 1298   0.807   3.554  10.721  0.7267  0.8437  3.4993
   83MPD2     N 1299   0.582   3.275  10.988  0.2522 -0.1000 -0.0528
   83MPD2    H5 1300   0.665   3.262  11.044  0.5874  0.0581 -0.5072
   83MPD2    N1 1301   0.362   3.519  10.614  0.4869 -0.3231  0.2983
   83MPD2    H7 1302   0.380   3.588  10.542  1.8925  0.4997  1.4252
   84TMC2    C1 1303   1.298   2.813  11.279 -0.1709 -0.2555  0.1698
   84TMC2    C2 1304   1.312   2.743  11.396  0.2904  0.3345 -0.8192
   84TMC2    C3 1305   1.342   2.611  11.395 -0.2500 -0.1434 -1.1091
   84TMC2    C4 1306   1.337   2.749  11.163 -0.3412  0.2675 -0.7222
   84TMC2    C5 1307   1.383   2.619  11.163 -0.4959 -0.1160 -0.4029
   84TMC2    C6 1308   1.374   2.544  11.276 -0.5388 -1.1566 -0.1199
   84TMC2     C 1309   1.223   2.937  11.294  1.4543 -1.1530  0.0879
   84TMC2     O 1310   1.183   2.961  11.405  0.5622 -0.1549 -0.2172
   84TMC2     H 1311   1.285   2.786  11.492  1.4028  1.5631 -1.0568
   84TMC2    H1 1312   1.335   2.805  11.071  0.6604  1.1117 -0.2322
   84TMC2    H2 1313   1.408   2.442  11.290  1.4529 -0.4738  0.0181
   84TMC2    C7 1314   1.453   2.557  11.044  0.6325 -0.2944 -0.1204
   84TMC2    C8 1315   1.366   2.540  11.519  0.3842  0.4486 -0.0395
   84TMC2    O1 1316   1.423   2.598  10.937  0.6126 -0.2084 -0.9127
   84TMC2    O2 1317   1.443   2.446  11.526 -0.0016  0.6966 -0.0561
   84TMC2    O5 1318   1.288   2.596  11.611 -0.5023  0.2731  0.5313
   84TMC2    H5 1319   1.215   2.651  11.578 -0.5846  0.3229  0.7946
   85TMC2    C1 1320   2.475   1.580  16.000  0.0015  0.2992  0.1513
   85TMC2    C2 1321   2.428   1.690  15.937 -0.1212  0.5044  0.1065
   85TMC2    C3 1322   2.496   1.750  15.837  0.2606  0.1470 -0.0726
   85TMC2    C4 1323   2.591   1.523  15.957  0.5182 -0.6692 -0.4232
   85TMC2    C5 1324   2.665   1.583  15.856 -0.1454 -0.4321 -0.7351
   85TMC2    C6 1325   2.623   1.702  15.801 -0.3200  0.0804 -0.0912
   85TMC2     C 1326   2.402   1.514  16.113 -0.5233  0.1520  0.3399
   85TMC2     O 1327   2.345   1.591  16.190 -0.0831 -0.8363  0.7255
   85TMC2     H 1328   2.325   1.717  15.958 -0.3531  0.4039 -0.9280
   85TMC2    H1 1329   2.615   1.439  16.022  1.7898 -0.1237 -0.1919
   85TMC2    H2 1330   2.689   1.750  15.729  0.2115 -0.4221  0.0603
   85TMC2    C7 1331   2.771   1.508  15.803  0.9182 -0.5796 -0.1475
   85TMC2    C8 1332   2.467   1.886  15.804 -0.3222  0.3029 -0.5529
   85TMC2    O1 1333   2.832   1.431  15.869 -0.3232  0.7540  0.2519
   85TMC2    O2 1334   2.528   1.935  15.707 -0.4304 -0.1879  0.2152
   85TMC2    O5 1335   2.443   1.952  15.920  0.1568 -0.8560  0.2949
   85TMC2    H5 1336   2.385   1.904  15.984  2.6186 -2.4747  1.3272
   86MPD2     C 1337   2.223   1.115  16.385  0.6078 -0.4261 -0.0831
   86MPD2    C1 1338   2.245   1.069  16.258 -0.0055  0.8736 -0.1592
   86MPD2    C2 1339   2.311   1.159  16.171  0.2906  0.2466 -0.4530
   86MPD2    C3 1340   2.334   1.293  16.202  0.0396  1.2107  0.6576
   86MPD2    C4 1341   2.301   1.341  16.331  0.2052  0.0542  0.3284
   86MPD2    C5 1342   2.246   1.252  16.418 -0.2312 -0.0311  0.0850
   86MPD2     H 1343   2.344   1.119  16.076 -3.3822 -0.0379 -1.5966
   86MPD2    H1 1344   2.324   1.444  16.359 -3.8147  1.3629 -1.2031
   86MPD2    H2 1345   2.175   1.052  16.459  0.2477 -0.5520 -0.4190
   86MPD2    H3 1346   2.228   1.286  16.520 -1.8208 -0.5443 -0.0184
   86MPD2     N 1347   2.398   1.378  16.113  0.4719  0.2584 -0.0387
   86MPD2    H5 1348   2.442   1.328  16.036  2.5819  2.0300  0.0174
   86MPD2    N1 1349   2.196   0.940  16.215 -0.4214 -0.4702  0.4396
   86MPD2    H7 1350   2.209   0.916  16.117  2.4538 -2.8309  1.3792
   87TMC2    C1 1351   3.789   4.559   0.960 -0.9957  0.0191 -0.1110
   87TMC2    C2 1352   3.767   4.543   1.092  0.2017  0.5693  1.1212
   87TMC2    C3 1353   3.639   4.540   1.132  0.1344 -0.0517 -0.1466
   87TMC2    C4 1354   3.690   4.553   0.867 -0.2563  0.3336  0.1057
   87TMC2    C5 1355   3.561   4.540   0.917  0.0034  0.4453 -0.0294
   87TMC2    C6 1356   3.532   4.550   1.048  0.1615  0.2225 -0.2592
   87TMC2     C 1357   3.920   4.567   0.896 -0.4251  0.3509  0.1761
   87TMC2     O 1358   3.921   4.533   0.777  0.3761  0.1150 -0.1003
   87TMC2     H 1359   3.845   4.537   1.167  1.2467 -0.6328 -0.0728
   87TMC2    H1 1360   3.714   4.587   0.767  0.9187 -2.6169 -0.6213
   87TMC2    H2 1361   3.430   4.547   1.085 -0.4637  0.9379 -1.9255
   87TMC2    C7 1362   3.455   4.563   0.826 -0.0925 -0.5311  0.3539
   87TMC2    C8 1363   3.621   4.565   1.273  0.1763 -0.2196  0.5897
   87TMC2    O1 1364   3.354   4.620   0.863 -0.1589  0.0811  0.9344
   87TMC2    O2 1365   3.688   4.507   1.360 -0.0099  0.0262  0.0172
   87TMC2    O5 1366   3.511   4.643   1.293 -0.1429  0.0273  0.2430
   87TMC2    H5 1367   3.485   4.683   1.208 -1.7729  0.0983  0.7619
   88MPD2     C 1368   3.493   4.514   0.469 -0.4427  0.2480  0.0090
   88MPD2    C1 1369   3.448   4.573   0.582  0.8870 -0.0382 -0.6007
   88MPD2    C2 1370   3.370   4.681   0.568  0.3248  0.1735  0.1623
   88MPD2    C3 1371   3.348   0.007   0.446 -0.1930 -0.2633 -0.1248
   88MPD2    C4 1372   3.395   4.679   0.334 -0.0961 -0.0930  0.3706
   88MPD2    C5 1373   3.460   4.559   0.347 -0.6264  0.8319 -0.3059
   88MPD2     H 1374   3.338   4.730   0.659  0.2616 -0.2854  0.3894
   88MPD2    H1 1375   3.382   4.727   0.237  0.7008 -1.9560 -0.6521
   88MPD2    H2 1376   3.557   4.427   0.484 -1.2880 -0.4295 -0.3030
   88MPD2    H3 1377   3.508   4.516   0.259  1.8960  0.5703  1.1726
   88MPD2     N 1378   3.279   0.127   0.447  0.0661 -0.4192  0.6255
   88MPD2    H5 1379   3.250   0.165   0.537 -2.3207 -0.2812 -0.1948
   88MPD2    N1 1380   3.492   4.524   0.704 -0.1849  0.5785  0.2785
   88MPD2    H7 1381   3.560   4.448   0.706 -1.1020 -0.2230  1.0901
   89TMC2    C1 1382   0.557   2.621   1.443 -0.3787 -0.2420  0.3687
   89TMC2    C2 1383   0.569   2.486   1.418 -0.3915 -0.2958  0.0158
   89TMC2    C3 1384   0.575   2.463   1.283 -0.0234  1.1409 -0.7771
   89TMC2    C4 1385   0.562   2.723   1.354 -0.2034 -0.5493 -0.0687
   89TMC2    C5 1386   0.580   2.690   1.218 -0.4697  0.4910  0.3634
   89TMC2    C6 1387   0.589   2.557   1.185  0.3060 -0.1205 -0.0769
   89TMC2     C 1388   0.538   2.654   1.578 -0.1997 -0.0379  0.4863
   89TMC2     O 1389   0.614   2.743   1.622 -0.5879 -0.2184  0.1993
   89TMC2     H 1390   0.560   2.408   1.493 -1.4946  2.5320  2.8061
   89TMC2    H1 1391   0.540   2.819   1.398  2.5674 -0.6679  1.5722
   89TMC2    H2 1392   0.585   2.522   1.082 -1.8277  0.3784 -0.1691
   89TMC2    C7 1393   0.580   2.797   1.127  1.0673 -0.6888 -0.2151
   89TMC2    C8 1394   0.557   2.328   1.247 -1.2523 -0.4313 -0.6563
   89TMC2    O1 1395   0.556   2.912   1.155 -0.1168  0.5908 -0.0672
   89TMC2    O2 1396   0.600   2.268   1.147  0.0493 -0.3676 -0.3034
   89TMC2    O5 1397   0.444   2.297   1.307  0.4127 -0.5536 -0.1681
   89TMC2    H5 1398   0.402   2.355   1.374  0.3075 -1.0504  0.1942
   90MPD2     C 1399   0.413   2.534   2.041  0.5013  0.6839 -0.0536
   90MPD2    C1 1400   0.305   2.499   1.965 -0.5535  0.5195 -0.6338
   90MPD2    C2 1401   0.327   2.509   1.828  0.5145  0.2390 -0.2382
   90MPD2    C3 1402   0.449   2.548   1.775 -0.2360  0.2633 -0.4524
   90MPD2    C4 1403   0.554   2.586   1.859 -0.1336 -0.2718  0.0138
   90MPD2    C5 1404   0.533   2.586   1.992  0.0838  0.1335 -0.2548
   90MPD2     H 1405   0.245   2.482   1.762  0.4066  0.4453 -0.1894
   90MPD2    H1 1406   0.651   2.613   1.820 -1.4962  0.3946 -2.9401
   90MPD2    H2 1407   0.404   2.541   2.149  2.8252  0.0868  0.1700
   90MPD2    H3 1408   0.609   2.629   2.058  0.4252 -0.3400 -0.3407
   90MPD2     N 1409   0.453   2.571   1.638 -0.2390  0.0556  0.6935
   90MPD2    H5 1410   0.392   2.512   1.581  1.5783 -0.0424 -1.1646
   90MPD2    N1 1411   0.177   2.457   2.014 -0.4441  0.0085  0.2926
   90MPD2    H7 1412   0.112   2.439   1.938  0.0639  2.3678 -0.6807
   91TMC2    C1 1413   2.140   2.341  16.228 -0.6688  0.1370  0.6029
   91TMC2    C2 1414   2.139   2.360  16.366 -0.2898  0.4067  0.5790
   91TMC2    C3 1415   2.010   2.370  16.418  0.8225 -0.0592  0.0127
   91TMC2    C4 1416   2.030   2.322  16.148 -0.2736 -0.1636 -0.1899
   91TMC2    C5 1417   1.911   2.311  16.214 -0.0410  0.2562 -0.2017
   91TMC2    C6 1418   1.904   2.336  16.348  0.8745 -0.9939 -0.1936
   91TMC2     C 1419   2.249   2.283  16.168 -0.0670 -0.7804  0.3879
   91TMC2     O 1420   2.221   2.208  16.078  0.7822  0.4136 -0.6466
   91TMC2     H 1421   2.220   2.388  16.433  0.6804 -1.2268  0.0706
   91TMC2    H1 1422   2.040   2.297  16.043 -1.7978 -0.2811 -0.2994
   91TMC2    H2 1423   1.815   2.317  16.406  1.6404  0.2137  1.3790
   91TMC2    C7 1424   1.831   2.193  16.174  0.5355  0.0285  0.3126
   91TMC2    C8 1425   1.986   2.418  16.549 -0.3606  0.2424  0.1713
   91TMC2    O1 1426   1.815   2.108  16.261 -0.3287  0.0884 -0.1414
   91TMC2    O2 1427   2.080   2.432  16.620 -0.8186 -0.0063 -0.7073
   91TMC2    O5 1428   1.896   2.517  16.523  0.2716  0.3283 -0.5027
   91TMC2    H5 1429   1.817   2.493  16.471 -0.4290  1.4165  0.0707
   92MPD2     C 1430   2.512   2.232  16.052  1.3508  0.6900  0.1401
   92MPD2    C1 1431   2.492   2.301  16.173 -0.6412 -0.5629  0.7156
   92MPD2    C2 1432   2.598   2.358  16.241 -0.3195 -0.0312  0.5213
   92MPD2    C3 1433   2.728   2.325  16.203  0.4605 -0.2442  0.1000
   92MPD2    C4 1434   2.748   2.247  16.092 -0.7486  0.4915  0.3811
   92MPD2    C5 1435   2.643   2.211  16.010 -0.2831 -0.1074 -0.2070
   92MPD2     H 1436   2.572   2.430  16.319 -0.8930  0.5649 -0.2177
   92MPD2    H1 1437   2.845   2.231  16.047 -1.4979  0.8185 -1.3404
   92MPD2    H2 1438   2.430   2.196  15.991  2.7517 -1.8630 -0.2427
   92MPD2    H3 1439   2.656   2.157  15.917  2.6246  2.1591 -1.1129
   92MPD2     N 1440   2.845   2.375  16.266  0.2772  0.3480 -0.2800
   92MPD2    H5 1441   2.929   2.323  16.242  0.4027  0.3339  0.1782
   92MPD2    N1 1442   2.365   2.328  16.224  0.1135 -0.5149 -0.0368
   92MPD2    H7 1443   2.368   2.392  16.303  2.0735  1.4706 -1.7080
   93TMC2    C1 1444   3.903   1.347  13.579 -0.0721 -0.2113 -0.3906
   93TMC2    C2 1445   3.854   1.367  13.707  0.4056  0.6159  0.0231
   93TMC2    C3 1446   3.918   1.455  13.786  0.5364 -0.4092  0.4365
   93TMC2    C4 1447   4.019   1.398  13.545  0.1495 -0.0014  0.7628
   93TMC2    C5 1448   4.084   1.482  13.627 -0.1169 -0.0043 -0.8451
   93TMC2    C6 1449   4.031   1.522  13.753 -0.7901  0.3268  0.1403
   93TMC2     C 1450   3.830   1.270  13.479 -0.1053 -0.3613 -0.3563
   93TMC2     O 1451   3.906   1.228  13.395  0.1229 -0.1015 -0.1872
   93TMC2     H 1452   3.754   1.336  13.735  0.4608 -0.1716 -0.6427
   93TMC2    H1 1453   4.059   1.373  13.447 -0.1247  1.6225  0.2485
   93TMC2    H2 1454   4.069   1.597  13.820  0.3485  0.9174 -1.1670
   93TMC2    C7 1455   4.172   1.577  13.556 -0.3847 -0.9452  0.1344
   93TMC2    C8 1456   3.851   1.491  13.906 -0.2325 -0.2551 -1.0220
   93TMC2    O1 1457   4.185   1.571  13.434  0.4050 -0.1205 -0.8858
   93TMC2    O2 1458   3.890   1.582  13.973 -0.4245  0.3621  0.5084
   93TMC2    O5 1459   3.833   1.368  13.962  0.2516  0.0507 -0.3585
   93TMC2    H5 1460   3.828   1.283  13.915  0.9469 -0.4107  0.4071
   94MPD2     C 1461   3.650   1.166  13.262 -0.1075 -0.3655 -0.7143
   94MPD2    C1 1462   3.610   1.244  13.374  0.0880  0.1448  0.1950
   94MPD2    C2 1463   3.490   1.311  13.365  0.1874 -0.0233 -0.8028
   94MPD2    C3 1464   3.413   1.300  13.254  0.3205  1.0557 -0.5562
   94MPD2    C4 1465   3.446   1.215  13.155  0.2062  0.1499 -0.0227
   94MPD2    C5 1466   3.568   1.164  13.154  0.2897  0.3311 -0.9321
   94MPD2     H 1467   3.464   1.378  13.446 -2.9177  0.5349 -2.2747
   94MPD2    H1 1468   3.389   1.195  13.065 -0.3209 -0.2738  0.4115
   94MPD2    H2 1469   3.746   1.117  13.253  0.6522  0.2451  4.0037
   94MPD2    H3 1470   3.607   1.101  13.075  1.8590 -0.2852  0.3514
   94MPD2     N 1471   3.310   1.397  13.234  0.5279 -0.5824  0.4276
   94MPD2    H5 1472   3.315   1.433  13.139  0.4514 -1.3084  0.1536
   94MPD2    N1 1473   3.694   1.283  13.486  0.2735  0.1303  0.1787
   94MPD2    H7 1474   3.663   1.337  13.566 -1.5371 -1.2496  0.3935
   95TMC2    C1 1475   3.933   3.453  15.612  0.2325 -0.4846  0.2423
   95TMC2    C2 1476   3.815   3.496  15.558  0.3338 -0.1776  0.0211
   95TMC2    C3 1477   3.716   3.407  15.531 -0.0503  0.0151 -0.8471
   95TMC2    C4 1478   3.946   3.319  15.646 -0.0209 -0.6242 -0.4172
   95TMC2    C5 1479   3.843   3.233  15.621  0.2483  0.0741 -0.3115
   95TMC2    C6 1480   3.732   3.268  15.548 -0.5642  0.0953  0.0997
   95TMC2     C 1481   4.032   3.558  15.638  0.6279 -0.4745 -0.7548
   95TMC2     O 1482   4.018   3.669  15.586 -0.0711  0.5035 -0.2386
   95TMC2     H 1483   3.808   3.603  15.544 -0.2714 -0.1882  0.2581
   95TMC2    H1 1484   4.039   3.277  15.683  0.2581  0.6073  0.2662
   95TMC2    H2 1485   3.645   3.206  15.530  2.3562 -3.8218 -0.3887
   95TMC2    C7 1486   3.874   3.091  15.627  0.0415  0.0895  0.8590
   95TMC2    C8 1487   3.611   3.456  15.443 -0.4461  0.0311 -0.0345
   95TMC2    O1 1488   3.959   3.064  15.717  0.2538  0.0059 -0.0428
   95TMC2    O2 1489   3.584   3.575  15.428  0.1270 -0.5259 -0.3751
   95TMC2    O5 1490   3.610   3.368  15.347 -0.4946 -0.0494  0.1588
   95TMC2    H5 1491   3.663   3.289  15.372  2.6538  1.4036 -1.8166
   96MPD2     C 1492   4.513   3.702  15.758 -0.0956 -0.3323 -0.1304
   96MPD2    C1 1493   4.421   3.756  15.668  0.9903 -0.1008 -0.3402
   96MPD2    C2 1494   4.290   3.695  15.668 -0.1728  0.1082 -0.0809
   96MPD2    C3 1495   4.253   3.584  15.746 -0.3525  0.0035 -0.0891
   96MPD2    C4 1496   4.354   3.538  15.835  0.1510  0.5768  0.0145
   96MPD2    C5 1497   4.482   3.598  15.834  0.1051 -0.3481 -0.8821
   96MPD2     H 1498   4.226   3.718  15.585 -0.0786 -1.4119 -0.5857
   96MPD2    H1 1499   4.324   3.461  15.905  4.3115 -1.0004  0.0168
   96MPD2    H2 1500   4.616   3.736  15.759 -0.7013  1.3858  4.3641
   96MPD2    H3 1501   4.560   3.554  15.896 -0.8856 -0.4226  0.3197
   96MPD2     N 1502   4.136   3.512  15.718  0.3461  0.1510  0.0459
   96MPD2    H5 1503   4.125   3.428  15.774  0.9191 -0.6097 -0.9910
   96MPD2    N1 1504   4.454   3.859  15.577  0.0512 -0.2652  0.2131
   96MPD2    H7 1505   4.540   3.904  15.607  1.1704 -1.9588 -0.4426
   97TMC2    C1 1506   1.435   2.241   0.249 -0.0688 -0.8073 -0.3605
   97TMC2    C2 1507   1.354   2.204   0.144  0.1199  0.1487  0.0931
   97TMC2    C3 1508   1.389   2.270   0.028 -0.2983 -0.1847  0.0363
   97TMC2    C4 1509   1.526   2.339   0.247  0.1316  0.3773 -0.0627
   97TMC2    C5 1510   1.542   2.412   0.133 -1.1612  0.3510 -0.0348
   97TMC2    C6 1511   1.473   2.378   0.024 -0.7037  0.2313  0.3507
   97TMC2     C 1512   1.455   2.151   0.363 -0.7363 -0.3203 -0.3256
   97TMC2     O 1513   1.505   2.190   0.465  0.0854 -0.5083  0.1518
   97TMC2     H 1514   1.295   2.113   0.151 -3.1406  2.2618  0.2198
   97TMC2    H1 1515   1.576   2.365   0.339 -1.5414 -0.0618  0.9806
   97TMC2    H2 1516   1.501   2.414  17.672 -0.5861 -1.1075 -0.1068
   97TMC2    C7 1517   1.611   2.544   0.132  1.0354  0.2277  0.0636
   97TMC2    C8 1518   1.309   2.239  17.664  0.3824 -0.2652  0.1327
   97TMC2    O1 1519   1.677   2.571   0.230 -0.2455  0.1354  0.6087
   97TMC2    O2 1520   1.359   2.272  17.557 -0.2850  0.1018 -0.0625
   97TMC2    O5 1521   1.185   2.263  17.709 -0.2439  0.0377 -0.0878
   97TMC2    H5 1522   1.178   2.249   0.059 -0.3529 -0.2679 -0.1424
   98MPD2     C 1523   1.401   1.681   0.572 -0.1710 -0.9860 -0.2620
   98MPD2    C1 1524   1.311   1.694   0.474 -0.3814 -0.1324 -0.6227
   98MPD2    C2 1525   1.315   1.811   0.396  0.8409 -0.2293  0.0654
   98MPD2    C3 1526   1.400   1.913   0.428 -0.2308 -0.5440  0.5862
   98MPD2    C4 1527   1.483   1.901   0.538  0.8422  0.0400  0.5376
   98MPD2    C5 1528   1.483   1.786   0.606 -0.9776  0.6859 -0.4225
   98MPD2     H 1529   1.246   1.829   0.314  1.1585 -0.1728 -0.1900
   98MPD2    H1 1530   1.544   1.987   0.562 -1.2005  1.7756 -0.4557
   98MPD2    H2 1531   1.406   1.592   0.634  1.6975 -0.6105  0.1319
   98MPD2    H3 1532   1.547   1.782   0.693 -1.0721 -0.5819 -0.4050
   98MPD2     N 1533   1.398   2.027   0.344 -0.1435 -0.0539  0.1735
   98MPD2    H5 1534   1.358   2.019   0.251 -0.2909 -1.3894  0.3432
   98MPD2    N1 1535   1.223   1.578   0.450  0.3635  0.0357  0.1149
   98MPD2    H7 1536   1.198   1.520   0.530 -1.8560 -0.2507 -0.7605
   99TMC2    C1 1537   0.378   4.407   1.519  0.2437  0.6187  0.3676
   99TMC2    C2 1538   0.418   4.536   1.497 -0.2981  0.5761 -0.3980
   99TMC2    C3 1539   0.329   4.637   1.509 -0.2199 -0.2151  0.3451
   99TMC2    C4 1540   0.251   4.375   1.557 -0.6557  1.1442 -0.9375
   99TMC2    C5 1541   0.162   4.480   1.570 -0.1686 -0.0738  0.2451
   99TMC2    C6 1542   0.193   4.606   1.532  0.4508 -0.6662  0.5325
   99TMC2     C 1543   0.464   4.303   1.471 -0.0611 -0.0631 -0.4863
   99TMC2     O 1544   0.583   4.325   1.464  0.3827  0.2402 -0.2454
   99TMC2     H 1545   0.519   4.549   1.461 -0.2574  1.3154 -0.0142
   99TMC2    H1 1546   0.226   4.274   1.587  0.8283  1.2873  0.7849
   99TMC2    H2 1547   0.121   4.687   1.539  0.3429 -0.8039  1.0233
   99TMC2    C7 1548   0.046   4.467   1.665 -0.1963  0.4725  0.1285
   99TMC2    C8 1549   0.339   0.028   1.437  0.6808  0.3591  0.2601
   99TMC2    O1 1550   0.023   4.567   1.727 -0.1853  0.6886  0.1032
   99TMC2    O2 1551   0.245   0.104   1.447  0.3705 -0.6697 -0.0790
   99TMC2    O5 1552   0.382   4.725   1.316 -0.5425  0.0865 -0.1656
   99TMC2    H5 1553   0.454   4.659   1.309 -3.0801 -2.4565 -2.1262
  100MPD2     C 1554   0.576   4.078   1.326 -0.5748 -0.3632 -0.5305
  100MPD2    C1 1555   0.444   4.104   1.329  0.4271 -0.1581 -0.3894
  100MPD2    C2 1556   0.357   4.025   1.258 -0.4739  0.3294 -0.6851
  100MPD2    C3 1557   0.403   3.921   1.180 -0.3482 -0.1896  0.0761
  100MPD2    C4 1558   0.543   3.903   1.163  0.1689 -0.4921  0.6002
  100MPD2    C5 1559   0.621   3.973   1.245  0.6259  0.1626  0.7692
  100MPD2     H 1560   0.250   4.027   1.275 -0.9109 -1.4261 -3.3172
  100MPD2    H1 1561   0.595   3.820   1.115  1.0794  0.7206 -0.5373
  100MPD2    H2 1562   0.649   4.127   1.390 -0.6232  0.0803 -0.8142
  100MPD2    H3 1563   0.729   3.960   1.252  0.4209 -1.3283  1.1464
  100MPD2     N 1564   0.310   3.842   1.108  0.3063  0.6480 -0.0802
  100MPD2    H5 1565   0.214   3.864   1.131  0.0891 -0.4182  0.0407
  100MPD2    N1 1566   0.392   4.209   1.414 -0.0850  0.0662 -0.0898
  100MPD2    H7 1567   0.291   4.207   1.416 -0.0773 -0.0966  0.1360
  101TMC2    C1 1568   1.183   4.488  13.307  0.1014  0.6326 -0.2240
  101TMC2    C2 1569   1.081   4.573  13.306  0.2228  0.2659 -1.2876
  101TMC2    C3 1570   1.082   4.667  13.202 -0.8805 -0.4575 -0.6269
  101TMC2    C4 1571   1.293   4.494  13.226 -0.5226 -0.2129 -0.5837
  101TMC2    C5 1572   1.293   4.591  13.135  0.1453  0.8440  0.1622
  101TMC2    C6 1573   1.192   4.680  13.119 -0.4395 -0.5717 -0.2075
  101TMC2     C 1574   1.142   4.356  13.351  0.6584 -0.2916  0.1862
  101TMC2     O 1575   1.020   4.340  13.346 -0.2552  0.2569  0.2338
  101TMC2     H 1576   1.001   4.569  13.378 -0.6817 -0.6365 -2.3252
  101TMC2    H1 1577   1.363   4.412  13.217  0.3771  0.7314 -2.0733
  101TMC2    H2 1578   1.223   0.027  13.058  0.5524 -1.2754 -0.6678
  101TMC2    C7 1579   1.420   4.641  13.089  0.0425 -0.2727 -0.4459
  101TMC2    C8 1580   1.028   0.054  13.239  0.5761 -0.2880  0.4316
  101TMC2    O1 1581   1.413   4.718  12.995  0.2718  0.6030  0.1356
  101TMC2    O2 1582   1.075   0.118  13.329 -0.5185 -0.2550  0.1786
  101TMC2    O5 1583   0.897   0.029  13.221 -0.2027 -0.2158 -0.2972
  101TMC2    H5 1584   0.891   4.705  13.145 -1.1653 -0.3278 -0.1427
  102MPD2     C 1585   1.333   4.060  13.458 -0.2878  0.2238 -0.8350
  102MPD2    C1 1586   1.225   4.138  13.436 -0.1345 -0.1455  0.0580
  102MPD2    C2 1587   1.102   4.081  13.475  0.2859 -0.0671 -0.5679
  102MPD2    C3 1588   1.091   3.951  13.520 -0.5566  0.2404  0.6355
  102MPD2    C4 1589   1.208   3.874  13.542 -0.1621  0.3674  0.5686
  102MPD2    C5 1590   1.329   3.930  13.507 -0.3444  0.5554 -0.7642
  102MPD2     H 1591   1.009   4.138  13.480 -0.0963 -1.0854  3.6722
  102MPD2    H1 1592   1.216   3.776  13.589 -0.0088  0.0904 -0.0408
  102MPD2    H2 1593   1.430   4.095  13.425 -1.1031  1.1674 -2.2096
  102MPD2    H3 1594   1.419   3.874  13.526 -0.8268  0.4817  1.2556
  102MPD2     N 1595   0.962   3.910  13.555  0.4797  0.5567 -0.1038
  102MPD2    H5 1596   0.882   3.959  13.515 -0.6399 -0.2516  1.1210
  102MPD2    N1 1597   1.242   4.268  13.384  0.1568 -0.1141 -0.6572
  102MPD2    H7 1598   1.341   4.294  13.382  0.1265  0.1277  0.8397
  103TMC2    C1 1599   3.621   3.813  12.825  0.8120  0.2351 -0.1461
  103TMC2    C2 1600   3.667   3.724  12.918 -0.1905 -1.0567  0.2651
  103TMC2    C3 1601   3.748   3.768  13.011  0.1659 -0.0019 -0.3871
  103TMC2    C4 1602   3.645   3.947  12.824 -0.0080 -0.1920 -0.4899
  103TMC2    C5 1603   3.728   3.989  12.929 -0.1325 -0.1865 -0.1717
  103TMC2    C6 1604   3.781   3.898  13.019 -0.0498 -0.3315 -0.5042
  103TMC2     C 1605   3.544   3.768  12.706 -0.8673 -0.3873 -0.2249
  103TMC2     O 1606   3.481   3.851  12.638  0.0318 -0.1669  0.7628
  103TMC2     H 1607   3.654   3.617  12.901  2.3174 -1.4770  1.0143
  103TMC2    H1 1608   3.601   4.017  12.754 -1.2829 -0.6624 -0.1588
  103TMC2    H2 1609   3.843   3.933  13.101 -0.8671  1.0458 -0.4744
  103TMC2    C7 1610   3.746   4.131  12.966  0.2052  0.3991 -0.2253
  103TMC2    C8 1611   3.771   3.694  13.130 -0.1665 -0.5973  0.0367
  103TMC2    O1 1612   3.805   4.151  13.073  0.0106  0.8628  0.0412
  103TMC2    O2 1613   3.869   3.707  13.207 -0.4533  0.5982 -0.0729
  103TMC2    O5 1614   3.674   3.600  13.139 -0.3599 -0.5251  0.5639
  103TMC2    H5 1615   3.595   3.636  13.095  1.2269  3.5760  1.0794
  104MPD2     C 1616   3.485   3.424  12.589 -0.6716 -0.1570 -0.4661
  104MPD2    C1 1617   3.475   3.564  12.585 -0.5904 -0.0836 -0.2302
  104MPD2    C2 1618   3.389   3.623  12.492 -0.5136  0.9176 -0.1256
  104MPD2    C3 1619   3.301   3.547  12.414  0.5999 -0.1266  0.6978
  104MPD2    C4 1620   3.308   3.411  12.432  0.1272 -0.1253  1.2565
  104MPD2    C5 1621   3.390   3.352  12.520 -0.1531 -0.4521  0.8006
  104MPD2     H 1622   3.391   3.731  12.478 -0.8149  0.8165 -0.9351
  104MPD2    H1 1623   3.239   3.338  12.391  1.2292 -1.2459  1.3943
  104MPD2    H2 1624   3.546   3.367  12.658  1.5228  0.1023 -2.1958
  104MPD2    H3 1625   3.396   3.246  12.543  1.4730 -0.4561  0.3880
  104MPD2     N 1626   3.205   3.614  12.332  0.2990  0.6298 -0.0218
  104MPD2    H5 1627   3.216   3.714  12.335  1.2072  0.5115  0.5490
  104MPD2    N1 1628   3.553   3.638  12.680 -0.2311 -0.7497  0.4228
  104MPD2    H7 1629   3.608   3.587  12.748  2.8718  0.5212 -1.1126
  105TMC2    C1 1630   4.582   4.357   0.309 -0.0780 -0.0804  0.6946
  105TMC2    C2 1631   4.509   4.419   0.211 -0.1771  0.3543  0.7346
  105TMC2    C3 1632   4.433   4.522   0.260 -0.2808  0.4861 -0.1857
  105TMC2    C4 1633   4.556   4.367   0.442 -0.9870  0.4292  0.0929
  105TMC2    C5 1634   4.486   4.478   0.486 -0.0231 -0.1821 -0.0276
  105TMC2    C6 1635   4.419   4.559   0.395 -0.1560  0.4404  0.2477
  105TMC2     C 1636   4.663   4.244   0.268 -0.1642 -0.8046 -0.2667
  105TMC2     O 1637   4.731   4.190   0.354  0.3479 -0.1591  0.1904
  105TMC2     H 1638   4.507   4.389   0.107 -0.5378  3.1554 -0.0819
  105TMC2    H1 1639   4.600   4.309   0.523  2.0392 -0.9113 -2.5153
  105TMC2    H2 1640   4.351   4.636   0.429 -0.8330  0.3493 -0.9436
  105TMC2    C7 1641   4.494   4.510   0.625 -0.2292  0.4812  0.0670
  105TMC2    C8 1642   4.426   4.639   0.180 -0.4169 -0.5155  0.2159
  105TMC2    O1 1643   4.579   4.460   0.695 -0.3749  0.1713  0.2880
  105TMC2    O2 1644   4.461   0.015   0.208  0.0168  0.5790  0.2044
  105TMC2    O5 1645   4.416   4.584   0.054  0.2621 -0.0523 -0.1967
  105TMC2    H5 1646   4.383   4.492   0.045  0.6343 -0.3145  1.1726
  106MPD2     C 1647   0.093   3.886  17.687 -0.2067 -0.0285  0.6410
  106MPD2    C1 1648   0.056   3.994  17.615  0.4272 -0.9189  0.5780
  106MPD2    C2 1649   0.007   4.106  17.680 -0.6448 -0.8625  0.3087
  106MPD2    C3 1650   4.727   4.111   0.074 -0.0999 -0.0786 -0.2687
  106MPD2    C4 1651   0.025   3.992   0.145  0.2977  0.0982  0.7381
  106MPD2    C5 1652   0.054   3.880   0.073  0.4594 -0.3695  0.0728
  106MPD2     H 1653   4.706   4.181  17.612 -0.6546 -1.0914  0.0583
  106MPD2    H1 1654   0.019   3.988   0.253  0.0851 -0.1233  0.7175
  106MPD2    H2 1655   0.138   3.797  17.644 -0.6527  0.3151 -0.5442
  106MPD2    H3 1656   0.095   3.803   0.136 -0.0177 -0.9542 -0.3359
  106MPD2     N 1657   4.674   4.227   0.132 -0.1166  0.4197  0.3466
  106MPD2    H5 1658   4.633   4.301   0.076 -0.4232  1.4384  1.9137
  106MPD2    N1 1659   0.070   4.003  17.475 -0.6551  0.1210 -0.0191
  106MPD2    H7 1660   0.038   4.085  17.423  0.9777  0.0113 -1.2056
  107TMC2    C1 1661   1.054   3.444  11.822 -0.3841 -0.1208 -0.5917
  107TMC2    C2 1662   1.151   3.537  11.854  0.0320  0.2659  0.5118
  107TMC2    C3 1663   1.173   3.644  11.771  0.2276  0.3101  0.0013
  107TMC2    C4 1664   0.997   3.447  11.698  0.1074 -0.3896 -0.3384
  107TMC2    C5 1665   1.028   3.553  11.616 -0.1795  0.6944  0.1930
  107TMC2    C6 1666   1.120   3.646  11.646  0.3641 -0.4027 -0.1222
  107TMC2     C 1667   0.973   3.381  11.920  0.1061 -0.0008 -0.4015
  107TMC2     O 1668   0.970   3.425  12.034 -0.6254  1.1660 -0.0615
  107TMC2     H 1669   1.166   3.544  11.962  1.0046 -0.8069  0.4492
  107TMC2    H1 1670   0.914   3.384  11.667 -1.0001  1.1712 -0.5461
  107TMC2    H2 1671   1.155   3.709  11.565 -0.4939 -0.6782 -0.7038
  107TMC2    C7 1672   1.010   3.528  11.474 -0.6012  0.7005  0.4987
  107TMC2    C8 1673   1.288   3.727  11.788  0.2803 -0.3613 -0.0347
  107TMC2    O1 1674   1.023   3.626  11.400  0.0672 -0.2266  0.3906
  107TMC2    O2 1675   1.400   3.698  11.755  0.0328  0.9412 -0.1172
  107TMC2    O5 1676   1.229   3.848  11.797 -0.2327 -0.4610  0.2832
  107TMC2    H5 1677   1.131   3.847  11.801 -0.2235  0.2564  0.5212
  108MPD2     C 1678   0.748   3.092  11.857  0.9356 -0.6070  0.7158
  108MPD2    C1 1679   0.798   3.200  11.932  0.6507 -0.2449 -0.3114
  108MPD2    C2 1680   0.727   3.244  12.044  0.3066  0.6624  0.5533
  108MPD2    C3 1681   0.608   3.174  12.081  0.3349 -0.5352 -0.1796
  108MPD2    C4 1682   0.572   3.059  12.017  0.3470 -0.3526  0.3370
  108MPD2    C5 1683   0.641   3.020  11.907 -0.0294 -0.9519  0.2100
  108MPD2     H 1684   0.753   3.334  12.097  0.0110  2.6779 -2.7008
  108MPD2    H1 1685   0.481   3.005  12.040  1.3420 -1.2096  2.2276
  108MPD2    H2 1686   0.807   3.056  11.773 -0.4776 -0.7180 -0.2242
  108MPD2    H3 1687   0.612   2.927  11.860  1.4218 -2.1969  1.7536
  108MPD2     N 1688   0.525   3.217  12.188  0.1655  0.9221  0.1974
  108MPD2    H5 1689   0.446   3.160  12.218  0.3671 -1.1312 -3.1620
  108MPD2    N1 1690   0.908   3.270  11.877 -0.1956  0.2064  0.3132
  108MPD2    H7 1691   0.942   3.227  11.790 -3.3462 -1.3010 -0.1684
  109TMC2    C1 1692   0.632   0.407  17.625  0.1064  0.0197 -0.1197
  109TMC2    C2 1693   0.601   0.392  17.494  0.3244 -0.3478  0.8451
  109TMC2    C3 1694   0.614   0.497  17.415 -0.2512 -0.5058  0.0169
  109TMC2    C4 1695   0.670   0.525  17.683  0.2549 -0.5756  1.7404
  109TMC2    C5 1696   0.668   0.637  17.594 -0.3146  0.2099 -0.3690
  109TMC2    C6 1697   0.646   0.617  17.462  0.1329 -0.0916  0.3885
  109TMC2     C 1698   0.578   0.309  17.718  0.2842  0.6295  0.0208
  109TMC2     O 1699   0.555   0.200  17.667  0.2234  0.1048  0.1632
  109TMC2     H 1700   0.545   0.309  17.453  0.8201  0.5924 -1.7357
  109TMC2    H1 1701   0.698   0.542   0.039 -1.4192 -1.8072  2.3725
  109TMC2    H2 1702   0.661   0.700  17.394  3.0891 -0.8562  0.1182
  109TMC2    C7 1703   0.734   0.759  17.636 -0.4567  0.6542  0.3861
  109TMC2    C8 1704   0.610   0.488  17.270  0.2160 -0.2211 -0.1922
  109TMC2    O1 1705   0.722   0.796   0.004  0.0668 -0.2193 -0.0776
  109TMC2    O2 1706   0.572   0.575  17.193 -0.0429  0.1732 -0.1354
  109TMC2    O5 1707   0.691   0.391  17.236  0.0686  0.7772  0.2030
  109TMC2    H5 1708   0.742   0.347  17.308 -1.5704  1.1675  1.6131
  110MPD2     C 1709   0.324   0.175   0.397  0.5031 -0.3065 -0.0199
  110MPD2    C1 1710   0.333   0.311   0.386 -0.4097 -0.1723  0.1567
  110MPD2    C2 1711   0.406   0.380   0.293  0.5467  0.1240  0.0590
  110MPD2    C3 1712   0.472   0.304   0.193  0.2411 -0.1979 -0.2582
  110MPD2    C4 1713   0.465   0.164   0.207  0.1208  0.3019  0.5566
  110MPD2    C5 1714   0.395   0.098   0.302  0.2969  0.0650 -0.1490
  110MPD2     H 1715   0.383   0.484   0.275 -0.0862 -0.3200 -1.6865
  110MPD2    H1 1716   0.513   0.101   0.133  0.1858  2.6130 -1.3888
  110MPD2    H2 1717   0.268   0.124   0.474  2.0103 -0.4544  0.9734
  110MPD2    H3 1718   0.388   4.727   0.308 -0.7886  0.0606 -1.5977
  110MPD2     N 1719   0.538   0.366   0.084 -0.1774 -0.1806 -0.0450
  110MPD2    H5 1720   0.551   0.466   0.090  0.9250 -0.4547  2.2240
  110MPD2    N1 1721   0.244   0.369   0.478  0.9674  0.3941 -0.4981
  110MPD2    H7 1722   0.181   0.305   0.525  1.2515  1.7496  1.7185
  111TMC2    C1 1723   1.035   4.628  11.734 -0.1475  0.7231  0.3516
  111TMC2    C2 1724   0.938   4.601  11.828  0.0364  0.1920  0.0884
  111TMC2    C3 1725   0.975   4.608  11.958  0.5930  0.4229 -1.0735
  111TMC2    C4 1726   1.159   4.669  11.766 -0.0427  0.0959  0.4914
  111TMC2    C5 1727   1.195   4.682  11.900 -0.0372  0.3721  0.8543
  111TMC2    C6 1728   1.101   4.652  11.996  0.4020 -0.6039 -0.3845
  111TMC2     C 1729   1.003   4.639  11.595  0.3299  0.1716  0.2100
  111TMC2     O 1730   1.092   4.652  11.515  0.0021  0.0769 -0.2985
  111TMC2     H 1731   0.843   4.554  11.802  1.5689 -0.9368 -3.5197
  111TMC2    H1 1732   1.227   4.694  11.686  2.1057 -0.2781  2.2114
  111TMC2    H2 1733   1.130   4.657  12.100 -2.0327 -0.9736  0.3131
  111TMC2    C7 1734   1.330   4.724  11.939  0.5381  0.1725  0.2320
  111TMC2    C8 1735   0.859   4.593  12.049  0.7362 -0.4134  0.0957
  111TMC2    O1 1736   1.340   0.006  12.055 -0.1505  0.8067 -0.0938
  111TMC2    O2 1737   0.744   4.610  12.012 -0.1890  0.4570 -0.0533
  111TMC2    O5 1738   0.914   4.528  12.158 -0.1255 -0.1904  0.4416
  111TMC2    H5 1739   1.011   4.538  12.172  0.0272 -1.3905  0.1846
  112MPD2     C 1740   0.650   4.722  11.230 -0.7911 -0.0924 -0.0854
  112MPD2    C1 1741   0.781   0.018  11.234  0.2185 -0.0957  0.6370
  112MPD2    C2 1742   0.853   0.000  11.355  0.6332 -0.3951 -0.3357
  112MPD2    C3 1743   0.792   4.683  11.466 -0.0181 -0.3795 -0.3426
  112MPD2    C4 1744   0.654   4.656  11.466 -0.3924  0.1023  0.2360
  112MPD2    C5 1745   0.587   4.659  11.343  0.5144  0.1513 -0.0332
  112MPD2     H 1746   0.959   0.024  11.357  0.5811 -0.1269 -0.7356
  112MPD2    H1 1747   0.607   4.605  11.550  0.6990 -0.3961  0.5492
  112MPD2    H2 1748   0.599   4.713  11.134 -1.8051 -0.9634  0.5307
  112MPD2    H3 1749   0.481   4.638  11.338  0.0663  2.2129  1.0433
  112MPD2     N 1750   0.863   4.654  11.582 -0.7876 -0.3867 -0.0062
  112MPD2    H5 1751   0.804   4.637  11.663  0.1146 -0.4893  0.6287
  112MPD2    N1 1752   0.850   0.069  11.113  0.1290  0.6302 -0.3451
  112MPD2    H7 1753   0.947   0.100  11.119  0.2411  0.3513 -0.7101
  113TMC2    C1 1754   3.460   3.843   0.944 -0.4704  0.1779  0.5268
  113TMC2    C2 1755   3.341   3.880   0.996  0.2132  0.0086 -0.0540
  113TMC2    C3 1756   3.228   3.855   0.928 -0.2409  0.0777  0.0168
  113TMC2    C4 1757   3.465   3.814   0.813  0.5013  0.5182 -0.2192
  113TMC2    C5 1758   3.348   3.806   0.738 -0.1997 -0.3125 -0.7755
  113TMC2    C6 1759   3.223   3.823   0.793 -0.3282 -0.5349 -0.0355
  113TMC2     C 1760   3.576   3.890   1.018  0.0606 -0.1950 -0.4082
  113TMC2     O 1761   3.562   3.973   1.105  0.1926  0.4487 -0.0907
  113TMC2     H 1762   3.343   3.918   1.097 -3.5637  1.0672 -0.3958
  113TMC2    H1 1763   3.560   3.817   0.760  0.2626 -2.5122 -0.8391
  113TMC2    H2 1764   3.135   3.804   0.734  0.2918  1.1779 -1.4948
  113TMC2    C7 1765   3.355   3.707   0.635  0.2373 -0.0890 -0.0921
  113TMC2    C8 1766   3.111   3.912   0.983  0.6973 -1.0930 -0.3690
  113TMC2    O1 1767   3.436   3.724   0.544  0.6816  0.2400 -0.1737
  113TMC2    O2 1768   3.097   3.957   1.094  0.4959 -0.3240 -0.4770
  113TMC2    O5 1769   3.051   3.963   0.878 -0.7499  0.3160 -0.1218
  113TMC2    H5 1770   3.101   3.974   0.795 -0.5980 -0.8684 -0.1833
  114MPD2     C 1771   4.056   3.793   1.191  0.0328 -0.0170 -0.4689
  114MPD2    C1 1772   3.975   3.903   1.216  1.3207 -0.4861  0.7356
  114MPD2    C2 1773   3.852   3.899   1.151 -0.6855  0.0192  0.3945
  114MPD2    C3 1774   3.808   3.804   1.064 -0.5679  0.9909  0.5857
  114MPD2    C4 1775   3.894   3.706   1.028  0.1830 -0.1035 -0.3114
  114MPD2    C5 1776   4.018   3.701   1.096 -0.6609  0.4295  0.3423
  114MPD2     H 1777   3.784   3.979   1.178  1.9712  1.7227  2.0173
  114MPD2    H1 1778   3.867   3.634   0.952 -0.8184 -0.4718  0.3947
  114MPD2    H2 1779   4.146   3.771   1.248  0.4668 -0.4422 -1.3377
  114MPD2    H3 1780   4.088   3.619   1.079 -0.0990  0.9420  0.1711
  114MPD2     N 1781   3.678   3.805   1.002 -0.3033 -0.7491  0.0060
  114MPD2    H5 1782   3.666   3.725   0.941 -1.4587  2.5919 -4.1511
  114MPD2    N1 1783   4.001   4.011   1.302 -0.1106  0.5867  0.4968
  114MPD2    H7 1784   3.935   4.088   1.312  1.2619  1.3678  3.3095
  115TMC2    C1 1785   4.733   1.195   0.331 -0.4966 -0.3895 -0.0164
  115TMC2    C2 1786   0.042   1.115   0.429 -1.0433  0.7509 -0.4871
  115TMC2    C3 1787   0.151   1.155   0.489 -0.2701 -0.0583  0.3066
  115TMC2    C4 1788   0.065   1.305   0.284 -0.2004  0.6743  0.2722
  115TMC2    C5 1789   0.177   1.337   0.347 -0.2037 -0.1930 -0.1172
  115TMC2    C6 1790   0.225   1.265   0.453  0.2203  0.2003  0.1151
  115TMC2     C 1791   4.602   1.162   0.280 -0.0336 -0.6715  0.2630
  115TMC2     O 1792   4.581   1.207   0.168  0.0178  0.5109 -0.3531
  115TMC2     H 1793   0.003   1.019   0.461  1.1732 -0.9106 -2.7756
  115TMC2    H1 1794   0.046   1.361   0.193 -2.8525 -0.7628 -0.0591
  115TMC2    H2 1795   0.307   1.295   0.517 -0.3658  0.1408  0.9047
  115TMC2    C7 1796   0.231   1.467   0.343 -1.0205  0.3198 -0.3307
  115TMC2    C8 1797   0.209   1.055   0.575 -0.4723  0.6377 -0.0640
  115TMC2    O1 1798   0.281   1.502   0.448 -0.2620 -0.4867 -0.1730
  115TMC2    O2 1799   0.141   0.969   0.625  0.7106  1.1488  0.7386
  115TMC2    O5 1800   0.328   1.030   0.523  0.1923  0.2709  0.2698
  115TMC2    H5 1801   0.359   1.082   0.445 -0.0941  0.1043  0.0422
  116MPD2     C 1802   4.179   0.878   0.235 -0.3082  0.1261 -0.8409
  116MPD2    C1 1803   4.274   0.920   0.140  1.0934  0.0877  0.7273
  116MPD2    C2 1804   4.385   0.997   0.176  0.5011  0.6290 -0.5206
  116MPD2    C3 1805   4.404   1.025   0.313 -0.2539 -0.0807 -0.5920
  116MPD2    C4 1806   4.310   0.977   0.402  0.1884 -0.4481 -0.4357
  116MPD2    C5 1807   4.199   0.909   0.367 -0.7139 -0.4344 -0.3282
  116MPD2     H 1808   4.456   1.030   0.101  1.5909  0.7539  0.5645
  116MPD2    H1 1809   4.332   0.975   0.508  1.5130  0.0981 -0.7067
  116MPD2    H2 1810   4.094   0.818   0.206 -1.1718  1.4358 -1.0274
  116MPD2    H3 1811   4.129   0.886   0.446 -0.6412 -0.1638 -0.1862
  116MPD2     N 1812   4.520   1.091   0.360  0.0632  0.2181 -0.4557
  116MPD2    H5 1813   4.540   1.092   0.459  1.4819  1.3772 -0.7618
  116MPD2    N1 1814   4.255   0.882   0.007  0.2433 -0.3601 -0.0742
  116MPD2    H7 1815   4.183   0.811  17.743 -0.0026  0.1276 -1.6354
  117TMC2    C1 1816   3.464   2.468  14.211  0.4486  0.0073 -0.4995
  117TMC2    C2 1817   3.580   2.426  14.267 -0.5878  0.0705  0.1952
  117TMC2    C3 1818   3.648   2.507  14.348  0.5956  0.3690  0.2419
  117TMC2    C4 1819   3.414   2.590  14.245  0.0365  0.2815  0.5474
  117TMC2    C5 1820   3.485   2.673  14.330  0.9716 -0.3537 -0.7494
  117TMC2    C6 1821   3.605   2.629  14.387  1.2094 -0.8298  0.3706
  117TMC2     C 1822   3.413   2.393  14.103 -0.0483 -0.3781  0.2728
  117TMC2     O 1823   3.487   2.325  14.036 -0.7433  0.0632 -0.2918
  117TMC2     H 1824   3.618   2.328  14.240  2.4425  1.5153 -0.7399
  117TMC2    H1 1825   3.334   2.623  14.180  0.1471  0.3465  0.4444
  117TMC2    H2 1826   3.668   2.703  14.433  0.3591 -0.6089  1.1645
  117TMC2    C7 1827   3.460   2.816  14.333  0.3213 -0.2109  0.3736
  117TMC2    C8 1828   3.777   2.459  14.407 -0.4640  0.5436  0.0561
  117TMC2    O1 1829   3.551   2.899  14.348 -0.1467 -0.2141 -0.2769
  117TMC2    O2 1830   3.838   2.365  14.360  0.2632 -0.5567  0.2909
  117TMC2    O5 1831   3.767   2.475  14.541 -0.0872 -0.4578  0.2748
  117TMC2    H5 1832   3.690   2.528  14.571 -0.7590 -1.0816 -0.3649
  118MPD2     C 1833   3.135   2.968  14.259 -0.6403  0.0328 -0.3611
  118MPD2    C1 1834   3.273   2.969  14.273 -0.1389 -0.4723 -0.3915
  118MPD2    C2 1835   3.344   3.085  14.278  0.4795 -0.5851  0.1005
  118MPD2    C3 1836   3.273   3.205  14.276  1.4320  0.7205  0.5174
  118MPD2    C4 1837   3.138   3.205  14.270 -0.3664  0.2602 -0.0626
  118MPD2    C5 1838   3.073   3.084  14.244  0.3401 -0.1574 -0.2910
  118MPD2     H 1839   3.452   3.086  14.291  0.5528  1.0770 -0.6300
  118MPD2    H1 1840   3.077   3.293  14.291 -1.4736 -0.0995 -1.7799
  118MPD2    H2 1841   3.079   2.875  14.259 -2.1534  0.9482 -1.6158
  118MPD2    H3 1842   2.965   3.079  14.249  0.4131  0.0248  1.3885
  118MPD2     N 1843   3.336   3.335  14.281  0.4403  0.0093  0.3994
  118MPD2    H5 1844   3.278   3.419  14.282 -0.5586 -0.7031  2.4175
  118MPD2    N1 1845   3.331   2.842  14.293  0.2568  0.5025 -0.1520
  118MPD2    H7 1846   3.268   2.763  14.298  0.6095  0.2113 -0.2801
  119TMC2    C1 1847   1.367   3.529  13.638  0.3812 -1.1855  0.0242
  119TMC2    C2 1848   1.400   3.548  13.507  0.4276  0.7454  0.1895
  119TMC2    C3 1849   1.301   3.500  13.420 -0.5232 -0.7330 -0.0567
  119TMC2    C4 1850   1.244   3.482  13.681 -0.3434 -0.6877 -0.3065
  119TMC2    C5 1851   1.155   3.443  13.582 -0.1385  1.1874 -0.2761
  119TMC2    C6 1852   1.185   3.439  13.451 -0.2538  0.0163  0.6064
  119TMC2     C 1853   1.451   3.570  13.754  0.0819  0.0074 -0.1897
  119TMC2     O 1854   1.391   3.576  13.861  0.2969  0.0852 -0.0133
  119TMC2     H 1855   1.486   3.605  13.473 -0.1647  0.3161 -2.0010
  119TMC2    H1 1856   1.221   3.467  13.786 -2.9555 -0.1417 -0.7999
  119TMC2    H2 1857   1.110   3.428  13.374  0.9755  1.6877 -0.8246
  119TMC2    C7 1858   1.011   3.428  13.624 -0.3484 -0.4784  0.0287
  119TMC2    C8 1859   1.321   3.545  13.285 -0.9208 -0.0572  0.1010
  119TMC2    O1 1860   0.936   3.432  13.531  0.0904 -0.1800 -0.2074
  119TMC2    O2 1861   1.381   3.649  13.255  0.0027 -0.1227  0.6215
  119TMC2    O5 1862   1.272   3.456  13.193  0.2458  0.2243  0.1189
  119TMC2    H5 1863   1.238   3.372  13.231 -0.6834  0.8388  0.6419
  120MPD2     C 1864   1.876   3.719  13.999  0.1788 -0.6611 -0.1618
  120MPD2    C1 1865   1.744   3.731  14.048 -0.5174  0.0736 -0.6298
  120MPD2    C2 1866   1.637   3.701  13.960 -0.3781  0.0987 -0.2220
  120MPD2    C3 1867   1.663   3.640  13.830  0.4207  1.1226 -0.5561
  120MPD2    C4 1868   1.789   3.636  13.788  0.6368  0.1360 -0.2288
  120MPD2    C5 1869   1.891   3.674  13.867  0.1506 -0.5821  0.3285
  120MPD2     H 1870   1.537   3.705  14.000  0.2046 -1.9144  1.4407
  120MPD2    H1 1871   1.811   3.587  13.694  2.0208  0.4870 -0.0778
  120MPD2    H2 1872   1.956   3.743  14.068  0.4125 -1.5002 -0.1333
  120MPD2    H3 1873   1.994   3.662  13.837 -0.5586 -0.3183 -2.2026
  120MPD2     N 1874   1.577   3.609  13.726 -0.0883  0.2604 -0.0473
  120MPD2    H5 1875   1.614   3.588  13.634  0.7242 -2.4435  0.8930
  120MPD2    N1 1876   1.712   3.764  14.186 -0.1481  0.2338  0.6556
  120MPD2    H7 1877   1.792   3.766  14.249 -0.9191  1.4342  1.6011
  121TMC2    C1 1878   2.983   0.791  14.304  0.3878 -0.6269 -0.3429
  121TMC2    C2 1879   3.010   0.753  14.433 -0.6125 -0.3470 -0.2939
  121TMC2    C3 1880   2.908   0.715  14.510 -0.1015 -0.7526 -0.2390
  121TMC2    C4 1881   2.870   0.742  14.245 -0.1152 -0.4918 -0.0097
  121TMC2    C5 1882   2.777   0.682  14.322  0.1116 -0.5455  0.3516
  121TMC2    C6 1883   2.794   0.663  14.457 -0.0668  0.1722  0.2872
  121TMC2     C 1884   3.089   0.857  14.228  1.4130  0.1218 -0.2213
  121TMC2     O 1885   3.191   0.867  14.293 -0.1603 -0.1350  0.1584
  121TMC2     H 1886   3.100   0.783  14.484 -2.6215  1.2987  2.2457
  121TMC2    H1 1887   2.863   0.742  14.137  1.1721 -1.7682 -0.0858
  121TMC2    H2 1888   2.718   0.623  14.524  0.9596 -1.2714  0.6066
  121TMC2    C7 1889   2.645   0.677  14.256  0.1713  0.5297 -0.3723
  121TMC2    C8 1890   2.939   0.714  14.653 -0.5643 -0.0387  0.7767
  121TMC2    O1 1891   2.637   0.740  14.153 -0.1328 -0.2412 -0.7364
  121TMC2    O2 1892   3.050   0.684  14.691  0.2536 -0.1523  0.4302
  121TMC2    O5 1893   2.827   0.694  14.720  0.4076 -0.5494 -0.2839
  121TMC2    H5 1894   2.744   0.738  14.692  1.1791  1.1508  0.1440
  122MPD2     C 1895   3.282   0.995  14.038  1.0228  0.3563  0.4256
  122MPD2    C1 1896   3.139   0.969  14.012  0.2691  0.5793 -0.0721
  122MPD2    C2 1897   3.088   1.001  13.885  0.4294 -0.0940 -0.3014
  122MPD2    C3 1898   3.174   1.047  13.789  0.0139 -0.6634 -0.2693
  122MPD2    C4 1899   3.309   1.074  13.818  0.7113 -0.1765  1.2652
  122MPD2    C5 1900   3.363   1.043  13.939 -0.6584  0.8940  0.2836
  122MPD2     H 1901   2.985   0.970  13.869 -0.1304  2.3537 -1.4920
  122MPD2    H1 1902   3.376   1.121  13.748 -0.3511 -1.3043 -0.4941
  122MPD2    H2 1903   3.330   0.982  14.135  0.9149  2.9552  0.8083
  122MPD2    H3 1904   3.471   1.050  13.951 -1.0262  3.5335  1.9657
  122MPD2     N 1905   3.131   1.084  13.655  0.1959 -0.2025 -0.0589
  122MPD2    H5 1906   3.208   1.087  13.589  1.4958  1.8542  1.5540
  122MPD2    N1 1907   3.055   0.903  14.103  0.5223 -0.0587  0.3906
  122MPD2    H7 1908   2.961   0.890  14.066  0.5637 -1.1560  0.6686
  123TMC2    C1 1909   1.912   4.004  10.740 -0.1298 -0.2510 -0.3801
  123TMC2    C2 1910   1.959   4.140  10.759 -0.6252 -0.4735  0.1069
  123TMC2    C3 1911   2.079   4.175  10.704 -0.2445 -0.2043  0.3460
  123TMC2    C4 1912   1.986   3.920  10.665  0.7150  0.3229 -0.3115
  123TMC2    C5 1913   2.105   3.965  10.605  0.1049  0.3592 -0.1523
  123TMC2    C6 1914   2.160   4.091  10.633 -0.3708 -0.1091 -0.4203
  123TMC2     C 1915   1.795   3.953  10.806 -0.2336 -0.0068  0.4950
  123TMC2     O 1916   1.728   4.031  10.868 -0.0343  0.1191  0.3715
  123TMC2     H 1917   1.897   4.221  10.793 -1.4505  0.1903 -2.9483
  123TMC2    H1 1918   1.954   3.818  10.644  2.0744 -0.4813  1.5768
  123TMC2    H2 1919   2.247   4.123  10.577  0.1530  0.9861  1.0131
  123TMC2    C7 1920   2.142   3.886  10.490  0.2790 -0.2044  0.6835
  123TMC2    C8 1921   2.133   4.309  10.709  0.0449  0.0091 -0.5567
  123TMC2    O1 1922   2.114   3.766  10.496 -0.7404  0.3028  0.3933
  123TMC2    O2 1923   2.069   4.407  10.685 -0.1880  0.1401 -0.7927
  123TMC2    O5 1924   2.260   4.306  10.755  0.8285  0.7010  0.1278
  123TMC2    H5 1925   2.268   4.222  10.803 -2.9728 -1.0302 -2.2302
  124MPD2     C 1926   1.521   3.574  11.005  0.6505  0.0182  0.3241
  124MPD2    C1 1927   1.615   3.518  10.927  0.1071  0.9833  0.4664
  124MPD2    C2 1928   1.697   3.604  10.858 -0.2057 -0.3541  0.1440
  124MPD2    C3 1929   1.699   3.741  10.884  0.2327 -0.1665 -0.1790
  124MPD2    C4 1930   1.609   3.794  10.976 -0.7617  0.3516 -0.3681
  124MPD2    C5 1931   1.514   3.706  11.022 -1.1100  0.5060  0.2729
  124MPD2     H 1932   1.763   3.559  10.785  0.8612  0.4370  0.6131
  124MPD2    H1 1933   1.601   3.900  10.996 -2.0171  0.4482 -1.3707
  124MPD2    H2 1934   1.440   3.511  11.040  2.4988 -1.2803  2.2600
  124MPD2    H3 1935   1.436   3.747  11.084  0.4747  3.3513  0.3796
  124MPD2     N 1936   1.787   3.821  10.806  0.2616 -0.6444  0.1597
  124MPD2    H5 1937   1.853   3.777  10.743  1.1999 -2.3207  2.3334
  124MPD2    N1 1938   1.602   3.386  10.892 -0.5492 -0.9203 -0.9582
  124MPD2    H7 1939   1.522   3.330  10.921 -0.8508  1.4704  2.7832
  125TMC2    C1 1940   2.570   0.881   9.612 -0.8412  0.3081 -0.6238
  125TMC2    C2 1941   2.500   0.992   9.659  0.1676 -0.1358  0.0732
  125TMC2    C3 1942   2.556   1.053   9.765 -0.8803  0.1435  0.1265
  125TMC2    C4 1943   2.668   0.819   9.681  0.1455  0.0167 -0.2028
  125TMC2    C5 1944   2.703   0.878   9.805  0.2544 -0.3143 -0.5692
  125TMC2    C6 1945   2.645   0.992   9.849 -0.6612 -0.3458 -0.3767
  125TMC2     C 1946   2.519   0.820   9.495  0.3312  0.2525  0.1297
  125TMC2     O 1947   2.513   0.698   9.494  0.1204  0.0287  0.6572
  125TMC2     H 1948   2.422   1.041   9.602  1.0316  0.4559 -0.6117
  125TMC2    H1 1949   2.697   0.720   9.647 -0.1040  0.5513 -1.9597
  125TMC2    H2 1950   2.678   1.046   9.937 -0.5103  1.9552 -1.8454
  125TMC2    C7 1951   2.796   0.805   9.886  0.6286 -0.7836  0.5290
  125TMC2    C8 1952   2.558   1.197   9.787 -0.0721 -0.2917 -0.0764
  125TMC2    O1 1953   2.807   0.843  10.000 -0.0193  0.3477 -0.5200
  125TMC2    O2 1954   2.582   1.242   9.894  0.1692 -0.5377 -0.0071
  125TMC2    O5 1955   2.488   1.263   9.697 -0.2474  0.0398 -0.0305
  125TMC2    H5 1956   2.479   1.224   9.608  0.2906  1.0090 -0.5027
  126MPD1     C 1957   2.278   0.846   9.040  0.2325  0.2409  0.0104
  126MPD1    C1 1958   2.311   0.971   9.082 -0.3820 -0.2743  0.7466
  126MPD1    C2 1959   2.376   0.993   9.198 -0.3005 -0.0252 -0.0198
  126MPD1    C3 1960   2.410   0.886   9.278 -0.4949  0.6536 -0.3815
  126MPD1    C4 1961   2.371   0.754   9.249 -0.4114  0.1115  0.0970
  126MPD1    C5 1962   2.307   0.748   9.129 -0.1015 -0.0834  0.3494
  126MPD1     H 1963   2.397   1.096   9.225  1.6455 -0.1476 -1.0614
  126MPD1    H1 1964   2.379   0.668   9.314 -0.6446  1.3960  1.8202
  126MPD1    H2 1965   2.217   0.818   8.956  0.7436  1.9266 -0.9266
  126MPD1    H3 1966   2.284   0.648   9.095 -1.6576  0.2446  0.4371
  126MPD1     N 1967   2.466   0.915   9.404 -0.2014  0.0186  0.0038
  126MPD1    H5 1968   2.491   1.011   9.426  1.3714  0.0871 -2.0938
  126MPD1    N1 1969   2.260   1.084   9.010 -0.2828  0.1723 -0.5025
  126MPD1    H6 1970   2.314   1.167   9.031  0.8801 -0.8608  0.5393
  126MPD1    H7 1971   2.275   1.068   8.910 -1.5243  1.4165 -0.8883
  127TMC2    C1 1972   3.459   3.888  10.075  0.1519 -0.5630 -0.3307
  127TMC2    C2 1973   3.494   3.882  10.212  0.3170 -0.3985 -0.3039
  127TMC2    C3 1974   3.400   3.837  10.305  0.1320 -0.7530 -0.0745
  127TMC2    C4 1975   3.327   3.860  10.034 -0.0212 -0.2872 -0.1036
  127TMC2    C5 1976   3.248   3.797  10.124  0.0641 -0.3285 -0.1711
  127TMC2    C6 1977   3.282   3.777  10.261 -0.5467 -0.4634  0.4689
  127TMC2     C 1978   3.568   3.891   9.978 -0.2464 -0.4179  0.1043
  127TMC2     O 1979   3.674   3.940  10.025  0.0419 -0.1950 -0.0790
  127TMC2     H 1980   3.597   3.898  10.241  0.0334 -0.9696  0.9984
  127TMC2    H1 1981   3.294   3.851   9.931  0.9246 -0.5326 -0.3868
  127TMC2    H2 1982   3.205   3.751  10.333 -1.6952  2.4934  0.3145
  127TMC2    C7 1983   3.103   3.781  10.083 -0.3635 -0.1247 -0.5535
  127TMC2    C8 1984   3.433   3.833  10.446  0.2054  0.0780 -0.0447
  127TMC2    O1 1985   3.064   3.849   9.987  0.0618  0.4070 -0.7099
  127TMC2    O2 1986   3.395   3.742  10.513  0.5181 -0.1463 -0.5597
  127TMC2    O5 1987   3.531   3.924  10.465  0.1332  0.1426  0.1978
  127TMC2    H5 1988   3.527   4.002  10.406 -2.1859 -0.7819 -0.8395
  128MPD2     C 1989   3.561   3.886   9.612 -0.0458 -0.5097 -0.3616
  128MPD2    C1 1990   3.615   3.903   9.736 -0.7087 -0.2417 -0.4658
  128MPD2    C2 1991   3.741   3.957   9.749 -0.3301  0.5963 -0.1799
  128MPD2    C3 1992   3.811   3.987   9.637 -0.7352  0.5395  0.2413
  128MPD2    C4 1993   3.760   3.966   9.507  0.6820  0.2687 -0.2477
  128MPD2    C5 1994   3.632   3.913   9.503 -0.5277 -0.0542  0.3408
  128MPD2     H 1995   3.789   3.982   9.844 -3.0221  0.1586  1.2944
  128MPD2    H1 1996   3.810   3.984   9.413 -0.5611  1.6324 -0.6427
  128MPD2    H2 1997   3.464   3.843   9.592 -0.9301  1.0808  0.5627
  128MPD2    H3 1998   3.590   3.901   9.404  2.4724  1.4617 -1.1162
  128MPD2     N 1999   3.941   4.052   9.656  0.8351  1.4180  0.1086
  128MPD2    H5 2000   3.983   4.052   9.748  2.1129  0.9522 -0.4764
  128MPD2    N1 2001   3.531   3.870   9.845  0.2016 -0.4336  0.7327
  128MPD2    H7 2002   3.437   3.836   9.826  1.1544 -1.4836 -2.0219
  129TMC2    C1 2003   2.391   4.328   1.038 -0.3675 -0.8672 -0.2245
  129TMC2    C2 2004   2.424   4.201   1.061  0.0794  0.2771 -0.3900
  129TMC2    C3 2005   2.367   4.130   1.159 -0.1583 -0.4246 -0.1642
  129TMC2    C4 2006   2.302   4.388   1.123 -0.6925 -0.4600  0.0578
  129TMC2    C5 2007   2.254   4.319   1.237 -0.6644  1.2038 -0.6649
  129TMC2    C6 2008   2.288   4.189   1.257 -0.1791  0.0678  0.0055
  129TMC2     C 2009   2.424   4.377   0.900  0.0803  0.3248  0.2877
  129TMC2     O 2010   2.461   4.298   0.817 -0.3978  0.6900 -0.2040
  129TMC2     H 2011   2.505   4.157   1.003 -0.2727  0.1247 -0.7719
  129TMC2    H1 2012   2.257   4.482   1.093 -1.2238 -0.3505  1.1937
  129TMC2    H2 2013   2.253   4.144   1.349 -0.9677 -0.0152 -0.3385
  129TMC2    C7 2014   2.138   4.376   1.309  0.1689  0.3526  0.5022
  129TMC2    C8 2015   2.442   4.013   1.185 -0.1692 -0.7096 -0.2237
  129TMC2    O1 2016   2.061   4.287   1.344  0.1116  0.0201  0.5733
  129TMC2    O2 2017   2.481   3.937   1.098 -0.0441  0.0832  0.0435
  129TMC2    O5 2018   2.479   3.992   1.310 -0.0165 -0.2461  0.0826
  129TMC2    H5 2019   2.481   4.067   1.373 -2.1511  1.3252 -1.7088
  130MPD2     C 2020   2.517   4.553   0.673 -0.6393  0.7427 -0.2964
  130MPD2    C1 2021   2.488   4.596   0.799 -0.2516  0.9261  0.2963
  130MPD2    C2 2022   2.527   4.723   0.838  0.2528 -0.4713 -0.2442
  130MPD2    C3 2023   2.573   0.077   0.748 -0.2439  0.4947  0.8938
  130MPD2    C4 2024   2.587   0.036   0.617  0.1714  0.4374 -0.2493
  130MPD2    C5 2025   2.554   4.644   0.582 -0.7414 -0.4424 -0.4464
  130MPD2     H 2026   2.502   0.030   0.934  0.7534  0.8565 -0.7285
  130MPD2    H1 2027   2.622   0.100   0.537 -1.2146 -2.4808 -3.2208
  130MPD2    H2 2028   2.501   4.452   0.636  2.1036  0.3428 -0.4344
  130MPD2    H3 2029   2.581   4.610   0.483  3.9187 -0.6291  0.8534
  130MPD2     N 2030   2.601   0.206   0.798 -0.0972  1.3209 -0.1510
  130MPD2    H5 2031   2.584   0.227   0.896 -1.7260 -1.2024  0.1000
  130MPD2    N1 2032   2.424   4.513   0.901  0.3048  0.1662 -0.4640
  130MPD2    H7 2033   2.394   4.559   0.986  1.2718 -0.7975  0.4024
  131TMC2    C1 2034   1.900   3.850  10.170 -0.1169 -0.5693 -0.3700
  131TMC2    C2 2035   1.893   3.945  10.261  0.6663  0.3099  0.2637
  131TMC2    C3 2036   1.941   4.071  10.231  0.0847  0.2205 -0.4029
  131TMC2    C4 2037   1.939   3.875  10.047  0.3704  0.7878 -0.1112
  131TMC2    C5 2038   1.990   4.001  10.020  0.5023  0.1840 -0.1050
  131TMC2    C6 2039   1.996   4.107  10.114 -0.5274  0.5825  0.6946
  131TMC2     C 2040   1.835   3.718  10.208 -0.4240 -0.1356 -0.1870
  131TMC2     O 2041   1.777   3.716  10.315  0.0566 -0.0138  0.1243
  131TMC2     H 2042   1.879   3.914  10.364 -1.1370  0.6585  0.1221
  131TMC2    H1 2043   1.947   3.802   9.967  0.6241  0.0906  0.5599
  131TMC2    H2 2044   2.041   4.205  10.107  2.0473 -0.7012 -1.0876
  131TMC2    C7 2045   2.019   4.029   9.885  0.1584  0.0024  0.6229
  131TMC2    C8 2046   1.956   4.172  10.335  0.7415 -0.3001  0.7798
  131TMC2    O1 2047   2.048   3.939   9.810 -0.0100 -0.5579  0.2578
  131TMC2    O2 2048   2.056   4.238  10.339 -0.6409  0.0199  0.4120
  131TMC2    O5 2049   1.864   4.138  10.434 -0.3120  1.0870  0.0907
  131TMC2    H5 2050   1.788   4.089  10.397  1.0312 -0.7780 -0.2085
  132MPD2     C 2051   1.743   3.434   9.988 -0.3156 -0.1815 -0.0263
  132MPD2    C1 2052   1.771   3.498  10.111 -0.0380  0.2936 -0.8477
  132MPD2    C2 2053   1.732   3.438  10.225  0.5263 -0.0982  0.8038
  132MPD2    C3 2054   1.683   3.311  10.234 -0.5489 -0.2529 -0.7893
  132MPD2    C4 2055   1.653   3.243  10.112 -0.7467  0.1803 -0.0500
  132MPD2    C5 2056   1.676   3.307   9.996  0.1372  0.4259  0.0744
  132MPD2     H 2057   1.772   3.471  10.320  0.9303  0.3658  0.4764
  132MPD2    H1 2058   1.607   3.145  10.107  2.4174 -1.3758  1.6084
  132MPD2    H2 2059   1.766   3.476   9.891  0.0987  2.8036  1.3612
  132MPD2    H3 2060   1.657   3.257   9.901  2.9980  3.6154 -2.1646
  132MPD2     N 2061   1.660   3.259  10.366 -0.7757  0.4422  0.1499
  132MPD2    H5 2062   1.681   3.314  10.448  1.1885  1.0986 -0.7796
  132MPD2    N1 2063   1.831   3.625  10.098 -0.0145 -0.2568  0.1457
  132MPD2    H7 2064   1.843   3.658  10.003 -0.0217  0.2505  0.3226
  133TMC2    C1 2065   1.305   4.442   9.966  0.3957 -0.2717  0.5359
  133TMC2    C2 2066   1.387   4.542  10.011  0.7453  0.5207 -0.1066
  133TMC2    C3 2067   1.488   4.510  10.097  0.2272  0.2946 -0.1608
  133TMC2    C4 2068   1.322   4.313  10.006 -0.4463  0.2309  0.1892
  133TMC2    C5 2069   1.428   4.289  10.091  0.6522 -0.3294 -0.0742
  133TMC2    C6 2070   1.516   4.383  10.129 -0.5705  0.2201 -0.0662
  133TMC2     C 2071   1.204   4.467   9.864  0.4037  0.4812 -0.6886
  133TMC2     O 2072   1.174   4.374   9.788 -0.5571  0.0107 -0.3370
  133TMC2     H 2073   1.381   4.645   9.979 -1.5531  0.4424  0.0675
  133TMC2    H1 2074   1.262   4.229   9.974 -0.0216 -0.8071  2.1268
  133TMC2    H2 2075   1.614   4.353  10.163  0.2508 -0.2250 -2.7786
  133TMC2    C7 2076   1.460   4.149  10.104  0.1258  0.0308  0.2907
  133TMC2    C8 2077   1.579   4.620  10.116 -0.1938 -0.0602 -0.6692
  133TMC2    O1 2078   1.582   4.130  10.114 -0.2612  0.0202 -0.5943
  133TMC2    O2 2079   1.595   4.705  10.032  0.0942  0.8866 -0.1309
  133TMC2    O5 2080   1.658   4.581  10.217 -0.9741  0.4081  0.5148
  133TMC2    H5 2081   1.630   4.513  10.281 -0.2542  0.0058  0.3974
  134MPD2     C 2082   0.969   0.029   9.851 -0.4660  0.3312  0.1968
  134MPD2    C1 2083   1.027   4.646   9.814 -0.2246 -0.8754 -0.1690
  134MPD2    C2 2084   0.958   4.583   9.711 -0.1107  0.8077  0.0928
  134MPD2    C3 2085   0.851   4.629   9.642  0.6157  0.6922  0.0633
  134MPD2    C4 2086   0.803   0.015   9.676 -0.4735 -0.0476 -0.3258
  134MPD2    C5 2087   0.859   0.072   9.787 -0.4186  0.2527 -0.1476
  134MPD2     H 2088   0.994   4.485   9.681 -0.3396  0.0960  2.0861
  134MPD2    H1 2089   0.722   0.053   9.615 -0.0093  0.9821 -0.3127
  134MPD2    H2 2090   1.021   0.091   9.924  0.8282  0.1735 -0.5909
  134MPD2    H3 2091   0.822   0.171   9.810  1.4692  0.7220  0.9079
  134MPD2     N 2092   0.779   4.566   9.540  0.9828  0.7476  0.0044
  134MPD2    H5 2093   0.689   4.608   9.519 -0.0796 -0.9277  1.2524
  134MPD2    N1 2094   1.140   4.592   9.880 -0.2909  0.0426 -0.5331
  134MPD2    H7 2095   1.180   4.652   9.952 -0.4452  2.1452 -2.1855
  135TMC2    C1 2096   3.085   1.172  10.081 -0.6168  0.2778 -0.2252
  135TMC2    C2 2097   3.222   1.180  10.066  0.9307 -0.0890  0.2722
  135TMC2    C3 2098   3.296   1.201  10.177 -0.0808 -0.4116  0.1119
  135TMC2    C4 2099   3.025   1.175  10.202 -0.8313  0.4183  0.9442
  135TMC2    C5 2100   3.100   1.201  10.311 -0.5650 -0.3676  0.4979
  135TMC2    C6 2101   3.233   1.217  10.298 -0.1450  0.0004 -0.4763
  135TMC2     C 2102   3.007   1.174   9.961 -0.6738 -0.2829  0.4850
  135TMC2     O 2103   2.896   1.232   9.964 -0.6968 -0.4633 -0.0223
  135TMC2     H 2104   3.270   1.167   9.969 -0.2121  0.4947 -0.3701
  135TMC2    H1 2105   2.918   1.189  10.212 -0.4639  4.2826 -0.5557
  135TMC2    H2 2106   3.293   1.232  10.387 -1.3659 -2.2509  0.7255
  135TMC2    C7 2107   3.040   1.190  10.446  0.6351  0.5986 -0.2914
  135TMC2    C8 2108   3.438   1.176  10.174  0.6092 -0.7337  0.2911
  135TMC2    O1 2109   3.114   1.215  10.542  0.2113 -0.3063 -0.3466
  135TMC2    O2 2110   3.511   1.212  10.081  0.2017 -0.2139  0.1519
  135TMC2    O5 2111   3.454   1.069  10.250  0.5614  0.3395  0.0259
  135TMC2    H5 2112   3.371   1.021  10.269  1.4485 -0.7072  1.2735
  136MPD2     C 2113   2.918   1.169   9.670 -0.6879  0.4107 -1.1315
  136MPD2    C1 2114   3.008   1.078   9.728 -0.2207  0.2994  0.0006
  136MPD2    C2 2115   3.051   0.973   9.657 -0.2081 -0.2389 -0.1532
  136MPD2    C3 2116   2.993   0.945   9.533  0.2170 -0.5951 -0.0940
  136MPD2    C4 2117   2.900   1.024   9.478 -0.1614 -0.4815  1.1145
  136MPD2    C5 2118   2.861   1.136   9.553  0.1296 -0.2104  0.1779
  136MPD2     H 2119   3.123   0.909   9.707 -0.6218  0.1490  0.9433
  136MPD2    H1 2120   2.846   0.989   9.391  1.4138  0.5051 -0.2560
  136MPD2    H2 2121   2.873   1.256   9.716  0.7018  0.0019  1.0239
  136MPD2    H3 2122   2.791   1.204   9.506 -0.0660 -0.1337  0.5813
  136MPD2     N 2123   3.028   0.832   9.453  0.2443  0.3707 -0.9824
  136MPD2    H5 2124   2.976   0.812   9.369 -2.1078 -0.1922  0.5934
  136MPD2    N1 2125   3.059   1.097   9.861  0.2557  0.5548 -0.3872
  136MPD2    H7 2126   3.130   1.027   9.883 -0.2705 -0.0684 -0.6584
  137TMC2    C1 2127   3.216   4.611   9.969 -0.5298  0.0421  0.1891
  137TMC2    C2 2128   3.352   4.633   9.970  0.3698  0.0499 -0.1791
  137TMC2    C3 2129   3.410   4.678   9.853 -0.2611  0.6680 -0.4917
  137TMC2    C4 2130   3.134   4.636   9.866  0.2281 -0.6168 -0.3796
  137TMC2    C5 2131   3.200   4.694   9.755 -0.2280  0.3783  0.3134
  137TMC2    C6 2132   3.336   4.700   9.743  0.5040  0.4522  0.6547
  137TMC2     C 2133   3.142   4.550  10.086  0.0057 -0.0897  0.0064
  137TMC2     O 2134   3.212   4.491  10.166  0.0011 -0.4256 -0.4480
  137TMC2     H 2135   3.415   4.630  10.059 -0.3759 -1.7505  0.2751
  137TMC2    H1 2136   3.038   4.588   9.851  0.2773 -0.8486  0.0543
  137TMC2    H2 2137   3.384   0.007   9.656  1.4936  0.2895  1.1130
  137TMC2    C7 2138   3.122   4.711   9.629  0.1239  0.2379 -0.4563
  137TMC2    C8 2139   3.554   4.681   9.843 -0.4823 -0.2255 -0.1432
  137TMC2    O1 2140   3.196   4.710   9.531 -0.2070 -0.3409 -0.0294
  137TMC2    O2 2141   3.635   4.675   9.937 -0.1860  0.1405 -0.4351
  137TMC2    O5 2142   3.579   4.658   9.715  0.3089 -0.1398 -0.1429
  137TMC2    H5 2143   3.506   4.637   9.652  2.0529 -0.9105 -1.9073
  138MPD2     C 2144   2.790   4.550  10.179  0.1087  0.8978  0.2469
  138MPD2    C1 2145   2.918   4.520  10.191 -0.1229 -0.2685 -0.1495
  138MPD2    C2 2146   2.952   4.454  10.307  0.5990  0.0840 -0.0101
  138MPD2    C3 2147   2.870   4.445  10.412  1.1822 -0.4498  0.4008
  138MPD2    C4 2148   2.739   4.479  10.402  0.1731  0.3269  0.1684
  138MPD2    C5 2149   2.700   4.529  10.277  0.5836 -0.8151 -0.5470
  138MPD2     H 2150   3.056   4.429  10.328  1.0714  1.3523 -0.8016
  138MPD2    H1 2151   2.675   4.464  10.488  2.1589  0.5221  1.6829
  138MPD2    H2 2152   2.756   4.596  10.086  2.1883  0.3806 -0.7601
  138MPD2    H3 2153   2.593   4.549  10.270  0.2947 -2.2088 -0.3004
  138MPD2     N 2154   2.907   4.382  10.535 -0.1414 -0.2641 -0.2039
  138MPD2    H5 2155   2.844   4.407  10.611 -0.5475  2.0861 -1.3090
  138MPD2    N1 2156   3.008   4.572  10.089 -0.3212 -0.1841 -0.3902
  138MPD2    H7 2157   2.970   4.634  10.018 -0.7248 -0.4763 -0.4360
  139TMC2    C1 2158   3.199   3.310  13.879 -0.4060  0.7479  0.3884
  139TMC2    C2 2159   3.260   3.425  13.835  0.1976 -0.2913 -0.3574
  139TMC2    C3 2160   3.203   3.547  13.860  0.6118  0.0961  0.1673
  139TMC2    C4 2161   3.090   3.328  13.964  0.3241  0.3345 -0.5400
  139TMC2    C5 2162   3.033   3.452  13.987  0.7330  0.6206 -0.8459
  139TMC2    C6 2163   3.093   3.567  13.939 -0.6745  0.0338 -0.0511
  139TMC2     C 2164   3.263   3.187  13.845 -1.2686  0.5057 -0.2714
  139TMC2     O 2165   3.344   3.190  13.753  0.5122 -0.4956 -0.5092
  139TMC2     H 2166   3.355   3.413  13.784 -0.7829 -0.6274 -2.1138
  139TMC2    H1 2167   3.050   3.237  14.007 -0.5090  0.9636  0.0261
  139TMC2    H2 2168   3.046   3.661  13.963 -2.6085 -0.7992 -0.5668
  139TMC2    C7 2169   2.889   3.472  14.003 -0.0614  0.5775 -0.5200
  139TMC2    C8 2170   3.244   3.654  13.768 -0.6168 -0.0976 -0.3116
  139TMC2    O1 2171   2.842   3.586  13.984  0.0724  0.0202  0.1406
  139TMC2    O2 2172   3.295   3.633  13.659  0.2031 -0.5536 -0.1672
  139TMC2    O5 2173   3.270   3.757  13.850 -0.4179 -0.0398 -0.1666
  139TMC2    H5 2174   3.230   3.747  13.939 -1.3421  0.4943 -0.5155
  140MPD2     C 2175   3.165   2.854  13.966  0.1874  0.5989 -0.0017
  140MPD2    C1 2176   3.260   2.943  13.914 -0.1427 -0.6761 -0.3622
  140MPD2    C2 2177   3.369   2.892  13.838 -0.0580  0.5481 -0.0662
  140MPD2    C3 2178   3.383   2.758  13.829  0.0272  0.5769  0.0699
  140MPD2    C4 2179   3.294   2.664  13.893 -0.4168  0.5947 -0.2967
  140MPD2    C5 2180   3.179   2.721  13.949  0.5443 -0.0174  0.2580
  140MPD2     H 2181   3.432   2.959  13.781  2.9785 -1.4324  0.9833
  140MPD2    H1 2182   3.309   2.557  13.883 -0.6521  0.5933 -0.6218
  140MPD2    H2 2183   3.072   2.876  14.016 -1.4970 -1.8399 -2.1259
  140MPD2    H3 2184   3.098   2.659  13.986 -0.0926  1.2701  1.0191
  140MPD2     N 2185   3.498   2.718  13.756 -0.0463 -0.1262  0.5695
  140MPD2    H5 2186   3.569   2.787  13.731 -1.5784  2.1372  2.4888
  140MPD2    N1 2187   3.221   3.083  13.923 -0.8174  0.0502 -0.7989
  140MPD2    H7 2188   3.141   3.096  13.985 -2.0145  0.0451 -2.3262
  141TMC2    C1 2189   3.206   0.126  14.194  0.2992 -0.2625  0.3908
  141TMC2    C2 2190   3.083   0.083  14.167 -0.3681  0.5701 -0.3959
  141TMC2    C3 2191   2.990   0.120  14.261  0.4021 -0.7886 -0.1738
  141TMC2    C4 2192   3.240   0.213  14.299 -0.4764  0.3187 -0.0245
  141TMC2    C5 2193   3.141   0.235  14.392 -0.4469 -0.0237  0.1302
  141TMC2    C6 2194   3.022   0.186  14.374 -0.4573 -0.5645  0.6803
  141TMC2     C 2195   3.313   0.092  14.102 -0.2686  0.0732  0.3435
  141TMC2     O 2196   3.271   0.085  13.988  0.4754  0.1616 -0.3451
  141TMC2     H 2197   3.067   0.014  14.084  0.5994 -1.3433  1.0109
  141TMC2    H1 2198   3.337   0.261  14.298 -0.0942 -0.4725 -0.9626
  141TMC2    H2 2199   2.955   0.191  14.459  1.3229  0.8050  2.0223
  141TMC2    C7 2200   3.167   0.322  14.502 -0.7832  0.1062  0.2263
  141TMC2    C8 2201   2.893   0.020  14.288  0.1692  0.6888  0.2453
  141TMC2    O1 2202   3.072   0.381  14.557 -0.0511 -0.2408  0.8231
  141TMC2    O2 2203   2.902   4.718  14.405  0.7742 -0.2378 -0.6200
  141TMC2    O5 2204   2.846   4.693  14.175 -0.3727  0.4297  0.4029
  141TMC2    H5 2205   2.847   0.021  14.101  0.5456 -0.2496 -0.1748
  142TMC2    C1 2206   2.018   3.204  10.007 -0.1499  0.2705  0.4209
  142TMC2    C2 2207   2.059   3.182   9.877  0.1253  0.0773  0.1793
  142TMC2    C3 2208   2.124   3.290   9.818  0.3507 -0.3014  0.1978
  142TMC2    C4 2209   2.053   3.312  10.086 -0.0084 -0.2808 -0.1193
  142TMC2    C5 2210   2.122   3.407  10.014  0.9359 -0.4045 -1.1219
  142TMC2    C6 2211   2.166   3.397   9.884  0.4120 -0.0344 -0.6935
  142TMC2     C 2212   1.952   3.092  10.070 -0.2488 -0.0877 -0.1981
  142TMC2     O 2213   1.884   3.015  10.002  0.0721  0.1895 -0.1268
  142TMC2     H 2214   2.034   3.087   9.833  0.1232  0.0248  0.2955
  142TMC2    H1 2215   2.005   3.341  10.179 -1.3977 -0.0160 -0.9229
  142TMC2    H2 2216   2.237   3.464   9.837  2.5257 -1.1217  0.9772
  142TMC2    C7 2217   2.183   3.505  10.097  0.2475  0.5334  0.0869
  142TMC2    C8 2218   2.185   3.260   9.694 -0.7963 -0.0908 -0.9175
  142TMC2    O1 2219   2.162   3.493  10.216  0.7217 -0.0849 -0.0664
  142TMC2    O2 2220   2.281   3.314   9.641 -0.1413 -0.4739  0.1905
  142TMC2    O5 2221   2.084   3.216   9.623  0.1517  0.3357 -0.3655
  142TMC2    H5 2222   2.002   3.190   9.671  1.0804  1.4110  1.7786
  143MPD2     C 2223   1.827   2.853  10.501  0.0140  0.2607  0.6532
  143MPD2    C1 2224   1.762   2.851  10.376 -0.3455 -0.2689  0.2641
  143MPD2    C2 2225   1.827   2.914  10.271 -0.0713  0.6257  0.8662
  143MPD2    C3 2226   1.938   2.994  10.298  0.0576  0.1208  1.0841
  143MPD2    C4 2227   1.991   3.005  10.424 -0.4070 -0.2691 -1.0356
  143MPD2    C5 2228   1.933   2.934  10.527  0.2529  0.5811  0.1558
  143MPD2     H 2229   1.792   2.898  10.170 -0.0961 -0.4036  1.0349
  143MPD2    H1 2230   2.072   3.071  10.453  1.5592 -3.0286 -0.2542
  143MPD2    H2 2231   1.787   2.800  10.587  3.3009  0.8360  2.5427
  143MPD2    H3 2232   1.970   2.930  10.629 -1.0900 -1.6838  0.5728
  143MPD2     N 2233   1.983   3.090  10.203 -0.1187  0.2351 -0.0752
  143MPD2    H5 2234   2.057   3.154  10.228 -2.2153  2.0503  1.4123
  143MPD2    N1 2235   1.633   2.796  10.370  0.0710  1.0600 -0.2127
  143MPD2    H7 2236   1.612   2.755  10.460  1.1154  3.8277  1.3041
  144TMC2    C1 2237   4.416   2.806   1.230 -0.2489  0.2561  0.6381
  144TMC2    C2 2238   4.497   2.706   1.183 -0.2879  0.9030  0.3670
  144TMC2    C3 2239   4.599   2.669   1.269 -0.3841 -0.4331  0.5828
  144TMC2    C4 2240   4.446   2.887   1.334 -0.6363 -0.2395  0.3179
  144TMC2    C5 2241   4.555   2.847   1.408 -0.5109  0.8948  0.1961
  144TMC2    C6 2242   4.630   2.739   1.379 -0.3177 -0.2105  0.6948
  144TMC2     C 2243   4.293   2.816   1.162 -1.0201 -0.2599  0.5921
  144TMC2     O 2244   4.292   2.791   1.040  0.2787 -0.4175 -0.3880
  144TMC2     H 2245   4.455   2.637   1.110 -1.5457 -0.6089  2.5133
  144TMC2    H1 2246   4.379   2.965   1.370 -1.6616 -0.2731 -1.5160
  144TMC2    H2 2247   4.707   2.714   1.451 -1.0141 -1.2964  1.0607
  144TMC2    C7 2248   4.580   2.910   1.533  0.8133  0.4131 -0.0509
  144TMC2    C8 2249   4.664   2.542   1.260  0.6317  0.1973  0.8556
  144TMC2    O1 2250   4.633   2.838   1.619  0.9007 -0.6533 -0.4966
  144TMC2    O2 2251   4.728   2.487   1.349 -0.1477 -0.2221  0.2485
  144TMC2    O5 2252   4.691   2.519   1.126 -0.2850 -0.2207  0.2105
  144TMC2    H5 2253   4.647   2.587   1.069 -2.8926 -0.3572  2.0463
  145MPD2     C 2254   3.786   2.899   1.152  0.3593 -0.6394 -0.4970
  145MPD2    C1 2255   3.880   2.861   1.056  0.2793  0.2348  0.1960
  145MPD2    C2 2256   4.014   2.854   1.078 -0.0288  0.3512  0.2884
  145MPD2    C3 2257   4.067   2.878   1.208 -0.4079 -0.0371  0.2759
  145MPD2    C4 2258   3.981   2.925   1.310 -0.2595 -0.0738  0.1646
  145MPD2    C5 2259   3.844   2.939   1.279  0.0172  0.6472  0.3438
  145MPD2     H 2260   4.081   2.832   0.996 -0.9351 -0.5302 -0.2043
  145MPD2    H1 2261   4.014   2.947   1.411  1.7349 -1.0465 -0.2701
  145MPD2    H2 2262   3.680   2.885   1.136  0.3339  0.6663 -1.5041
  145MPD2    H3 2263   3.780   2.957   1.365 -1.4413  0.4073 -0.6840
  145MPD2     N 2264   4.199   2.865   1.247  0.2712 -0.1185 -0.0624
  145MPD2    H5 2265   4.224   2.892   1.342 -4.3979  0.1674  1.0749
  145MPD2    N1 2266   3.840   2.822   0.923  0.6979  0.8307 -0.3512
  145MPD2    H7 2267   3.912   2.779   0.866 -1.0742 -3.2976  0.4554
  146TMC2    C1 2268   1.332   0.438  11.992 -0.2219 -0.6739 -0.2032
  146TMC2    C2 2269   1.359   0.449  11.859 -1.3822 -0.4087 -0.2312
  146TMC2    C3 2270   1.481   0.408  11.820  0.3066 -0.4723 -0.2476
  146TMC2    C4 2271   1.420   0.393  12.087  1.0729  0.7527 -1.2151
  146TMC2    C5 2272   1.544   0.353  12.038  0.7937  0.5427 -0.2897
  146TMC2    C6 2273   1.575   0.361  11.905  0.3957 -0.5035 -0.1135
  146TMC2     C 2274   1.241   0.541  12.035  0.0946  0.5844 -0.4822
  146TMC2     O 2275   1.215   0.625  11.948  0.1475  1.1507  0.6677
  146TMC2     H 2276   1.286   0.488  11.788 -2.6754 -3.6372 -0.6538
  146TMC2    H1 2277   1.419   0.442  12.184  0.5843 -0.2442 -0.7250
  146TMC2    H2 2278   1.667   0.324  11.862  1.9377  1.4902  1.5109
  146TMC2    C7 2279   1.658   0.385  12.120  0.6814  0.4331 -0.6012
  146TMC2    C8 2280   1.499   0.386  11.679 -0.5141 -0.5331 -0.0362
  146TMC2    O1 2281   1.760   0.411  12.057  0.5992 -0.5597 -0.5971
  146TMC2    O2 2282   1.607   0.382  11.621  0.4042 -0.4774  0.0315
  146TMC2    O5 2283   1.392   0.313  11.642 -0.3836  1.0960 -0.3123
  146TMC2    H5 2284   1.314   0.310  11.701 -0.7262  3.1412 -0.6880
  147MPD2     C 2285   1.915   0.492  12.547  0.1017 -0.0462  0.1560
  147MPD2    C1 2286   1.805   0.421  12.583  0.0067 -0.6422 -0.1619
  147MPD2    C2 2287   1.711   0.384  12.484  0.0795  0.6211 -0.1307
  147MPD2    C3 2288   1.737   0.412  12.354 -0.3892 -0.1670  0.5307
  147MPD2    C4 2289   1.846   0.490  12.323  0.4467 -0.3543  1.1204
  147MPD2    C5 2290   1.930   0.529  12.420  0.7278  0.4480  0.4141
  147MPD2     H 2291   1.616   0.339  12.511  0.6492  0.7125  2.0688
  147MPD2    H1 2292   1.881   0.534  12.231 -0.1605 -2.8646 -0.3108
  147MPD2    H2 2293   1.984   0.527  12.623 -0.5711 -3.0591  2.1629
  147MPD2    H3 2294   2.012   0.598  12.402  0.1068  1.0851 -0.0137
  147MPD2     N 2295   1.636   0.384  12.258 -0.9566 -0.4240 -0.1584
  147MPD2    H5 2296   1.549   0.342  12.288 -2.0406  1.6836 -0.3218
  147MPD2    N1 2297   1.793   0.385  12.721 -0.5916 -0.2282 -0.4089
  147MPD2    H7 2298   1.874   0.409  12.777 -1.2693  0.3903  0.3044
  148TMC2    C1 2299   0.636   3.983  10.995 -0.3994 -0.2245  0.2449
  148TMC2    C2 2300   0.590   4.006  11.118  0.2432  0.1258  0.0850
  148TMC2    C3 2301   0.644   3.932  11.217 -0.2393  0.0785 -0.3381
  148TMC2    C4 2302   0.728   3.888  10.964  0.3170  0.6123 -0.3881
  148TMC2    C5 2303   0.765   3.809  11.064  0.4911  0.2875  0.5215
  148TMC2    C6 2304   0.728   3.827  11.193  0.7580  0.1800  0.3110
  148TMC2     C 2305   0.585   4.058  10.878  1.2510  0.0214 -0.3617
  148TMC2     O 2306   0.517   4.152  10.914  0.0376 -0.0964 -0.4843
  148TMC2     H 2307   0.531   4.097  11.133  0.9990  0.4091  1.3169
  148TMC2    H1 2308   0.770   3.869  10.866 -1.8672  1.9979 -1.5962
  148TMC2    H2 2309   0.762   3.757  11.270 -1.4123 -0.1479  0.9557
  148TMC2    C7 2310   0.870   3.714  11.028  0.0888 -0.5801 -0.3499
  148TMC2    C8 2311   0.600   3.940  11.360 -0.1823  0.0424  0.1924
  148TMC2    O1 2312   0.851   3.595  11.062 -0.6801  0.0464 -0.2249
  148TMC2    O2 2313   0.482   3.958  11.378 -0.1344  0.0322  0.2004
  148TMC2    O5 2314   0.705   3.925  11.447 -0.2053 -0.4397 -0.6767
  148TMC2    H5 2315   0.796   3.927  11.411 -0.6782  1.6272 -1.7238
  149MPD2     C 2316   0.448   4.141  10.626 -0.0319 -0.0385  0.1643
  149MPD2    C1 2317   0.519   4.022  10.639  0.1959  0.0601 -0.0392
  149MPD2    C2 2318   0.512   3.930  10.539  0.5382 -0.0676 -0.6658
  149MPD2    C3 2319   0.436   3.962  10.426  0.5988 -0.4784  0.1539
  149MPD2    C4 2320   0.379   4.085  10.405 -0.4341  0.0281  0.3301
  149MPD2    C5 2321   0.383   4.176  10.506  0.2202  0.0613  0.1106
  149MPD2     H 2322   0.567   3.837  10.534  0.8840  0.0092  1.7221
  149MPD2    H1 2323   0.351   4.114  10.304  1.0168  1.7354  0.4121
  149MPD2    H2 2324   0.466   4.221  10.696 -1.6499  1.0877 -0.7196
  149MPD2    H3 2325   0.333   4.271  10.489 -0.5891 -0.0728  1.7111
  149MPD2     N 2326   0.421   3.881  10.311 -0.8551  0.0646 -0.3270
  149MPD2    H5 2327   0.384   3.922  10.226 -0.2606  0.2322 -0.5050
  149MPD2    N1 2328   0.587   3.988  10.759  0.1616 -0.2445  0.4100
  149MPD2    H7 2329   0.625   3.894  10.764  0.3047 -0.0502  2.7191
  150TMC2    C1 2330   2.872   3.251  12.827 -0.4338  0.0496 -0.3034
  150TMC2    C2 2331   2.849   3.309  12.703 -0.2299  0.2459 -0.4326
  150TMC2    C3 2332   2.947   3.387  12.646 -0.3294  0.3069  0.4550
  150TMC2    C4 2333   2.990   3.261  12.889 -0.1700 -0.7230  0.3386
  150TMC2    C5 2334   3.079   3.347  12.827  0.5538  0.4007  1.0226
  150TMC2    C6 2335   3.060   3.423  12.710 -0.5551 -0.0062 -0.8401
  150TMC2     C 2336   2.784   3.154  12.887 -0.1362 -0.1696  0.1571
  150TMC2     O 2337   2.832   3.077  12.968 -0.6379 -0.2453 -0.3132
  150TMC2     H 2338   2.762   3.286  12.642 -0.4836 -0.3126  0.1448
  150TMC2    H1 2339   3.014   3.223  12.988  1.8064 -1.7429 -0.5312
  150TMC2    H2 2340   3.140   3.480  12.664  0.6950 -0.8493  0.2609
  150TMC2    C7 2341   3.211   3.363  12.887  0.1417 -0.1539  0.7955
  150TMC2    C8 2342   2.891   3.485  12.556  0.2136  0.5352 -0.5154
  150TMC2    O1 2343   3.259   3.472  12.877 -0.2169 -0.1283 -0.3118
  150TMC2    O2 2344   2.812   3.467  12.463 -0.4654  0.5618  0.1552
  150TMC2    O5 2345   2.949   3.609  12.593  0.1420  0.0357  0.5666
  150TMC2    H5 2346   2.998   3.600  12.677 -1.1883 -1.0864  1.2170
  151MPD2     C 2347   2.314   2.942  12.932 -0.8931  0.0096 -0.0221
  151MPD2    C1 2348   2.298   3.080  12.913  0.1646  0.2946 -0.2597
  151MPD2    C2 2349   2.412   3.161  12.896 -0.6752  0.4048 -0.6182
  151MPD2    C3 2350   2.540   3.107  12.904 -0.0719 -0.0987 -0.1125
  151MPD2    C4 2351   2.552   2.967  12.921 -0.5499  1.0239 -0.3467
  151MPD2    C5 2352   2.441   2.891  12.931  0.4036  0.7427 -0.4286
  151MPD2     H 2353   2.402   3.268  12.880 -0.8185 -0.0633 -3.7612
  151MPD2    H1 2354   2.651   2.923  12.919 -1.6275 -1.3484 -0.3229
  151MPD2    H2 2355   2.228   2.876  12.935 -0.1597 -1.0203 -1.9299
  151MPD2    H3 2356   2.456   2.783  12.934  1.7091  0.9634  1.0862
  151MPD2     N 2357   2.652   3.185  12.863 -0.4985 -0.1945  0.1739
  151MPD2    H5 2358   2.625   3.273  12.821  2.1007  0.8567  0.7102
  151MPD2    N1 2359   2.163   3.121  12.908  0.5588  0.7640 -0.2070
  151MPD2    H7 2360   2.092   3.050  12.921  0.4301  1.0151  0.4469
  152TMC2    C1 2361   2.435   3.156  13.246  0.8451  0.3209  0.1583
  152TMC2    C2 2362   2.478   3.054  13.322  0.1740 -0.3094 -0.0672
  152TMC2    C3 2363   2.610   3.044  13.349 -0.0719  0.4903  0.7243
  152TMC2    C4 2364   2.514   3.259  13.212 -0.0238 -0.7216  0.4470
  152TMC2    C5 2365   2.648   3.245  13.249  0.3618 -0.3507 -0.1538
  152TMC2    C6 2366   2.694   3.149  13.333  0.0130 -0.1027  0.6410
  152TMC2     C 2367   2.290   3.176  13.227  0.4729  0.1753 -0.2116
  152TMC2     O 2368   2.249   3.290  13.198 -0.4260  0.2205  0.0710
  152TMC2     H 2369   2.418   2.971  13.357  0.2526  0.6415  2.3048
  152TMC2    H1 2370   2.478   3.342  13.152  2.3909 -0.2961 -0.3995
  152TMC2    H2 2371   2.797   3.146  13.368  0.1304  0.6757  0.3664
  152TMC2    C7 2372   2.740   3.353  13.209 -0.3706 -0.2709  0.4555
  152TMC2    C8 2373   2.646   2.954  13.448 -0.1246 -0.0925 -0.1946
  152TMC2    O1 2374   2.686   3.453  13.173 -0.2954  0.0500  0.4919
  152TMC2    O2 2375   2.626   2.992  13.562  0.0008 -0.6253 -0.4875
  152TMC2    O5 2376   2.766   2.918  13.396 -0.1020 -0.6051  0.2598
  152TMC2    H5 2377   2.759   2.905  13.299 -3.0903  2.4385  0.0955
  153MPD2     C 2378   2.009   2.928  13.268 -0.2368 -0.3385 -0.6352
  153MPD2    C1 2379   2.072   3.046  13.233 -0.9499  0.4018  0.1037
  153MPD2    C2 2380   1.988   3.155  13.205  0.3490  0.4876 -0.2171
  153MPD2    C3 2381   1.853   3.147  13.194 -0.3495  0.4481  0.4972
  153MPD2    C4 2382   1.799   3.023  13.223  0.5302  1.1399 -0.6308
  153MPD2    C5 2383   1.877   2.913  13.261 -0.6268 -0.0600 -1.2588
  153MPD2     H 2384   2.028   3.249  13.168  0.0620  0.9270  0.5808
  153MPD2    H1 2385   1.692   3.011  13.206  0.5054  2.6651 -1.5293
  153MPD2    H2 2386   2.056   2.837  13.305  0.8105  0.7989  0.7998
  153MPD2    H3 2387   1.828   2.818  13.279 -3.5773  1.5390 -0.9355
  153MPD2     N 2388   1.778   3.259  13.158  0.1753 -0.0751  0.1295
  153MPD2    H5 2389   1.823   3.350  13.156 -0.7627  0.3812 -0.1903
  153MPD2    N1 2390   2.217   3.059  13.244  0.2054 -0.1093  0.1252
  153MPD2    H7 2391   2.261   2.976  13.283 -0.6401 -0.2784  0.7344
  154TMC2    C1 2392   4.024   4.222   0.929  0.0008 -0.4230 -0.4587
  154TMC2    C2 2393   4.084   4.255   1.048  0.0748 -0.7648  0.1937
  154TMC2    C3 2394   4.217   4.253   1.039 -0.4511  0.7998 -0.1213
  154TMC2    C4 2395   4.094   4.187   0.820  0.0971 -0.0894  0.5284
  154TMC2    C5 2396   4.228   4.219   0.817  0.3088 -0.7728 -0.0850
  154TMC2    C6 2397   4.293   4.255   0.925 -0.5146  0.5632  0.3001
  154TMC2     C 2398   3.875   4.211   0.933 -0.0099 -0.6116  0.1085
  154TMC2     O 2399   3.821   4.211   1.047  0.1472  0.2151  0.0123
  154TMC2     H 2400   4.023   4.262   1.137 -0.7947 -1.3586 -0.3534
  154TMC2    H1 2401   4.050   4.123   0.744 -0.4898  0.2661  0.5682
  154TMC2    H2 2402   4.400   4.273   0.928 -0.3016 -0.9895  2.1511
  154TMC2    C7 2403   4.310   4.157   0.714 -0.1878 -0.0917  0.2652
  154TMC2    C8 2404   4.288   4.303   1.151  0.3354 -0.6954  0.6577
  154TMC2    O1 2405   4.431   4.134   0.731 -0.6408 -0.5150  0.1698
  154TMC2    O2 2406   4.231   4.358   1.245 -0.4340  0.2464  0.1283
  154TMC2    O5 2407   4.375   4.203   1.178  0.1498 -0.1287  0.2776
  154TMC2    H5 2408   4.378   4.138   1.105  1.7115 -0.1337  0.3375
  155MPD2     C 2409   3.637   4.178   0.650  0.1402 -0.1181  0.2879
  155MPD2    C1 2410   3.672   4.193   0.782  0.0059  0.9436  0.0584
  155MPD2    C2 2411   3.570   4.204   0.881  0.1290 -0.4222 -0.1526
  155MPD2    C3 2412   3.444   4.201   0.845  0.1424  0.6218 -0.4702
  155MPD2    C4 2413   3.416   4.183   0.711  0.3352 -0.2204 -0.3352
  155MPD2    C5 2414   3.508   4.169   0.615  0.1399  0.3453 -0.0582
  155MPD2     H 2415   3.585   4.217   0.987  1.6428 -2.9546 -0.0374
  155MPD2    H1 2416   3.315   4.171   0.675  1.2614 -0.4429 -2.8194
  155MPD2    H2 2417   3.698   4.189   0.561  1.2185  0.7527  1.1360
  155MPD2    H3 2418   3.484   4.145   0.512 -0.4166  2.8498 -0.5068
  155MPD2     N 2419   3.347   4.227   0.944  0.6090 -0.1646 -0.0330
  155MPD2    H5 2420   3.382   4.230   1.039 -1.3979 -0.1489  0.6988
  155MPD2    N1 2421   3.812   4.209   0.811 -0.1454 -0.2116  0.0521
  155MPD2    H7 2422   3.867   4.207   0.726  0.6959 -0.2333  0.6034
  156TMC2    C1 2423   2.476   0.624  12.009 -0.9756 -0.1490 -0.1104
  156TMC2    C2 2424   2.420   0.506  11.978 -0.9653 -0.2921  0.1048
  156TMC2    C3 2425   2.390   0.487  11.848 -0.2548 -0.1290  0.7343
  156TMC2    C4 2426   2.475   0.734  11.924  0.1773 -0.0735  0.2707
  156TMC2    C5 2427   2.456   0.706  11.790  0.2065 -0.5890 -0.6552
  156TMC2    C6 2428   2.409   0.585  11.755 -0.0220 -0.1525 -0.0912
  156TMC2     C 2429   2.494   0.656  12.153 -0.1190  0.4968 -0.1370
  156TMC2     O 2430   2.581   0.738  12.171 -0.0284  0.0803  0.0504
  156TMC2     H 2431   2.413   0.424  12.048  0.4806  1.0747  1.8713
  156TMC2    H1 2432   2.504   0.835  11.951  0.9879 -0.6348  1.5105
  156TMC2    H2 2433   2.395   0.561  11.651  0.4027  1.2661 -0.4822
  156TMC2    C7 2434   2.492   0.805  11.691  0.2246 -0.0520  0.0215
  156TMC2    C8 2435   2.399   0.348  11.800 -0.8516  0.0018  0.8360
  156TMC2    O1 2436   2.487   0.926  11.715 -0.7581  0.0500  0.1244
  156TMC2    O2 2437   2.328   0.298  11.714  0.8406  0.3044 -0.3752
  156TMC2    O5 2438   2.526   0.309  11.830 -0.2446  0.2748  0.2033
  156TMC2    H5 2439   2.587   0.385  11.843  0.3690  0.3917 -3.2630
  157MPD2     C 2440   2.304   0.539  12.445  0.3742  0.3946  0.4551
  157MPD2    C1 2441   2.398   0.604  12.373 -0.0597  0.2614  0.0790
  157MPD2    C2 2442   2.464   0.709  12.436  0.5809 -0.0025  0.2589
  157MPD2    C3 2443   2.438   0.748  12.563 -0.1747  0.0807  0.3718
  157MPD2    C4 2444   2.349   0.675  12.638 -0.6993  0.2235 -0.2812
  157MPD2    C5 2445   2.290   0.566  12.582  0.0809 -0.2109 -0.5624
  157MPD2     H 2446   2.542   0.758  12.378  0.7807 -1.5866 -0.8105
  157MPD2    H1 2447   2.320   0.692  12.741  0.7146 -0.7271  0.2745
  157MPD2    H2 2448   2.230   0.472  12.402  0.2792  1.3933 -0.9481
  157MPD2    H3 2449   2.213   0.523  12.645 -0.0484  1.0673  0.1448
  157MPD2     N 2450   2.492   0.869  12.599  0.1005  0.1970  0.4167
  157MPD2    H5 2451   2.543   0.920  12.528  1.8348 -0.3947  1.2382
  157MPD2    N1 2452   2.408   0.587  12.233 -0.4200 -0.3205 -0.0869
  157MPD2    H7 2453   2.337   0.529  12.190 -1.2420  0.2434  0.5101
  158TMC2    C1 2454   2.915   4.287  13.301 -0.9260  0.1584  0.5483
  158TMC2    C2 2455   2.945   4.261  13.170 -0.1136 -0.2019 -1.0706
  158TMC2    C3 2456   2.844   4.259  13.085 -0.9986  0.1109  0.8089
  158TMC2    C4 2457   2.786   4.310  13.349  0.4364  0.3363  0.5034
  158TMC2    C5 2458   2.686   4.309  13.255  0.1775  0.7606 -0.5587
  158TMC2    C6 2459   2.711   4.286  13.123 -0.4755  0.8116 -1.6235
  158TMC2     C 2460   3.024   4.357  13.361 -0.4804  0.4671  0.3744
  158TMC2     O 2461   3.126   4.372  13.293 -0.1472  0.4578  0.1739
  158TMC2     H 2462   3.042   4.266  13.122  1.4348 -1.3015  1.8878
  158TMC2    H1 2463   2.763   4.336  13.452 -1.7286 -0.1639  0.1534
  158TMC2    H2 2464   2.633   4.290  13.048 -0.9519  4.2402 -0.9538
  158TMC2    C7 2465   2.555   4.278  13.307 -0.2573  0.2974  0.2322
  158TMC2    C8 2466   2.868   4.269  12.944 -0.3066  0.9117  0.4930
  158TMC2    O1 2467   2.467   4.290  13.222 -0.1779  0.1704 -0.0117
  158TMC2    O2 2468   2.791   4.350  12.888  0.4257  0.5675 -0.9707
  158TMC2    O5 2469   2.901   4.148  12.899 -0.2925 -0.1189  0.1933
  158TMC2    H5 2470   2.960   4.101  12.962 -1.9107  0.0076  1.8140
  159MPD2     C 2471   3.261   4.589  13.739 -0.0644 -0.0508 -0.3679
  159MPD2    C1 2472   3.174   4.496  13.795  0.1432 -0.1815 -0.1523
  159MPD2    C2 2473   3.100   4.415  13.710  0.0077  0.0158  0.0372
  159MPD2    C3 2474   3.096   4.440  13.574  0.5018  0.5495 -0.6231
  159MPD2    C4 2475   3.177   4.546  13.526 -0.2071  0.6971  0.5513
  159MPD2    C5 2476   3.265   4.613  13.605  0.2938  0.2808  0.2561
  159MPD2     H 2477   3.036   4.339  13.753 -0.3043  0.6145  0.6322
  159MPD2    H1 2478   3.174   4.577  13.422  1.0429  1.8340  0.8627
  159MPD2    H2 2479   3.317   4.656  13.804  0.2343 -0.1951 -0.4777
  159MPD2    H3 2480   3.331   4.689  13.565  0.7469 -0.7332 -0.9002
  159MPD2     N 2481   3.010   4.368  13.497 -0.1816 -0.1992  0.0007
  159MPD2    H5 2482   2.932   4.321  13.541  1.2586 -1.8716  0.8054
  159MPD2    N1 2483   3.157   4.487  13.932 -0.3794 -0.3194 -0.7533
  159MPD2    H7 2484   3.229   4.528  13.990  0.4522 -1.2696 -1.1121
  160TMC2    C1 2485   2.338   3.146   1.621 -0.3289 -0.9786  0.6455
  160TMC2    C2 2486   2.326   3.058   1.726  0.5336  0.0385  0.1164
  160TMC2    C3 2487   2.441   2.996   1.772  0.6923 -0.3615  0.4645
  160TMC2    C4 2488   2.457   3.168   1.557 -0.0253  0.1828  0.5074
  160TMC2    C5 2489   2.572   3.114   1.616 -0.5312  0.7881  0.0914
  160TMC2    C6 2490   2.561   3.022   1.717 -0.2697 -0.6402 -0.4819
  160TMC2     C 2491   2.217   3.151   1.541 -0.3535  0.2565 -0.2494
  160TMC2     O 2492   2.124   3.074   1.559  0.0166 -0.3218  0.2707
  160TMC2     H 2493   2.228   3.036   1.769  1.5171 -0.5405  2.0637
  160TMC2    H1 2494   2.467   3.215   1.460  0.8392  1.0281  1.0088
  160TMC2    H2 2495   2.644   2.961   1.752  0.5559  1.0558  0.4803
  160TMC2    C7 2496   2.696   3.126   1.550  0.3329  0.2044 -0.2318
  160TMC2    C8 2497   2.432   2.875   1.849  0.7454 -0.2343  0.1877
  160TMC2    O1 2498   2.757   3.021   1.543  0.2120  0.1344  0.4228
  160TMC2    O2 2499   2.507   2.778   1.840  0.1246 -0.3909  0.3908
  160TMC2    O5 2500   2.316   2.887   1.923 -0.0129  0.0633 -0.3365
  160TMC2    H5 2501   2.277   2.977   1.930  0.1913  0.3267 -2.5840
  161MPD2     C 2502   2.010   3.230   1.336 -0.3774 -0.3832 -0.5882
  161MPD2    C1 2503   2.116   3.309   1.371  0.6386 -0.4529 -0.0991
  161MPD2    C2 2504   2.128   3.429   1.301 -0.4119 -0.7042  0.2134
  161MPD2    C3 2505   2.043   3.468   1.202 -0.2170 -0.0612 -0.4201
  161MPD2    C4 2506   1.942   3.388   1.170 -0.4398  0.2432  0.1196
  161MPD2    C5 2507   1.926   3.265   1.232  0.0829 -0.6605 -0.4989
  161MPD2     H 2508   2.221   3.483   1.316 -2.4612  2.8760 -0.0270
  161MPD2    H1 2509   1.863   3.414   1.101 -0.2324 -2.0418 -1.0107
  161MPD2    H2 2510   1.990   3.135   1.383  4.0809 -0.1140  1.9260
  161MPD2    H3 2511   1.852   3.195   1.197  2.2900 -2.1600 -2.2100
  161MPD2     N 2512   2.060   3.586   1.131  0.1448 -0.5322 -0.2199
  161MPD2    H5 2513   1.994   3.594   1.055  1.0884 -0.4330 -1.0223
  161MPD2    N1 2514   2.214   3.266   1.467  0.1210  0.4289  0.8590
  161MPD2    H7 2515   2.293   3.330   1.476  1.6819 -1.5397  1.1310
  162TMC2    C1 2516   0.712   0.566   1.145  0.7396  0.7044 -0.5502
  162TMC2    C2 2517   0.611   0.627   1.218  0.2865  0.6089 -0.4981
  162TMC2    C3 2518   0.645   0.690   1.334  0.1497  0.8057 -0.2684
  162TMC2    C4 2519   0.841   0.556   1.186  0.1918 -0.5792 -0.3366
  162TMC2    C5 2520   0.872   0.617   1.306  0.2542  0.2081 -0.2482
  162TMC2    C6 2521   0.778   0.686   1.378  0.3629  0.2303  0.0502
  162TMC2     C 2522   0.681   0.500   1.017 -0.5752  0.8972  0.4325
  162TMC2     O 2523   0.763   0.491   0.927  0.5040 -0.2960 -0.0833
  162TMC2     H 2524   0.505   0.632   1.197  0.4849 -1.0990 -1.8511
  162TMC2    H1 2525   0.901   0.489   1.126  2.4554 -0.5931  1.9333
  162TMC2    H2 2526   0.794   0.719   1.480  2.1202 -1.2086  0.2662
  162TMC2    C7 2527   0.994   0.579   1.373  0.0467  0.0241  0.6107
  162TMC2    C8 2528   0.542   0.739   1.431 -0.3816  0.1857 -1.0514
  162TMC2    O1 2529   1.010   0.651   1.471  0.1689  0.4288 -0.1172
  162TMC2    O2 2530   0.426   0.709   1.426 -0.4696  0.3361 -0.6484
  162TMC2    O5 2531   0.579   0.866   1.451 -0.1195 -0.0524  0.1570
  162TMC2    H5 2532   0.661   0.900   1.409 -1.7853  1.7859 -1.6308
  163MPD2     C 2533   0.397   0.179   0.740 -0.1522 -0.6751 -0.7713
  163MPD2    C1 2534   0.522   0.226   0.713 -0.5485 -0.2609 -0.5886
  163MPD2    C2 2535   0.571   0.316   0.808 -0.9777 -0.4171  0.3872
  163MPD2    C3 2536   0.504   0.355   0.921  0.7251 -0.5162  0.5351
  163MPD2    C4 2537   0.376   0.308   0.943 -0.1465 -0.3934 -0.1036
  163MPD2    C5 2538   0.331   0.218   0.853  0.6365  0.2432  0.5018
  163MPD2     H 2539   0.672   0.355   0.797  0.1279 -3.6103 -0.5693
  163MPD2    H1 2540   0.308   0.348   1.017  0.4872 -0.8620  0.7314
  163MPD2    H2 2541   0.346   0.103   0.682 -0.6584 -0.2774 -0.8465
  163MPD2    H3 2542   0.227   0.187   0.859  0.2653  1.6481  1.4229
  163MPD2     N 2543   0.552   0.451   1.015  0.6616 -0.4458 -0.1889
  163MPD2    H5 2544   0.492   0.457   1.097  0.1107  1.9246 -0.7668
  163MPD2    N1 2545   0.590   0.180   0.601  0.5682 -0.8830 -0.5628
  163MPD2    H7 2546   0.548   0.099   0.556 -0.1378 -1.0651  0.4105
  164TMC2    C1 2547   1.562   3.713  11.401 -0.9000 -0.3932 -0.2027
  164TMC2    C2 2548   1.688   3.766  11.418  0.8775 -0.3533 -0.4754
  164TMC2    C3 2549   1.695   3.900  11.447 -0.7188 -0.1393  0.1961
  164TMC2    C4 2550   1.448   3.787  11.407  0.4759  0.3623  0.2008
  164TMC2    C5 2551   1.461   3.913  11.447  0.0219 -0.0852  1.0518
  164TMC2    C6 2552   1.585   3.978  11.464 -0.0980 -0.3199 -0.6442
  164TMC2     C 2553   1.543   3.571  11.364 -0.1628 -0.2595 -0.0918
  164TMC2     O 2554   1.446   3.511  11.408 -0.8317  0.0890  0.1979
  164TMC2     H 2555   1.780   3.709  11.426  2.1481  1.6067 -0.9413
  164TMC2    H1 2556   1.352   3.736  11.406 -0.6502  2.4810 -0.1993
  164TMC2    H2 2557   1.596   4.075  11.510  1.2737 -0.4217 -0.7653
  164TMC2    C7 2558   1.334   3.973  11.478  0.4395 -0.7538 -0.1540
  164TMC2    C8 2559   1.813   3.953  11.495  0.2510  0.4668 -0.1669
  164TMC2    O1 2560   1.247   3.952  11.393  0.3245  0.4618 -0.4587
  164TMC2    O2 2561   1.834   4.075  11.495 -0.2849  0.0447 -0.1015
  164TMC2    O5 2562   1.876   3.858  11.564  0.0953  0.1273  0.1885
  164TMC2    H5 2563   1.820   3.778  11.574  0.1567 -0.2547 -2.5958
  165TMC2    C1 2564   3.454   1.751   1.059  0.4470  0.1780 -0.7597
  165TMC2    C2 2565   3.478   1.652   0.962  0.1078  0.1704 -0.0675
  165TMC2    C3 2566   3.472   1.689   0.830 -0.3826 -0.4496  0.1595
  165TMC2    C4 2567   3.421   1.875   1.019 -0.1007  0.5215  0.6043
  165TMC2    C5 2568   3.412   1.905   0.880  1.0347  0.4896  0.6557
  165TMC2    C6 2569   3.448   1.815   0.785 -0.3587  0.1015  0.1487
  165TMC2     C 2570   3.476   1.734   1.200 -0.2523  0.5498  0.3517
  165TMC2     O 2571   3.465   1.831   1.273 -0.3041 -0.0799 -0.6156
  165TMC2     H 2572   3.506   1.550   0.987 -0.1480 -0.4332 -2.2043
  165TMC2    H1 2573   3.395   1.952   1.090 -1.0669  1.4195 -0.7240
  165TMC2    H2 2574   3.455   1.834   0.679  1.9693 -1.2363  0.0427
  165TMC2    C7 2575   3.387   2.046   0.850  0.4001  0.9531 -0.3128
  165TMC2    C8 2576   3.478   1.588   0.727  0.0328 -0.0887  0.2929
  165TMC2    O1 2577   3.308   2.100   0.926  0.4016 -0.3642  0.2179
  165TMC2    O2 2578   3.440   1.607   0.609  0.3942 -0.2413 -0.0520
  165TMC2    O5 2579   3.519   1.477   0.782 -0.2801 -0.5701 -0.3852
  165TMC2    H5 2580   3.553   1.500   0.870  0.1419  1.3080 -1.0374
  166MPD2     C 2581   3.630   1.461   1.597  0.9146  0.2484  0.2726
  166MPD2    C1 2582   3.611   1.371   1.496 -0.2722 -0.8498  0.1304
  166MPD2    C2 2583   3.578   1.421   1.372 -0.1445 -1.2075  0.0097
  166MPD2    C3 2584   3.571   1.559   1.359 -0.6060  0.8606  0.0761
  166MPD2    C4 2585   3.609   1.650   1.452  0.6112  0.0038  0.1447
  166MPD2    C5 2586   3.641   1.598   1.577  0.4100 -0.1056 -0.0825
  166MPD2     H 2587   3.552   1.354   1.291  0.1726 -1.2317 -0.0722
  166MPD2    H1 2588   3.618   1.758   1.449  0.8660  0.0137  1.0366
  166MPD2    H2 2589   3.662   1.428   1.695  1.2640 -1.6465 -0.4616
  166MPD2    H3 2590   3.678   1.657   1.660 -1.9228  0.3652  0.6392
  166MPD2     N 2591   3.520   1.605   1.232 -0.2503  0.2353 -1.2522
  166MPD2    H5 2592   3.508   1.531   1.164 -2.4909 -1.3217  0.8474
  166MPD2    N1 2593   3.623   1.236   1.533 -0.5681  0.3965  0.4565
  166MPD2    H7 2594   3.654   1.213   1.627 -1.3522  1.3672  0.9527
  167TMC2    C1 2595   0.768   4.385  13.102 -0.3490  0.1552  0.5919
  167TMC2    C2 2596   0.688   4.443  13.195 -0.0823 -0.4655  0.7467
  167TMC2    C3 2597   0.630   4.355  13.278 -0.3385  0.3784 -0.2486
  167TMC2    C4 2598   0.811   4.254  13.103  0.1138  0.1282 -0.2537
  167TMC2    C5 2599   0.758   4.180  13.200 -0.7333  0.2919 -0.1270
  167TMC2    C6 2600   0.667   4.223  13.286  0.0238  0.3555  0.3528
  167TMC2     C 2601   0.818   4.468  13.000  0.6706  0.1183  0.0868
  167TMC2     O 2602   0.839   4.586  13.028 -0.2362 -0.5429  0.3032
  167TMC2     H 2603   0.657   4.546  13.184 -0.4212 -0.6936 -0.5134
  167TMC2    H1 2604   0.903   4.229  13.053  0.5606  0.0332  0.6268
  167TMC2    H2 2605   0.613   4.156  13.353 -0.0358  1.1582  1.1054
  167TMC2    C7 2606   0.808   4.042  13.216  0.1653  0.4941  0.9107
  167TMC2    C8 2607   0.524   4.405  13.364  0.1955  0.3324  0.3873
  167TMC2    O1 2608   0.797   3.984  13.324  0.0093 -0.2697 -0.2289
  167TMC2    O2 2609   0.420   4.428  13.310  0.5182 -0.1288 -0.1618
  167TMC2    O5 2610   0.585   4.489  13.447 -0.0783 -0.0300 -0.1999
  167TMC2    H5 2611   0.672   4.458  13.481  0.9273  1.9094 -0.9672
  168MPD2     C 2612   0.862   4.590  12.734 -0.2844  0.1719  0.4820
  168MPD2    C1 2613   0.796   4.467  12.756 -0.8761  0.5990  0.2440
  168MPD2    C2 2614   0.737   4.398  12.651  0.4022 -0.1922  0.1451
  168MPD2    C3 2615   0.749   4.456  12.521  0.4968 -0.5525 -0.6147
  168MPD2    C4 2616   0.807   4.581  12.499 -1.0745 -0.1697  0.2065
  168MPD2    C5 2617   0.858   4.641  12.610  0.5207 -0.3814 -0.1280
  168MPD2     H 2618   0.694   4.299  12.662 -1.7516  0.8484  1.1735
  168MPD2    H1 2619   0.820   4.623  12.400  2.6923  1.0639  1.2549
  168MPD2    H2 2620   0.913   4.637  12.817 -1.0337  0.9355  0.5097
  168MPD2    H3 2621   0.901   0.002  12.593 -0.2833  0.1663  1.0336
  168MPD2     N 2622   0.699   4.389  12.402 -0.7240  0.1433  0.4636
  168MPD2    H5 2623   0.714   4.443  12.317  1.1860 -2.2294 -0.6918
  168MPD2    N1 2624   0.796   4.407  12.882 -0.0222  0.5789  0.0807
  168MPD2    H7 2625   0.762   4.312  12.888 -0.0361  0.5904  0.1948
  169MPD1     C 2626   2.381   4.053   9.546  0.1256 -0.3885 -0.1587
  169MPD1    C1 2627   2.512   4.074   9.584 -0.2649 -0.3883  0.2407
  169MPD1    C2 2628   2.570   3.981   9.661 -0.0071  0.3597  0.5852
  169MPD1    C3 2629   2.505   3.855   9.686 -0.1837 -0.2297  0.1696
  169MPD1    C4 2630   2.376   3.837   9.649 -1.1900  0.6176  0.2003
  169MPD1    C5 2631   2.316   3.937   9.572  0.0092 -0.3804 -0.7159
  169MPD1     H 2632   2.673   3.997   9.689  0.0952 -0.2196  0.5479
  169MPD1    H1 2633   2.318   3.747   9.668 -0.2317 -0.5435 -2.3870
  169MPD1    H2 2634   2.322   4.128   9.495  0.1328  0.5284  1.1884
  169MPD1    H3 2635   2.209   3.931   9.553 -0.3418  1.4081  0.7327
  169MPD1     N 2636   2.578   3.758   9.762  0.1477 -0.6977  0.1570
  169MPD1    H5 2637   2.671   3.786   9.792 -0.9773  0.7924  2.2305
  169MPD1    N1 2638   2.577   4.198   9.561  0.0469  0.5682 -0.1388
  169MPD1    H6 2639   2.678   4.192   9.573 -0.1068  2.4578  2.0837
  169MPD1    H7 2640   2.552   4.243   9.474  1.0145 -0.6454 -1.0459
  170MPD1     C 2641   1.825   1.482  12.864  0.2320 -1.1718  0.2613
  170MPD1    C1 2642   1.761   1.429  12.971 -0.3152  0.7100 -0.7588
  170MPD1    C2 2643   1.702   1.527  13.053  0.4611 -0.6443 -0.1535
  170MPD1    C3 2644   1.702   1.660  13.035 -0.1317  0.2868 -0.4440
  170MPD1    C4 2645   1.758   1.706  12.920  0.4481  0.5092 -0.0496
  170MPD1    C5 2646   1.834   1.618  12.844 -1.1977  0.0216 -0.5712
  170MPD1     H 2647   1.656   1.486  13.141 -1.5257 -0.9553 -1.3387
  170MPD1    H1 2648   1.749   1.806  12.880  0.5530 -0.3678 -2.3122
  170MPD1    H2 2649   1.865   1.408  12.795  1.8957 -0.7696  0.7825
  170MPD1    H3 2650   1.883   1.655  12.755  0.7612  1.6875  1.2071
  170MPD1     N 2651   1.650   1.750  13.134 -0.3372 -0.2233  0.1753
  170MPD1    H5 2652   1.614   1.696  13.213  0.8391 -3.4330 -1.4973
  170MPD1    N1 2653   1.765   1.298  13.016  0.0708  0.2579  0.2249
  170MPD1    H6 2654   1.804   1.230  12.950  2.1433  1.2773  0.4020
  170MPD1    H7 2655   1.672   1.268  13.047  0.0371  1.1089  0.9304
  171MPD1     C 2656   0.199   2.945  15.435 -0.5255 -0.2815  0.0803
  171MPD1    C1 2657   0.269   2.878  15.337 -0.2381 -0.1957 -0.3421
  171MPD1    C2 2658   0.368   2.800  15.376  0.2835  0.3404  0.1362
  171MPD1    C3 2659   0.373   2.757  15.513  0.2687 -0.7779 -0.3590
  171MPD1    C4 2660   0.295   2.819  15.606 -0.2210  0.0133 -0.2044
  171MPD1    C5 2661   0.212   2.918  15.565 -0.5708 -0.5527  0.1591
  171MPD1     H 2662   0.429   2.752  15.301 -0.6967 -2.4292  1.1226
  171MPD1    H1 2663   0.285   2.790  15.709 -0.4312  1.6942  0.2532
  171MPD1    H2 2664   0.121   3.019  15.421 -0.9159 -0.5697  0.7083
  171MPD1    H3 2665   0.147   2.974  15.631 -1.1227 -1.1696  0.1442
  171MPD1     N 2666   0.452   2.652  15.563  0.1698 -0.2534 -0.2734
  171MPD1    H5 2667   0.441   2.658  15.664  0.0253  2.1016 -0.4315
  171MPD1    N1 2668   0.247   2.910  15.205  0.7350  0.6988 -0.7299
  171MPD1    H6 2669   0.280   2.837  15.141 -1.0438 -2.8940  2.4253
  171MPD1    H7 2670   0.149   2.933  15.189  1.1413  1.4253 -2.2014
  172MPD1     C 2671   0.099   3.520   1.556 -0.3000  0.0755  0.4988
  172MPD1    C1 2672   0.176   3.475   1.449  0.1704  0.4956  0.0387
  172MPD1    C2 2673   0.111   3.471   1.330  0.3588 -0.0552  0.3583
  172MPD1    C3 2674   4.713   3.497   1.315  0.4215  0.2103  0.0046
  172MPD1    C4 2675   4.635   3.528   1.424  0.0076 -0.6965 -0.7574
  172MPD1    C5 2676   4.697   3.539   1.547 -0.1656  0.5592 -0.2068
  172MPD1     H 2677   0.166   3.455   1.238  1.7483 -0.1201  1.1866
  172MPD1    H1 2678   4.531   3.553   1.409  0.3356 -0.4292 -2.4812
  172MPD1    H2 2679   0.137   3.533   1.657  0.8592  0.0649  0.0587
  172MPD1    H3 2680   4.645   3.572   1.636  2.5236 -0.4361  1.7399
  172MPD1     N 2681   4.643   3.504   1.188  0.1899  0.2785 -0.0969
  172MPD1    H5 2682   4.547   3.536   1.189 -0.0079 -0.2990 -0.9525
  172MPD1    N1 2683   0.315   3.465   1.455 -0.3770 -0.5176  0.2898
  172MPD1    H6 2684   0.346   3.410   1.376  0.1365 -1.8413  1.4196
  172MPD1    H7 2685   0.348   3.440   1.548  0.5980 -2.2678 -0.5338
  173MPD1     C 2686   0.146   2.288  14.007  0.0066 -0.0544  0.0322
  173MPD1    C1 2687   0.280   2.318  14.023  0.1290 -0.6399 -0.2013
  173MPD1    C2 2688   0.356   2.236  14.097  0.6136 -0.4467  0.5942
  173MPD1    C3 2689   0.299   2.126  14.159  0.1807 -0.7870 -0.2048
  173MPD1    C4 2690   0.168   2.100  14.155  0.5115  0.6042 -0.3856
  173MPD1    C5 2691   0.089   2.184  14.084 -0.9181 -0.3057  1.0209
  173MPD1     H 2692   0.462   2.251  14.110  0.7258 -0.1791 -0.5965
  173MPD1    H1 2693   0.121   2.014  14.202  1.3469  0.8115  0.8215
  173MPD1    H2 2694   0.072   2.355  13.964  2.0424  1.8312 -0.5303
  173MPD1    H3 2695   4.723   2.160  14.065 -1.3226  1.3548  1.1070
  173MPD1     N 2696   0.400   2.053  14.237 -0.1080  0.0467  0.4930
  173MPD1    H5 2697   0.497   2.077  14.217 -0.9285  1.0072 -2.2371
  173MPD1    N1 2698   0.322   2.434  13.953  0.1651  0.5354  0.3299
  173MPD1    H6 2699   0.418   2.422  13.921  0.2257 -0.5098  0.8795
  173MPD1    H7 2700   0.266   2.440  13.868  0.8901 -1.7462 -0.3137
  174MPD1     C 2701   1.144   1.910  13.864  0.3429 -0.2831  0.1406
  174MPD1    C1 2702   1.150   1.814  13.965  0.1267  0.3230 -0.3052
  174MPD1    C2 2703   1.057   1.814  14.062 -0.4833 -0.1019  0.6952
  174MPD1    C3 2704   0.946   1.896  14.055  0.2249 -0.1504  0.5327
  174MPD1    C4 2705   0.934   1.985  13.949  0.5339 -0.2741  0.0847
  174MPD1    C5 2706   1.037   1.998  13.852 -0.0019  0.4857 -0.1607
  174MPD1     H 2707   1.067   1.739  14.140 -1.6398 -0.6838  0.2867
  174MPD1    H1 2708   0.855   2.060  13.951  1.0345  0.2773 -0.4380
  174MPD1    H2 2709   1.229   1.919  13.797  1.6116 -2.9694  1.3813
  174MPD1    H3 2710   1.031   2.072  13.774  1.5385  1.7398  0.9090
  174MPD1     N 2711   0.842   1.901  14.153  0.2222 -0.4300 -0.7004
  174MPD1    H5 2712   0.767   1.967  14.138  0.2642 -0.7667 -2.3854
  174MPD1    N1 2713   1.276   1.747  13.990  0.1220  0.4882  0.0361
  174MPD1    H6 2714   1.266   1.669  14.054  1.1878  1.2175  1.0959
  174MPD1    H7 2715   1.331   1.724  13.908  0.0971  0.9616 -0.1127
  175MPD1     C 2716   3.889   4.032  16.021  0.4617 -0.6932  0.3566
  175MPD1    C1 2717   3.990   3.937  16.008 -0.0815 -0.2194 -0.3582
  175MPD1    C2 2718   3.955   3.813  16.067 -0.1559  0.0005  0.1796
  175MPD1    C3 2719   3.836   3.789  16.133  0.0588 -0.2437 -0.5074
  175MPD1    C4 2720   3.735   3.884  16.125  1.0793 -0.0588  0.2648
  175MPD1    C5 2721   3.767   4.005  16.075  0.7783 -0.1135 -0.1899
  175MPD1     H 2722   4.040   3.746  16.070  0.1274  0.5012  3.8239
  175MPD1    H1 2723   3.641   3.866  16.176 -0.0394  1.1507 -1.3630
  175MPD1    H2 2724   3.906   4.133  15.985 -0.7567 -0.3446  0.7394
  175MPD1    H3 2725   3.699   4.089  16.082  0.9257  0.0945 -1.3638
  175MPD1     N 2726   3.801   3.662  16.193 -0.6537  0.4972 -0.0911
  175MPD1    H5 2727   3.707   3.630  16.213 -0.2562 -2.3005 -2.6901
  175MPD1    N1 2728   4.119   3.960  15.959  0.4794  0.7271  0.7712
  175MPD1    H6 2729   4.159   3.870  15.934 -2.7015 -1.0396  2.0516
  175MPD1    H7 2730   4.109   4.022  15.879 -0.4456  3.6719  3.1422
  176MPD1     C 2731   1.114   4.502  16.642 -0.1939  0.3033  0.0570
  176MPD1    C1 2732   1.194   4.597  16.702 -0.0053 -0.6272 -0.5203
  176MPD1    C2 2733   1.129   4.705  16.769  0.1413 -0.9588  0.2327
  176MPD1    C3 2734   0.990   4.696  16.792  0.3817 -0.0280  0.0830
  176MPD1    C4 2735   0.926   4.588  16.754  0.1867  0.6197  0.1749
  176MPD1    C5 2736   0.980   4.498  16.673  1.0067 -0.6210 -0.0115
  176MPD1     H 2737   1.182   0.051  16.815 -3.0464  0.0846  1.9949
  176MPD1    H1 2738   0.822   4.575  16.781 -0.1634  1.2079 -0.8881
  176MPD1    H2 2739   1.151   4.423  16.577 -0.3485  0.4905 -0.2606
  176MPD1    H3 2740   0.917   4.416  16.639 -0.3466  0.9885 -1.3752
  176MPD1     N 2741   0.932   0.070  16.846 -0.1977  0.8883  0.2888
  176MPD1    H5 2742   0.992   0.151  16.860 -0.2489  0.7628  1.2760
  176MPD1    N1 2743   1.329   4.595  16.671  0.5132 -0.0311  0.0900
  176MPD1    H6 2744   1.360   4.500  16.657 -1.4722 -0.8238  1.0524
  176MPD1    H7 2745   1.386   4.642  16.741 -1.3653  0.5087  1.2710
  177MPD1     C 2746   4.542   3.685  10.087  0.3647  0.1675  0.0662
  177MPD1    C1 2747   4.406   3.666  10.084 -0.9185 -0.2831  0.4710
  177MPD1    C2 2748   4.334   3.760  10.006  0.4813  0.2801  0.5413
  177MPD1    C3 2749   4.404   3.878   9.968 -0.2178 -0.0171  0.2157
  177MPD1    C4 2750   4.537   3.890   9.981  0.3493  0.2185 -0.1354
  177MPD1    C5 2751   4.605   3.798  10.051 -0.3406  0.3101 -0.2769
  177MPD1     H 2752   4.232   3.741   9.974  0.7963  0.4506 -0.5756
  177MPD1    H1 2753   4.596   3.974   9.944  2.5863 -0.4450  1.9176
  177MPD1    H2 2754   4.592   3.610  10.146  1.6323  0.5633 -0.5220
  177MPD1    H3 2755   4.711   3.811  10.070  0.0768  0.6996 -2.8034
  177MPD1     N 2756   4.331   3.979   9.909  0.2494  0.0885 -0.3380
  177MPD1    H5 2757   4.230   3.973   9.898  0.1711  1.9581 -0.5852
  177MPD1    N1 2758   4.355   3.539  10.104 -0.2540  1.1308 -0.4944
  177MPD1    H6 2759   4.256   3.552  10.124  0.2586  0.7234  2.3452
  177MPD1    H7 2760   4.396   3.483  10.179 -0.7735  2.2243  0.6073
  178MPD1     C 2761   1.544   1.544   0.224 -0.6906  0.2608 -0.6596
  178MPD1    C1 2762   1.562   1.414   0.188 -0.0806 -0.6197 -0.3013
  178MPD1    C2 2763   1.614   1.394   0.068  0.2998  0.6703 -0.1321
  178MPD1    C3 2764   1.669   1.492  17.740  0.9166  0.3147  0.2169
  178MPD1    C4 2765   1.677   1.617   0.040  0.2059 -0.0898 -0.0227
  178MPD1    C5 2766   1.615   1.644   0.151  0.2398  0.2869  0.4274
  178MPD1     H 2767   1.608   1.293   0.028 -2.3059  0.4707  0.7370
  178MPD1    H1 2768   1.720   1.700  17.732  0.8437 -0.7722 -0.5552
  178MPD1    H2 2769   1.484   1.577   0.308  0.5202 -0.6661  0.5815
  178MPD1    H3 2770   1.594   1.745   0.185  0.5453  1.2011 -2.0799
  178MPD1     N 2771   1.723   1.468  17.613 -0.4354 -0.3523  0.1656
  178MPD1    H5 2772   1.789   1.538  17.582 -0.7987  0.5748  1.4588
  178MPD1    N1 2773   1.479   1.311   0.250  0.5786  0.7087  0.3210
  178MPD1    H6 2774   1.522   1.219   0.238 -1.6717 -0.6146  2.3260
  178MPD1    H7 2775   1.451   1.330   0.346 -0.7736  2.9431 -0.5391
  179MPD1     C 2776   1.760   4.269  15.620  0.0488  0.4879 -0.4953
  179MPD1    C1 2777   1.681   4.202  15.530  0.0686 -0.6754 -0.8508
  179MPD1    C2 2778   1.587   4.110  15.578  0.3107 -0.6795  0.1366
  179MPD1    C3 2779   1.575   4.093  15.716 -1.1740  0.1008 -0.2433
  179MPD1    C4 2780   1.649   4.157  15.801 -0.9794  0.0349  0.1644
  179MPD1    C5 2781   1.743   4.244  15.751  0.2750  0.4044  0.2741
  179MPD1     H 2782   1.528   4.053  15.508 -0.5408 -0.4781  0.6875
  179MPD1    H1 2783   1.635   4.151  15.908 -0.8098  2.5125  0.3373
  179MPD1    H2 2784   1.841   4.337  15.597 -0.4526  0.2605 -2.8666
  179MPD1    H3 2785   1.804   4.295  15.825  0.0623  1.6305 -0.3880
  179MPD1     N 2786   1.490   3.993  15.773  0.3884 -0.1206  0.2287
  179MPD1    H5 2787   1.506   3.975  15.872 -0.6989 -0.2916  0.3737
  179MPD1    N1 2788   1.713   4.230  15.395  0.5481 -0.2989  0.5820
  179MPD1    H6 2789   1.624   4.221  15.347  0.2523 -1.0875  1.2812
  179MPD1    H7 2790   1.740   4.328  15.385  2.3166 -0.8263  0.1762
  180MPD1     C 2791   0.822   0.761  15.240  0.5638  0.6872  0.3866
  180MPD1    C1 2792   0.925   0.804  15.162  0.7927  0.0979 -0.2788
  180MPD1    C2 2793   0.934   0.763  15.029  0.5340  0.8366 -0.1191
  180MPD1    C3 2794   0.832   0.683  14.974 -0.5979  0.3399 -0.6117
  180MPD1    C4 2795   0.716   0.664  15.049 -0.2934  0.1525 -0.4977
  180MPD1    C5 2796   0.713   0.707  15.183  0.2527  0.5848  0.8095
  180MPD1     H 2797   1.020   0.796  14.973  0.7409  1.4585  0.5691
  180MPD1    H1 2798   0.629   0.610  15.014 -0.1415  0.8559 -1.9663
  180MPD1    H2 2799   0.819   0.805  15.339 -0.3654 -0.7040  0.9880
  180MPD1    H3 2800   0.618   0.699  15.234  0.8360 -0.3413  1.7419
  180MPD1     N 2801   0.850   0.636  14.843  0.2573 -0.2172 -0.1235
  180MPD1    H5 2802   0.938   0.664  14.800  0.5073  2.4019  2.1113
  180MPD1    N1 2803   1.035   0.870  15.219  0.0245  0.2492 -0.2833
  180MPD1    H6 2804   1.080   0.928  15.148 -1.2906 -0.5261 -1.7306
  180MPD1    H7 2805   1.029   0.909  15.313 -0.7853 -1.4264  0.3549
  181MPD1     C 2806   2.302   1.432  10.637  0.2322  0.4450  0.3563
  181MPD1    C1 2807   2.399   1.346  10.600 -0.1753  0.2277 -0.2740
  181MPD1    C2 2808   2.530   1.406  10.580  0.3305  0.0047 -0.3035
  181MPD1    C3 2809   2.557   1.543  10.599 -0.4714  0.2242 -0.0855
  181MPD1    C4 2810   2.450   1.615  10.650 -0.6514 -0.0834  0.2909
  181MPD1    C5 2811   2.330   1.559  10.675 -0.2979  0.4864  0.4670
  181MPD1     H 2812   2.615   1.342  10.558  0.9976  0.8788 -0.2270
  181MPD1    H1 2813   2.473   1.708  10.701 -3.1835 -0.8541  2.8477
  181MPD1    H2 2814   2.206   1.387  10.656 -0.7150  2.2056 -0.2842
  181MPD1    H3 2815   2.254   1.619  10.723 -1.1925  0.8429 -1.3989
  181MPD1     N 2816   2.684   1.604  10.581  0.2444 -0.4030  0.6961
  181MPD1    H5 2817   2.696   1.689  10.634  4.4404 -0.4483 -0.1534
  181MPD1    N1 2818   2.383   1.206  10.573  0.2002  0.1527 -0.0574
  181MPD1    H6 2819   2.295   1.175  10.613  0.2946  0.7596  0.6307
  181MPD1    H7 2820   2.464   1.153  10.606 -0.8674 -1.2195  0.3312
  182MPD1     C 2821   3.656   0.830  17.423 -0.8370 -0.3754 -0.6376
  182MPD1    C1 2822   3.730   0.948  17.436 -0.1219 -0.2703  0.0493
  182MPD1    C2 2823   3.664   1.057  17.495 -0.3358 -0.5801  0.7806
  182MPD1    C3 2824   3.528   1.050  17.526  0.6422  0.5263 -0.2953
  182MPD1    C4 2825   3.460   0.933  17.507 -0.5003 -0.1766 -0.1824
  182MPD1    C5 2826   3.523   0.832  17.442 -0.1158  0.1041  0.1898
  182MPD1     H 2827   3.724   1.147  17.501  0.1504 -0.8008 -0.7796
  182MPD1    H1 2828   3.354   0.921  17.529 -0.2896  0.9642  1.4752
  182MPD1    H2 2829   3.705   0.745  17.377  1.8180  1.2708 -0.8634
  182MPD1    H3 2830   3.465   0.742  17.426  1.7119 -1.7233  3.7359
  182MPD1     N 2831   3.454   1.148  17.587 -0.1309  0.6454 -0.8948
  182MPD1    H5 2832   3.352   1.143  17.586 -0.1859  1.7134 -0.6319
  182MPD1    N1 2833   3.858   0.957  17.380 -0.5328 -0.2166  0.0608
  182MPD1    H6 2834   3.920   0.876  17.376 -0.6532 -0.3608  1.1327
  182MPD1    H7 2835   3.908   1.017  17.445  0.6086 -0.4158 -0.6419
  183MPD1     C 2836   3.552   0.946   8.843  0.4021  0.4157 -0.5562
  183MPD1    C1 2837   3.477   1.044   8.904  0.3517 -0.1737 -0.0246
  183MPD1    C2 2838   3.524   1.116   9.011  0.6559 -0.2626 -0.9168
  183MPD1    C3 2839   3.649   1.084   9.072 -0.2217 -0.2207  0.0128
  183MPD1    C4 2840   3.717   0.981   9.016 -0.4497 -0.0843 -0.7688
  183MPD1    C5 2841   3.673   0.919   8.898  0.1588  0.1105  0.0649
  183MPD1     H 2842   3.464   1.200   9.045 -0.0192 -0.1388 -2.3913
  183MPD1    H1 2843   3.818   0.956   9.047 -0.6532  1.4222  1.1265
  183MPD1    H2 2844   3.521   0.908   8.746  0.0364 -2.8175  0.8376
  183MPD1    H3 2845   3.744   0.856   8.846  0.6950  1.4932 -0.8623
  183MPD1     N 2846   3.684   1.179   9.178  0.4199  0.3395 -0.9098
  183MPD1    H5 2847   3.614   1.252   9.193  1.3285  1.0591 -0.1578
  183MPD1    N1 2848   3.361   1.086   8.838 -0.4241  0.2876  0.3725
  183MPD1    H6 2849   3.290   1.121   8.902  0.4763  1.6868  0.5962
  183MPD1    H7 2850   3.321   1.015   8.776  0.2253  1.6936 -1.6388
  184MPD1     C 2851   2.955   3.616  10.632 -0.3418  0.3573 -0.2983
  184MPD1    C1 2852   3.068   3.685  10.633  0.0690 -0.3666  1.0785
  184MPD1    C2 2853   3.060   3.811  10.570 -0.3750 -0.6397 -0.1952
  184MPD1    C3 2854   2.957   3.853  10.484  0.1865 -0.1354 -0.1491
  184MPD1    C4 2855   2.839   3.774  10.488  0.2963 -0.2560  0.4770
  184MPD1    C5 2856   2.841   3.650  10.554  0.5248 -0.1151 -0.6130
  184MPD1     H 2857   3.148   3.873  10.578 -0.5118 -0.7868  2.5662
  184MPD1    H1 2858   2.753   3.803  10.429 -0.2168 -2.5836  0.0527
  184MPD1    H2 2859   2.957   3.530  10.697 -0.5919  1.3975  1.0952
  184MPD1    H3 2860   2.755   3.585  10.563  0.9993 -0.5142  1.1279
  184MPD1     N 2861   2.955   3.967  10.401  0.3146  0.0024  0.0262
  184MPD1    H5 2862   2.871   3.975  10.344  0.1951 -1.1925  0.0401
  184MPD1    N1 2863   3.188   3.645  10.704 -0.0987 -0.3230  0.0141
  184MPD1    H6 2864   3.267   3.686  10.655 -1.7208 -0.9748 -3.1632
  184MPD1    H7 2865   3.203   3.545  10.716  2.2771 -0.1224 -1.3795
  185MPD1     C 2866   2.315   4.348   9.992 -0.2610 -0.0308 -0.2526
  185MPD1    C1 2867   2.399   4.307   9.894  0.6173  1.1663  0.8569
  185MPD1    C2 2868   2.531   4.270   9.927  0.3373 -0.1039  0.6179
  185MPD1    C3 2869   2.564   4.245  10.059  0.8074  0.1886  0.0842
  185MPD1    C4 2870   2.474   4.284  10.156  0.3758  0.3082 -0.1609
  185MPD1    C5 2871   2.348   4.333  10.117  0.1003  0.2199  0.0478
  185MPD1     H 2872   2.596   4.255   9.842 -2.8804 -0.2844 -1.8196
  185MPD1    H1 2873   2.508   4.280  10.259 -3.9858 -0.4746  1.2732
  185MPD1    H2 2874   2.214   4.379   9.968 -1.1705 -1.3507  1.8835
  185MPD1    H3 2875   2.281   4.375  10.190 -1.1994 -0.3881 -0.7937
  185MPD1     N 2876   2.695   4.203  10.091 -0.2488  0.1697 -0.1096
  185MPD1    H5 2877   2.712   4.182  10.189 -0.7440 -2.9191 -0.6845
  185MPD1    N1 2878   2.366   4.346   9.763  0.0737 -0.2364  0.0138
  185MPD1    H6 2879   2.266   4.350   9.744 -0.1785 -3.7875  0.4142
  185MPD1    H7 2880   2.414   4.294   9.690  0.6198 -0.0739  0.2593
  186MPD1     C 2881   1.668   4.664  15.576 -0.0144 -0.2583 -0.1458
  186MPD1    C1 2882   1.630   4.559  15.655 -0.2691 -0.4753  0.0697
  186MPD1    C2 2883   1.681   4.554  15.782 -0.6274  0.0744  0.6540
  186MPD1    C3 2884   1.779   4.644  15.830 -0.3140  0.2560  0.4405
  186MPD1    C4 2885   1.824   0.005  15.744 -0.0052  0.9833  0.2116
  186MPD1    C5 2886   1.768   0.012  15.616  0.2419 -0.0539 -0.1385
  186MPD1     H 2887   1.646   4.473  15.845  1.6482 -1.4681 -0.0788
  186MPD1    H1 2888   1.894   0.084  15.767  0.6255  0.9845 -1.7670
  186MPD1    H2 2889   1.639   4.681  15.473 -1.1591  1.7961  0.5255
  186MPD1    H3 2890   1.803   0.085  15.545 -1.7424 -0.1300 -1.2139
  186MPD1     N 2891   1.845   4.635  15.947 -0.6150  0.1620 -0.3318
  186MPD1    H5 2892   1.903   4.716  15.968  0.6850 -0.6402 -0.8116
  186MPD1    N1 2893   1.525   4.475  15.618  0.1751 -0.4379 -0.3020
  186MPD1    H6 2894   1.515   4.468  15.517 -3.6503 -1.5979  0.1448
  186MPD1    H7 2895   1.524   4.381  15.657  1.6723  0.7619  2.6520
  187MPD1     C 2896   0.766   1.672   0.261  0.2529  0.1169 -0.2185
  187MPD1    C1 2897   0.713   1.570   0.190 -0.3400 -0.5071  0.7518
  187MPD1    C2 2898   0.782   1.529   0.076 -0.1777 -0.1490  0.0856
  187MPD1    C3 2899   0.895   1.608   0.035  0.2230 -0.2583 -0.7559
  187MPD1    C4 2900   0.930   1.721   0.096 -0.2587  0.0539 -0.1814
  187MPD1    C5 2901   0.865   1.753   0.213  0.2424  0.0171  0.4431
  187MPD1     H 2902   0.749   1.447   0.013 -0.5652  0.7439 -0.8698
  187MPD1    H1 2903   1.008   1.790   0.068 -2.5173  3.3500  1.6196
  187MPD1    H2 2904   0.722   1.717   0.350  1.1460  1.4119 -0.4208
  187MPD1    H3 2905   0.882   1.846   0.267  0.9943  0.7293 -1.0341
  187MPD1     N 2906   0.963   1.575  17.668  0.3364 -0.1918 -0.3152
  187MPD1    H5 2907   1.040   1.637  17.645 -0.1797  0.3992 -0.4489
  187MPD1    N1 2908   0.608   1.497   0.247  0.1600 -0.7884  0.5913
  187MPD1    H6 2909   0.557   1.544   0.321  2.0310  0.9311  0.8075
  187MPD1    H7 2910   0.543   1.452   0.183  0.4950 -3.1731  1.9300
  188MPD1     C 2911   1.217   1.032  10.567 -0.3150 -0.3143 -0.2917
  188MPD1    C1 2912   1.106   1.046  10.489  0.5901 -0.3691  0.1796
  188MPD1    C2 2913   1.059   0.926  10.426 -0.7153 -0.8378 -0.0745
  188MPD1    C3 2914   1.100   0.803  10.468 -0.2338 -0.4309  0.2384
  188MPD1    C4 2915   1.199   0.792  10.564 -0.5122  0.2134 -0.3414
  188MPD1    C5 2916   1.258   0.907  10.608  0.0822 -0.5099  0.5194
  188MPD1     H 2917   0.979   0.944  10.355 -0.8532 -0.1089  0.2659
  188MPD1    H1 2918   1.255   0.702  10.586  0.0189  0.9179  1.1768
  188MPD1    H2 2919   1.275   1.109  10.618 -0.4452 -0.8313  0.6365
  188MPD1    H3 2920   1.353   0.899  10.660  0.2854  2.5292  0.6128
  188MPD1     N 2921   1.047   0.679  10.413  0.2365  0.0723  0.2141
  188MPD1    H5 2922   1.081   0.595  10.460  2.8594  0.4133 -1.0619
  188MPD1    N1 2923   1.071   1.167  10.441  0.0916  0.4754 -0.3632
  188MPD1    H6 2924   0.974   1.176  10.410 -0.2826 -0.4117  0.5361
  188MPD1    H7 2925   1.091   1.246  10.502 -0.8957 -1.0654  1.9954
  189MPD1     C 2926   2.417   2.711   0.966 -0.6736  0.3783  0.2149
  189MPD1    C1 2927   2.283   2.688   0.962 -0.8062  0.2746  0.4415
  189MPD1    C2 2928   2.208   2.735   0.852 -0.0795  0.4574 -0.1861
  189MPD1    C3 2929   2.268   2.822   0.759  0.4337  0.2847 -0.3732
  189MPD1    C4 2930   2.401   2.842   0.762  0.0092 -0.0855 -0.3722
  189MPD1    C5 2931   2.477   2.787   0.866 -0.0399  0.0004  0.4903
  189MPD1     H 2932   2.101   2.722   0.850 -0.1919  1.2619  0.4623
  189MPD1    H1 2933   2.446   2.907   0.688  2.9421  0.1626  1.6237
  189MPD1    H2 2934   2.475   2.678   1.051 -2.2027  0.3529  1.2430
  189MPD1    H3 2935   2.583   2.805   0.874  0.0888 -0.8495  0.7549
  189MPD1     N 2936   2.181   2.895   0.678  0.0228  0.0465  0.4210
  189MPD1    H5 2937   2.088   2.862   0.655  0.4187 -1.0000  0.3376
  189MPD1    N1 2938   2.222   2.643   1.077  0.6573 -0.3610  0.4697
  189MPD1    H6 2939   2.224   2.726   1.137  0.7989  1.1606 -1.6270
  189MPD1    H7 2940   2.127   2.611   1.061  0.9988 -1.1473  0.0509
  190MPD1     C 2941   1.502   0.294  15.318  0.4026  0.4903  0.6423
  190MPD1    C1 2942   1.511   0.416  15.251 -0.0309  0.4604  0.3714
  190MPD1    C2 2943   1.584   0.520  15.307  0.2462  0.4078 -0.3297
  190MPD1    C3 2944   1.647   0.508  15.433 -0.1536 -0.8031 -0.6104
  190MPD1    C4 2945   1.638   0.388  15.495  0.5222  0.4001  0.0420
  190MPD1    C5 2946   1.564   0.285  15.437  0.8086 -0.4839  0.1437
  190MPD1     H 2947   1.594   0.618  15.262 -0.1620  0.8749  0.5912
  190MPD1    H1 2948   1.662   0.374  15.600 -1.8310  1.0534  0.6844
  190MPD1    H2 2949   1.442   0.207  15.292  1.5003  0.2881 -1.2314
  190MPD1    H3 2950   1.563   0.189  15.488  3.3653 -1.6028 -1.9256
  190MPD1     N 2951   1.739   0.612  15.481 -0.0425  0.1022 -0.2250
  190MPD1    H5 2952   1.733   0.695  15.423  0.7252  1.1226  1.1540
  190MPD1    N1 2953   1.470   0.428  15.119 -0.4014  0.3772 -0.0854
  190MPD1    H6 2954   1.394   0.363  15.098  0.2052  0.4146 -2.4525
  190MPD1    H7 2955   1.442   0.522  15.092  0.3482  0.6925  0.2621
  191MPD1     C 2956   0.927   2.545  11.249 -0.4536  0.2417 -0.4842
  191MPD1    C1 2957   0.904   2.516  11.380 -0.0603  0.1810 -0.6203
  191MPD1    C2 2958   0.990   2.426  11.438 -0.4484  0.4725 -0.0784
  191MPD1    C3 2959   1.094   2.359  11.367  0.3198 -0.3257  0.2004
  191MPD1    C4 2960   1.099   2.379  11.230 -0.3276 -0.0682 -0.4238
  191MPD1    C5 2961   1.016   2.468  11.172 -0.6969  0.5125 -0.1995
  191MPD1     H 2962   0.978   2.412  11.544 -0.5782  4.7925  0.4730
  191MPD1    H1 2963   1.170   2.324  11.169 -0.4071 -0.7484  0.0946
  191MPD1    H2 2964   0.882   2.631  11.202 -1.4533  0.3217  0.6108
  191MPD1    H3 2965   1.014   2.484  11.065  1.0603 -2.3795 -0.6501
  191MPD1     N 2966   1.174   2.267  11.449 -0.5605  0.4005 -0.0975
  191MPD1    H5 2967   1.153   2.268  11.548  2.0048  0.0751  0.4313
  191MPD1    N1 2968   0.830   2.609  11.459 -0.9525  0.2136 -0.2227
  191MPD1    H6 2969   0.749   2.647  11.410 -1.7239 -2.6295 -1.1477
  191MPD1    H7 2970   0.783   2.564  11.537 -0.0251  1.2151  0.9193
  192MPD1     C 2971   0.980   2.092  12.270 -0.2455  0.0297  0.4786
  192MPD1    C1 2972   0.980   1.979  12.189 -0.5077 -0.5117  0.0251
  192MPD1    C2 2973   1.063   1.979  12.085  0.2499 -0.7926  0.3956
  192MPD1    C3 2974   1.146   2.087  12.060 -0.0933  0.4564  0.2334
  192MPD1    C4 2975   1.126   2.206  12.125  0.5656  0.3518  0.3477
  192MPD1    C5 2976   1.046   2.206  12.239  0.2530  0.3788 -0.1831
  192MPD1     H 2977   1.063   1.889  12.023  0.2515 -0.5061 -0.0214
  192MPD1    H1 2978   1.183   2.290  12.089  0.1862  0.0433 -0.9924
  192MPD1    H2 2979   0.915   2.101  12.356 -2.5001  1.3788 -1.3512
  192MPD1    H3 2980   1.037   2.293  12.303  0.5986  0.0888  0.2614
  192MPD1     N 2981   1.233   2.081  11.945 -0.3940 -0.4754  0.4160
  192MPD1    H5 2982   1.304   2.152  11.938 -1.4603  0.4824 -0.7119
  192MPD1    N1 2983   0.897   1.869  12.227  0.0338 -0.4671  0.1316
  192MPD1    H6 2984   0.935   1.782  12.189  0.2109  0.6059 -2.1271
  192MPD1    H7 2985   0.860   1.865  12.322 -0.4089  0.0453 -0.0243
  193MPD1     C 2986   0.337   2.465  16.046 -0.5335  0.3524 -1.4665
  193MPD1    C1 2987   0.292   2.574  16.114 -0.9883  0.0526 -0.4362
  193MPD1    C2 2988   0.353   2.613  16.234  0.1075  0.1323  0.7349
  193MPD1    C3 2989   0.453   2.528  16.294  0.3666  0.2111 -0.3211
  193MPD1    C4 2990   0.478   2.410  16.232  0.9306 -0.1077  0.9025
  193MPD1    C5 2991   0.423   2.379  16.109 -0.4904  0.2988  0.0680
  193MPD1     H 2992   0.319   2.706  16.278 -0.7820  0.5076 -0.7348
  193MPD1    H1 2993   0.559   2.351  16.273  1.2181 -0.0095  0.4671
  193MPD1    H2 2994   0.297   2.432  15.951 -1.8361  0.1194 -0.8266
  193MPD1    H3 2995   0.473   2.301  16.053 -1.7101 -1.1108  0.9259
  193MPD1     N 2996   0.523   2.559  16.412  0.1858  0.0542  0.4866
  193MPD1    H5 2997   0.585   2.487  16.447 -0.3476  0.3458  2.0302
  193MPD1    N1 2998   0.206   2.661  16.045  0.1230 -0.3639 -0.3387
  193MPD1    H6 2999   0.148   2.717  16.108 -0.0359  1.1685 -1.8376
  193MPD1    H7 3000   0.145   2.620  15.975  0.1964 -2.4416  0.8251
  194MPD1     C 3001   2.399   0.645  17.114 -0.0884  0.4803 -0.6038
  194MPD1    C1 3002   2.352   0.564  17.217 -0.0197  0.1973 -0.2901
  194MPD1    C2 3003   2.436   0.463  17.247  0.3173 -0.0536  0.2627
  194MPD1    C3 3004   2.538   0.417  17.170 -0.4230 -0.4714 -0.3217
  194MPD1    C4 3005   2.571   0.493  17.054 -0.4025  0.6659  0.1214
  194MPD1    C5 3006   2.505   0.610  17.038  0.4576 -0.2085 -1.2861
  194MPD1     H 3007   2.412   0.407  17.337  2.0353 -1.5063 -0.1799
  194MPD1    H1 3008   2.663   0.475  16.999 -0.7550  0.1254 -0.2878
  194MPD1    H2 3009   2.353   0.739  17.085  2.7384  2.4825  1.4030
  194MPD1    H3 3010   2.537   0.678  16.960 -3.0474  0.6932 -1.9335
  194MPD1     N 3011   2.601   0.299  17.203 -0.5615  0.0881 -0.1001
  194MPD1    H5 3012   2.592   0.270  17.299  1.6569  0.0259  0.0794
  194MPD1    N1 3013   2.252   0.619  17.303  0.2529  0.3632 -0.4294
  194MPD1    H6 3014   2.206   0.545  17.355  1.8278 -1.8593 -2.1606
  194MPD1    H7 3015   2.191   0.671  17.240  0.4150  1.2885  0.1811
  195MPD1     C 3016   0.696   1.582  17.337 -0.1970  0.3781 -0.0414
  195MPD1    C1 3017   0.603   1.590  17.443 -0.0343 -0.1441 -0.5460
  195MPD1    C2 3018   0.503   1.500  17.450 -0.0080  0.2974  0.4090
  195MPD1    C3 3019   0.482   1.396  17.361  0.4595 -0.0828 -0.2870
  195MPD1    C4 3020   0.571   1.400  17.262 -0.2604 -0.3298 -0.4129
  195MPD1    C5 3021   0.674   1.482  17.246  0.1807 -0.2794  0.5684
  195MPD1     H 3022   0.437   1.507  17.535 -1.0090 -3.2837 -0.0775
  195MPD1    H1 3023   0.555   1.321  17.189 -2.4151 -0.7841  0.5308
  195MPD1    H2 3024   0.776   1.652  17.317 -0.7970  0.3706 -2.3635
  195MPD1    H3 3025   0.735   1.487  17.157 -3.4658 -1.1384 -1.9703
  195MPD1     N 3026   0.388   1.288  17.362 -0.0643  0.6694 -0.5247
  195MPD1    H5 3027   0.387   1.231  17.279 -2.9724 -0.4689  0.2594
  195MPD1    N1 3028   0.617   1.699  17.536 -0.8614 -0.3311  0.0694
  195MPD1    H6 3029   0.716   1.714  17.556 -0.5293 -0.7668 -1.2375
  195MPD1    H7 3030   0.565   1.688  17.623  1.0990 -0.6739  1.1966
  196MPD1     C 3031   0.019   2.338   0.508  0.5059 -0.7573  0.2100
  196MPD1    C1 3032   4.681   2.415   0.602 -0.4094 -0.1827  0.1024
  196MPD1    C2 3033   4.551   2.380   0.638 -0.1512  0.5587  0.2814
  196MPD1    C3 3034   4.505   2.252   0.607 -0.2796 -0.0729  0.6159
  196MPD1    C4 3035   4.581   2.176   0.522  0.3924  0.1038  0.5564
  196MPD1    C5 3036   4.701   2.215   0.474 -0.0877 -0.1020 -0.3241
  196MPD1     H 3037   4.499   2.449   0.704  0.5799 -0.9652  2.4356
  196MPD1    H1 3038   4.546   2.077   0.496 -0.8207  1.1530 -1.8577
  196MPD1    H2 3039   0.114   2.370   0.466  0.2548 -1.4721 -0.9056
  196MPD1    H3 3040   0.020   2.149   0.409 -2.0104 -1.1370 -0.9293
  196MPD1     N 3041   4.383   2.194   0.657  0.6101  0.0778  0.5754
  196MPD1    H5 3042   4.357   2.104   0.619  1.7814 -1.1586  2.6495
  196MPD1    N1 3043   4.735   2.540   0.645 -0.5523 -0.1357  0.6824
  196MPD1    H6 3044   0.098   2.553   0.650 -0.3462 -0.9347 -1.2394
  196MPD1    H7 3045   4.697   2.572   0.734 -0.2773  0.8065  0.4624
  197MPD1     C 3046   4.192   3.544   0.330  0.1741 -0.2384 -0.4176
  197MPD1    C1 3047   4.194   3.676   0.307 -0.3352  0.3166 -0.0916
  197MPD1    C2 3048   4.191   3.712   0.174 -0.2152  0.0540  0.6578
  197MPD1    C3 3049   4.172   3.621   0.069  0.4804  0.2585 -0.1218
  197MPD1    C4 3050   4.155   3.490   0.111 -0.6259  1.0705  0.2074
  197MPD1    C5 3051   4.167   3.449   0.235  0.1309 -0.3808 -0.0646
  197MPD1     H 3052   4.205   3.812   0.133  1.1470  0.3597  1.8760
  197MPD1    H1 3053   4.130   3.412   0.041  1.3380 -0.3421  1.1051
  197MPD1    H2 3054   4.210   3.508   0.431  1.7130  2.3253  0.2378
  197MPD1    H3 3055   4.171   3.342   0.254 -1.1765 -0.5920 -0.9955
  197MPD1     N 3056   4.153   3.651  17.680  0.2423 -0.1343 -0.0706
  197MPD1    H5 3057   4.129   3.575  17.618 -0.8607  1.1071 -1.1757
  197MPD1    N1 3058   4.232   3.761   0.409  0.6035  0.6541  0.1035
  197MPD1    H6 3059   4.169   3.752   0.489  0.5099 -1.2824 -0.1860
  197MPD1    H7 3060   4.237   3.858   0.380  0.1669  0.1951 -1.4962
  198MPD1     C 3061   1.338   1.492  14.725 -0.7958  0.2122 -0.9917
  198MPD1    C1 3062   1.403   1.612  14.692  0.3640 -0.1525  0.0764
  198MPD1    C2 3063   1.424   1.704  14.791 -0.3109  0.1371  0.6343
  198MPD1    C3 3064   1.389   1.683  14.928 -0.0387 -0.0942 -0.2364
  198MPD1    C4 3065   1.328   1.560  14.962  0.2077  0.3586 -0.7025
  198MPD1    C5 3066   1.298   1.470  14.857  0.3435 -0.2616 -0.3689
  198MPD1     H 3067   1.481   1.794  14.771 -0.6524  0.0652 -0.6591
  198MPD1    H1 3068   1.302   1.532  15.064  0.5921  1.4242 -0.3180
  198MPD1    H2 3069   1.314   1.421  14.647 -0.0155  0.3315 -1.3371
  198MPD1    H3 3070   1.238   1.382  14.878 -2.3901  2.2925  2.5309
  198MPD1     N 3071   1.414   1.792  15.022 -0.1929  0.2692 -0.4346
  198MPD1    H5 3072   1.454   1.874  14.978  3.7803 -1.8008 -0.6242
  198MPD1    N1 3073   1.421   1.647  14.556 -0.1762  0.0291 -0.4851
  198MPD1    H6 3074   1.440   1.564  14.500  0.6650  1.2655 -2.0178
  198MPD1    H7 3075   1.498   1.710  14.538  2.1626 -2.8156 -0.3503
  199MPD1     C 3076   3.777   3.114  10.819  0.4399 -0.6607 -0.9371
  199MPD1    C1 3077   3.787   2.976  10.823 -0.3454 -0.1504  0.0479
  199MPD1    C2 3078   3.693   2.901  10.756 -0.0306 -0.6400 -0.1539
  199MPD1    C3 3079   3.599   2.959  10.664  0.0482  0.3284 -0.2933
  199MPD1    C4 3080   3.597   3.099  10.660  0.2755  0.0988  0.3796
  199MPD1    C5 3081   3.682   3.173  10.739 -0.3625 -0.3563 -1.0571
  199MPD1     H 3082   3.678   2.795  10.771  2.6236 -0.9925 -0.0512
  199MPD1    H1 3083   3.543   3.159  10.587 -1.8016  0.1555  1.9490
  199MPD1    H2 3084   3.842   3.179  10.877 -0.1572 -0.1905 -0.7984
  199MPD1    H3 3085   3.676   3.281  10.737  1.5198 -0.2335 -0.4343
  199MPD1     N 3086   3.501   2.888  10.589  0.0498  0.3744  0.0321
  199MPD1    H5 3087   3.437   2.938  10.528  2.7256  0.5597 -2.6566
  199MPD1    N1 3088   3.849   2.920  10.927 -0.1433 -0.2924  0.4182
  199MPD1    H6 3089   3.942   2.961  10.927  0.0042 -0.5967  2.7795
  199MPD1    H7 3090   3.875   2.824  10.903  0.8091  0.0574  0.0558
  200MPD1     C 3091   1.898   2.726  15.077  0.3483  0.9645 -0.3425
  200MPD1    C1 3092   1.901   2.741  14.940  0.0387  0.3326 -0.0719
  200MPD1    C2 3093   2.023   2.724  14.884 -0.0948  0.1853  0.5852
  200MPD1    C3 3094   2.145   2.712  14.954  0.1749  0.2245  0.4881
  200MPD1    C4 3095   2.138   2.728  15.094 -0.1528 -0.0287 -0.0980
  200MPD1    C5 3096   2.010   2.718  15.153 -0.0557  0.1772  0.1211
  200MPD1     H 3097   2.027   2.720  14.776  1.4908  0.3173  0.6418
  200MPD1    H1 3098   2.220   2.741  15.162 -0.3359  0.2198  0.0753
  200MPD1    H2 3099   1.806   2.727  15.134  1.2285 -1.2175  1.1207
  200MPD1    H3 3100   2.006   2.723  15.261  2.4117  2.0145  0.1364
  200MPD1     N 3101   2.266   2.700  14.877 -0.0113 -0.0924  0.0049
  200MPD1    H5 3102   2.246   2.676  14.780 -0.1854 -0.3534  0.1055
  200MPD1    N1 3103   1.786   2.746  14.869  0.5470 -0.9682  0.2614
  200MPD1    H6 3104   1.809   2.790  14.781  2.0759  0.0012  1.1396
  200MPD1    H7 3105   1.706   2.791  14.913  3.0936  3.2435  0.5964
  201MPD1     C 3106   0.181   1.606  12.833 -0.3211 -0.4872 -0.2687
  201MPD1    C1 3107   0.266   1.577  12.934  0.1183  0.1771 -0.0929
  201MPD1    C2 3108   0.226   1.473  13.025 -0.5586 -0.2971  0.1883
  201MPD1    C3 3109   0.096   1.437  13.031  0.1452 -0.6574  0.2912
  201MPD1    C4 3110   0.006   1.483  12.936 -0.3823  0.1096  0.2377
  201MPD1    C5 3111   0.053   1.554  12.831  0.5368 -0.7843  0.3370
  201MPD1     H 3112   0.303   1.429  13.087 -2.1852 -0.1639  2.2825
  201MPD1    H1 3113   4.644   1.439  12.924  0.0019 -0.2875 -1.4494
  201MPD1    H2 3114   0.221   1.659  12.748  1.0864 -2.3637 -0.7692
  201MPD1    H3 3115   4.717   1.582  12.756  2.9880  2.6151 -0.7412
  201MPD1     N 3116   0.063   1.332  13.122 -0.7174  0.2580  0.1514
  201MPD1    H5 3117   0.144   1.288  13.166 -1.1729 -3.0493 -2.2552
  201MPD1    N1 3118   0.400   1.624  12.928  0.0241  0.2635  0.3651
  201MPD1    H6 3119   0.440   1.637  13.021 -0.3195 -0.5523  0.6312
  201MPD1    H7 3120   0.405   1.711  12.876 -1.2896 -0.1857 -0.4998
  202MPD1     C 3121   4.172   0.437   8.993  0.1621 -0.4068 -0.1916
  202MPD1    C1 3122   4.292   0.375   9.001 -0.3318 -0.1747 -0.3745
  202MPD1    C2 3123   4.370   0.422   9.105 -0.6931 -1.0569  0.1296
  202MPD1    C3 3124   4.356   0.553   9.155  0.6787  0.5636  0.1884
  202MPD1    C4 3125   4.251   0.628   9.104 -0.0134  0.2562  0.1277
  202MPD1    C5 3126   4.154   0.567   9.031 -0.2636 -0.6217  0.0965
  202MPD1     H 3127   4.467   0.377   9.122 -0.1191  0.3785  0.6922
  202MPD1    H1 3128   4.245   0.730   9.140  0.7252  0.4488 -0.3001
  202MPD1    H2 3129   4.090   0.386   8.943 -0.9985  3.3169 -2.0782
  202MPD1    H3 3130   4.065   0.627   9.015  2.0240  2.1524 -2.3655
  202MPD1     N 3131   4.446   0.614   9.249 -0.0537  0.6757 -0.4475
  202MPD1    H5 3132   4.432   0.712   9.272 -0.6178 -0.0427  2.2306
  202MPD1    N1 3133   4.294   0.236   8.981 -0.1133 -0.1773 -0.0384
  202MPD1    H6 3134   4.388   0.205   8.960  1.2345  4.1012 -0.3967
  202MPD1    H7 3135   4.237   0.194   8.908 -0.1768 -1.8888  0.9931
  203MPD1     C 3136   3.721   2.010  12.302 -0.8780  0.3391  0.1047
  203MPD1    C1 3137   3.734   1.886  12.250  0.9294 -0.0052 -0.5757
  203MPD1    C2 3138   3.630   1.790  12.270  0.1622  0.7042 -0.1485
  203MPD1    C3 3139   3.516   1.815  12.351 -0.4071  0.2847 -0.1156
  203MPD1    C4 3140   3.503   1.943  12.403  0.0971  0.5408  0.7490
  203MPD1    C5 3141   3.604   2.037  12.381  0.0891  0.1898  0.1020
  203MPD1     H 3142   3.637   1.695  12.218  0.5263 -0.2133  1.5537
  203MPD1    H1 3143   3.425   1.975  12.471 -1.2212  0.1621 -0.5981
  203MPD1    H2 3144   3.786   2.095  12.284  1.7077 -2.0251 -1.7369
  203MPD1    H3 3145   3.575   2.137  12.411 -2.0888  0.0976 -1.6807
  203MPD1     N 3146   3.417   1.716  12.366  0.1859  0.3826 -0.5338
  203MPD1    H5 3147   3.427   1.622  12.328  1.3474 -0.5911  2.1798
  203MPD1    N1 3148   3.833   1.863  12.154  0.1795  0.3530  0.8061
  203MPD1    H6 3149   3.852   1.763  12.151 -0.5286  0.2485 -0.4783
  203MPD1    H7 3150   3.921   1.911  12.173  0.1451  1.1712 -1.0650
  204MPD1     C 3151   2.628   4.162  17.738  0.1795 -0.2965 -0.0128
  204MPD1    C1 3152   2.722   4.136  17.640 -0.1850  0.3942  0.4025
  204MPD1    C2 3153   2.770   4.007  17.632 -0.1944 -0.2035 -0.2468
  204MPD1    C3 3154   2.723   3.900  17.695 -0.2844 -0.6721 -0.1729
  204MPD1    C4 3155   2.614   3.922   0.032  0.2561  0.5839 -0.4850
  204MPD1    C5 3156   2.566   4.056   0.048 -0.2284  0.1258 -0.6870
  204MPD1     H 3157   2.843   3.998  17.552  0.4321  1.1561  0.1683
  204MPD1    H1 3158   2.577   3.838   0.089  1.2302  0.3894 -0.1418
  204MPD1    H2 3159   2.597   4.262   0.019  0.3790 -0.7232  1.7258
  204MPD1    H3 3160   2.490   4.069   0.124  0.1989  1.3281 -0.4697
  204MPD1     N 3161   2.796   3.774  17.686 -0.2683  0.2742 -0.1386
  204MPD1    H5 3162   2.882   3.776  17.632 -0.2463 -1.7950 -0.2102
  204MPD1    N1 3163   2.800   4.242  17.585 -0.1481 -0.4342 -0.4067
  204MPD1    H6 3164   2.848   4.216  17.500  1.4072 -2.5483  1.1384
  204MPD1    H7 3165   2.737   4.315  17.553 -0.5163 -0.6298 -0.1368
  205MPD1     C 3166   3.140   1.984  17.220  0.4149  0.3615  0.3855
  205MPD1    C1 3167   3.202   2.078  17.302  0.2054 -0.6816 -0.9249
  205MPD1    C2 3168   3.136   2.148  17.398 -0.1327 -0.7466  0.4324
  205MPD1    C3 3169   2.999   2.147  17.391  0.3261  0.1819  0.6953
  205MPD1    C4 3170   2.938   2.067  17.292 -0.7528 -0.1722  0.1686
  205MPD1    C5 3171   3.008   1.983  17.214 -0.0228  0.9858  0.1445
  205MPD1     H 3172   3.191   2.191  17.480  1.0526 -1.1001 -0.1734
  205MPD1    H1 3173   2.830   2.059  17.288 -0.5314 -1.7814 -2.3590
  205MPD1    H2 3174   3.192   1.905  17.167  1.0985 -0.5859  2.4622
  205MPD1    H3 3175   2.959   1.911  17.149 -2.5786  1.8590  1.0997
  205MPD1     N 3176   2.914   2.212  17.481  0.4014 -0.0356 -0.1496
  205MPD1    H5 3177   2.816   2.192  17.466  0.7904 -1.4967 -0.7456
  205MPD1    N1 3178   3.345   2.075  17.306 -0.1137  0.2992  0.1994
  205MPD1    H6 3179   3.379   2.166  17.339 -3.5417  1.0179  1.7088
  205MPD1    H7 3180   3.385   2.062  17.213 -0.3622  2.1145 -0.1631
  206MPD1     C 3181   2.991   0.488  16.694 -0.1962  0.6306  0.2773
  206MPD1    C1 3182   2.953   0.357  16.668 -0.3089 -0.0389  0.4005
  206MPD1    C2 3183   2.988   0.306  16.544 -0.3132 -0.0650  0.5778
  206MPD1    C3 3184   3.089   0.368  16.466 -0.0887  0.4076 -0.1783
  206MPD1    C4 3185   3.136   0.492  16.505  0.5297  1.0165  0.5443
  206MPD1    C5 3186   3.094   0.546  16.620  0.6597 -0.0930  0.1616
  206MPD1     H 3187   2.936   0.223  16.500 -0.8539  1.5510 -1.8528
  206MPD1    H1 3188   3.213   0.535  16.442  1.0931 -0.8363 -0.0639
  206MPD1    H2 3189   2.947   0.533  16.782 -2.1986 -0.8025  0.0201
  206MPD1    H3 3190   3.141   0.640  16.648 -1.5360  1.6765 -2.0764
  206MPD1     N 3191   3.137   0.303  16.347  0.5938 -0.0367 -0.2948
  206MPD1    H5 3192   3.210   0.354  16.298  1.1112 -1.0838 -0.6068
  206MPD1    N1 3193   2.844   0.299  16.733  0.1729  0.1063  0.0777
  206MPD1    H6 3194   2.842   0.321  16.832 -2.7486  2.8160 -0.6145
  206MPD1    H7 3195   2.851   0.198  16.726  3.2320  0.4544 -2.1874
  207MPD1     C 3196   0.800   2.857   9.811  1.1990 -0.5466  0.3341
  207MPD1    C1 3197   0.767   2.838   9.941  0.4420 -0.3350  0.1475
  207MPD1    C2 3198   0.862   2.786  10.027 -0.7947 -0.3401 -0.2560
  207MPD1    C3 3199   0.987   2.740   9.981  0.5706 -0.4372 -0.3708
  207MPD1    C4 3200   1.019   2.762   9.848  0.8930 -0.6246 -0.4518
  207MPD1    C5 3201   0.921   2.813   9.764  0.1436  0.6456  0.1071
  207MPD1     H 3202   0.848   2.782  10.134  1.1395  0.7479  0.0373
  207MPD1    H1 3203   1.118   2.727   9.820  0.8899 -0.5378 -0.5721
  207MPD1    H2 3204   0.723   2.897   9.746  0.8303 -2.0678 -0.1773
  207MPD1    H3 3205   0.950   2.831   9.661  1.8380  0.9171  0.6345
  207MPD1     N 3206   1.089   2.698  10.069  0.0773  0.6297 -0.4854
  207MPD1    H5 3207   1.178   2.669  10.029 -0.8643 -1.2306 -1.1949
  207MPD1    N1 3208   0.649   2.899   9.992 -0.0031 -0.2014 -0.3822
  207MPD1    H6 3209   0.583   2.890   9.916 -0.9213 -0.1992  0.4109
  207MPD1    H7 3210   0.609   2.843  10.067 -0.9591  0.1165 -0.6584
  208MPD1     C 3211   1.718   0.886   0.028 -1.2491  0.0821  0.4812
  208MPD1    C1 3212   1.727   0.998   0.114 -0.2004  0.7231 -0.1671
  208MPD1    C2 3213   1.810   1.102   0.068  0.3554 -0.2472 -0.5075
  208MPD1    C3 3214   1.897   1.097  17.709 -0.3723  0.0450  0.6387
  208MPD1    C4 3215   1.876   0.990  17.625  0.1956 -0.2978 -0.1569
  208MPD1    C5 3216   1.798   0.885  17.667  0.5582  0.0563 -0.7251
  208MPD1     H 3217   1.817   1.189   0.132  2.2158 -0.9579  0.2566
  208MPD1    H1 3218   1.941   0.978  17.538 -0.7633  1.4379 -1.1238
  208MPD1    H2 3219   1.658   0.796   0.035 -0.5911 -0.5255 -1.6568
  208MPD1    H3 3220   1.803   0.799  17.601  0.4741 -0.6479  0.1889
  208MPD1     N 3221   1.993   1.194  17.685  0.5596 -0.0243 -0.2435
  208MPD1    H5 3222   2.016   1.252   0.018 -0.0202  2.3076 -1.7562
  208MPD1    N1 3223   1.646   1.016   0.226 -0.1735  0.0505 -0.0989
  208MPD1    H6 3224   1.688   1.057   0.310  0.9427 -2.7073  0.6918
  208MPD1    H7 3225   1.611   0.928   0.262  0.0717 -0.2117 -0.5002
  209MPD1     C 3226   1.317   1.310  11.160 -0.1869 -0.2021 -0.0295
  209MPD1    C1 3227   1.243   1.411  11.099  0.4992  0.5517  0.1283
  209MPD1    C2 3228   1.273   1.545  11.118 -0.1078 -0.0844  0.6376
  209MPD1    C3 3229   1.396   1.577  11.176 -0.1880 -0.1173 -0.1957
  209MPD1    C4 3230   1.478   1.474  11.216 -0.4986  0.2674  0.3568
  209MPD1    C5 3231   1.434   1.341  11.215 -0.3144 -0.0395 -0.7235
  209MPD1     H 3232   1.202   1.624  11.094 -1.6838 -1.8162 -0.3189
  209MPD1    H1 3233   1.572   1.485  11.270 -1.2239  0.4419  1.5930
  209MPD1    H2 3234   1.284   1.206  11.158 -0.0677 -0.2475  0.3203
  209MPD1    H3 3235   1.478   1.263  11.276  1.6084  0.8390 -1.0067
  209MPD1     N 3236   1.431   1.714  11.189  0.4131  0.2742 -0.5176
  209MPD1    H5 3237   1.366   1.782  11.151 -0.7015 -0.4235  0.1271
  209MPD1    N1 3238   1.115   1.378  11.042  0.5451 -0.2034  0.0251
  209MPD1    H6 3239   1.111   1.281  11.013 -1.5891  0.4128 -1.7172
  209MPD1    H7 3240   1.041   1.387  11.112  0.8054  2.6465 -0.0419
  210MPD1     C 3241   2.335   2.132  11.446  0.1012 -0.4686  0.4692
  210MPD1    C1 3242   2.305   2.092  11.318 -0.0992  0.2087 -0.0261
  210MPD1    C2 3243   2.167   2.074  11.295 -0.4684  0.2870  0.0597
  210MPD1    C3 3244   2.064   2.092  11.389  0.0183 -0.1930  0.1458
  210MPD1    C4 3245   2.104   2.129  11.514 -0.4795 -0.2731 -0.5318
  210MPD1    C5 3246   2.237   2.140  11.540  0.7869  0.2564  0.5624
  210MPD1     H 3247   2.138   2.051  11.193  0.3847  0.0638 -0.1280
  210MPD1    H1 3248   2.030   2.152  11.589  2.8781  1.6936  2.2068
  210MPD1    H2 3249   2.428   2.175  11.480 -0.8083 -0.3202  2.7904
  210MPD1    H3 3250   2.272   2.175  11.636 -1.3676 -2.7011  2.4230
  210MPD1     N 3251   1.923   2.078  11.361 -0.2080  0.2716 -0.1223
  210MPD1    H5 3252   1.860   2.084  11.440 -1.1581 -1.9198 -0.6958
  210MPD1    N1 3253   2.390   2.110  11.203  0.2073 -0.1436  0.1793
  210MPD1    H6 3254   2.487   2.096  11.231  0.6280  2.2088 -0.0383
  210MPD1    H7 3255   2.365   2.030  11.146  0.5394  0.5448 -0.9440
  211MPD1     C 3256   3.536   2.007  16.048  0.3952 -0.1694 -0.5466
  211MPD1    C1 3257   3.400   2.024  16.023  0.3776  0.0449 -0.4503
  211MPD1    C2 3258   3.333   2.100  16.114 -0.3276 -0.1959 -0.4473
  211MPD1    C3 3259   3.391   2.168  16.219  0.4639  0.0171  1.0176
  211MPD1    C4 3260   3.527   2.148  16.243 -0.3183 -0.4432 -0.0679
  211MPD1    C5 3261   3.595   2.067  16.154 -0.2940 -0.4038  0.4086
  211MPD1     H 3262   3.225   2.107  16.099 -0.2754  1.0155 -0.2113
  211MPD1    H1 3263   3.577   2.193  16.328  2.1215 -2.2690 -0.5421
  211MPD1    H2 3264   3.603   1.942  15.994  0.9503 -0.3575  0.3577
  211MPD1    H3 3265   3.701   2.052  16.168 -0.6729 -2.1320  1.4052
  211MPD1     N 3266   3.296   2.238  16.296  0.2742  0.4770 -0.5246
  211MPD1    H5 3267   3.200   2.228  16.264  0.2506 -2.1736  0.3935
  211MPD1    N1 3268   3.346   1.991  15.897 -0.4919 -0.0876 -0.2217
  211MPD1    H6 3269   3.245   1.975  15.907 -0.6899  0.7045 -0.9910
  211MPD1    H7 3270   3.394   1.906  15.869  0.7657  0.2634  0.8926
  212MPD1     C 3271   2.624   0.740  16.555  0.5643 -0.3114 -0.0022
  212MPD1    C1 3272   2.491   0.763  16.561 -0.5925  0.3341 -0.4730
  212MPD1    C2 3273   2.413   0.668  16.630  0.2776 -0.3376 -0.1839
  212MPD1    C3 3274   2.457   0.553  16.689 -0.2782  0.5973  0.2975
  212MPD1    C4 3275   2.594   0.535  16.690  0.0387  0.0437  0.1756
  212MPD1    C5 3276   2.671   0.626  16.621  0.5506 -0.7945 -0.1248
  212MPD1     H 3277   2.306   0.685  16.627 -0.1368 -2.3835  2.2330
  212MPD1    H1 3278   2.641   0.455  16.747  2.5614  2.0973  0.9948
  212MPD1    H2 3279   2.690   0.801  16.494  2.3226 -2.1443  0.0609
  212MPD1    H3 3280   2.778   0.607  16.619  1.0069  1.5258  1.5811
  212MPD1     N 3281   2.382   0.463  16.766  0.6676  0.2176 -0.8922
  212MPD1    H5 3282   2.433   0.392  16.817 -0.8251  0.4348  0.8726
  212MPD1    N1 3283   2.432   0.874  16.496  0.0269 -0.2986 -0.1379
  212MPD1    H6 3284   2.332   0.854  16.501  0.1481 -1.1355 -0.9256
  212MPD1    H7 3285   2.449   0.893  16.398  0.8193 -1.3399 -0.2089
  213MPD1     C 3286   0.790   0.964  15.743  0.4981 -0.4707  0.8706
  213MPD1    C1 3287   0.731   0.842  15.730  0.5317  0.9181 -0.2841
  213MPD1    C2 3288   0.643   0.846  15.615 -0.1751 -0.2634  0.1183
  213MPD1    C3 3289   0.634   0.950  15.530 -0.1057 -0.1453  0.1566
  213MPD1    C4 3290   0.710   1.063  15.541 -0.7160  0.2979 -0.0988
  213MPD1    C5 3291   0.786   1.071  15.656 -0.3489 -0.3752  0.2092
  213MPD1     H 3292   0.579   0.759  15.610  0.3541 -0.4463 -3.2647
  213MPD1    H1 3293   0.714   1.141  15.465 -1.2147  1.0801  0.6705
  213MPD1    H2 3294   0.852   0.989  15.829  1.8612 -1.2874  0.1242
  213MPD1    H3 3295   0.841   1.162  15.676 -0.8984  0.2987 -1.3145
  213MPD1     N 3296   0.545   0.933  15.418  0.0349  0.7925  0.7054
  213MPD1    H5 3297   0.509   0.839  15.406  0.3751  0.8260 -0.6005
  213MPD1    N1 3298   0.703   0.760  15.844 -0.8937  0.2907 -0.1840
  213MPD1    H6 3299   0.672   0.666  15.821  1.1842 -0.4852  0.2237
  213MPD1    H7 3300   0.785   0.760  15.904 -0.0223 -2.6008 -1.3840
  214MPD1     C 3301   0.060   0.254  15.071 -0.0899 -0.2007  0.0368
  214MPD1    C1 3302   0.142   0.293  14.969  0.3848  0.2637 -0.4757
  214MPD1    C2 3303   0.190   0.425  14.978 -0.5116 -0.0839  0.0643
  214MPD1    C3 3304   0.167   0.500  15.088 -0.2509  0.4465  0.5906
  214MPD1    C4 3305   0.068   0.461  15.182  0.0935  0.4281  0.4314
  214MPD1    C5 3306   0.023   0.336  15.179 -0.3575  0.3122 -0.0768
  214MPD1     H 3307   0.247   0.470  14.898 -1.2782  0.7914  0.0127
  214MPD1    H1 3308   0.029   0.531  15.254  0.1326  1.7653 -0.8401
  214MPD1    H2 3309   0.014   0.156  15.075 -1.1873  0.2852 -0.9091
  214MPD1    H3 3310   4.686   0.308  15.253  0.5970 -1.9654  0.0111
  214MPD1     N 3311   0.219   0.635  15.096 -0.2862  0.5759  0.2293
  214MPD1    H5 3312   0.177   0.690  15.169 -0.1805 -0.5319  1.1331
  214MPD1    N1 3313   0.176   0.205  14.868 -0.3337 -0.3511  0.4942
  214MPD1    H6 3314   0.100   0.139  14.849  0.0483 -0.2285 -1.5098
  214MPD1    H7 3315   0.194   0.248  14.777 -0.7940 -0.2376  0.4584
  215MPD1     C 3316   0.376   1.480  10.451 -0.8363 -0.2505  0.1879
  215MPD1    C1 3317   0.302   1.551  10.543  0.4437  0.1145  0.0933
  215MPD1    C2 3318   0.358   1.593  10.660  0.6050  0.1507  0.4679
  215MPD1    C3 3319   0.475   1.537  10.705 -0.1452 -0.4689 -0.0550
  215MPD1    C4 3320   0.547   1.454  10.619 -0.0140  0.2689  0.1697
  215MPD1    C5 3321   0.504   1.450  10.492 -0.2824  0.1908  0.5728
  215MPD1     H 3322   0.292   1.652  10.723 -0.2940  1.3749 -1.6115
  215MPD1    H1 3323   0.644   1.415  10.648  0.2957  1.0158  0.1536
  215MPD1    H2 3324   0.332   1.449  10.357  0.2837 -0.4437 -0.2708
  215MPD1    H3 3325   0.555   1.388  10.419 -0.3067 -2.0790  2.4817
  215MPD1     N 3326   0.524   1.585  10.832  0.2315  0.2924  0.8797
  215MPD1    H5 3327   0.473   1.645  10.896 -0.3677  0.7258 -0.0053
  215MPD1    N1 3328   0.178   1.601  10.493  0.6446 -0.3375  0.1794
  215MPD1    H6 3329   0.114   1.645  10.558  2.2625  0.1325  1.4505
  215MPD1    H7 3330   0.123   1.544  10.429 -0.1370  0.1609  0.4221
  216MPD1     C 3331   2.364   0.593   0.074 -0.4558  0.3378  0.2293
  216MPD1    C1 3332   2.297   0.528   0.180  0.4573  0.4313  0.4212
  216MPD1    C2 3333   2.248   0.402   0.151  0.2306  0.1348  0.4520
  216MPD1    C3 3334   2.246   0.338   0.028 -0.5800  0.1700  0.3272
  216MPD1    C4 3335   2.309   0.410  17.678 -0.4716  0.6240 -0.6128
  216MPD1    C5 3336   2.356   0.535  17.699  0.1368 -0.1936  0.0861
  216MPD1     H 3337   2.202   0.345   0.231  4.1527 -2.5195  0.8104
  216MPD1    H1 3338   2.315   0.370  17.577 -0.7647 -0.5909 -0.1390
  216MPD1    H2 3339   2.403   0.694   0.075 -2.3974  1.0827  0.6724
  216MPD1    H3 3340   2.392   0.589  17.612  2.9749 -0.1757  1.2737
  216MPD1     N 3341   2.194   0.206   0.020 -0.4958  0.8167 -0.9282
  216MPD1    H5 3342   2.146   0.161   0.097 -0.5305 -0.6724 -1.7958
  216MPD1    N1 3343   2.270   0.582   0.303 -0.4003  0.2569 -0.7708
  216MPD1    H6 3344   2.331   0.660   0.328  1.4719 -0.7540 -2.1764
  216MPD1    H7 3345   2.277   0.523   0.385  1.8489  0.4929 -0.7904
  217MPD1     C 3346   2.460   0.308   9.060  0.2816 -0.1398 -1.0448
  217MPD1    C1 3347   2.578   0.247   9.021  0.2140  0.5739 -0.2335
  217MPD1    C2 3348   2.699   0.311   9.042  0.4319  0.2979  0.1616
  217MPD1    C3 3349   2.703   0.410   9.138  0.2949  0.2147 -1.1211
  217MPD1    C4 3350   2.584   0.468   9.184 -0.8402  0.2134 -0.3727
  217MPD1    C5 3351   2.463   0.417   9.141 -0.1825  0.3235 -0.4252
  217MPD1     H 3352   2.787   0.264   8.999  0.7005  1.7455 -0.8561
  217MPD1    H1 3353   2.594   0.562   9.238 -1.2334 -0.9129  1.6881
  217MPD1    H2 3354   2.358   0.279   9.038  0.6560 -1.2779 -1.3109
  217MPD1    H3 3355   2.371   0.461   9.178 -0.2837 -0.4582  0.2477
  217MPD1     N 3356   2.822   0.467   9.186  0.2122 -0.4090 -0.1860
  217MPD1    H5 3357   2.817   0.539   9.258  0.7389  1.0103 -1.5620
  217MPD1    N1 3358   2.583   0.136   8.930 -0.3173  0.2608 -0.0163
  217MPD1    H6 3359   2.671   0.085   8.939  0.1621  1.0264 -0.3617
  217MPD1    H7 3360   2.500   0.080   8.945  0.4961 -0.8293  0.4213
  218MPD1     C 3361   4.649   1.043  12.651  0.2265 -0.0853 -0.0684
  218MPD1    C1 3362   0.005   1.071  12.748  0.4712 -0.3430  0.0146
  218MPD1    C2 3363   0.094   1.177  12.732  0.4786  0.2879 -0.0867
  218MPD1    C3 3364   0.097   1.259  12.622 -0.1553 -0.2510  0.3479
  218MPD1    C4 3365   0.013   1.225  12.518  0.1508  0.1120 -0.2773
  218MPD1    C5 3366   4.664   1.120  12.532  0.1310  0.6325  0.2045
  218MPD1     H 3367   0.165   1.201  12.810  1.6681  2.8541 -1.9688
  218MPD1    H1 3368   0.015   1.282  12.426 -2.0379  2.7495  1.3219
  218MPD1    H2 3369   4.577   0.962  12.653  0.6324 -0.4639 -0.8755
  218MPD1    H3 3370   4.596   1.101  12.450 -0.9765  0.3419  1.1899
  218MPD1     N 3371   0.193   1.361  12.619 -0.1789 -0.2025  0.1368
  218MPD1    H5 3372   0.264   1.367  12.691 -0.2648 -1.3095  0.3199
  218MPD1    N1 3373   0.015   0.994  12.868 -0.7459  0.1399 -0.5868
  218MPD1    H6 3374   4.674   0.935  12.897 -2.6535  3.0797  0.1847
  218MPD1    H7 3375   0.051   1.037  12.953 -0.3551 -2.6845  0.6926
  219MPD1     C 3376   0.531   2.362  12.364  0.6736  0.5586 -0.8031
  219MPD1    C1 3377   0.422   2.290  12.323 -0.4629  0.9201 -0.1807
  219MPD1    C2 3378   0.423   2.151  12.333 -0.6187  0.1241  1.0455
  219MPD1    C3 3379   0.529   2.091  12.392  0.0476 -0.5329  1.2390
  219MPD1    C4 3380   0.637   2.161  12.430  0.3568  0.5685  0.5325
  219MPD1    C5 3381   0.641   2.292  12.407 -0.5555  1.1721  0.0856
  219MPD1     H 3382   0.337   2.093  12.300 -0.5280  1.0453 -0.8279
  219MPD1    H1 3383   0.723   2.111  12.474 -0.5913 -1.8074 -0.3416
  219MPD1    H2 3384   0.535   2.470  12.359  1.4314  0.5834  0.4748
  219MPD1    H3 3385   0.729   2.350  12.432  0.6604  0.1595 -1.7642
  219MPD1     N 3386   0.522   1.953  12.431 -0.6180 -1.3935  0.4293
  219MPD1    H5 3387   0.599   1.923  12.490 -1.4829  1.7989  3.2109
  219MPD1    N1 3388   0.320   2.357  12.258  0.5613  0.2912 -0.2696
  219MPD1    H6 3389   0.241   2.293  12.253  0.5094  0.3273  0.1532
  219MPD1    H7 3390   0.287   2.444  12.299 -0.6936 -0.8278  1.0620
  220MPD1     C 3391   0.184   3.145   9.955  0.6375  0.2147  0.1877
  220MPD1    C1 3392   0.090   3.061  10.000 -0.4921 -0.1097 -0.3209
  220MPD1    C2 3393   0.116   2.944  10.066  0.3252  0.1748  0.6254
  220MPD1    C3 3394   0.247   2.927  10.109 -0.6596  0.3950 -0.2797
  220MPD1    C4 3395   0.340   3.016  10.078  0.6407  0.4118 -0.0503
  220MPD1    C5 3396   0.311   3.120   9.983  0.3575 -0.1268  0.2985
  220MPD1     H 3397   0.033   2.879  10.095 -0.0574  0.6114  0.5051
  220MPD1    H1 3398   0.445   3.012  10.104  0.5426  0.9664  0.4298
  220MPD1    H2 3399   0.156   3.224   9.887  0.8037 -0.4781 -0.6946
  220MPD1    H3 3400   0.393   3.182   9.949  0.6166  0.0751  1.2904
  220MPD1     N 3401   0.284   2.799  10.179  0.2429 -0.4479 -0.1547
  220MPD1    H5 3402   0.202   2.744  10.201  0.1567  0.6182  2.1794
  220MPD1    N1 3403   4.693   3.078   9.956 -0.1516 -0.1598  0.5687
  220MPD1    H6 3404   4.629   3.035  10.023 -0.1977  0.7289  1.0964
  220MPD1    H7 3405   4.664   3.176   9.953 -0.4734 -0.3054 -0.9480
  221MPD1     C 3406   2.585   1.931  16.245 -0.2523  0.1742 -0.2616
  221MPD1    C1 3407   2.605   1.979  16.370 -0.0136 -0.0812  0.4248
  221MPD1    C2 3408   2.674   1.901  16.454 -0.1716  0.3394  0.1173
  221MPD1    C3 3409   2.759   1.800  16.408  0.5437 -0.0350 -0.1451
  221MPD1    C4 3410   2.755   1.763  16.276 -0.8620 -0.8392  0.2637
  221MPD1    C5 3411   2.662   1.829  16.199 -0.1869  0.0152 -0.5305
  221MPD1     H 3412   2.662   1.919  16.560  0.0283  0.0488  0.1890
  221MPD1    H1 3413   2.798   1.680  16.221 -0.9725 -2.4611  2.6714
  221MPD1    H2 3414   2.524   1.990  16.178 -3.4797 -1.2212  1.4299
  221MPD1    H3 3415   2.658   1.800  16.095 -0.1872  0.0079 -0.5285
  221MPD1     N 3416   2.854   1.737  16.487  0.0755  1.1041  0.3300
  221MPD1    H5 3417   2.919   1.671  16.445 -1.4559 -0.4298  0.3904
  221MPD1    N1 3418   2.527   2.089  16.415 -0.3159  0.0627 -0.5592
  221MPD1    H6 3419   2.486   2.150  16.344  1.0093  2.6322  0.9107
  221MPD1    H7 3420   2.568   2.145  16.489  0.4530  0.2812 -1.1491
  222MPD1     C 3421   1.750   0.001  17.605  0.5692 -0.2878  0.1443
  222MPD1    C1 3422   1.817   0.095  17.532  0.7617 -0.5503  0.6745
  222MPD1    C2 3423   1.840   0.215  17.603 -0.2380 -0.0426  0.1947
  222MPD1    C3 3424   1.824   0.234  17.740 -0.6407 -0.1490  0.0574
  222MPD1    C4 3425   1.777   0.129   0.065  0.6046 -0.2713  0.4291
  222MPD1    C5 3426   1.743   0.014  17.741 -0.5488 -0.6517  0.9311
  222MPD1     H 3427   1.867   0.304  17.548  1.5812 -0.0354  1.1187
  222MPD1    H1 3428   1.758   0.124   0.172  0.3441  1.1550  0.4440
  222MPD1    H2 3429   1.716   4.647  17.557 -0.6476  1.2309 -1.8591
  222MPD1    H3 3430   1.710   4.666   0.051 -2.3424  0.6345  1.8082
  222MPD1     N 3431   1.846   0.348   0.067 -0.8641 -0.1744  0.0729
  222MPD1    H5 3432   1.822   0.340   0.165  0.0898  2.6391  0.5199
  222MPD1    N1 3433   1.809   0.093  17.391  0.7593 -0.3223 -0.1936
  222MPD1    H6 3434   1.834   0.002  17.353  1.4186 -1.4757  3.0121
  222MPD1    H7 3435   1.872   0.155  17.339  1.8022 -1.3578 -0.1489
  223MPD1     C 3436   1.532   0.642   0.861 -0.2053 -0.3252  0.5240
  223MPD1    C1 3437   1.644   0.563   0.855 -0.1757  0.3946 -0.1610
  223MPD1    C2 3438   1.719   0.580   0.747 -0.0552 -0.1428  0.2379
  223MPD1    C3 3439   1.671   0.651   0.631 -0.5954 -0.4937 -0.3133
  223MPD1    C4 3440   1.546   0.699   0.625 -0.0729 -0.2951 -0.3671
  223MPD1    C5 3441   1.490   0.709   0.749  0.0107 -0.2386  0.2009
  223MPD1     H 3442   1.821   0.545   0.748 -0.3621 -1.0739 -0.6167
  223MPD1    H1 3443   1.507   0.750   0.537  0.5410  0.1840 -0.3549
  223MPD1    H2 3444   1.470   0.654   0.949 -2.1392  1.9471 -1.1210
  223MPD1    H3 3445   1.396   0.764   0.749 -0.4348 -0.9968 -1.0311
  223MPD1     N 3446   1.761   0.650   0.523 -0.6271  0.9008 -0.2373
  223MPD1    H5 3447   1.851   0.607   0.539 -0.5431  0.5543 -1.6928
  223MPD1    N1 3448   1.697   0.513   0.972 -0.1224 -0.1922 -0.4054
  223MPD1    H6 3449   1.765   0.440   0.952 -0.6027 -0.7302 -0.0888
  223MPD1    H7 3450   1.627   0.476   1.037  0.2416  1.6175  1.0153
  224MPD1     C 3451   3.039   0.991   9.033 -0.5616 -0.1837 -0.4378
  224MPD1    C1 3452   3.019   1.113   9.099 -0.5381  0.2302 -0.7541
  224MPD1    C2 3453   3.093   1.139   9.212  0.7733  0.1198 -0.2798
  224MPD1    C3 3454   3.191   1.058   9.257 -0.1128 -0.8882 -1.1462
  224MPD1    C4 3455   3.226   0.951   9.177  0.0321 -0.4811 -0.3746
  224MPD1    C5 3456   3.154   0.921   9.068  0.1985  0.1343  0.4115
  224MPD1     H 3457   3.067   1.235   9.255  1.2388  0.2185 -0.2182
  224MPD1    H1 3458   3.306   0.884   9.207  2.1228  2.7466  1.3153
  224MPD1    H2 3459   2.980   0.947   8.954  1.5851 -1.4619 -1.3250
  224MPD1    H3 3460   3.198   0.852   8.997 -2.2050 -0.0204 -0.9308
  224MPD1     N 3461   3.268   1.087   9.368 -1.1702  0.3628  0.0528
  224MPD1    H5 3462   3.343   1.019   9.378 -0.0402  1.2146 -2.4744
  224MPD1    N1 3463   2.906   1.186   9.053 -0.5593 -0.2409 -0.1744
  224MPD1    H6 3464   2.889   1.276   9.096 -2.1790 -0.9365  0.6521
  224MPD1    H7 3465   2.904   1.187   8.951 -1.5566  1.0379 -0.1446
  225MPD1     C 3466   0.530   2.916  12.390 -0.3424 -0.0103  0.3347
  225MPD1    C1 3467   0.491   2.796  12.331 -0.7307 -0.7424 -0.5489
  225MPD1    C2 3468   0.381   2.730  12.382 -0.3765 -0.3829  0.7839
  225MPD1    C3 3469   0.309   2.786  12.488  0.4233  0.0617 -0.4753
  225MPD1    C4 3470   0.360   2.897  12.551 -0.1622  0.8163  0.4395
  225MPD1    C5 3471   0.468   2.960  12.503  0.0539 -0.0779 -0.3629
  225MPD1     H 3472   0.348   2.639  12.333  0.0053 -0.9602  1.6100
  225MPD1    H1 3473   0.304   2.948  12.629 -0.2691  1.2427  0.0868
  225MPD1    H2 3474   0.617   2.970  12.355 -1.3712  1.0036 -0.6816
  225MPD1    H3 3475   0.502   3.051  12.552  1.5526 -0.9117  0.1405
  225MPD1     N 3476   0.185   2.734  12.540  0.3513 -0.5315  0.0895
  225MPD1    H5 3477   0.143   2.776  12.623 -1.4872 -1.9275 -0.1210
  225MPD1    N1 3478   0.568   2.738  12.228 -0.0929  0.6023  0.5036
  225MPD1    H6 3479   0.528   2.659  12.178  3.5338 -1.8758  1.5235
  225MPD1    H7 3480   0.611   2.807  12.166 -0.4793 -1.1982 -1.7546
  226MPD1     C 3481   2.379   1.986  10.075 -0.1377  0.0537  0.1401
  226MPD1    C1 3482   2.449   1.889  10.007  0.1705 -0.1311 -0.7633
  226MPD1    C2 3483   2.580   1.912   9.964  0.1103 -0.3426  0.7250
  226MPD1    C3 3484   2.641   2.027  10.004  0.0611  0.3213 -0.0346
  226MPD1    C4 3485   2.573   2.121  10.087  0.3493  0.7387 -0.5633
  226MPD1    C5 3486   2.440   2.102  10.115 -0.1681 -0.7375 -0.2064
  226MPD1     H 3487   2.624   1.841   9.895 -1.9725 -0.4584 -0.4734
  226MPD1    H1 3488   2.620   2.216  10.110  1.3583 -0.5376  2.7719
  226MPD1    H2 3489   2.274   1.973  10.096 -0.2760  0.2876 -0.3992
  226MPD1    H3 3490   2.384   2.176  10.169 -0.0902 -2.6848  2.5241
  226MPD1     N 3491   2.768   2.050   9.946  0.2821  0.1526 -0.3657
  226MPD1    H5 3492   2.814   1.977   9.893  0.5231  0.9026 -1.1903
  226MPD1    N1 3493   2.376   1.782   9.950  0.7430 -0.2529 -0.0892
  226MPD1    H6 3494   2.294   1.752  10.002  0.5476  1.3207  0.4847
  226MPD1    H7 3495   2.443   1.708   9.930 -0.3066 -1.5667  1.2172
  227MPD1     C 3496   3.491   2.720  10.129  0.7158  0.6650  0.5640
  227MPD1    C1 3497   3.373   2.753  10.070 -0.0010 -0.1115 -0.3189
  227MPD1    C2 3498   3.296   2.654  10.014  1.0424  0.1171 -0.0615
  227MPD1    C3 3499   3.348   2.521  10.013  0.2509  0.3656  0.3756
  227MPD1    C4 3500   3.469   2.494  10.067  0.1666 -0.9564 -0.4779
  227MPD1    C5 3501   3.541   2.591  10.130  0.7103 -0.3279  0.3571
  227MPD1     H 3502   3.198   2.675   9.971  0.3534 -0.3156  1.2857
  227MPD1    H1 3503   3.504   2.392  10.077  2.8200  0.1245  1.3077
  227MPD1    H2 3504   3.551   2.802  10.168  1.2734  0.6216 -0.2129
  227MPD1    H3 3505   3.631   2.565  10.184 -0.3249  0.7827  2.5900
  227MPD1     N 3506   3.264   2.424   9.949 -0.2515  0.0178 -0.0239
  227MPD1    H5 3507   3.169   2.454   9.930  0.0718  0.8075 -0.3835
  227MPD1    N1 3508   3.339   2.890  10.058 -0.2040 -0.5751  0.1420
  227MPD1    H6 3509   3.241   2.911  10.079 -0.8008 -2.0678 -1.1873
  227MPD1    H7 3510   3.390   2.958  10.114 -1.0802  0.5234 -0.3839
  228MPD1     C 3511   2.461   0.324  13.351  0.5049 -0.1230  0.4431
  228MPD1    C1 3512   2.381   0.236  13.416 -0.5527 -0.1249 -0.2549
  228MPD1    C2 3513   2.245   0.230  13.384  0.4207 -0.5526 -0.0787
  228MPD1    C3 3514   2.192   0.315  13.293  0.3776 -0.3608 -0.1125
  228MPD1    C4 3515   2.276   0.413  13.238  0.0087  0.4253  0.4253
  228MPD1    C5 3516   2.412   0.418  13.259 -0.3383  0.4939  0.5514
  228MPD1     H 3517   2.192   0.153  13.439 -0.4707  0.7599  0.9002
  228MPD1    H1 3518   2.246   0.483  13.161 -2.4090  0.2685  1.2153
  228MPD1    H2 3519   2.564   0.331  13.383  1.1898  0.2940 -1.8225
  228MPD1    H3 3520   2.481   0.486  13.211 -1.9873  3.6519  2.6592
  228MPD1     N 3521   2.056   0.298  13.249  0.5707  0.2318 -0.9180
  228MPD1    H5 3522   2.016   0.211  13.281  2.7922  0.0369  1.3030
  228MPD1    N1 3523   2.442   0.138  13.500 -0.6974  0.3261  0.1393
  228MPD1    H6 3524   2.375   0.102  13.567 -1.2375  2.2535  0.6516
  228MPD1    H7 3525   2.530   0.167  13.543 -0.3533  0.1017 -0.4125
  229MPD1     C 3526   1.489   4.128  14.670  0.1156  0.1888  0.2078
  229MPD1    C1 3527   1.577   4.178  14.764 -0.2470 -0.3886 -0.5361
  229MPD1    C2 3528   1.600   4.093  14.873  0.3687 -0.6353 -0.8183
  229MPD1    C3 3529   1.559   3.963  14.889 -0.0776  1.0948  0.4838
  229MPD1    C4 3530   1.467   3.921  14.790  0.7930  0.0545 -0.5792
  229MPD1    C5 3531   1.431   4.005  14.690  0.4775 -0.6255 -0.2678
  229MPD1     H 3532   1.668   4.141  14.943  0.3559 -1.3077 -0.3485
  229MPD1    H1 3533   1.433   3.818  14.791  2.4381 -0.4696  1.6898
  229MPD1    H2 3534   1.456   4.192  14.589 -2.5818 -0.2452  0.9531
  229MPD1    H3 3535   1.356   3.989  14.614  0.5383 -2.2191  0.0074
  229MPD1     N 3536   1.585   3.874  15.000 -0.3070  0.1896 -0.5043
  229MPD1    H5 3537   1.532   3.789  14.992 -0.7656  0.4886 -0.6463
  229MPD1    N1 3538   1.604   4.316  14.774 -0.6575  0.4729 -0.2083
  229MPD1    H6 3539   1.680   4.335  14.838 -1.3817 -0.7347  1.0221
  229MPD1    H7 3540   1.624   4.361  14.685  0.5692  2.1013  0.8884
  230MPD1     C 3541   1.864   3.826  16.010  0.4089 -0.4948 -0.3512
  230MPD1    C1 3542   1.929   3.922  15.936 -0.0603 -0.1666 -0.4134
  230MPD1    C2 3543   1.895   3.939  15.803  0.6387  0.4805 -0.5132
  230MPD1    C3 3544   1.842   3.832  15.731  0.1410 -0.5398 -0.9622
  230MPD1    C4 3545   1.783   3.733  15.807 -0.1125 -0.2913  0.4911
  230MPD1    C5 3546   1.788   3.731  15.943  0.0798 -0.4085  0.8992
  230MPD1     H 3547   1.926   4.029  15.752 -2.9188  1.4027 -1.0875
  230MPD1    H1 3548   1.716   3.659  15.765  0.8389 -0.5229 -0.6230
  230MPD1    H2 3549   1.873   3.811  16.117  0.7013 -0.3075 -0.3492
  230MPD1    H3 3550   1.734   3.650  15.989 -2.0110  1.0800  1.0373
  230MPD1     N 3551   1.840   3.829  15.590  0.6122  0.2641  0.4157
  230MPD1    H5 3552   1.887   3.901  15.536  0.6547 -1.2085 -1.4924
  230MPD1    N1 3553   1.983   4.036  16.006  0.7642 -0.3541  0.3525
  230MPD1    H6 3554   2.053   4.076  15.944 -0.6772  1.1919 -0.2969
  230MPD1    H7 3555   2.025   4.010  16.095 -0.0199 -1.2070  0.4781
  231MPD1     C 3556   4.197   0.919  15.609  0.2028 -0.0525  0.4028
  231MPD1    C1 3557   4.165   0.971  15.483 -1.0594 -0.1394  0.5025
  231MPD1    C2 3558   4.248   1.056  15.420 -0.7078  0.3817 -0.7205
  231MPD1    C3 3559   4.359   1.108  15.483  0.2395 -0.8339 -0.0939
  231MPD1    C4 3560   4.384   1.067  15.611  0.2986  0.2719  0.3693
  231MPD1    C5 3561   4.301   0.978  15.680  0.2677  0.0236 -0.5179
  231MPD1     H 3562   4.231   1.076  15.315  0.6729 -1.2558 -1.2526
  231MPD1    H1 3563   4.471   1.100  15.667  1.0125 -3.0659  1.2141
  231MPD1    H2 3564   4.124   0.859  15.662  0.7649  0.3429  1.6061
  231MPD1    H3 3565   4.326   0.954  15.783 -0.4495  2.3098  0.2086
  231MPD1     N 3566   4.451   1.161  15.393  0.0726 -0.1430 -0.8711
  231MPD1    H5 3567   4.416   1.167  15.297 -0.0684 -0.8511 -0.8622
  231MPD1    N1 3568   4.057   0.908  15.417  0.2305  0.4179 -0.2745
  231MPD1    H6 3569   4.018   0.958  15.337 -1.1980 -0.7659 -0.3177
  231MPD1    H7 3570   3.981   0.888  15.482 -0.5965  4.3516  0.0165
  232MPD1     C 3571   1.465   4.327   0.485  0.2684  0.9955  0.1632
  232MPD1    C1 3572   1.365   4.403   0.426 -0.0579 -0.5729  0.5358
  232MPD1    C2 3573   1.300   4.354   0.314  0.1438  0.2204  0.3958
  232MPD1    C3 3574   1.313   4.230   0.269 -0.0212 -0.4377  0.1578
  232MPD1    C4 3575   1.412   4.155   0.322 -0.4571  0.2400  0.2080
  232MPD1    C5 3576   1.494   4.210   0.420  0.3758  0.5281  0.1042
  232MPD1     H 3577   1.233   4.425   0.266 -0.3202 -1.3525 -1.2675
  232MPD1    H1 3578   1.427   4.055   0.282 -1.5280  0.2236 -0.1321
  232MPD1    H2 3579   1.530   4.362   0.565 -0.2550  1.2535  0.4702
  232MPD1    H3 3580   1.571   4.137   0.442 -1.3155 -1.1025  0.6252
  232MPD1     N 3581   1.234   4.196   0.161 -0.0602 -0.1813 -0.2562
  232MPD1    H5 3582   1.167   4.267   0.132  0.7073  0.8528  0.5273
  232MPD1    N1 3583   1.355   4.532   0.463 -0.6506 -0.6881  0.1928
  232MPD1    H6 3584   1.264   4.575   0.451  0.4496  1.6009  0.0046
  232MPD1    H7 3585   1.385   4.542   0.560 -0.7137 -0.9145  0.2338
  233MPD1     C 3586   2.464   2.447   0.741 -0.3507  0.0358  1.0929
  233MPD1    C1 3587   2.423   2.315   0.740 -0.6305  0.7556 -0.2506
  233MPD1    C2 3588   2.526   2.221   0.748  0.2903 -0.2427  0.9423
  233MPD1    C3 3589   2.657   2.257   0.728  0.2247 -0.1673  0.1742
  233MPD1    C4 3590   2.686   2.378   0.689  0.0517  0.5927 -1.0494
  233MPD1    C5 3591   2.591   2.472   0.709  0.6322  0.2236  0.4834
  233MPD1     H 3592   2.492   2.120   0.769  0.5610 -0.8151 -1.3497
  233MPD1    H1 3593   2.783   2.410   0.654  0.6246  0.9520  0.8824
  233MPD1    H2 3594   2.399   2.530   0.769  1.0180  1.2879  0.5631
  233MPD1    H3 3595   2.624   2.573   0.686  0.4963  0.3842  0.9807
  233MPD1     N 3596   2.757   2.161   0.734  0.1129  0.1514 -0.1514
  233MPD1    H5 3597   2.845   2.195   0.699  0.2750  0.8731  0.9701
  233MPD1    N1 3598   2.287   2.287   0.771  0.4098  0.2347  0.0453
  233MPD1    H6 3599   2.223   2.348   0.721  0.3941 -0.2179 -0.4886
  233MPD1    H7 3600   2.270   2.192   0.737 -1.7764  0.7090 -0.2010
  234MPD1     C 3601   4.502   4.527   9.533 -0.3018 -0.5821 -0.4228
  234MPD1    C1 3602   4.415   4.548   9.428 -0.5952 -1.4840 -0.1730
  234MPD1    C2 3603   4.364   4.672   9.407  0.1147 -0.1874 -0.1548
  234MPD1    C3 3604   4.383   0.033   9.507 -0.4066 -0.8966  0.3354
  234MPD1    C4 3605   4.465   0.006   9.619 -0.1791  0.2818 -0.0898
  234MPD1    C5 3606   4.520   4.619   9.637  0.6686 -0.4118  0.4095
  234MPD1     H 3607   4.329   4.695   9.307 -1.3523  2.0949  0.8719
  234MPD1    H1 3608   4.484   0.076   9.700  0.5421  0.3048 -0.2847
  234MPD1    H2 3609   4.544   4.429   9.554  1.5014  0.1501 -0.6485
  234MPD1    H3 3610   4.587   4.589   9.716 -0.3684  2.9547  2.5839
  234MPD1     N 3611   4.325   0.154   9.463  0.0573  0.1577 -0.1900
  234MPD1    H5 3612   4.275   0.145   9.376 -1.5152  2.2758  0.5038
  234MPD1    N1 3613   4.411   4.447   9.331 -0.1729  0.0302  0.1515
  234MPD1    H6 3614   4.327   4.434   9.276 -0.4383  0.1130  0.5385
  234MPD1    H7 3615   4.433   4.365   9.388  2.3036 -0.0813 -0.9631
  235MPD1     C 3616   0.936   2.693  10.774  0.9471 -0.1438 -0.3564
  235MPD1    C1 3617   0.977   2.711  10.641 -0.4585 -0.2469 -0.5865
  235MPD1    C2 3618   1.095   2.786  10.621  0.4562  0.7610 -1.1082
  235MPD1    C3 3619   1.167   2.835  10.725 -0.0462 -0.0205  0.6098
  235MPD1    C4 3620   1.129   2.816  10.854  0.4957  0.7312  0.4493
  235MPD1    C5 3621   1.008   2.751  10.874 -0.3790  0.3801  0.2069
  235MPD1     H 3622   1.134   2.804  10.522  0.8366  0.7050 -0.9677
  235MPD1    H1 3623   1.179   2.849  10.944  0.2282 -0.1190  0.9093
  235MPD1    H2 3624   0.848   2.634  10.797  0.1769  0.4756 -1.7202
  235MPD1    H3 3625   0.971   2.730  10.974 -0.9409  0.1682 -0.0403
  235MPD1     N 3626   1.267   2.929  10.694 -0.3056  0.5287 -0.8275
  235MPD1    H5 3627   1.290   2.949  10.597 -0.4518  1.6159 -0.6360
  235MPD1    N1 3628   0.911   2.637  10.537 -0.8284 -0.3984  0.2585
  235MPD1    H6 3629   0.814   2.614  10.558 -0.2482 -2.0449  1.0710
  235MPD1    H7 3630   0.917   2.681  10.445 -0.0792 -0.4422  0.2872
  236MPD1     C 3631   4.628   3.851   9.466  0.8070 -0.2511  0.8493
  236MPD1    C1 3632   4.635   3.931   9.583  0.6749 -0.0802 -0.7594
  236MPD1    C2 3633   4.729   3.892   9.684 -0.3121 -0.3083  0.3334
  236MPD1    C3 3634   0.063   3.775   9.674  0.1434  0.0894  0.5168
  236MPD1    C4 3635   0.058   3.705   9.558 -0.3275 -0.2984 -0.2982
  236MPD1    C5 3636   4.708   3.741   9.461 -0.1132 -0.0807 -0.1941
  236MPD1     H 3637   0.026   3.967   9.754 -1.3089 -1.2383  1.7986
  236MPD1    H1 3638   0.121   3.617   9.547  1.0463  0.3194  2.5370
  236MPD1    H2 3639   4.572   3.876   9.377  0.7231 -4.0180 -0.1724
  236MPD1    H3 3640   4.706   3.685   9.368  0.8274 -1.7109  0.7669
  236MPD1     N 3641   0.149   3.728   9.778 -0.1083  0.3155  0.4561
  236MPD1    H5 3642   0.188   3.634   9.777  2.1176  1.2136  2.2410
  236MPD1    N1 3643   4.571   4.053   9.585  0.0407  1.0508  0.0430
  236MPD1    H6 3644   4.486   4.060   9.530  0.5263 -0.2281 -0.8668
  236MPD1    H7 3645   4.543   4.080   9.679  0.8647 -0.4515  0.7117
  237MPD1     C 3646   0.597   2.055  15.059 -0.1337 -0.0145  0.0630
  237MPD1    C1 3647   0.459   2.033  15.047 -0.0485 -0.2317 -0.0888
  237MPD1    C2 3648   0.371   2.132  15.083  0.6152 -0.1369 -0.6031
  237MPD1    C3 3649   0.418   2.245  15.152  0.6719 -0.0917  0.9413
  237MPD1    C4 3650   0.552   2.264  15.177  0.2883  0.7906  0.1284
  237MPD1    C5 3651   0.636   2.167  15.128  0.1723  0.4493 -0.4243
  237MPD1     H 3652   0.263   2.127  15.075  0.7058 -0.8993 -1.3528
  237MPD1    H1 3653   0.581   2.352  15.232  0.4907 -0.4526  2.0315
  237MPD1    H2 3654   0.663   1.976  15.024  0.1917  0.7157 -0.9946
  237MPD1    H3 3655   0.740   2.168  15.157 -0.0783  3.1496  0.3661
  237MPD1     N 3656   0.333   2.345  15.209 -0.2928  0.0703  0.3538
  237MPD1    H5 3657   0.382   2.422  15.254  0.6316 -0.7490  0.7517
  237MPD1    N1 3658   0.406   1.925  14.970  0.1988 -0.0722  0.2639
  237MPD1    H6 3659   0.308   1.904  14.988 -0.2516  1.2306 -0.6214
  237MPD1    H7 3660   0.460   1.840  14.960  0.7562  1.0439 -5.8901
  238MPD1     C 3661   1.766   1.700  15.335 -0.3201 -0.5701 -0.8453
  238MPD1    C1 3662   1.784   1.674  15.204  0.4463  0.0129  0.7110
  238MPD1    C2 3663   1.725   1.561  15.154  0.1866 -0.1983 -0.2347
  238MPD1    C3 3664   1.641   1.479  15.232 -0.3115  0.6900 -0.2779
  238MPD1    C4 3665   1.623   1.516  15.363  0.6421 -0.0609 -0.5615
  238MPD1    C5 3666   1.692   1.620  15.419  0.4080  0.1004 -0.0792
  238MPD1     H 3667   1.747   1.526  15.053 -2.3312  2.3431 -1.6346
  238MPD1    H1 3668   1.556   1.460  15.427  0.4993  0.6600 -0.0849
  238MPD1    H2 3669   1.809   1.791  15.377 -0.5982 -1.2803  0.9930
  238MPD1    H3 3670   1.679   1.639  15.525  1.9439  0.9326 -0.0427
  238MPD1     N 3671   1.578   1.368  15.182  0.7405  0.3061 -0.0101
  238MPD1    H5 3672   1.518   1.321  15.249  0.0910  0.7425 -0.2943
  238MPD1    N1 3673   1.888   1.740  15.139  0.6195 -0.6818  0.3197
  238MPD1    H6 3674   1.881   1.839  15.163 -0.6419 -1.4070  2.8914
  238MPD1    H7 3675   1.875   1.739  15.038 -1.4358 -2.3920  0.5958
  239MPD1     C 3676   1.919   1.628  14.828 -0.6696 -0.2656  0.7328
  239MPD1    C1 3677   2.034   1.686  14.783  0.0190  0.0285  0.1161
  239MPD1    C2 3678   2.022   1.780  14.682  0.2631  0.2604  0.3909
  239MPD1    C3 3679   1.894   1.803  14.628  0.4192  0.2180 -0.2911
  239MPD1    C4 3680   1.781   1.732  14.675 -0.1019  0.5324  0.9635
  239MPD1    C5 3681   1.795   1.648  14.780 -0.0182  0.2800  0.2860
  239MPD1     H 3682   2.109   1.829  14.641  0.6363  0.8920  1.9460
  239MPD1    H1 3683   1.684   1.776  14.654  0.2129  0.4463 -0.6345
  239MPD1    H2 3684   1.928   1.553  14.906  1.2482 -0.4926  0.3053
  239MPD1    H3 3685   1.711   1.602  14.830  1.8235 -2.5632  0.7807
  239MPD1     N 3686   1.874   1.906  14.532  0.5216 -0.3056 -0.1072
  239MPD1    H5 3687   1.780   1.931  14.500 -1.3130 -0.2053  5.3799
  239MPD1    N1 3688   2.150   1.613  14.821  0.8489 -0.3435 -0.4057
  239MPD1    H6 3689   2.142   1.565  14.910 -1.9225 -0.9925 -0.9763
  239MPD1    H7 3690   2.236   1.666  14.813  0.8300 -0.2406  0.0969
  240MPD1     C 3691   0.709   1.825  13.545  0.0474  0.0177 -0.3959
  240MPD1    C1 3692   0.619   1.755  13.629 -0.0423  0.1647  0.7902
  240MPD1    C2 3693   0.677   1.702  13.741  0.1885 -0.3058 -0.3862
  240MPD1    C3 3694   0.811   1.693  13.756  0.0419  0.6675 -0.1262
  240MPD1    C4 3695   0.899   1.769  13.678 -0.0383 -0.6413  0.5959
  240MPD1    C5 3696   0.842   1.841  13.573  0.4272 -0.1161 -0.8487
  240MPD1     H 3697   0.608   1.645  13.801 -0.3116 -0.2089 -0.8668
  240MPD1    H1 3698   1.005   1.778  13.699  0.1994  0.1911 -0.9667
  240MPD1    H2 3699   0.677   1.871  13.453  1.2541  4.0877  1.2142
  240MPD1    H3 3700   0.894   1.920  13.521  0.0181 -0.0411 -1.1499
  240MPD1     N 3701   0.854   1.608  13.866  0.2601 -0.4463 -0.0780
  240MPD1    H5 3702   0.796   1.610  13.950  0.8530 -0.3770  0.3294
  240MPD1    N1 3703   0.491   1.728  13.594  0.3756  0.2120 -0.2217
  240MPD1    H6 3704   0.430   1.693  13.668  0.7988 -0.1636 -0.0480
  240MPD1    H7 3705   0.437   1.806  13.557  0.2405  0.1897 -0.0720
  241MPD1     C 3706   1.421   0.917  13.591 -0.3675  0.3728 -0.6616
  241MPD1    C1 3707   1.289   0.907  13.626 -0.0573  0.3510  0.5642
  241MPD1    C2 3708   1.246   0.983  13.736 -0.2650 -0.5585 -0.9174
  241MPD1    C3 3709   1.333   1.069  13.802  0.2816  0.1638  0.3866
  241MPD1    C4 3710   1.468   1.067  13.763 -0.3051 -0.5614 -0.3780
  241MPD1    C5 3711   1.503   0.998  13.652 -0.8397 -0.0733 -0.5637
  241MPD1     H 3712   1.140   0.985  13.755  0.1177  0.0343  1.1267
  241MPD1    H1 3713   1.546   1.127  13.808 -0.1455 -1.1723  0.1627
  241MPD1    H2 3714   1.466   0.870  13.505  0.5506  0.2744 -0.1300
  241MPD1    H3 3715   1.603   1.002  13.611 -0.8005 -3.4000 -0.8419
  241MPD1     N 3716   1.295   1.159  13.899  0.2225  0.2968 -0.2600
  241MPD1    H5 3717   1.353   1.236  13.929 -1.3949  1.0690  0.8554
  241MPD1    N1 3718   1.214   0.804  13.568 -0.1558 -0.0907  0.2507
  241MPD1    H6 3719   1.113   0.820  13.573 -0.4644 -2.0740  0.5197
  241MPD1    H7 3720   1.243   0.793  13.471 -0.5443 -0.1423  0.1380
  242MPD1     C 3721   2.000   0.707  14.991  0.0467  0.2740  0.2179
  242MPD1    C1 3722   2.062   0.635  15.088 -0.4284 -0.3104 -0.4132
  242MPD1    C2 3723   2.004   0.527  15.147  0.2378  0.4296  0.3724
  242MPD1    C3 3724   1.878   0.474  15.109  0.0860  0.2408 -0.4496
  242MPD1    C4 3725   1.820   0.553  15.005 -0.1887 -0.7286 -1.1962
  242MPD1    C5 3726   1.884   0.656  14.940 -0.6492 -0.3299  0.4696
  242MPD1     H 3727   2.047   0.474  15.231  0.2670 -1.2902 -0.7021
  242MPD1    H1 3728   1.721   0.524  14.972 -1.6149  2.8304 -0.0518
  242MPD1    H2 3729   2.047   0.794  14.947  2.4404 -2.4895 -2.7840
  242MPD1    H3 3730   1.832   0.693  14.853  0.2845  0.0444  0.0763
  242MPD1     N 3731   1.811   0.356  15.153 -0.3677  0.0915 -0.4813
  242MPD1    H5 3732   1.726   0.331  15.103 -0.7417 -1.0776  0.7381
  242MPD1    N1 3733   2.187   0.689  15.126  0.7004  0.4961  0.1634
  242MPD1    H6 3734   2.204   0.789  15.130  2.3976  0.2458 -0.7998
  242MPD1    H7 3735   2.212   0.657  15.220  2.5300 -0.6259 -0.7129
  243MPD1     C 3736   1.644   4.136   0.003  0.1101  0.0021  0.9773
  243MPD1    C1 3737   1.757   4.208   0.001  0.6798 -0.3019  0.2395
  243MPD1    C2 3738   1.873   4.132  17.733  0.1136  0.2137  0.5074
  243MPD1    C3 3739   1.870   3.992  17.734 -0.3749 -0.1791  0.3699
  243MPD1    C4 3740   1.752   3.931   0.002 -0.4309 -0.3932  0.5995
  243MPD1    C5 3741   1.640   4.002   0.007 -0.5446  1.0642 -0.4431
  243MPD1     H 3742   1.971   4.178  17.731 -0.5684  1.5621 -2.3690
  243MPD1    H1 3743   1.734   3.824   0.002 -0.2480 -0.4502 -2.9641
  243MPD1    H2 3744   1.545   4.177   0.021 -0.6166 -1.1741 -0.3921
  243MPD1    H3 3745   1.548   3.943   0.014 -1.5578  2.5875 -0.9433
  243MPD1     N 3746   1.998   3.928  17.720  0.1004 -0.2204  0.0817
  243MPD1    H5 3747   2.079   3.987  17.706 -1.4926  1.7367 -0.8584
  243MPD1    N1 3748   1.757   4.351   0.031 -0.2786  0.6838  0.0411
  243MPD1    H6 3749   1.739   4.374   0.128  3.6444  0.0445  0.9395
  243MPD1    H7 3750   1.686   4.396  17.722  0.0989  0.6200 -0.4893
  244MPD1     C 3751   2.665   3.063  17.603  0.6201 -0.5110  0.2116
  244MPD1    C1 3752   2.710   3.169  17.525  0.3310 -0.0859 -0.1857
  244MPD1    C2 3753   2.628   3.282  17.516  0.0437  0.0941 -0.4732
  244MPD1    C3 3754   2.508   3.295  17.586 -0.3740  0.9836 -0.2311
  244MPD1    C4 3755   2.472   3.190  17.671  0.2799  0.6473  0.0632
  244MPD1    C5 3756   2.551   3.083  17.678  0.1317  0.1052 -0.2314
  244MPD1     H 3757   2.664   3.365  17.456  2.2950  0.6522  1.6545
  244MPD1    H1 3758   2.392   3.203  17.743 -1.4551  0.5733 -1.8600
  244MPD1    H2 3759   2.726   2.974  17.601 -2.1706 -2.3528 -1.7059
  244MPD1    H3 3760   2.527   3.010   0.007  0.4408  0.0484 -0.1873
  244MPD1     N 3761   2.443   3.421  17.574 -0.7041 -0.1598 -0.7609
  244MPD1    H5 3762   2.484   3.496  17.519  1.3880 -1.6584 -1.2446
  244MPD1    N1 3763   2.818   3.141  17.437  0.3728  0.1946  0.6646
  244MPD1    H6 3764   2.862   3.221  17.392  3.2249 -1.7231  0.0128
  244MPD1    H7 3765   2.881   3.065  17.463 -0.3369 -1.7686 -3.3662
  245MPD1     C 3766   0.025   3.798  13.135  0.2198 -0.0483 -0.4491
  245MPD1    C1 3767   4.687   3.814  13.249  0.2618 -0.5473 -0.8076
  245MPD1    C2 3768   4.729   3.912  13.340 -0.1149 -0.2395 -0.3378
  245MPD1    C3 3769   0.110   3.978  13.321 -0.2195 -0.3881  0.5347
  245MPD1    C4 3770   0.181   3.958  13.198  0.0737  0.0218  0.3429
  245MPD1    C5 3771   0.139   3.864  13.109  0.0084  0.4690 -0.4480
  245MPD1     H 3772   4.663   3.922  13.425 -1.7758 -1.5821 -1.4828
  245MPD1    H1 3773   0.273   4.010  13.175 -0.9759  1.0551 -1.4990
  245MPD1    H2 3774   4.731   3.722  13.064 -2.8863 -1.4573  2.4079
  245MPD1    H3 3775   0.191   3.844  13.016  0.7343  2.1668 -0.4186
  245MPD1     N 3776   0.159   4.075  13.404  0.0065 -0.2753  0.1297
  245MPD1    H5 3777   0.111   4.098  13.490  1.5655  1.7539  0.4592
  245MPD1    N1 3778   4.564   3.763  13.275 -0.4745  0.1424  0.0540
  245MPD1    H6 3779   4.564   3.662  13.264 -1.4815  0.0489  0.9228
  245MPD1    H7 3780   4.547   3.772  13.375  1.7907  1.5996  0.3136
  246MPD1     C 3781   1.329   3.663  10.123 -0.2688  0.1129  1.0000
  246MPD1    C1 3782   1.217   3.743  10.142 -0.3121 -0.0361 -0.4492
  246MPD1    C2 3783   1.227   3.872  10.153 -0.1936 -0.9459  0.3153
  246MPD1    C3 3784   1.346   3.929  10.131 -0.6059 -0.6069 -0.0165
  246MPD1    C4 3785   1.456   3.852  10.110 -0.5133 -0.0974  0.6440
  246MPD1    C5 3786   1.454   3.719  10.126  0.6527  0.0110 -0.7544
  246MPD1     H 3787   1.137   3.929  10.171  1.0684  1.2769 -0.5320
  246MPD1    H1 3788   1.557   3.892  10.102  0.3348 -2.5085 -0.6942
  246MPD1    H2 3789   1.324   3.554  10.123 -2.2511  0.2105  0.4727
  246MPD1    H3 3790   1.544   3.663  10.106  1.1757 -0.3613  2.5969
  246MPD1     N 3791   1.352   4.071  10.123  0.6706 -0.3099 -0.1105
  246MPD1    H5 3792   1.262   4.114  10.141  0.1137 -1.2625 -0.6603
  246MPD1    N1 3793   1.092   3.679  10.164 -0.2131 -0.4123 -0.1192
  246MPD1    H6 3794   1.006   3.732  10.148  0.1951  0.4103  0.4218
  246MPD1    H7 3795   1.087   3.595  10.107 -0.1966  0.1908 -1.0053
  247MPD1     C 3796   3.692   2.628  15.672 -0.0931  0.7161  0.3548
  247MPD1    C1 3797   3.819   2.665  15.704 -0.1708  0.4976  0.0237
  247MPD1    C2 3798   3.855   2.799  15.674 -0.1062  0.0103  0.4693
  247MPD1    C3 3799   3.757   2.876  15.610  0.1220 -0.4186  0.3674
  247MPD1    C4 3800   3.629   2.833  15.579  0.0591 -0.1072 -0.4900
  247MPD1    C5 3801   3.601   2.704  15.611  0.2050  0.5272 -0.1953
  247MPD1     H 3802   3.953   2.841  15.697 -0.0336 -0.6118  1.2975
  247MPD1    H1 3803   3.560   2.897  15.525  1.4377  0.6007 -1.3886
  247MPD1    H2 3804   3.650   2.534  15.707  0.3154  0.8095  1.0943
  247MPD1    H3 3805   3.505   2.659  15.587  0.5221  0.0992 -0.6612
  247MPD1     N 3806   3.775   3.010  15.575  0.2877  0.4121  0.7290
  247MPD1    H5 3807   3.717   3.052  15.503 -0.2761  0.6216  1.3045
  247MPD1    N1 3808   3.899   2.590  15.795 -0.2452  0.8718 -0.0693
  247MPD1    H6 3809   3.994   2.616  15.769 -0.2951 -0.8572 -2.0259
  247MPD1    H7 3810   3.881   2.490  15.782  0.2503  0.8904 -0.8729
  248MPD1     C 3811   4.391   3.994   0.241 -0.0194 -0.0254  1.0035
  248MPD1    C1 3812   4.278   4.068   0.241  0.1684  0.1459  0.8079
  248MPD1    C2 3813   4.227   4.114   0.362 -0.1046 -0.4528  0.2128
  248MPD1    C3 3814   4.304   4.096   0.477 -0.8626  0.4420  0.9086
  248MPD1    C4 3815   4.417   4.022   0.480  0.2403  0.8699 -0.5412
  248MPD1    C5 3816   4.458   3.970   0.360 -0.3337 -0.0109  0.9684
  248MPD1     H 3817   4.133   4.167   0.366  0.3924  0.4494  0.0318
  248MPD1    H1 3818   4.474   3.994   0.568 -0.5294 -0.2654 -0.3906
  248MPD1    H2 3819   4.444   3.960   0.153  1.0397 -0.4373  1.8032
  248MPD1    H3 3820   4.541   3.900   0.358  0.1493  0.5835 -0.0924
  248MPD1     N 3821   4.248   4.158   0.590  0.3571 -0.3400 -0.2171
  248MPD1    H5 3822   4.161   4.209   0.582  1.5507  1.5119 -1.4874
  248MPD1    N1 3823   4.212   4.096   0.117  0.2165 -0.4172 -0.2395
  248MPD1    H6 3824   4.111   4.102   0.127  0.1702 -0.6486 -0.5770
  248MPD1    H7 3825   4.219   4.025   0.045  1.3228 -0.7981  0.2391
  249MPD1     C 3826   2.148   2.830   9.774 -0.3994 -0.0579 -0.2011
  249MPD1    C1 3827   2.195   2.846   9.905 -0.1880 -0.2985  0.4363
  249MPD1    C2 3828   2.130   2.767  10.000 -0.4270  0.7194  0.1204
  249MPD1    C3 3829   2.017   2.690   9.974 -0.4049  0.4484 -0.1842
  249MPD1    C4 3830   1.960   2.692   9.845  0.7244  0.2144  0.1285
  249MPD1    C5 3831   2.029   2.763   9.749  0.2734  0.8304  0.1310
  249MPD1     H 3832   2.171   2.764  10.100 -0.2061  1.3656  0.0475
  249MPD1    H1 3833   1.868   2.646   9.811  0.2391  1.4641 -0.2324
  249MPD1    H2 3834   2.201   2.871   9.689  0.7467 -2.1599 -0.5002
  249MPD1    H3 3835   1.982   2.758   9.651  1.0670  2.1247 -0.3178
  249MPD1     N 3836   1.956   2.618  10.076  0.0401 -0.2703 -0.3332
  249MPD1    H5 3837   1.993   2.639  10.168 -0.6170 -1.3231  0.1672
  249MPD1    N1 3838   2.318   2.912   9.929 -1.0305  0.3380 -1.1899
  249MPD1    H6 3839   2.336   2.993   9.869  0.3869 -0.3895 -1.7368
  249MPD1    H7 3840   2.339   2.932  10.027  0.2920  0.2024 -1.4578
  250MPD2     C 3841   2.801   2.426  13.465  0.2845  0.1240  0.2715
  250MPD2    C1 3842   2.887   2.488  13.377  0.3993  0.6932  0.1337
  250MPD2    C2 3843   2.857   2.475  13.240 -0.2278  0.1090 -0.1058
  250MPD2    C3 3844   2.737   2.414  13.204  0.0900 -0.0227  0.1603
  250MPD2    C4 3845   2.644   2.365  13.298  0.0468  0.7408 -0.9478
  250MPD2    C5 3846   2.686   2.369  13.425 -0.2968  0.0128 -1.2143
  250MPD2     H 3847   2.923   2.523  13.169 -2.0653  3.8635  0.7544
  250MPD2    H1 3848   2.557   2.301  13.290 -1.2960  2.1683  2.2744
  250MPD2    H2 3849   2.829   2.420  13.570  1.7113 -1.0263 -0.1799
  250MPD2    H3 3850   2.624   2.319  13.498  1.1127  1.3353  0.8891
  250MPD2     N 3851   2.699   2.378  13.069 -0.1091 -0.7897  0.2058
  250MPD2    H5 3852   2.606   2.336  13.060 -0.6851  0.6819 -0.6956
  250MPD2    N1 3853   2.995   2.560  13.433 -0.1298 -1.2166  0.0760
  250MPD2    H7 3854   3.011   2.550  13.533 -1.2279  0.6464  0.4378
  251TMC3    C1 3855   3.154   2.729  13.443 -0.1766  0.6397  0.0854
  251TMC3    C2 3856   3.067   2.806  13.513 -0.1263  0.2568  0.5419
  251TMC3    C3 3857   3.119   2.932  13.549  0.0401  0.1120  0.1166
  251TMC3    C4 3858   3.273   2.779  13.395 -1.1547 -0.3901 -0.1199
  251TMC3    C5 3859   3.320   2.905  13.423 -0.7687  0.2056  0.1685
  251TMC3    C6 3860   3.237   2.981  13.505  0.4884 -1.0501  0.2540
  251TMC3     C 3861   3.086   2.628  13.360  0.1056  0.5433  0.0199
  251TMC3     O 3862   3.114   2.624  13.242 -0.3556  0.2880  0.0841
  251TMC3     H 3863   2.962   2.788  13.533  0.1514 -1.9423 -0.0510
  251TMC3    H1 3864   3.335   2.704  13.346 -0.8245  1.7047 -2.9176
  251TMC3    H2 3865   3.268   3.084  13.521 -0.0155 -0.9785  0.8095
  251TMC3    C7 3866   3.459   2.908  13.452  0.2065  0.1397 -0.1509
  251TMC3    C8 3867   3.021   3.028  13.609 -0.0456  0.1532 -0.2648
  251TMC3    O1 3868   3.510   2.796  13.452  0.1457 -0.0547  0.1032
  251TMC3    O2 3869   2.926   2.983  13.674 -0.2482  0.4773 -0.4746
  252TMC3    C1 3870   2.647   3.550   9.834 -0.3817  0.8810  0.6091
  252TMC3    C2 3871   2.771   3.571   9.787 -0.1475  0.2198 -0.0940
  252TMC3    C3 3872   2.866   3.480   9.807 -0.3730  0.8603  0.7952
  252TMC3    C4 3873   2.617   3.444   9.908  0.0395  0.2096  0.4920
  252TMC3    C5 3874   2.714   3.351   9.913  0.2745  0.0247  0.5821
  252TMC3    C6 3875   2.839   3.367   9.875  0.1549  0.2977  0.3326
  252TMC3     C 3876   2.534   3.632   9.790 -0.1896 -0.0095  0.5322
  252TMC3     O 3877   2.427   3.570   9.778  0.7287 -0.1230 -0.1369
  252TMC3     H 3878   2.799   3.665   9.742 -0.8052  0.0471 -0.8714
  252TMC3    H1 3879   2.523   3.433   9.961 -0.1137 -2.2568 -0.2580
  252TMC3    H2 3880   2.909   3.284   9.870  1.0152  0.8941  2.3724
  252TMC3    C7 3881   2.668   3.230   9.983  0.0817 -0.4821  0.3217
  252TMC3    C8 3882   3.003   3.520   9.790  0.2105 -0.3258  0.1575
  252TMC3    O1 3883   2.550   3.211   9.989 -0.4674 -0.1621  0.0921
  252TMC3    O2 3884   3.029   3.593   9.696 -0.3352  0.2966  0.5522
  253MPD2     C 3885   4.557   2.792  15.762 -0.0405  0.9159  0.0277
  253MPD2    C1 3886   4.420   2.766  15.766 -0.2946 -0.4626  0.1355
  253MPD2    C2 3887   4.354   2.775  15.881  0.4918  0.3120 -0.7588
  253MPD2    C3 3888   4.411   2.800  16.004  0.4184  0.1339  0.5650
  253MPD2    C4 3889   4.547   2.821  15.998  0.4814 -0.8726  0.5392
  253MPD2    C5 3890   4.621   2.816  15.877  0.3379 -1.7650  0.1469
  253MPD2     H 3891   4.249   2.749  15.880  0.7505 -0.7377 -0.6083
  253MPD2    H1 3892   4.603   2.833  16.090 -1.9758  3.3028  1.5402
  253MPD2    H2 3893   4.607   2.785  15.666 -2.2143 -0.1438 -1.0400
  253MPD2    H3 3894   4.729   2.812  15.878  0.3857 -0.5763 -0.5976
  253MPD2     N 3895   4.342   2.826  16.125  0.6365 -0.2310 -0.7708
  253MPD2    H5 3896   4.393   2.836  16.212 -0.4870 -1.1370 -0.0112
  253MPD2    N1 3897   4.363   2.725  15.642 -0.1732  0.0854  0.7479
  253MPD2    H7 3898   4.421   2.736  15.560  0.9168 -0.5814  1.4323
  254TMC3    C1 3899   4.173   2.835  16.270 -0.0844  0.3229 -1.2697
  254TMC3    C2 3900   4.043   2.857  16.270 -0.6059 -0.1837 -0.2853
  254TMC3    C3 3901   3.970   2.785  16.363 -0.5842 -0.5472  0.5263
  254TMC3    C4 3902   4.240   2.751  16.356 -0.2824  0.2535 -0.4513
  254TMC3    C5 3903   4.163   2.688  16.450  0.1352 -0.0437 -0.0700
  254TMC3    C6 3904   4.028   2.696  16.456  0.1505 -0.2291  0.2376
  254TMC3     C 3905   4.213   2.820  16.136  0.5952  0.1765  0.0974
  254TMC3     O 3906   4.126   2.787  16.058  0.2504 -0.2556  0.8172
  254TMC3     H 3907   4.004   2.936  16.207 -4.4414 -0.7734  1.3915
  254TMC3    H1 3908   4.345   2.724  16.346  0.6259  2.3445  3.4511
  254TMC3    H2 3909   3.978   2.661  16.546 -1.0106 -1.0293 -0.7176
  254TMC3    C7 3910   4.228   2.628  16.567  0.0395  0.6401  0.7695
  254TMC3    C8 3911   3.833   2.829  16.392 -0.0974 -0.2237  0.7121
  254TMC3    O1 3912   4.150   2.552  16.624 -0.3890 -0.3328  0.4805
  254TMC3    O2 3913   3.780   2.786  16.493  0.4475  0.3680 -0.2272
  255MPD2     C 3914   2.303   0.065  10.747 -0.4645 -0.0883  0.1734
  255MPD2    C1 3915   2.395   0.158  10.782 -0.0713  0.4235  0.2813
  255MPD2    C2 3916   2.517   0.122  10.826  0.1927  0.3716  0.1636
  255MPD2    C3 3917   2.566   4.728  10.808 -0.6644 -0.1486 -0.7533
  255MPD2    C4 3918   2.466   4.633  10.773  1.2367  0.5011  0.0096
  255MPD2    C5 3919   2.337   4.669  10.747 -0.0472  0.0466 -0.7199
  255MPD2     H 3920   2.587   0.195  10.865  1.9113 -0.7086 -0.8440
  255MPD2    H1 3921   2.485   4.526  10.767 -3.5470 -0.3759  0.7522
  255MPD2    H2 3922   2.201   0.087  10.720 -0.2232 -0.4783 -1.0477
  255MPD2    H3 3923   2.260   4.596  10.725  0.7954 -0.9975 -0.2159
  255MPD2     N 3924   2.705   4.695  10.842  0.1076  0.4374  0.3155
  255MPD2    H5 3925   2.754   0.029  10.895  0.0198  1.9833 -1.6878
  255MPD2    N1 3926   2.351   0.294  10.771  0.3067 -1.0119 -0.2773
  255MPD2    H7 3927   2.266   0.304  10.716  0.3579  0.8869 -0.0183
  256TMC3    C1 3928   2.355   0.515  10.739  0.0025 -0.1019  0.0672
  256TMC3    C2 3929   2.376   0.637  10.790  0.5947  0.0853 -0.5737
  256TMC3    C3 3930   2.380   0.744  10.702 -0.3246  0.3768  0.4364
  256TMC3    C4 3931   2.342   0.497  10.601  0.1660 -0.7444 -0.7915
  256TMC3    C5 3932   2.338   0.603  10.517 -0.8845  0.3722 -0.1675
  256TMC3    C6 3933   2.355   0.730  10.570 -0.5199  0.0285 -0.7343
  256TMC3     C 3934   2.419   0.405  10.808 -0.8515 -0.1821  0.4006
  256TMC3     O 3935   2.513   0.430  10.882 -0.1436 -0.1634  0.1631
  256TMC3     H 3936   2.376   0.647  10.898  1.3746  1.1518 -0.6818
  256TMC3    H1 3937   2.321   0.397  10.565  0.7483 -1.0488 -0.2697
  256TMC3    H2 3938   2.350   0.818  10.506  1.9315 -0.0314 -0.9875
  256TMC3    C7 3939   2.315   0.577  10.371  0.7192 -0.4642  0.4925
  256TMC3    C8 3940   2.460   0.860  10.743  0.1278  0.1886 -0.5407
  256TMC3    O1 3941   2.282   0.459  10.349  0.0385  0.6357  0.9665
  256TMC3    O2 3942   2.484   0.861  10.860  0.1390 -0.2185 -0.3142
  257MPD2     C 3943   1.646   2.739  13.028 -0.6220 -0.0437 -0.2293
  257MPD2    C1 3944   1.632   2.639  12.938 -0.2778  0.6556  0.4024
  257MPD2    C2 3945   1.592   2.515  12.976  0.0330 -0.0921  0.0778
  257MPD2    C3 3946   1.565   2.488  13.108 -0.7916 -0.0235  0.0460
  257MPD2    C4 3947   1.565   2.590  13.202  0.5673 -0.3209  0.4275
  257MPD2    C5 3948   1.595   2.715  13.159 -0.2233 -0.2154  0.4162
  257MPD2     H 3949   1.594   2.432  12.906 -0.4403 -1.9987  2.3187
  257MPD2    H1 3950   1.539   2.587  13.307  1.0090 -1.1253  0.5166
  257MPD2    H2 3951   1.682   2.839  13.004 -0.7218 -0.3754 -1.7645
  257MPD2    H3 3952   1.578   2.797  13.227 -2.2217 -0.3281  0.0651
  257MPD2     N 3953   1.540   2.358  13.150 -0.3733  0.0412 -0.2211
  257MPD2    H5 3954   1.544   2.291  13.074  1.2462  2.4318 -2.2266
  257MPD2    N1 3955   1.675   2.659  12.804 -0.3819  0.0610  1.0217
  257MPD2    H7 3956   1.742   2.735  12.791  0.1995 -0.1534  2.7118
  258TMC3    C1 3957   1.525   2.173  13.302 -0.1735 -0.6133  0.0804
  258TMC3    C2 3958   1.537   2.081  13.199  0.1210 -0.0055 -0.1421
  258TMC3    C3 3959   1.576   1.958  13.239 -0.7390  0.0089 -0.4558
  258TMC3    C4 3960   1.544   2.137  13.432 -0.4317  0.0801  0.6491
  258TMC3    C5 3961   1.569   2.005  13.462  0.1427 -0.4315 -0.1592
  258TMC3    C6 3962   1.578   1.910  13.367  0.5489 -0.4486 -0.2802
  258TMC3     C 3963   1.509   2.317  13.279  0.2947  0.0913  0.5780
  258TMC3     O 3964   1.490   2.381  13.380 -0.3912 -0.1372 -0.0782
  258TMC3     H 3965   1.519   2.116  13.097 -3.8969 -0.6048  0.3414
  258TMC3    H1 3966   1.539   2.210  13.511 -0.4281 -0.7984  1.4622
  258TMC3    H2 3967   1.614   1.810  13.387  1.7156 -0.3754 -2.0459
  258TMC3    C7 3968   1.580   1.978  13.601 -0.1049 -0.2360 -0.1342
  258TMC3    C8 3969   1.636   1.885  13.128 -0.4980  0.3724 -0.7043
  258TMC3    O1 3970   1.522   2.057  13.678  0.2166  0.0359  0.5313
  258TMC3    O2 3971   1.671   1.961  13.039  0.3175  0.6090  0.1248
  259MPD2     C 3972   0.042   4.666   0.492 -0.3197  0.9132 -0.2291
  259MPD2    C1 3973   0.135   4.562   0.494  0.5175 -1.1666  0.2096
  259MPD2    C2 3974   0.193   4.521   0.372 -0.0273 -0.0018  0.2526
  259MPD2    C3 3975   0.158   4.580   0.254 -0.0756  0.5269  0.3803
  259MPD2    C4 3976   0.078   4.698   0.259  0.5071  1.1304 -0.4439
  259MPD2    C5 3977   0.023   4.732   0.380  0.0371 -0.4386  0.3751
  259MPD2     H 3978   0.265   4.440   0.363  0.3078  0.0971  1.9418
  259MPD2    H1 3979   0.044   0.022   0.177 -0.3948  1.1029 -0.0874
  259MPD2    H2 3980   4.727   4.705   0.578 -0.2534 -1.4839  0.8816
  259MPD2    H3 3981   4.695   0.082   0.374  0.9775  0.1663 -1.0889
  259MPD2     N 3982   0.224   4.542   0.133  0.4533  0.0722  0.3143
  259MPD2    H5 3983   0.280   4.457   0.134  0.5531  0.1901  2.7336
  259MPD2    N1 3984   0.172   4.509   0.615  0.3136  1.3875 -0.2085
  259MPD2    H7 3985   0.140   4.553   0.701 -3.5858 -0.6891 -0.5941
  260TMC3    C1 3986   0.257   4.534  17.645 -0.0236 -0.7788 -0.4837
  260TMC3    C2 3987   0.307   4.614  17.545 -0.5795 -0.1146  0.4162
  260TMC3    C3 3988   0.362   4.564  17.427  0.0267  0.3760  1.0793
  260TMC3    C4 3989   0.262   4.400  17.635  0.5606 -0.1150  0.1882
  260TMC3    C5 3990   0.308   4.346  17.517 -0.2373 -0.3588  0.2910
  260TMC3    C6 3991   0.365   4.427  17.420  0.5058 -0.7261  0.7415
  260TMC3     C 3992   0.216   4.606   0.016 -0.0398  0.1295 -0.3128
  260TMC3     O 3993   0.171   4.720  17.739  0.2910  0.6133 -0.1132
  260TMC3     H 3994   0.313   4.721  17.559  1.1214 -0.2579  0.7435
  260TMC3    H1 3995   0.224   4.341  17.717 -2.2656  1.9363  0.3867
  260TMC3    H2 3996   0.378   4.385  17.321 -0.4501  1.4351 -0.2911
  260TMC3    C7 3997   0.353   4.203  17.521 -0.0217  0.6675  0.0871
  260TMC3    C8 3998   0.477   4.632  17.394 -0.0323 -0.1018 -0.0261
  260TMC3    O1 3999   0.380   4.152  17.415  0.1576  0.1822 -0.2193
  260TMC3    O2 4000   0.478   0.018  17.406  0.0621  0.1623  0.0000
  261MPD2     C 4001   2.722   2.479  12.225 -0.0157  0.1971  0.3255
  261MPD2    C1 4002   2.633   2.489  12.331 -0.1595  0.2308 -0.0280
  261MPD2    C2 4003   2.527   2.585  12.314  0.3704 -0.3834 -0.5603
  261MPD2    C3 4004   2.522   2.671  12.201  0.3822 -0.3251 -0.3777
  261MPD2    C4 4005   2.621   2.661  12.109 -0.0441 -0.0817  0.1008
  261MPD2    C5 4006   2.715   2.559  12.114  0.4469  0.0149  0.0875
  261MPD2     H 4007   2.462   2.609  12.397 -0.0875 -3.1448 -0.1222
  261MPD2    H1 4008   2.612   2.712  12.014 -0.1153 -0.7080 -0.2259
  261MPD2    H2 4009   2.807   2.411  12.218  0.4398  0.6687  1.3788
  261MPD2    H3 4010   2.794   2.558  12.040 -1.9382 -0.1180 -2.4055
  261MPD2     N 4011   2.407   2.746  12.185 -0.3716 -0.2207 -0.0998
  261MPD2    H5 4012   2.339   2.729  12.258 -1.8950 -0.6413 -1.6048
  261MPD2    N1 4013   2.640   2.430  12.452  0.0047 -0.2786 -0.1268
  261MPD2    H7 4014   2.568   2.452  12.520  0.0649  2.9976 -1.1301
  262TMC3    C1 4015   2.247   2.891  12.080 -0.2836 -0.2541 -0.5446
  262TMC3    C2 4016   2.153   2.830  12.161  0.4568  0.1269 -0.7024
  262TMC3    C3 4017   2.025   2.843  12.123 -0.2902  0.0374 -0.2951
  262TMC3    C4 4018   2.217   2.966  11.967 -0.0691 -0.0240 -0.0013
  262TMC3    C5 4019   2.088   2.958  11.930 -0.0423  0.8535  1.0889
  262TMC3    C6 4020   1.988   2.890  12.001  0.5105 -0.2775  0.6677
  262TMC3     C 4021   2.380   2.836  12.079 -0.0158  0.0668 -0.9053
  262TMC3     O 4022   2.454   2.872  11.990 -0.2898  0.2045 -0.3608
  262TMC3     H 4023   2.183   2.806  12.262 -0.3963 -1.8307 -0.9093
  262TMC3    H1 4024   2.294   3.024  11.917 -1.0924  1.1729 -0.1773
  262TMC3    H2 4025   1.887   2.913  11.971  0.1929 -1.4048  0.9064
  262TMC3    C7 4026   2.065   3.000  11.792 -0.4264  0.7477 -0.5801
  262TMC3    C8 4027   1.938   2.888  12.233  0.1080 -0.1257 -0.1163
  262TMC3    O1 4028   1.963   2.963  11.741  0.0372  0.6066  0.0476
  262TMC3    O2 4029   1.987   2.963  12.315  0.1397  0.1934  0.6810
  263MPD2     C 4030   3.444   0.869  11.026  0.0722 -0.0529 -0.4610
  263MPD2    C1 4031   3.432   0.966  11.124 -0.1656 -0.0708 -0.5377
  263MPD2    C2 4032   3.487   1.092  11.105 -0.3150  0.4152 -0.2597
  263MPD2    C3 4033   3.560   1.121  10.990 -0.4083  0.5110  0.5508
  263MPD2    C4 4034   3.592   1.014  10.908 -0.2821 -0.5051  0.0199
  263MPD2    C5 4035   3.522   0.897  10.916  0.2431 -0.5491 -0.1822
  263MPD2     H 4036   3.468   1.168  11.181  0.2725  3.6416 -3.3170
  263MPD2    H1 4037   3.671   1.024  10.835 -1.4179 -0.2863 -1.1718
  263MPD2    H2 4038   3.401   0.770  11.021 -0.0454 -0.1323  2.3795
  263MPD2    H3 4039   3.552   0.815  10.853 -2.5213  0.2093 -2.4710
  263MPD2     N 4040   3.625   1.246  10.987  0.0468  0.2999  0.2677
  263MPD2    H5 4041   3.599   1.323  11.048  0.6495  0.9543 -0.2978
  263MPD2    N1 4042   3.358   0.928  11.240 -0.3354  0.2925  0.0780
  263MPD2    H7 4043   3.322   0.833  11.244 -0.4416  0.3800  1.0697
  264TMC3    C1 4044   3.780   1.411  10.913 -0.4392  0.0144 -0.5313
  264TMC3    C2 4045   3.760   1.478  11.034 -0.7484 -0.4070  0.1535
  264TMC3    C3 4046   3.774   1.612  11.027  0.5426  0.1326  0.2625
  264TMC3    C4 4047   3.814   1.460  10.790 -0.7392  0.2409 -0.1867
  264TMC3    C5 4048   3.793   1.592  10.781  0.1263 -0.1547 -0.3657
  264TMC3    C6 4049   3.791   1.669  10.897 -0.1356  0.0839  0.0991
  264TMC3     C 4050   3.720   1.282  10.892 -0.3975 -0.9197 -0.4151
  264TMC3     O 4051   3.749   1.223  10.787 -0.1515  0.8041 -0.3344
  264TMC3     H 4052   3.759   1.425  11.129 -3.3642 -1.7235 -0.6258
  264TMC3    H1 4053   3.821   1.399  10.701 -1.6072 -0.1585  0.0191
  264TMC3    H2 4054   3.795   1.776  10.883  0.9652  0.2570  1.7365
  264TMC3    C7 4055   3.841   1.648  10.658 -0.1357  0.1346 -0.8852
  264TMC3    C8 4056   3.770   1.696  11.145  0.2335  0.3488  0.5892
  264TMC3    O1 4057   3.923   1.586  10.589 -0.2308  0.1542 -0.0151
  264TMC3    O2 4058   3.795   1.815  11.122 -0.5021 -0.3274 -1.3491
  265MPD2     C 4059   0.695   1.842  15.512 -0.9610 -0.3254 -0.5552
  265MPD2    C1 4060   0.753   1.957  15.459 -0.2060  0.5467  0.0358
  265MPD2    C2 4061   0.830   1.957  15.342  0.5202 -0.3442 -0.1347
  265MPD2    C3 4062   0.875   1.832  15.293  0.3331  0.2595 -0.5297
  265MPD2    C4 4063   0.826   1.724  15.360  0.2408  0.4225  0.5944
  265MPD2    C5 4064   0.732   1.718  15.462 -0.0291 -0.0364 -0.4951
  265MPD2     H 4065   0.862   2.051  15.299  0.1845 -0.1006  0.1514
  265MPD2    H1 4066   0.859   1.625  15.329  1.3579  0.3967  1.8508
  265MPD2    H2 4067   0.625   1.834  15.594 -0.2095  2.5815  0.3623
  265MPD2    H3 4068   0.700   1.626  15.510 -0.9511 -1.0004 -2.9709
  265MPD2     N 4069   0.947   1.811  15.178  0.9195 -0.6434  0.1988
  265MPD2    H5 4070   0.954   1.714  15.150 -1.1903 -1.5294  2.7833
  265MPD2    N1 4071   0.709   2.084  15.505 -0.8368  0.2630  0.2348
  265MPD2    H7 4072   0.746   2.164  15.455  2.1088  0.1170  2.1862
  266TMC3    C1 4073   0.622   2.249  15.653  0.1741  0.4397 -0.1408
  266TMC3    C2 4074   0.656   2.282  15.782  0.3179  0.4016  0.1022
  266TMC3    C3 4075   0.641   2.410  15.814  0.7096 -0.3368 -0.7367
  266TMC3    C4 4076   0.590   2.335  15.554  0.1140 -0.4037  0.2107
  266TMC3    C5 4077   0.582   2.468  15.592 -0.0098  0.3706 -0.2445
  266TMC3    C6 4078   0.596   2.501  15.724 -0.0301 -0.5133  0.2422
  266TMC3     C 4079   0.631   2.107  15.618  0.5341 -0.0067  0.3108
  266TMC3     O 4080   0.620   2.026  15.710 -0.6558 -0.4271 -0.0845
  266TMC3     H 4081   0.692   2.205  15.849  0.6465  0.6057  0.1602
  266TMC3    H1 4082   0.554   2.298  15.459  0.9271 -1.2163  0.2269
  266TMC3    H2 4083   0.600   2.607  15.746  2.5983 -0.8485  1.3623
  266TMC3    C7 4084   0.519   2.557  15.494  0.1111  0.4084  0.5232
  266TMC3    C8 4085   0.706   2.449  15.939 -0.1154 -0.1718 -0.0514
  266TMC3    O1 4086   0.516   2.522  15.378  0.1710 -0.3487 -1.0356
  266TMC3    O2 4087   0.760   2.359  16.000 -0.3496 -0.4886 -0.1765
  267MPD2     C 4088   2.140   4.091   0.478 -0.6233 -0.3315  0.2563
  267MPD2    C1 4089   2.235   4.173   0.417  0.5237 -0.5286 -0.3154
  267MPD2    C2 4090   2.195   4.265   0.316  0.3758  0.1196 -0.7911
  267MPD2    C3 4091   2.066   4.274   0.273  0.5168 -0.2482  0.3608
  267MPD2    C4 4092   1.972   4.190   0.324  0.2248 -1.5577 -0.6030
  267MPD2    C5 4093   2.013   4.100   0.425 -0.6987 -0.0667  0.3584
  267MPD2     H 4094   2.269   4.314   0.255  0.3097 -1.3797 -2.0513
  267MPD2    H1 4095   1.870   4.191   0.287  0.2721 -1.0451 -0.7134
  267MPD2    H2 4096   2.163   4.015   0.552 -1.4815  0.0127  0.8726
  267MPD2    H3 4097   1.946   4.024   0.462 -0.2420 -0.7938 -0.2887
  267MPD2     N 4098   2.027   4.372   0.180 -0.1466 -0.2551 -0.0980
  267MPD2    H5 4099   1.932   4.364   0.144 -0.3064 -0.2634  0.3237
  267MPD2    N1 4100   2.362   4.164   0.462  0.3004  0.3772 -0.3836
  267MPD2    H7 4101   2.388   4.082   0.516  1.8361  0.4478 -1.0122
  268TMC3    C1 4102   2.593   4.222   0.452  0.7570 -0.2957  0.1889
  268TMC3    C2 4103   2.676   4.320   0.398 -0.1825 -0.3725  0.4462
  268TMC3    C3 4104   2.784   4.366   0.465 -0.1262  0.5832  0.1445
  268TMC3    C4 4105   2.625   4.161   0.571 -0.3001 -0.0021 -0.2281
  268TMC3    C5 4106   2.735   4.205   0.635  0.6468 -0.6188 -0.7804
  268TMC3    C6 4107   2.815   4.309   0.582 -0.0916 -0.2786  0.3894
  268TMC3     C 4108   2.462   4.260   0.431 -0.8127 -0.8881  0.3871
  268TMC3     O 4109   2.446   4.370   0.374  0.6079 -0.1819  0.6898
  268TMC3     H 4110   2.663   4.353   0.295  2.2867 -2.5230 -0.5643
  268TMC3    H1 4111   2.557   4.103   0.633 -0.9087  1.6872  0.6602
  268TMC3    H2 4112   2.909   4.333   0.630  0.5113 -0.4242 -0.7234
  268TMC3    C7 4113   2.757   4.181   0.774  0.9833 -0.2128  0.0449
  268TMC3    C8 4114   2.865   4.476   0.408  0.9873 -0.1644  1.1648
  268TMC3    O1 4115   2.737   4.062   0.805  0.1687 -0.5010 -0.2179
  268TMC3    O2 4116   2.968   4.498   0.470 -0.0797  0.1308 -0.3238
  269MPD2     C 4117   3.524   3.007  15.882 -0.0801  0.5535 -0.6348
  269MPD2    C1 4118   3.389   2.966  15.864 -0.1978 -0.1530 -0.2597
  269MPD2    C2 4119   3.306   3.057  15.809 -0.5095 -0.4204 -0.3911
  269MPD2    C3 4120   3.351   3.182  15.763 -0.4793 -0.5248 -0.6020
  269MPD2    C4 4121   3.482   3.213  15.767  0.3885  0.4350  0.3534
  269MPD2    C5 4122   3.571   3.127  15.830 -0.0965  0.2081 -0.4029
  269MPD2     H 4123   3.201   3.029  15.807 -0.7173  0.1889  1.8060
  269MPD2    H1 4124   3.521   3.308  15.731 -1.7232  0.7581 -1.0875
  269MPD2    H2 4125   3.597   2.949  15.938  2.1839  2.6151 -1.4332
  269MPD2    H3 4126   3.674   3.161  15.831 -0.1816  0.4460  1.7401
  269MPD2     N 4127   3.254   3.269  15.713  0.7707 -0.4584 -0.0259
  269MPD2    H5 4128   3.160   3.230  15.715 -0.0957  1.7095  1.9360
  269MPD2    N1 4129   3.359   2.828  15.908 -0.2328  0.3257 -0.4941
  269MPD2    H7 4130   3.439   2.775  15.942  0.4844  1.4898 -0.3473
  270TMC3    C1 4131   3.245   2.624  15.922 -0.3161 -0.1960  0.0812
  270TMC3    C2 4132   3.154   2.549  15.845 -0.4597  0.3491 -0.0250
  270TMC3    C3 4133   3.182   2.414  15.820  0.2821 -0.6013 -0.0974
  270TMC3    C4 4134   3.365   2.571  15.957  0.2132 -0.0138 -0.1476
  270TMC3    C5 4135   3.393   2.440  15.918 -0.8134 -0.2443 -0.0559
  270TMC3    C6 4136   3.303   2.365  15.853 -0.2085  0.5048 -0.5823
  270TMC3     C 4137   3.241   2.766  15.899 -0.0665 -0.2307 -0.3682
  270TMC3     O 4138   3.129   2.816  15.873  0.2854 -0.0928 -0.6877
  270TMC3     H 4139   3.059   2.591  15.813 -0.4264  1.5130  1.4281
  270TMC3    H1 4140   3.434   2.619  16.025  0.1083 -0.2228  0.1095
  270TMC3    H2 4141   3.327   2.260  15.837  0.6933  0.6125  0.0819
  270TMC3    C7 4142   3.531   2.398  15.944  1.0505 -0.4598 -0.7030
  270TMC3    C8 4143   3.103   2.354  15.714 -0.7172  0.4059  0.2154
  270TMC3    O1 4144   3.598   2.448  16.035  0.5449 -0.1085 -0.4702
  270TMC3    O2 4145   3.169   2.277  15.641 -0.2855  0.0777 -0.3309
  271MPD2     C 4146   2.107   2.398  14.131 -0.4340  0.0924  0.0862
  271MPD2    C1 4147   2.047   2.388  14.253  0.4348  0.0545  0.4961
  271MPD2    C2 4148   1.916   2.419  14.263 -0.7291 -0.4394  0.3853
  271MPD2    C3 4149   1.840   2.461  14.152  0.5818 -0.0616  0.5037
  271MPD2    C4 4150   1.899   2.458  14.026  0.2816 -0.4484 -0.3585
  271MPD2    C5 4151   2.034   2.435  14.025  0.1877 -0.4927  0.4518
  271MPD2     H 4152   1.863   2.414  14.358 -1.8659 -1.3554 -0.2961
  271MPD2    H1 4153   1.854   2.492  13.934  1.2492 -0.1888 -0.7371
  271MPD2    H2 4154   2.214   2.395  14.116 -0.6245  1.3499 -1.4306
  271MPD2    H3 4155   2.084   2.446  13.930  0.7683  0.8140  0.9200
  271MPD2     N 4156   1.702   2.502  14.159 -0.0690 -0.6101 -0.2026
  271MPD2    H5 4157   1.659   2.517  14.068 -0.4050 -1.3262 -0.1604
  271MPD2    N1 4158   2.122   2.348  14.372 -0.3247 -0.1262  0.3259
  271MPD2    H7 4159   2.070   2.317  14.453 -0.1132  1.1503  0.9485
  272TMC3    C1 4160   2.300   2.225  14.463  0.4491 -0.4141 -0.2211
  272TMC3    C2 4161   2.421   2.160  14.436  0.0467 -0.6133  0.3565
  272TMC3    C3 4162   2.497   2.110  14.541 -0.5196  0.4424  0.5091
  272TMC3    C4 4163   2.254   2.237  14.592 -0.1293  0.6769  0.1097
  272TMC3    C5 4164   2.337   2.184  14.689 -0.0488 -0.0879  0.1531
  272TMC3    C6 4165   2.457   2.126  14.673  0.4763  0.3606  0.2059
  272TMC3     C 4166   2.258   2.310  14.365 -0.2246 -0.5203  0.3086
  272TMC3     O 4167   2.338   2.334  14.274  0.1634  0.2380  0.4972
  272TMC3     H 4168   2.457   2.152  14.335  2.7910  1.0190  1.2074
  272TMC3    H1 4169   2.182   2.315  14.611 -2.6976 -1.9638  1.1072
  272TMC3    H2 4170   2.505   2.072  14.754  0.8556  0.9121  0.3506
  272TMC3    C7 4171   2.311   2.232  14.822  0.1065 -0.3768  0.4644
  272TMC3    C8 4172   2.608   2.037  14.498 -0.6103  0.3792 -0.0393
  272TMC3    O1 4173   2.195   2.241  14.856  0.0007  0.4642 -0.8236
  272TMC3    O2 4174   2.629   2.008  14.380 -0.0979 -0.5420 -0.6058
  273MPD2     C 4175   3.743   0.190  11.461 -0.4186  0.5233  0.0215
  273MPD2    C1 4176   3.859   0.205  11.535  0.1277 -0.2097  0.5727
  273MPD2    C2 4177   3.977   0.252  11.474 -0.4100 -0.8765  0.2301
  273MPD2    C3 4178   3.974   0.295  11.347 -0.3886  0.2826  0.3008
  273MPD2    C4 4179   3.856   0.289  11.282  0.1640 -1.0202  0.5452
  273MPD2    C5 4180   3.745   0.238  11.332  0.0533 -0.5438  0.5546
  273MPD2     H 4181   4.069   0.245  11.531 -1.3796 -0.6694  1.8321
  273MPD2    H1 4182   3.846   0.325  11.180  0.6331 -0.5011  0.6791
  273MPD2    H2 4183   3.650   0.147  11.499  0.3962 -0.4619  0.9068
  273MPD2    H3 4184   3.667   0.226  11.258 -0.9849 -1.0607  1.7292
  273MPD2     N 4185   4.075   0.360  11.278 -0.3318  0.5453 -0.8122
  273MPD2    H5 4186   4.058   0.370  11.178 -0.0504  4.1432 -0.5108
  273MPD2    N1 4187   3.865   0.154  11.670 -0.2162  0.5454  0.2565
  273MPD2    H7 4188   3.783   0.106  11.704  0.1681 -1.0261 -1.0299
  274TMC3    C1 4189   4.273   0.466  11.237 -0.2210 -0.2294 -0.1361
  274TMC3    C2 4190   4.251   0.416  11.112 -0.5413  0.0515  0.5717
  274TMC3    C3 4191   4.239   0.497  11.002  0.2096  0.7972 -0.3226
  274TMC3    C4 4192   4.250   0.601  11.251  0.5066  0.7868  0.2750
  274TMC3    C5 4193   4.227   0.678  11.143  0.4215 -0.2430 -0.0378
  274TMC3    C6 4194   4.249   0.633  11.019  0.8794  0.5597  0.7087
  274TMC3     C 4195   4.199   0.397  11.329  0.4741 -0.4222 -0.7288
  274TMC3     O 4196   4.229   0.412  11.447 -0.5746  0.0952 -0.1570
  274TMC3     H 4197   4.244   0.309  11.102 -1.8802  0.2775 -0.8620
  274TMC3    H1 4198   4.229   0.640  11.350 -0.7986  1.8222 -0.4138
  274TMC3    H2 4199   4.229   0.694  10.931 -0.1705  0.3546  0.8101
  274TMC3    C7 4200   4.158   0.806  11.153  0.8793  0.0823  0.6307
  274TMC3    C8 4201   4.152   0.445  10.906 -0.5640  0.7695  0.0048
  274TMC3    O1 4202   4.156   0.879  11.050  0.1744  0.7138  0.8779
  274TMC3    O2 4203   4.095   0.342  10.936 -0.2672 -0.4001 -0.0176
  275MPD2     C 4204   3.795   3.183  14.711  0.1177 -0.7316 -0.3838
  275MPD2    C1 4205   3.707   3.289  14.725 -0.1731 -0.2835  0.2887
  275MPD2    C2 4206   3.572   3.271  14.698 -0.3606  0.4310 -0.0799
  275MPD2    C3 4207   3.530   3.149  14.653 -0.1901 -0.1766  0.6453
  275MPD2    C4 4208   3.619   3.043  14.643 -0.7309 -0.5151  0.7493
  275MPD2    C5 4209   3.741   3.059  14.692  0.2481  0.1412 -0.3565
  275MPD2     H 4210   3.505   3.354  14.715 -1.3607  0.2253 -3.0961
  275MPD2    H1 4211   3.596   2.943  14.609 -0.9104  0.2767 -1.4746
  275MPD2    H2 4212   3.899   3.194  14.740 -0.0959  0.8694 -0.2606
  275MPD2    H3 4213   3.804   2.971  14.682 -0.8941 -0.8036  0.8462
  275MPD2     N 4214   3.392   3.116  14.643  0.1219 -0.0885  0.0866
  275MPD2    H5 4215   3.368   3.027  14.602 -0.0623 -0.2402  0.5163
  275MPD2    N1 4216   3.760   3.405  14.778  0.2489  0.0325  0.0087
  275MPD2    H7 4217   3.854   3.403  14.816 -0.3373  0.2649  1.4531
  276TMC3    C1 4218   3.759   3.609  14.891  0.5669 -0.2374 -0.2345
  276TMC3    C2 4219   3.801   3.542  14.998 -0.9983 -0.2934  0.2446
  276TMC3    C3 4220   3.804   3.606  15.115 -0.2158  1.0279  0.2309
  276TMC3    C4 4221   3.728   3.744  14.899  1.2006 -0.4223 -0.1732
  276TMC3    C5 4222   3.750   3.814  15.012  0.3563 -0.3144  0.1425
  276TMC3    C6 4223   3.773   3.737  15.125  0.1939 -0.2036 -0.3897
  276TMC3     C 4224   3.694   3.527  14.792 -0.1671  0.6930 -0.1253
  276TMC3     O 4225   3.593   3.573  14.738 -0.2851  0.1173  0.0171
  276TMC3     H 4226   3.815   3.435  15.003  0.4745 -0.2003 -1.9512
  276TMC3    H1 4227   3.711   3.801  14.808  1.5179  1.1005  0.7268
  276TMC3    H2 4228   3.807   3.800  15.207  0.5048  2.8006 -2.8312
  276TMC3    C7 4229   3.847   3.927  15.000 -0.4202  0.9820 -0.4242
  276TMC3    C8 4230   3.911   3.570  15.207 -0.2644  0.7979 -0.0920
  276TMC3    O1 4231   3.887   3.982  15.103 -0.3664  0.9525 -0.0475
  276TMC3    O2 4232   3.951   3.652  15.290 -0.1164  0.2259  0.1681
  277MPD2     C 4233   0.636   2.525  13.489  0.3923  0.0128 -0.0459
  277MPD2    C1 4234   0.500   2.528  13.488 -0.0908 -0.0500 -0.1070
  277MPD2    C2 4235   0.427   2.425  13.543 -0.3951  0.6566  0.0646
  277MPD2    C3 4236   0.486   2.328  13.620 -0.0112 -1.4104  0.8411
  277MPD2    C4 4237   0.624   2.323  13.616  0.7808  0.7999 -0.3239
  277MPD2    C5 4238   0.700   2.423  13.556 -0.1386  0.3560 -0.0983
  277MPD2     H 4239   0.319   2.423  13.543 -0.3593 -1.1658  0.5168
  277MPD2    H1 4240   0.676   2.243  13.668  0.2372  0.3066 -0.5355
  277MPD2    H2 4241   0.688   2.603  13.435 -0.7069  0.9606  0.2577
  277MPD2    H3 4242   0.808   2.416  13.547 -0.1175  0.3551  0.1618
  277MPD2     N 4243   0.409   2.237  13.688  0.5599  0.2559 -0.6648
  277MPD2    H5 4244   0.309   2.233  13.671  0.3044  0.2461  0.7920
  277MPD2    N1 4245   0.443   2.650  13.431  0.1354 -0.9240 -0.3947
  277MPD2    H7 4246   0.509   2.720  13.398 -1.3492  1.2077  1.1386
  278TMC3    C1 4247   0.337   2.053  13.827 -0.2896 -0.1895  0.3146
  278TMC3    C2 4248   0.373   1.940  13.894  0.4399 -0.2240 -0.3560
  278TMC3    C3 4249   0.277   1.836  13.895 -0.9922  0.4905  0.1262
  278TMC3    C4 4250   0.208   2.073  13.780  0.5091 -0.0948  0.1547
  278TMC3    C5 4251   0.115   1.978  13.803 -0.5376 -0.4462  0.4416
  278TMC3    C6 4252   0.146   1.858  13.858 -0.0167 -0.0366 -1.2554
  278TMC3     C 4253   0.447   2.137  13.778 -1.1580  0.8775 -0.0357
  278TMC3     O 4254   0.560   2.117  13.821 -0.3825  0.0303 -0.6030
  278TMC3     H 4255   0.474   1.905  13.910  0.3400  0.7389  2.4545
  278TMC3    H1 4256   0.182   2.169  13.735  1.0312 -0.4091 -0.8286
  278TMC3    H2 4257   0.072   1.782  13.880 -0.5405  0.3707 -1.6098
  278TMC3    C7 4258   4.715   2.012  13.750 -0.1763  0.3408 -0.0944
  278TMC3    C8 4259   0.325   1.698  13.901 -0.7422 -0.5864  0.4693
  278TMC3    O1 4260   4.710   2.123  13.689 -0.1166  0.4966 -0.0766
  278TMC3    O2 4261   0.399   1.680  13.998  0.0109 -0.5060  0.6371
  279MPD2     C 4262   4.586   3.418   0.285 -0.1831 -0.6090 -1.0617
  279MPD2    C1 4263   4.597   3.323   0.383  0.3311  0.1889  0.1024
  279MPD2    C2 4264   4.632   3.197   0.343 -0.1680 -0.3428 -0.8344
  279MPD2    C3 4265   4.664   3.163   0.214  0.1761 -0.7142 -0.3701
  279MPD2    C4 4266   4.663   3.260   0.125  0.1516  0.2055 -0.6869
  279MPD2    C5 4267   4.633   3.389   0.156 -0.2228 -0.5002 -0.1807
  279MPD2     H 4268   4.651   3.129   0.425 -2.6839 -0.4389 -0.3321
  279MPD2    H1 4269   4.691   3.239   0.022 -1.1030  0.2128 -1.0314
  279MPD2    H2 4270   4.558   3.518   0.316 -0.8245 -0.8638 -0.8133
  279MPD2    H3 4271   4.636   3.466   0.080  0.7071 -0.1856  0.1702
  279MPD2     N 4272   4.705   3.027   0.174 -0.1000  0.5860  0.4777
  279MPD2    H5 4273   4.728   3.021   0.075  0.1135  1.7361  0.4600
  279MPD2    N1 4274   4.571   3.366   0.515 -0.4877 -0.1200  0.3058
  279MPD2    H7 4275   4.528   3.458   0.523  0.5365  0.6139 -2.3429
  280TMC3    C1 4276   4.557   3.371   0.754  0.7700  0.3139  0.5375
  280TMC3    C2 4277   4.652   3.390   0.852  0.3982  0.4332 -0.5097
  280TMC3    C3 4278   4.605   3.460   0.958  0.3470  1.1454 -0.1590
  280TMC3    C4 4279   4.432   3.426   0.753 -0.5420  0.5422  0.0222
  280TMC3    C5 4280   4.398   3.504   0.856  0.2191  1.0926  0.6861
  280TMC3    C6 4281   4.481   3.516   0.969  0.1918 -0.4462  0.0209
  280TMC3     C 4282   4.599   3.296   0.631  0.0509 -0.3210  0.7397
  280TMC3     O 4283   4.662   3.194   0.643  0.2748  0.6377 -0.1464
  280TMC3     H 4284   0.003   3.327   0.854 -0.4048 -0.8104 -3.5979
  280TMC3    H1 4285   4.360   3.410   0.674 -0.0144  2.7757 -0.9248
  280TMC3    H2 4286   4.444   3.565   1.059  2.3617  2.0336 -0.4573
  280TMC3    C7 4287   4.287   3.596   0.849  0.4706  0.3699 -0.2955
  280TMC3    C8 4288   4.699   3.470   1.062 -0.2568 -0.1051  0.2844
  280TMC3    O1 4289   4.301   3.692   0.921 -0.0232  0.0873 -0.1688
  280TMC3    O2 4290   0.076   3.436   1.035 -0.1830 -0.8454 -0.0028
  281TMC3    C1 4291   3.655   2.576  13.639  0.1727 -0.3441 -0.2921
  281TMC3    C2 4292   3.750   2.676  13.650  0.7301  0.7142 -0.4086
  281TMC3    C3 4293   3.855   2.673  13.564 -0.8444  0.0177  0.6432
  281TMC3    C4 4294   3.661   2.475  13.546  1.1193  0.3370 -0.2169
  281TMC3    C5 4295   3.769   2.474  13.459  0.2435  0.0549 -0.4235
  281TMC3    C6 4296   3.860   2.576  13.463 -0.0424 -0.0874 -0.6901
  281TMC3     C 4297   3.521   2.585  13.715 -0.3474 -0.4517  0.4085
  281TMC3     O 4298   3.449   2.483  13.718  0.2057 -0.4979  0.1403
  281TMC3     H 4299   3.752   2.739  13.738 -0.9760  0.1142  0.0515
  281TMC3    H1 4300   3.574   2.411  13.534  0.7057  0.6064  1.3974
  281TMC3    H2 4301   3.934   2.581  13.384 -0.7671 -0.4325 -1.3938
  281TMC3    C7 4302   3.797   2.358  13.375 -0.3782  0.4119  0.4273
  281TMC3    C8 4303   3.970   2.761  13.575 -0.1234  0.1863  0.3046
  281TMC3    O1 4304   3.909   2.364  13.325  0.2012 -0.2044 -0.1605
  281TMC3    O2 4305   4.075   2.699  13.574  0.0049  0.5933 -0.6964
  282MPD2     C 4306   0.760   4.156  15.328 -0.4426  0.0206 -0.3461
  282MPD2    C1 4307   0.634   4.212  15.343 -0.4359  0.5101 -0.1098
  282MPD2    C2 4308   0.559   4.224  15.225  0.4576 -0.6637  0.1255
  282MPD2    C3 4309   0.606   4.182  15.104 -0.2911 -0.5573 -0.0233
  282MPD2    C4 4310   0.719   4.114  15.097 -0.3058  0.1011  0.2267
  282MPD2    C5 4311   0.801   4.115  15.204  0.2194 -0.4993 -0.0582
  282MPD2     H 4312   0.455   4.255  15.229  0.8799  0.9678 -1.3509
  282MPD2    H1 4313   0.761   4.087  15.000  2.1691 -0.1226  1.3489
  282MPD2    H2 4314   0.833   4.154  15.408  0.1321  1.0281 -0.8375
  282MPD2    H3 4315   0.899   4.069  15.195  2.1540  3.0473  2.6759
  282MPD2     N 4316   0.511   4.190  14.997 -0.4454  0.1103  0.3706
  282MPD2    H5 4317   0.421   4.229  15.023 -0.4340  1.4290 -1.5456
  282MPD2    N1 4318   0.573   4.245  15.468 -0.3102  0.2568 -0.0762
  282MPD2    H7 4319   0.485   4.294  15.464 -1.7865 -2.2070  2.0318
  283TMC3    C1 4320   0.527   4.225  15.691  0.0261 -0.0204  0.0069
  283TMC3    C2 4321   0.486   4.354  15.705 -0.9543 -0.3336 -0.1651
  283TMC3    C3 4322   0.370   4.377  15.770  0.0660 -0.3955 -0.0638
  283TMC3    C4 4323   0.464   4.120  15.756 -0.6447 -0.4238 -0.3569
  283TMC3    C5 4324   0.341   4.148  15.819 -0.5405  0.4117 -0.4837
  283TMC3    C6 4325   0.296   4.275  15.830 -0.0608  0.3082  0.3419
  283TMC3     C 4326   0.620   4.192  15.585 -0.1634 -0.0494  0.1681
  283TMC3     O 4327   0.713   4.118  15.609 -0.2537 -0.3108  0.2520
  283TMC3     H 4328   0.559   4.431  15.680  0.4824 -1.6597 -0.0025
  283TMC3    H1 4329   0.499   4.018  15.747 -2.0868 -0.8047 -1.7208
  283TMC3    H2 4330   0.202   4.302  15.876 -0.4884 -1.4602  0.5096
  283TMC3    C7 4331   0.248   4.049  15.866 -0.3503  0.1539 -0.0270
  283TMC3    C8 4332   0.342   4.510  15.824  0.0202 -0.0536 -0.3039
  283TMC3    O1 4333   0.134   4.088  15.885  0.9361  0.4236 -0.0083
  283TMC3    O2 4334   0.271   4.521  15.922 -0.0886  0.3046 -0.3583
  284MPD2     C 4335   3.367   2.982  12.559 -0.1550  0.8162  0.2937
  284MPD2    C1 4336   3.427   2.897  12.463  0.3404 -0.5829  0.3760
  284MPD2    C2 4337   3.527   2.811  12.495  0.3331 -1.0599 -0.8019
  284MPD2    C3 4338   3.588   2.822  12.612 -0.5773  0.1087 -0.5521
  284MPD2    C4 4339   3.537   2.912  12.705  0.0985  0.6432 -0.2790
  284MPD2    C5 4340   3.429   2.991  12.682 -0.4099 -0.0042  0.0189
  284MPD2     H 4341   3.551   2.733  12.423  1.1338  0.0382 -1.7359
  284MPD2    H1 4342   3.580   2.909  12.805  0.0838 -1.7795 -0.3500
  284MPD2    H2 4343   3.293   3.059  12.539  0.9970  2.1579  1.1550
  284MPD2    H3 4344   3.391   3.059  12.757 -3.0059  1.1897 -2.3779
  284MPD2     N 4345   3.711   2.748  12.636  0.6664 -0.2058  0.0698
  284MPD2    H5 4346   3.740   2.680  12.566  0.7858  0.2695 -0.3430
  284MPD2    N1 4347   3.391   2.901  12.322 -0.0613 -0.4271 -0.5493
  284MPD2    H7 4348   3.444   2.849  12.253  2.5269  0.6996  0.5866
  285TMC3    C1 4349   3.296   2.979  12.128  0.8064 -0.5419 -0.1994
  285TMC3    C2 4350   3.394   2.910  12.069 -0.3725  0.3112 -0.0089
  285TMC3    C3 4351   3.451   2.963  11.956  0.3599 -1.1265  0.4936
  285TMC3    C4 4352   3.253   3.104  12.079  0.0390 -0.1791  0.8979
  285TMC3    C5 4353   3.313   3.148  11.966 -0.3856 -0.5707 -0.0347
  285TMC3    C6 4354   3.421   3.090  11.912 -0.4408  0.2458  0.1559
  285TMC3     C 4355   3.291   2.979  12.270 -0.0436  0.0516 -0.1876
  285TMC3     O 4356   3.195   3.037  12.321  0.0038  0.1448 -0.1851
  285TMC3     H 4357   3.421   2.808  12.095  2.8214  1.4574  1.2078
  285TMC3    H1 4358   3.184   3.173  12.126  0.5003  0.2525  0.9460
  285TMC3    H2 4359   3.457   3.134  11.820 -0.3355 -0.1669 -0.0029
  285TMC3    C7 4360   3.266   3.266  11.903 -0.4258  0.1841 -0.2456
  285TMC3    C8 4361   3.551   2.887  11.880  0.3950  0.6309 -0.5329
  285TMC3    O1 4362   3.354   3.340  11.857  0.3940 -0.0328  0.1228
  285TMC3    O2 4363   3.558   2.764  11.885  0.2233 -0.2518  0.4971
  286MPD2     C 4364   3.529   2.842   1.455 -0.5381  0.1126 -0.1865
  286MPD2    C1 4365   3.508   2.733   1.371  0.3052 -0.2142  0.2308
  286MPD2    C2 4366   3.555   2.607   1.404  0.5420  0.0473 -0.2609
  286MPD2    C3 4367   3.628   2.591   1.523  0.0699  0.2061  0.0405
  286MPD2    C4 4368   3.662   2.700   1.599  0.7845  0.5473  0.8597
  286MPD2    C5 4369   3.608   2.821   1.567 -0.3404  0.3737  0.0847
  286MPD2     H 4370   3.529   2.534   1.328 -0.0881  0.6460 -0.6223
  286MPD2    H1 4371   3.727   2.700   1.686  0.4525 -1.6717  1.1158
  286MPD2    H2 4372   3.486   2.941   1.442  0.1723  0.1293 -2.3642
  286MPD2    H3 4373   3.623   2.901   1.640 -0.0915 -1.0802  1.6158
  286MPD2     N 4374   3.687   2.465   1.552 -0.3988  0.0819 -0.7577
  286MPD2    H5 4375   3.747   2.454   1.633  0.0172  0.3479 -1.0298
  286MPD2    N1 4376   3.434   2.744   1.243  0.2539 -0.3786 -0.3225
  286MPD2    H7 4377   3.428   2.663   1.182  2.4025  1.1198 -2.4965
  287TMC3    C1 4378   3.740   2.238   1.530  0.0170 -0.1875  0.2665
  287TMC3    C2 4379   3.706   2.120   1.468 -0.3129 -0.5484 -0.2977
  287TMC3    C3 4380   3.797   2.038   1.417 -0.7327 -0.0202 -0.8537
  287TMC3    C4 4381   3.869   2.268   1.555  0.4935  0.5558  0.2162
  287TMC3    C5 4382   3.960   2.172   1.511  0.3666  0.0413 -0.0965
  287TMC3    C6 4383   3.930   2.055   1.452  0.1281  0.8202 -0.2251
  287TMC3     C 4384   3.663   2.351   1.481  0.2851 -0.2350  0.1400
  287TMC3     O 4385   3.587   2.323   1.387 -0.7801 -0.4867  0.7185
  287TMC3     H 4386   3.599   2.106   1.456 -0.2189 -0.2359 -1.5946
  287TMC3    H1 4387   3.901   2.364   1.596  1.3193  0.3412  0.0584
  287TMC3    H2 4388   4.008   1.991   1.414 -2.2892 -1.7902 -0.8058
  287TMC3    C7 4389   4.086   2.180   1.587 -0.5133 -0.2830 -0.2823
  287TMC3    C8 4390   3.772   2.002   1.282 -0.2069  0.2390  0.3793
  287TMC3    O1 4391   4.073   2.237   1.697 -0.2278 -0.0381 -0.1766
  287TMC3    O2 4392   3.839   1.914   1.225 -0.0401  0.7254  0.1018
  288TMC3    C1 4393   0.716   1.813  14.331 -0.7851  0.0451 -0.3065
  288TMC3    C2 4394   0.708   1.754  14.453 -0.4704 -0.0236  0.7749
  288TMC3    C3 4395   0.593   1.756  14.523 -0.2948  0.1093 -0.2441
  288TMC3    C4 4396   0.608   1.884  14.285 -0.8311  0.2120 -0.2058
  288TMC3    C5 4397   0.491   1.879  14.356  0.2418  0.3610 -0.6611
  288TMC3    C6 4398   0.481   1.821  14.477  0.1594  0.5257  0.5818
  288TMC3     C 4399   0.839   1.811  14.255 -0.9967 -0.0252  0.2141
  288TMC3     O 4400   0.922   1.735  14.307  0.4104  0.4705 -0.1724
  288TMC3     H 4401   0.799   1.717  14.499  1.3031  0.2437 -2.4454
  288TMC3    H1 4402   0.610   1.933  14.189  1.3771  1.9420  0.7337
  288TMC3    H2 4403   0.387   1.819  14.532 -0.1127  1.7522  0.1599
  288TMC3    C7 4404   0.370   1.948  14.317 -1.5452  0.2284 -0.6086
  288TMC3    C8 4405   0.607   1.754  14.668 -0.1536  0.3364 -0.3936
  288TMC3    O1 4406   0.259   1.912  14.363  0.8302  0.4519 -1.0831
  288TMC3    O2 4407   0.696   1.821  14.718  0.4016  0.2753 -0.5981
  289MPD2     C 4408   0.910   1.039  14.547  0.7918 -0.0728  0.2280
  289MPD2    C1 4409   0.847   1.117  14.452  0.1349  0.1132 -1.0685
  289MPD2    C2 4410   0.710   1.094  14.431 -0.4269  0.0947  0.5186
  289MPD2    C3 4411   0.644   0.999  14.499  0.2714 -0.5362  0.1351
  289MPD2    C4 4412   0.711   0.927  14.600 -0.1655  0.1318  0.0313
  289MPD2    C5 4413   0.841   0.943  14.620 -0.2808 -0.1068  0.2649
  289MPD2     H 4414   0.661   1.138  14.345 -1.3116  0.7853  1.3820
  289MPD2    H1 4415   0.660   0.841  14.641 -0.8282  0.7963  0.6246
  289MPD2    H2 4416   1.015   1.045  14.572  1.0634 -1.9895 -0.4375
  289MPD2    H3 4417   0.900   0.896  14.697  0.1745  0.5496  0.3194
  289MPD2     N 4418   0.514   0.948  14.457 -0.0964  0.1548 -0.1298
  289MPD2    H5 4419   0.473   0.869  14.506 -0.0475 -0.1624 -0.6000
  289MPD2    N1 4420   0.916   1.211  14.368  0.0917  0.3365  0.5183
  289MPD2    H7 4421   1.017   1.219  14.370  0.0881 -0.0073  1.8825
  290TMC3    C1 4422   0.285   0.995  14.384 -0.3983  0.6851  0.2919
  290TMC3    C2 4423   0.191   1.092  14.362  0.3627  0.0407  0.3403
  290TMC3    C3 4424   0.055   1.063  14.370 -0.5084  0.5808  0.1506
  290TMC3    C4 4425   0.246   0.867  14.418 -0.4400  0.6578 -0.0868
  290TMC3    C5 4426   0.111   0.839  14.415 -0.0944 -0.0460  0.3272
  290TMC3    C6 4427   0.016   0.931  14.378  0.1354  0.3195  0.3983
  290TMC3     C 4428   0.424   1.036  14.392  0.3237  0.2274 -0.3354
  290TMC3     O 4429   0.438   1.148  14.344  0.0540 -0.1484 -0.5708
  290TMC3     H 4430   0.222   1.195  14.346  1.9389 -0.3534  0.8694
  290TMC3    H1 4431   0.316   0.785  14.426 -1.2558 -0.0735 -0.4759
  290TMC3    H2 4432   4.645   0.921  14.382  0.1978 -0.8179 -0.8082
  290TMC3    C7 4433   0.062   0.709  14.428  0.1544 -0.5913  0.0650
  290TMC3    C8 4434   4.693   1.166  14.340 -0.3210 -0.3879  0.3301
  290TMC3    O1 4435   4.684   0.692  14.380  0.9860  0.7543 -0.3695
  290TMC3    O2 4436   4.580   1.138  14.294  0.2694  0.1306  0.4499
  291MPD2     C 4437   0.006   0.752   0.326  0.2721 -0.1058 -0.4142
  291MPD2    C1 4438   4.645   0.739   0.227  0.0975 -0.1170 -0.5840
  291MPD2    C2 4439   4.665   0.807   0.106 -0.4528 -0.1670  0.3886
  291MPD2    C3 4440   0.026   0.896   0.095  0.3021 -0.5369 -0.4179
  291MPD2    C4 4441   0.133   0.892   0.186  0.6367  0.1155  0.1369
  291MPD2    C5 4442   0.123   0.821   0.299 -0.5355  0.7274  0.0411
  291MPD2     H 4443   4.583   0.804   0.036  0.0614  1.2673 -0.2772
  291MPD2    H1 4444   0.228   0.944   0.187  0.8054 -0.2223  1.6883
  291MPD2    H2 4445   0.003   0.699   0.421  2.5470 -0.5555 -0.6040
  291MPD2    H3 4446   0.202   0.833   0.372  0.1491 -1.1955 -0.3825
  291MPD2     N 4447   0.042   0.980  17.729  0.2028 -0.1634  0.1028
  291MPD2    H5 4448   0.137   1.014  17.719  0.6309 -1.0536  1.0999
  291MPD2    N1 4449   4.530   0.667   0.241  0.0580  0.4705 -0.4618
  291MPD2    H7 4450   4.477   0.652   0.156 -0.4244 -0.4247 -0.0080
  292TMC3    C1 4451   4.349   0.564   0.361 -0.0833  0.8162  1.3123
  292TMC3    C2 4452   4.271   0.569   0.469  1.0306  0.7855 -0.6939
  292TMC3    C3 4453   4.154   0.499   0.463 -0.7039  0.5296 -0.0794
  292TMC3    C4 4454   4.313   0.497   0.244  0.4547 -0.5755  0.2378
  292TMC3    C5 4455   4.192   0.432   0.237  0.0861  0.1050  0.4027
  292TMC3    C6 4456   4.109   0.437   0.346  0.0303  0.5669  0.5249
  292TMC3     C 4457   4.478   0.633   0.365 -0.0388 -0.1276  0.3541
  292TMC3     O 4458   4.526   0.650   0.476 -0.1473 -0.0564 -0.5951
  292TMC3     H 4459   4.298   0.638   0.548  0.7883 -0.2693  0.3178
  292TMC3    H1 4460   4.392   0.470   0.175  1.7166  0.1940  1.3798
  292TMC3    H2 4461   4.009   0.396   0.348  0.2703 -0.0147  0.5948
  292TMC3    C7 4462   4.175   0.329   0.129 -0.2616  0.5625  0.3505
  292TMC3    C8 4463   4.058   0.526   0.568  0.6769 -0.1426  1.3277
  292TMC3    O1 4464   4.267   0.310   0.054  0.4172 -0.1393  0.7579
  292TMC3    O2 4465   4.103   0.574   0.679 -0.1956 -0.0328  0.0552
  293MPD2     C 4466   1.934   2.178  12.386 -0.5704  0.4678  0.2181
  293MPD2    C1 4467   1.812   2.166  12.448  0.4809  0.4001  0.3123
  293MPD2    C2 4468   1.801   2.199  12.583 -0.1487 -0.3484 -0.1187
  293MPD2    C3 4469   1.904   2.258  12.648 -0.0104 -1.3516 -0.2431
  293MPD2    C4 4470   2.026   2.270  12.584  0.4230  0.8491 -0.2592
  293MPD2    C5 4471   2.039   2.230  12.453 -0.1568 -0.2513  0.3711
  293MPD2     H 4472   1.707   2.185  12.634  1.3975 -1.1567  2.4782
  293MPD2    H1 4473   2.109   2.322  12.631  0.3163  1.7088 -1.0085
  293MPD2    H2 4474   1.945   2.167  12.278  0.5499 -0.9292  0.4752
  293MPD2    H3 4475   2.128   2.259  12.397 -0.5556 -1.2411 -0.7636
  293MPD2     N 4476   1.879   2.299  12.777  0.3197  0.4545  0.2816
  293MPD2    H5 4477   1.790   2.261  12.811  0.8094  0.3252  1.4337
  293MPD2    N1 4478   1.703   2.106  12.375  0.5178 -0.9163  0.3682
  293MPD2    H7 4479   1.733   2.072  12.284  0.5189  0.1971 -0.0497
  294TMC3    C1 4480   1.481   2.041  12.332 -0.9793 -0.2263  0.6035
  294TMC3    C2 4481   1.371   1.988  12.389 -0.2460 -0.2836  0.8959
  294TMC3    C3 4482   1.312   1.875  12.339 -0.1987 -0.0074 -0.3759
  294TMC3    C4 4483   1.524   1.991  12.207  0.3091  0.3111  0.4006
  294TMC3    C5 4484   1.451   1.889  12.150  0.3455  0.4371 -0.2935
  294TMC3    C6 4485   1.351   1.822  12.219  0.2780 -0.8286  0.5472
  294TMC3     C 4486   1.571   2.111  12.417 -0.0177  0.0241  0.1017
  294TMC3     O 4487   1.522   2.156  12.524  0.5876  0.6637  0.1764
  294TMC3     H 4488   1.334   2.016  12.487 -2.2697 -0.6713  0.2390
  294TMC3    H1 4489   1.601   2.046  12.153  2.0415  1.1311  3.7126
  294TMC3    H2 4490   1.305   1.734  12.177  0.5972 -1.6912  1.9796
  294TMC3    C7 4491   1.480   1.834  12.022 -0.2765 -0.0109 -0.0071
  294TMC3    C8 4492   1.223   1.793  12.427  0.7346 -0.0511 -0.1192
  294TMC3    O1 4493   1.380   1.777  11.977  0.8604 -0.8645  0.5619
  294TMC3    O2 4494   1.169   1.853  12.521 -0.3149  0.4034 -0.2370
  295MPD2     C 4495   2.909   1.279   0.789 -0.6626  0.3638 -0.1348
  295MPD2    C1 4496   2.840   1.212   0.693  0.2068  0.2827  0.1092
  295MPD2    C2 4497   2.822   1.077   0.712 -0.2938  0.6954  0.5972
  295MPD2    C3 4498   2.863   1.007   0.826  0.8389 -1.4530  0.3485
  295MPD2    C4 4499   2.928   1.078   0.919 -0.0048  0.1290 -0.1245
  295MPD2    C5 4500   2.950   1.209   0.902 -1.1306  0.2923 -0.1539
  295MPD2     H 4501   2.771   1.023   0.632 -0.3382 -0.0212  1.1045
  295MPD2    H1 4502   2.963   1.028   1.009 -1.5014  0.3424  0.5662
  295MPD2    H2 4503   2.938   1.384   0.794  0.9282 -0.2025  2.7460
  295MPD2    H3 4504   3.007   1.261   0.978 -2.2175  1.6777 -0.3031
  295MPD2     N 4505   2.847   0.869   0.856  0.3789 -0.7933 -0.1285
  295MPD2    H5 4506   2.886   0.837   0.945 -0.4953  1.0314  0.9148
  295MPD2    N1 4507   2.799   1.271   0.577 -0.4111  0.4133  0.3436
  295MPD2    H7 4508   2.764   1.200   0.514  0.6451 -1.1924  1.5921
  296TMC3    C1 4509   2.773   0.631   0.836  0.3070  0.0418  0.3709
  296TMC3    C2 4510   2.799   0.616   0.968 -0.3907  0.3616  0.0792
  296TMC3    C3 4511   2.774   0.485   1.017  0.1203 -0.3884 -0.3210
  296TMC3    C4 4512   2.730   0.531   0.757  0.4234  0.1505 -0.1478
  296TMC3    C5 4513   2.706   0.410   0.812  0.3160  0.5057  0.2538
  296TMC3    C6 4514   2.725   0.385   0.945  0.0227 -0.5694  0.2826
  296TMC3     C 4515   2.783   0.771   0.779  0.5936 -0.4572  0.0674
  296TMC3     O 4516   2.744   0.787   0.668  0.2513 -0.4962  0.0918
  296TMC3     H 4517   2.820   0.707   1.023 -0.4334  0.2459  0.2856
  296TMC3    H1 4518   2.705   0.550   0.653  0.7249  0.1546 -0.2201
  296TMC3    H2 4519   2.717   0.287   0.992  0.1590 -0.8155 -0.2103
  296TMC3    C7 4520   2.651   0.309   0.722 -0.0026 -0.1640  0.7689
  296TMC3    C8 4521   2.795   0.462   1.156  0.2726  0.0558  0.3936
  296TMC3    O1 4522   2.654   0.328   0.598  0.4672 -0.1671 -0.1665
  296TMC3    O2 4523   2.731   0.370   1.206  0.4039  0.0144 -0.2367
  297MPD2     C 4524   4.263   3.073  16.591  0.0060  0.2433  0.1456
  297MPD2    C1 4525   4.246   3.175  16.503  0.5181  0.0427 -0.6548
  297MPD2    C2 4526   4.356   3.255  16.467 -0.1498 -0.1242  0.7956
  297MPD2    C3 4527   4.481   3.206  16.491  0.2168  0.4491 -0.1466
  297MPD2    C4 4528   4.506   3.096  16.570 -0.0756 -0.1303  0.2842
  297MPD2    C5 4529   4.392   3.034  16.629  0.0452  0.3351  0.5681
  297MPD2     H 4530   4.341   3.342  16.405 -0.9830 -0.0432  1.1078
  297MPD2    H1 4531   4.602   3.060  16.603  0.2252 -0.4403 -0.9166
  297MPD2    H2 4532   4.179   3.022  16.635  0.3572  0.2380  0.8129
  297MPD2    H3 4533   4.389   2.952  16.699 -0.9689  0.4642  0.6763
  297MPD2     N 4534   4.585   3.287  16.445  0.6626 -0.1888 -0.0655
  297MPD2    H5 4535   4.554   3.375  16.407 -1.0567 -0.3294  1.0389
  297MPD2    N1 4536   4.124   3.222  16.453  0.0256 -0.1634  0.1700
  297MPD2    H7 4537   4.133   3.292  16.380  0.1890 -0.9610 -0.5812
  298TMC3    C1 4538   3.895   3.244  16.397 -0.1305 -0.0277 -0.6574
  298TMC3    C2 4539   3.925   3.334  16.298  0.0882 -0.1899 -0.3117
  298TMC3    C3 4540   3.839   3.431  16.267 -0.0900  0.3224  1.7487
  298TMC3    C4 4541   3.768   3.228  16.434  0.4921  0.1344  1.3519
  298TMC3    C5 4542   3.679   3.325  16.403  0.5446  0.2392  0.2941
  298TMC3    C6 4543   3.713   3.426  16.309  0.2870  0.0891 -1.0085
  298TMC3     C 4544   3.998   3.175  16.480  0.3794  0.9473  0.1012
  298TMC3     O 4545   3.951   3.111  16.571 -0.0873 -0.7962  0.6853
  298TMC3     H 4546   4.027   3.350  16.263  0.2775 -2.6010 -0.8339
  298TMC3    H1 4547   3.745   3.163  16.518  0.8810  0.8127  1.9839
  298TMC3    H2 4548   3.636   3.499  16.288 -1.2154 -0.9931  0.7531
  298TMC3    C7 4549   3.546   3.330  16.463 -0.8637 -0.2118 -0.8461
  298TMC3    C8 4550   3.897   3.562  16.223  0.4392  0.6704  0.1503
  298TMC3    O1 4551   3.541   3.287  16.578 -0.0988 -0.1202 -0.0647
  298TMC3    O2 4552   4.016   3.565  16.227 -0.0928 -0.3525  0.2784
  299MPD2     C 4553   0.229   2.073  10.765 -0.3153  0.2061 -0.0778
  299MPD2    C1 4554   0.181   2.200  10.768  0.3265 -0.0150 -0.0187
  299MPD2    C2 4555   0.103   2.257  10.670  0.3437  0.4912 -0.5861
  299MPD2    C3 4556   0.048   2.176  10.583 -0.3817  0.1257 -0.5238
  299MPD2    C4 4557   0.080   2.047  10.584  0.8692 -0.1848 -0.4294
  299MPD2    C5 4558   0.172   1.995  10.672 -0.0769  0.3892  0.3181
  299MPD2     H 4559   0.069   2.359  10.680  1.8427  0.7955  1.4907
  299MPD2    H1 4560   0.024   1.982  10.518 -1.2305  1.9258 -0.7074
  299MPD2    H2 4561   0.297   2.028  10.837 -0.4158  0.5481  0.2298
  299MPD2    H3 4562   0.197   1.890  10.672  2.5254  1.0128 -0.2293
  299MPD2     N 4563   4.690   2.214  10.487 -0.2852  0.0742  0.6497
  299MPD2    H5 4564   4.652   2.151  10.416  1.4060 -2.6398  2.1514
  299MPD2    N1 4565   0.217   2.281  10.877 -0.2416 -0.0613  0.2748
  299MPD2    H7 4566   0.263   2.241  10.957  1.7497  1.6427 -0.0129
  300TMC3    C1 4567   4.499   2.330  10.417 -0.5781 -0.3273  0.1615
  300TMC3    C2 4568   4.449   2.451  10.373  0.4099  0.1659  0.5474
  300TMC3    C3 4569   4.316   2.463  10.391 -0.5089 -0.0035 -0.1146
  300TMC3    C4 4570   4.424   2.227  10.464 -0.2224  0.6693 -0.6443
  300TMC3    C5 4571   4.295   2.251  10.491 -0.4398  0.1149  0.3314
  300TMC3    C6 4572   4.241   2.372  10.462 -0.5612  0.5829 -0.2165
  300TMC3     C 4573   4.629   2.339  10.481  0.8474 -0.2217  0.3141
  300TMC3     O 4574   4.672   2.452  10.514 -0.4345 -0.3138  0.5278
  300TMC3     H 4575   4.515   2.517  10.319  0.9863 -0.7161  0.1650
  300TMC3    H1 4576   4.471   2.137  10.499  0.3571  1.7309  1.3129
  300TMC3    H2 4577   4.136   2.393  10.474 -0.4227  0.9816  0.2777
  300TMC3    C7 4578   4.238   2.160  10.580 -0.3238  0.3909 -0.2552
  300TMC3    C8 4579   4.264   2.596  10.381  0.6583  0.0685  0.6877
  300TMC3    O1 4580   4.277   2.049  10.573 -0.1066 -0.0046  0.5923
  300TMC3    O2 4581   4.357   2.676  10.393 -0.3454 -0.4572 -0.3272
  301MPD2     C 4582   2.006   4.628   0.917 -1.1905 -0.1986 -0.0064
  301MPD2    C1 4583   1.932   4.559   1.007 -0.1162  0.0881 -0.0768
  301MPD2    C2 4584   1.954   4.423   1.030 -0.1288 -0.0845 -0.4680
  301MPD2    C3 4585   2.040   4.357   0.941  0.7290  0.9747  0.3096
  301MPD2    C4 4586   2.103   4.427   0.839 -0.1260 -0.3333 -0.1391
  301MPD2    C5 4587   2.097   4.564   0.836 -0.5458 -0.1595  0.1607
  301MPD2     H 4588   1.907   4.361   1.105  1.4510 -2.2637 -1.2719
  301MPD2    H1 4589   2.162   4.371   0.767  0.6009  0.0308  0.1803
  301MPD2    H2 4590   1.986   4.732   0.896  2.4241  0.5088  0.0627
  301MPD2    H3 4591   2.156   4.620   0.763 -1.0378 -1.8066 -1.4957
  301MPD2     N 4592   2.071   4.217   0.948 -0.4094  0.3477  0.4745
  301MPD2    H5 4593   2.127   4.172   0.877 -0.6356  2.0467 -0.7766
  301MPD2    N1 4594   1.834   4.618   1.089  0.3048  0.2066  0.0982
  301MPD2    H7 4595   1.784   4.547   1.141 -0.6461  0.9109  0.1312
  302TMC3    C1 4596   2.051   3.994   0.987 -0.0456 -0.1144 -0.2933
  302TMC3    C2 4597   2.104   3.926   1.094 -0.5067 -0.4021  0.0772
  302TMC3    C3 4598   2.134   3.794   1.065  0.2300 -0.5510  1.2422
  302TMC3    C4 4599   2.041   3.948   0.859 -0.2485  1.4862  0.3051
  302TMC3    C5 4600   2.077   3.821   0.835  0.7460 -0.5725  0.0323
  302TMC3    C6 4601   2.117   3.741   0.940  0.3274 -0.7357  0.5570
  302TMC3     C 4602   2.006   4.129   1.025 -0.8380 -0.4285 -0.1947
  302TMC3     O 4603   1.935   4.136   1.126 -0.2963 -0.5040 -0.7319
  302TMC3     H 4604   2.091   3.957   1.197  0.1906 -1.8208  0.5945
  302TMC3    H1 4605   2.006   4.008   0.776  2.7197  3.7212  0.6936
  302TMC3    H2 4606   2.165   3.646   0.920 -0.5832 -1.2957  1.0288
  302TMC3    C7 4607   2.011   3.749   0.728 -0.2566  0.6877  0.5135
  302TMC3    C8 4608   2.135   3.692   1.167  0.9036  0.0751 -0.6117
  302TMC3    O1 4609   2.062   3.643   0.705  0.2244 -0.2321  0.3318
  302TMC3    O2 4610   2.177   3.720   1.278  0.4980  0.2748  0.4489
  303MPD2     C 4611   2.244   2.227  10.831 -0.2824  0.0120  0.2341
  303MPD2    C1 4612   2.225   2.091  10.814 -0.1404  0.2873  0.4501
  303MPD2    C2 4613   2.303   2.019  10.730 -0.3796  0.1263  0.7369
  303MPD2    C3 4614   2.396   2.088  10.649 -0.4625 -0.8194  0.6451
  303MPD2    C4 4615   2.416   2.223  10.671  0.5722 -0.0194  0.5930
  303MPD2    C5 4616   2.342   2.292  10.759  0.5454  0.0398  0.3017
  303MPD2     H 4617   2.284   1.914  10.709 -1.1516  0.1500  1.3082
  303MPD2    H1 4618   2.490   2.273  10.610 -0.3538  1.6177  0.8059
  303MPD2    H2 4619   2.176   2.283  10.895 -0.9857  0.9895 -1.3591
  303MPD2    H3 4620   2.357   2.398  10.769 -1.3794  0.2252  1.2126
  303MPD2     N 4621   2.457   2.026  10.540 -0.5997  0.2750  0.1742
  303MPD2    H5 4622   2.547   2.060  10.507 -0.4575 -0.4694 -0.1951
  303MPD2    N1 4623   2.124   2.027  10.891 -0.2019  0.4383  0.1611
  303MPD2    H7 4624   2.053   2.090  10.927 -0.3571 -1.1177  2.5502
  304TMC3    C1 4625   2.008   1.838  10.989 -0.0292 -1.0482 -0.3218
  304TMC3    C2 4626   1.886   1.894  10.953  0.0264  0.0713  0.2905
  304TMC3    C3 4627   1.778   1.811  10.959 -0.1732  0.2570  0.5897
  304TMC3    C4 4628   2.026   1.710  11.039  0.5485  0.6751 -0.1230
  304TMC3    C5 4629   1.909   1.633  11.043 -0.1883  0.4346 -0.4034
  304TMC3    C6 4630   1.787   1.685  11.012 -1.1245  0.1870 -0.0598
  304TMC3     C 4631   2.133   1.894  10.932 -0.1904  0.0084 -0.1488
  304TMC3     O 4632   2.239   1.833  10.938 -0.0902 -0.1479  0.2136
  304TMC3     H 4633   1.873   1.997  10.923  0.5365  0.4914  1.4910
  304TMC3    H1 4634   2.124   1.668  11.060  0.1484  0.4016  1.1956
  304TMC3    H2 4635   1.706   1.614  11.019  0.4991 -1.5049  1.5155
  304TMC3    C7 4636   1.918   1.498  10.986 -0.6283  0.2665 -0.0681
  304TMC3    C8 4637   1.689   1.815  10.844 -0.2024  0.1020  0.8803
  304TMC3    O1 4638   1.988   1.478  10.889 -0.4851  0.0257 -0.2573
  304TMC3    O2 4639   1.589   1.750  10.862  0.3328  0.1231  0.2746
  305MPD2     C 4640   0.594   4.111  14.362  0.3575 -0.0275 -0.1582
  305MPD2    C1 4641   0.721   4.087  14.311 -0.0178 -0.2683 -0.0251
  305MPD2    C2 4642   0.741   4.027  14.188  0.0326  0.3302 -0.2030
  305MPD2    C3 4643   0.636   4.007  14.110  0.3405 -0.2736  0.2195
  305MPD2    C4 4644   0.508   4.018  14.168 -0.1472 -0.4063  0.3589
  305MPD2    C5 4645   0.486   4.067  14.295  0.4837  0.3379 -0.0999
  305MPD2     H 4646   0.840   4.017  14.145  0.6793  3.0550  0.6388
  305MPD2    H1 4647   0.419   3.995  14.111  0.1502 -0.0689 -0.2499
  305MPD2    H2 4648   0.603   4.144  14.465 -1.8763  0.0918 -0.0118
  305MPD2    H3 4649   0.391   4.086  14.344 -1.1957 -1.9878 -2.4494
  305MPD2     N 4650   0.655   3.959  13.980 -0.3280  0.0548 -0.1581
  305MPD2    H5 4651   0.749   3.953  13.944 -0.6130 -1.6348 -0.6306
  305MPD2    N1 4652   0.823   4.104  14.410  0.0412  0.0508 -0.4217
  305MPD2    H7 4653   0.796   4.137  14.502 -0.7159  0.3966 -0.7628
  306TMC3    C1 4654   1.036   4.127  14.499 -0.4636  0.5874 -0.0573
  306TMC3    C2 4655   1.062   4.039  14.599 -0.0359 -0.1304  0.4426
  306TMC3    C3 4656   1.092   4.086  14.726  0.2986 -0.2208  0.3056
  306TMC3    C4 4657   1.051   4.262  14.507  0.4451  0.2894 -0.0277
  306TMC3    C5 4658   1.095   4.293  14.630  1.0351  0.6135 -0.2113
  306TMC3    C6 4659   1.108   4.220  14.744 -0.2890 -0.4750  0.2174
  306TMC3     C 4660   0.956   4.084  14.389  0.6354 -0.0045 -0.7039
  306TMC3     O 4661   1.016   4.056  14.286 -0.4467 -0.6335 -0.2263
  306TMC3     H 4662   1.036   3.936  14.577  1.3294 -0.3376 -0.1874
  306TMC3    H1 4663   1.045   4.321  14.416  1.7029  0.7220  0.1707
  306TMC3    H2 4664   1.121   4.265  14.842  0.5075  0.4037 -0.2846
  306TMC3    C7 4665   1.129   4.433  14.641 -0.5534 -0.4607 -0.4921
  306TMC3    C8 4666   1.125   3.989  14.824 -0.0781 -0.3699 -0.8944
  306TMC3    O1 4667   1.092   4.499  14.544 -0.4228 -0.4723  0.1233
  306TMC3    O2 4668   1.095   3.872  14.794 -0.2856  0.0415 -0.0500
  307MPD2     C 4669   2.944   2.604   0.845  0.2512 -0.2716  0.6092
  307MPD2    C1 4670   2.893   2.716   0.780 -0.0036  0.0583 -0.2156
  307MPD2    C2 4671   2.865   2.826   0.855 -0.3243  0.1935  0.3216
  307MPD2    C3 4672   2.862   2.819   0.995  0.2336 -1.1149  0.8510
  307MPD2    C4 4673   2.919   2.709   1.057  0.1849 -0.2235 -0.3027
  307MPD2    C5 4674   2.954   2.596   0.984 -0.4855 -0.2905 -0.7780
  307MPD2     H 4675   2.824   2.910   0.800  0.9081  0.1557 -0.6633
  307MPD2    H1 4676   2.920   2.709   1.166  0.1298 -0.2809 -0.3019
  307MPD2    H2 4677   2.985   2.519   0.792  0.8053 -0.0965  0.7656
  307MPD2    H3 4678   2.997   2.512   1.037 -1.4944 -0.4337 -0.1736
  307MPD2     N 4679   2.791   2.918   1.064 -0.6923  0.2047 -0.6432
  307MPD2    H5 4680   2.757   2.990   1.000 -1.4772 -1.1417 -1.7261
  307MPD2    N1 4681   2.897   2.731   0.637  0.0482 -0.2848 -0.0931
  307MPD2    H7 4682   2.891   2.826   0.602  2.2649  0.5204  1.6877
  308TMC3    C1 4683   2.403   3.035   1.220  0.5704  0.5368 -0.0388
  308TMC3    C2 4684   2.426   3.166   1.194 -0.4894  0.2711  1.0697
  308TMC3    C3 4685   2.548   3.209   1.161 -0.5447  0.0591 -0.0052
  308TMC3    C4 4686   2.510   2.951   1.235  0.2408  0.0071  0.0586
  308TMC3    C5 4687   2.638   3.002   1.216  0.1650 -0.2005 -0.5209
  308TMC3    C6 4688   2.662   3.132   1.166  0.6690 -0.6153  0.4840
  308TMC3     C 4689   2.271   2.975   1.190 -0.5192  0.7520 -0.5585
  308TMC3     O 4690   2.234   2.877   1.251 -0.2095 -0.3581 -0.2194
  308TMC3     H 4691   2.345   3.237   1.182 -0.5374  0.2993  1.5925
  308TMC3    H1 4692   2.480   2.850   1.260 -0.5338  0.2317  0.0471
  308TMC3    H2 4693   2.763   3.166   1.151  0.7110 -3.1631 -5.1882
  308TMC3    C7 4694   2.735   2.898   1.194 -0.5005  0.4467  0.6297
  308TMC3    C8 4695   2.573   3.353   1.184 -0.7373 -0.4575  0.1816
  308TMC3    O1 4696   2.721   2.788   1.240 -0.3666 -0.1104 -0.2311
  308TMC3    O2 4697   2.500   3.414   1.263 -0.4230  0.3871 -0.0768
  309MPD2     C 4698   2.143   3.255  17.370  0.2358  0.0467  0.2912
  309MPD2    C1 4699   2.082   3.204  17.249  0.4771  0.1429  0.4839
  309MPD2    C2 4700   1.951   3.198  17.242  0.0019  0.6363  0.3159
  309MPD2    C3 4701   1.869   3.235  17.349 -0.2693 -0.0609  0.2578
  309MPD2    C4 4702   1.931   3.275  17.468 -0.7791 -0.1964  0.2513
  309MPD2    C5 4703   2.071   3.287  17.476 -0.0947  0.0801  0.1286
  309MPD2     H 4704   1.905   3.173  17.147 -1.1705  1.0846  0.7669
  309MPD2    H1 4705   1.863   3.318  17.541  0.3852 -0.9999  1.8170
  309MPD2    H2 4706   2.250   3.267  17.381  0.4382 -0.3756 -1.1925
  309MPD2    H3 4707   2.118   3.339  17.559  0.3184 -1.9034  1.1279
  309MPD2     N 4708   1.730   3.224  17.345 -0.6076  0.5989  0.8500
  309MPD2    H5 4709   1.677   3.264  17.422 -0.1208  1.1193  0.9176
  309MPD2    N1 4710   2.153   3.193  17.125  0.0572 -0.5562  0.2114
  309MPD2    H7 4711   2.098   3.184  17.040 -2.3724  1.3094  1.6161
  310TMC3    C1 4712   2.354   3.171  16.989 -0.8176 -0.3534 -0.3708
  310TMC3    C2 4713   2.294   3.219  16.873  0.0200  0.3994  0.1107
  310TMC3    C3 4714   2.370   3.232  16.759  0.4379 -0.0085  0.0042
  310TMC3    C4 4715   2.491   3.132  16.991 -0.2796 -0.7137 -0.3193
  310TMC3    C5 4716   2.563   3.141  16.873  0.2406 -0.1285  0.9389
  310TMC3    C6 4717   2.503   3.183  16.761  0.2287 -0.2260  1.0452
  310TMC3     C 4718   2.293   3.197  17.118 -0.1562  0.5133  0.5874
  310TMC3     O 4719   2.378   3.211  17.209 -0.6086  0.2829 -0.2623
  310TMC3     H 4720   2.194   3.257  16.892  0.5203  1.6304  0.3058
  310TMC3    H1 4721   2.537   3.092  17.080  1.9760 -0.2513 -1.2999
  310TMC3    H2 4722   2.565   3.192  16.673  0.7379 -1.3042  1.2996
  310TMC3    C7 4723   2.666   3.047  16.865  0.6478 -0.0029  0.4203
  310TMC3    C8 4724   2.309   3.265  16.640  0.3864  0.0437 -0.0617
  310TMC3    O1 4725   2.660   2.990  16.757  0.4657 -0.1697  0.1386
  310TMC3    O2 4726   2.191   3.241  16.644 -0.0578 -0.0288 -0.3302
  311MPD2     C 4727   4.286   3.358  13.043 -0.2140  0.2860 -0.3983
  311MPD2    C1 4728   4.231   3.486  13.047 -0.4727 -0.0043 -0.5851
  311MPD2    C2 4729   4.106   3.494  13.106  0.7553 -0.2648  0.2024
  311MPD2    C3 4730   4.043   3.394  13.171  0.5079  0.1592  0.1294
  311MPD2    C4 4731   4.104   3.271  13.180  0.2879  0.0371 -0.5146
  311MPD2    C5 4732   4.222   3.257  13.112  0.2502 -0.2329  0.2160
  311MPD2     H 4733   4.056   3.588  13.086 -0.3074 -0.8778  0.0115
  311MPD2    H1 4734   4.066   3.184  13.232  0.6972 -0.6293 -1.3392
  311MPD2    H2 4735   4.380   3.334  12.995  0.1192  0.5345  0.1370
  311MPD2    H3 4736   4.274   3.162  13.105  0.7568 -0.0743  1.6601
  311MPD2     N 4737   3.933   3.429  13.249  1.1142  0.2006  0.8075
  311MPD2    H5 4738   3.897   3.524  13.252 -0.7803 -0.5307  1.3207
  311MPD2    N1 4739   4.295   3.602  13.000 -0.5716  0.1452 -0.0565
  311MPD2    H7 4740   4.242   3.688  13.002  0.5707  0.8037  2.5752
  312TMC3    C1 4741   3.759   3.408  13.408  0.3693  0.1970  0.0617
  312TMC3    C2 4742   3.636   3.354  13.393 -0.3701 -0.2452  0.7828
  312TMC3    C3 4743   3.528   3.433  13.421  0.5379 -0.6579  0.0924
  312TMC3    C4 4744   3.784   3.541  13.443 -0.9306 -0.3273 -0.3838
  312TMC3    C5 4745   3.675   3.605  13.481 -0.1633  0.2921 -0.3543
  312TMC3    C6 4746   3.548   3.554  13.473  0.3745  0.0228  0.0356
  312TMC3     C 4747   3.865   3.337  13.332 -0.6583 -0.3126  0.1258
  312TMC3     O 4748   3.873   3.214  13.343  0.1108 -0.4294 -0.0865
  312TMC3     H 4749   3.618   3.256  13.350 -0.1257 -0.1429  0.4424
  312TMC3    H1 4750   3.886   3.576  13.447 -1.6712  1.6181  1.3321
  312TMC3    H2 4751   3.469   3.621  13.504 -0.7553 -0.9914 -0.6434
  312TMC3    C7 4752   3.683   3.745  13.475  1.2571  0.5457  0.0199
  312TMC3    C8 4753   3.394   3.392  13.383  0.3033 -0.2573  0.0938
  312TMC3    O1 4754   3.604   3.802  13.405 -0.1274 -0.7939 -0.6259
  312TMC3    O2 4755   3.367   3.276  13.367 -0.5617  0.1025  0.0023
  313MPD2     C 4756   3.394   2.703  11.597 -0.1020  0.8193 -0.4107
  313MPD2    C1 4757   3.464   2.773  11.506  0.0456  0.0970  0.0690
  313MPD2    C2 4758   3.541   2.718  11.411 -0.1106  0.5513 -0.3769
  313MPD2    C3 4759   3.531   2.585  11.386  0.3122 -0.5082 -0.5796
  313MPD2    C4 4760   3.456   2.507  11.477 -0.3953 -0.3447 -0.4713
  313MPD2    C5 4761   3.383   2.569  11.574 -0.6285  0.3408  0.2427
  313MPD2     H 4762   3.608   2.776  11.349 -1.4525  0.9705 -1.4466
  313MPD2    H1 4763   3.450   2.399  11.484  4.4647 -0.6452 -0.8355
  313MPD2    H2 4764   3.334   2.750  11.675 -1.1710  0.3125 -0.9352
  313MPD2    H3 4765   3.322   2.512  11.643 -1.5245  0.8750 -0.1105
  313MPD2     N 4766   3.598   2.538  11.275  0.1183  0.3117  0.2690
  313MPD2    H5 4767   3.628   2.599  11.200 -2.1155  0.1358 -0.7799
  313MPD2    N1 4768   3.478   2.914  11.511  0.1118  0.2062  0.1520
  313MPD2    H7 4769   3.540   2.947  11.438 -1.4709 -2.2389 -2.2830
  314TMC3    C1 4770   3.422   3.143  11.533 -0.0163  0.3600  0.6209
  314TMC3    C2 4771   3.554   3.193  11.528  0.1154  0.0047  0.2656
  314TMC3    C3 4772   3.570   3.324  11.487 -0.5563 -0.2627 -0.3835
  314TMC3    C4 4773   3.320   3.227  11.520  0.3439  0.4555  0.0962
  314TMC3    C5 4774   3.341   3.349  11.466  0.4815  0.1603 -0.6554
  314TMC3    C6 4775   3.467   3.399  11.452  0.0739 -0.8447  0.6641
  314TMC3     C 4776   3.384   3.006  11.567 -0.8615 -0.4183  0.2262
  314TMC3     O 4777   3.286   2.991  11.639 -0.3380  0.3127 -0.1455
  314TMC3     H 4778   3.638   3.127  11.545  0.8168  1.0572  0.8935
  314TMC3    H1 4779   3.222   3.181  11.527 -0.0028  0.8472 -2.1183
  314TMC3    H2 4780   3.493   3.500  11.420  0.4957 -0.8509  0.9846
  314TMC3    C7 4781   3.258   3.378  11.356 -0.4446 -0.0032 -0.1097
  314TMC3    C8 4782   3.691   3.393  11.480  0.0323  0.2260  0.0295
  314TMC3    O1 4783   3.144   3.330  11.359  0.1173 -0.3437  0.4938
  314TMC3    O2 4784   3.710   3.468  11.385  0.2996 -0.0609  0.2393
  315MPD2     C 4785   3.512   2.837   0.182  0.2173  0.5025  0.1350
  315MPD2    C1 4786   3.574   2.898   0.293  0.1754  0.0848 -0.4438
  315MPD2    C2 4787   3.614   3.035   0.281 -0.3207 -0.9006 -0.2070
  315MPD2    C3 4788   3.589   3.108   0.164 -0.5157 -0.1282  0.1583
  315MPD2    C4 4789   3.516   3.046   0.069  0.1032  0.3690 -0.5614
  315MPD2    C5 4790   3.480   2.916   0.077 -0.4387 -0.9114 -0.2694
  315MPD2     H 4791   3.668   3.083   0.362  1.2889 -1.0145 -1.2264
  315MPD2    H1 4792   3.486   3.101  17.727 -1.6642 -0.5939 -0.5540
  315MPD2    H2 4793   3.477   2.735   0.185  1.5832  0.0617  1.1674
  315MPD2    H3 4794   3.426   2.865  17.745  0.8940  0.9021 -2.3541
  315MPD2     N 4795   3.637   3.235   0.155  0.1532 -0.8271  0.4034
  315MPD2    H5 4796   3.701   3.266   0.227  1.0061 -1.3297 -0.1445
  315MPD2    N1 4797   3.596   2.831   0.412 -0.4339  0.5322 -0.2923
  315MPD2    H7 4798   3.643   2.885   0.484 -1.7428 -0.4061  1.2522
  316TMC3    C1 4799   3.683   3.456   0.074  0.2381 -0.5178 -0.5554
  316TMC3    C2 4800   3.726   3.488   0.204 -0.8513  0.1080 -0.2542
  316TMC3    C3 4801   3.769   3.620   0.221  0.4251 -0.4847  0.4756
  316TMC3    C4 4802   3.677   3.544  17.719  0.2603 -0.5510 -0.1003
  316TMC3    C5 4803   3.734   3.664  17.733  0.4679  0.6695  1.1855
  316TMC3    C6 4804   3.782   3.702   0.111  0.7147  0.1068 -0.2738
  316TMC3     C 4805   3.626   3.323   0.046 -0.2958  0.4462  0.1622
  316TMC3     O 4806   3.577   3.304  17.684 -0.0875  0.0820 -0.3758
  316TMC3     H 4807   3.716   3.428   0.293 -0.3871 -0.1892 -0.4034
  316TMC3    H1 4808   3.660   3.509  17.618 -0.2968 -0.0242 -0.1876
  316TMC3    H2 4809   3.810   3.805   0.130  0.5611  0.1742 -0.4150
  316TMC3    C7 4810   3.722   3.779  17.639  0.4262 -0.5716 -0.6728
  316TMC3    C8 4811   3.773   3.681   0.347  0.2180  0.8794  0.0652
  316TMC3    O1 4812   3.791   3.876  17.659 -0.1010 -0.0524 -0.1881
  316TMC3    O2 4813   3.739   3.796   0.352  0.0737 -0.0421  0.0239
  317MPD2     C 4814   1.050   0.706  12.196  0.8983  0.6829  0.2617
  317MPD2    C1 4815   1.113   0.589  12.241 -0.0607  0.4732  0.6057
  317MPD2    C2 4816   1.086   0.535  12.368  0.2617 -0.1644 -0.1161
  317MPD2    C3 4817   1.015   0.612  12.456 -0.3724 -0.5806  0.3877
  317MPD2    C4 4818   0.936   0.720  12.410 -0.1955  0.1689  0.2105
  317MPD2    C5 4819   0.963   0.764  12.280  0.1813 -0.0746 -0.0153
  317MPD2     H 4820   1.133   0.444  12.403  2.1514  0.4345 -1.0822
  317MPD2    H1 4821   0.861   0.770  12.469 -0.8841 -1.5976  0.8062
  317MPD2    H2 4822   1.059   0.755  12.100 -0.5195  1.3620  0.4635
  317MPD2    H3 4823   0.910   0.849  12.240  2.0264  1.6491  1.2163
  317MPD2     N 4824   0.998   0.559  12.583  0.6706 -0.7002 -0.6541
  317MPD2    H5 4825   1.052   0.477  12.608 -0.0735 -0.6614  1.0634
  317MPD2    N1 4826   1.196   0.514  12.162  0.5282  0.3298  0.6047
  317MPD2    H7 4827   1.216   0.419  12.190  0.8525  0.6787  1.5581
  318TMC3    C1 4828   0.937   0.525  12.798  0.1788  0.3298  0.5117
  318TMC3    C2 4829   0.910   0.391  12.772  0.4810  0.9209 -0.3606
  318TMC3    C3 4830   0.879   0.312  12.884  1.0335 -0.2912  0.4856
  318TMC3    C4 4831   0.946   0.574  12.928 -0.6108 -0.4830 -0.0634
  318TMC3    C5 4832   0.933   0.478  13.030  0.8529  0.1361  0.4395
  318TMC3    C6 4833   0.898   0.346  13.011  0.1277  0.2870 -0.4318
  318TMC3     C 4834   0.937   0.621  12.689 -0.7156  0.1606 -0.4266
  318TMC3     O 4835   0.890   0.736  12.700  0.3327 -0.5055 -0.3068
  318TMC3     H 4836   0.899   0.356  12.670 -2.5182 -0.5771  0.4756
  318TMC3    H1 4837   0.964   0.680  12.946  3.6633 -1.3182  0.5095
  318TMC3    H2 4838   0.890   0.280  13.097 -1.1291  0.0272 -0.7424
  318TMC3    C7 4839   0.926   0.534  13.168  0.0622 -0.5700 -0.3344
  318TMC3    C8 4840   0.778   0.204  12.864 -0.1550  0.2889 -0.4111
  318TMC3    O1 4841   0.883   0.647  13.184 -0.1498 -0.5737  0.3054
  318TMC3    O2 4842   0.761   0.171  12.748 -0.8271  0.4935 -0.1130
  319MPD2     C 4843   1.873   2.106  16.829 -0.2467  0.2052 -0.2329
  319MPD2    C1 4844   1.752   2.170  16.842  0.3263 -0.4827 -1.2208
  319MPD2    C2 4845   1.675   2.184  16.729 -0.2479  0.5892  0.6428
  319MPD2    C3 4846   1.725   2.137  16.604  0.4215  0.7131  1.0972
  319MPD2    C4 4847   1.858   2.106  16.592 -0.2919 -0.1806 -0.5133
  319MPD2    C5 4848   1.926   2.081  16.707 -0.2013 -0.0231 -0.1840
  319MPD2     H 4849   1.574   2.220  16.742 -0.8499 -1.1301  0.6782
  319MPD2    H1 4850   1.896   2.074  16.496  1.9247  0.0565  0.2949
  319MPD2    H2 4851   1.937   2.088  16.914  0.3637  1.8255 -0.3466
  319MPD2    H3 4852   2.030   2.051  16.698  0.6979  2.5321  1.7590
  319MPD2     N 4853   1.659   2.126  16.482  0.3695 -0.4475  0.9063
  319MPD2    H5 4854   1.699   2.071  16.407 -0.8483  0.5344 -0.4635
  319MPD2    N1 4855   1.711   2.210  16.975 -0.2892  0.1629  0.2294
  319MPD2    H7 4856   1.628   2.268  16.981  0.1270  0.7186  0.5663
  320TMC3    C1 4857   1.480   2.118  16.330 -0.3962 -0.3255 -0.4479
  320TMC3    C2 4858   1.380   2.191  16.267 -0.4468  0.0477  0.2130
  320TMC3    C3 4859   1.337   2.152  16.148 -0.1192  0.1750  0.3493
  320TMC3    C4 4860   1.503   1.986  16.291  0.1553 -0.5171 -0.1254
  320TMC3    C5 4861   1.440   1.940  16.181  0.4551 -0.0658  0.4438
  320TMC3    C6 4862   1.365   2.028  16.097 -0.2353 -0.0578  0.4937
  320TMC3     C 4863   1.529   2.169  16.463  0.0005  0.0424 -0.6286
  320TMC3     O 4864   1.463   2.250  16.534 -0.5616 -0.3467  0.2017
  320TMC3     H 4865   1.351   2.289  16.304  1.6274  0.6643  0.2240
  320TMC3    H1 4866   1.562   1.924  16.358 -1.9331 -2.7904 -0.4232
  320TMC3    H2 4867   1.324   1.993  16.003  1.9043 -0.9360 -0.1078
  320TMC3    C7 4868   1.441   1.797  16.155  0.3807  0.3130 -0.0915
  320TMC3    C8 4869   1.281   2.256  16.059 -0.1795 -0.2192  0.2714
  320TMC3    O1 4870   1.522   1.726  16.210 -0.4068  0.2633  0.4238
  320TMC3    O2 4871   1.315   2.371  16.087  0.6719 -0.0775  0.4825
  321TMC3    C1 4872   1.724   2.264  17.205 -0.3482  0.1410 -0.0965
  321TMC3    C2 4873   1.681   2.225  17.325  0.0458  0.5790 -0.0320
  321TMC3    C3 4874   1.662   2.320  17.418 -0.0797  0.1929  0.3293
  321TMC3    C4 4875   1.739   2.392  17.161 -0.0602 -0.1793  0.0583
  321TMC3    C5 4876   1.714   2.490  17.256  0.2404  0.2454  0.7488
  321TMC3    C6 4877   1.665   2.454  17.381  0.7609  0.4522  0.6201
  321TMC3     C 4878   1.759   2.170  17.095  0.1545  0.3021  0.6879
  321TMC3     O 4879   1.829   2.073  17.114  0.1570 -0.9286  0.4097
  321TMC3     H 4880   1.667   2.120  17.345  0.6914  0.8801  2.0107
  321TMC3    H1 4881   1.794   2.416  17.071 -0.4490 -2.1235 -0.7158
  321TMC3    H2 4882   1.634   2.531  17.450 -0.1207  0.9705 -0.3603
  321TMC3    C7 4883   1.820   2.594  17.277 -0.2720  0.1204 -0.1500
  321TMC3    C8 4884   1.716   2.299  17.554 -0.3477 -0.4441 -0.2396
  321TMC3    O1 4885   1.850   2.678  17.189  0.2912 -0.0854 -0.1718
  321TMC3    O2 4886   1.771   2.398  17.596  0.1335  0.0022 -0.0913
  322MPD2     C 4887   0.219   3.635  13.912  0.2125 -0.1862 -0.3512
  322MPD2    C1 4888   0.224   3.560  14.030  0.5419 -0.2731 -0.0361
  322MPD2    C2 4889   0.228   3.427  14.020  0.9024 -0.0673  0.4727
  322MPD2    C3 4890   0.225   3.361  13.901 -0.3170  0.1190  0.0559
  322MPD2    C4 4891   0.192   3.435  13.784 -0.1860  0.1347 -0.4370
  322MPD2    C5 4892   0.198   3.572  13.789 -0.3659  0.1319 -0.9235
  322MPD2     H 4893   0.260   3.367  14.104  0.7368  1.3383  1.5331
  322MPD2    H1 4894   0.165   3.384  13.693  0.1620 -0.2775 -0.3112
  322MPD2    H2 4895   0.227   3.742  13.923  0.3151 -0.4456  2.0114
  322MPD2    H3 4896   0.182   3.634  13.701 -2.1120 -1.9916 -2.0897
  322MPD2     N 4897   0.245   3.222  13.902  0.4425  0.1424  0.4063
  322MPD2    H5 4898   0.232   3.176  13.992  0.4822  0.2021  0.4424
  322MPD2    N1 4899   0.263   3.618  14.153  0.3749  0.4415 -0.0972
  322MPD2    H7 4900   0.285   3.718  14.159 -1.7041  0.7652  1.8635
  323TMC3    C1 4901   0.354   3.621  14.376  0.6781  0.5695  0.3708
  323TMC3    C2 4902   0.471   3.678  14.339  0.0794 -0.7618  0.3008
  323TMC3    C3 4903   0.569   3.677  14.437  0.7303  0.2206  0.3036
  323TMC3    C4 4904   0.341   3.570  14.505 -0.0271 -0.1603 -0.7908
  323TMC3    C5 4905   0.440   3.581  14.602  0.5970 -0.0417  0.1855
  323TMC3    C6 4906   0.557   3.645  14.569  0.0399 -0.5835 -0.1821
  323TMC3     C 4907   0.275   3.552  14.273 -0.1728 -0.4543 -0.3169
  323TMC3     O 4908   0.229   3.444  14.310  0.0274  0.2393 -0.3118
  323TMC3     H 4909   0.494   3.712  14.239 -1.0662 -1.9724 -0.3731
  323TMC3    H1 4910   0.246   3.521  14.522 -0.4208  0.7202 -0.4087
  323TMC3    H2 4911   0.635   3.654  14.643  0.3680  1.1491 -0.7475
  323TMC3    C7 4912   0.448   3.478  14.705  0.5264 -0.2635 -1.0305
  323TMC3    C8 4913   0.708   3.693  14.407  0.1031 -0.2173  0.0333
  323TMC3    O1 4914   0.396   3.371  14.686  0.0775 -0.0503  0.6230
  323TMC3    O2 4915   0.781   3.660  14.501  0.7023  0.5481 -0.0424
  324MPD2     C 4916   2.546   4.393  14.624 -0.1647  0.3197 -1.0268
  324MPD2    C1 4917   2.529   4.528  14.666  0.2361  1.2115 -0.1407
  324MPD2    C2 4918   2.409   4.595  14.645 -0.6081  0.1319  1.0665
  324MPD2    C3 4919   2.295   4.523  14.615  0.3246 -0.1997  0.2581
  324MPD2    C4 4920   2.313   4.381  14.598 -0.4011  0.1311 -0.0468
  324MPD2    C5 4921   2.434   4.322  14.585 -1.0333 -0.4962 -0.3861
  324MPD2     H 4922   2.398   4.700  14.672 -1.9473  0.3965 -0.5155
  324MPD2    H1 4923   2.237   4.315  14.560 -2.8048  1.4910  2.4189
  324MPD2    H2 4924   2.641   4.344  14.641 -1.4097 -1.2869  1.1994
  324MPD2    H3 4925   2.435   4.217  14.557  2.3164 -0.7909  0.7992
  324MPD2     N 4926   2.165   4.575  14.588  0.9305 -0.0724  0.2853
  324MPD2    H5 4927   2.088   4.510  14.580  0.8031 -0.0196  1.0740
  324MPD2    N1 4928   2.640   4.609  14.710 -0.0701  0.0234  0.1884
  324MPD2    H7 4929   2.620   4.707  14.729 -0.6421  0.0122 -0.3392
  325TMC3    C1 4930   1.991   0.006  14.597 -1.5375 -0.2953 -0.5514
  325TMC3    C2 4931   1.908   4.639  14.624  0.2504  0.8206  0.2200
  325TMC3    C3 4932   1.771   4.664  14.601 -0.0601 -0.3814  0.1839
  325TMC3    C4 4933   1.948   0.133  14.574 -0.6129 -0.4274  0.0682
  325TMC3    C5 4934   1.814   0.147  14.551  0.6308 -0.8526 -0.0863
  325TMC3    C6 4935   1.723   0.050  14.572 -0.1568  0.1379  0.4924
  325TMC3     C 4936   2.137   4.711  14.595 -0.3270 -0.0115  0.2526
  325TMC3     O 4937   2.205   0.078  14.589 -0.1108 -0.0809 -0.2607
  325TMC3     H 4938   1.942   4.546  14.666 -1.0453  0.1549 -0.2013
  325TMC3    H1 4939   2.009   0.220  14.556  0.0594 -0.4409  2.3528
  325TMC3    H2 4940   1.616   0.063  14.586 -0.2658  0.0735 -0.2937
  325TMC3    C7 4941   1.763   0.282  14.565 -0.3275 -0.4145 -0.4013
  325TMC3    C8 4942   1.703   4.551  14.554 -0.8080 -0.4891 -0.0674
  325TMC3    O1 4943   1.838   0.361  14.625  0.2126 -0.1636  0.6458
  325TMC3    O2 4944   1.751   4.439  14.571 -0.3005 -0.4052 -0.1727
  326MPD2     C 4945   3.642   0.487  11.116 -0.0943 -0.3139  0.6098
  326MPD2    C1 4946   3.675   0.471  10.986  0.0862 -0.2020  0.0374
  326MPD2    C2 4947   3.747   0.568  10.925  0.0186  0.4873 -0.1109
  326MPD2    C3 4948   3.798   0.676  10.992  0.4668  0.5737 -0.8842
  326MPD2    C4 4949   3.775   0.684  11.125  0.4978  0.5698  0.3214
  326MPD2    C5 4950   3.702   0.587  11.187  0.4666 -0.0187 -0.4869
  326MPD2     H 4951   3.754   0.561  10.817  0.5720 -0.3055 -0.0237
  326MPD2    H1 4952   3.821   0.764  11.181 -0.6384  0.0819  1.9423
  326MPD2    H2 4953   3.579   0.422  11.175 -0.8907  0.6608  0.8291
  326MPD2    H3 4954   3.699   0.584  11.295  2.0566  2.3381 -0.3630
  326MPD2     N 4955   3.870   0.787  10.933 -0.3544  0.2800  0.3358
  326MPD2    H5 4956   3.905   0.862  10.992  0.5829 -0.9107  1.2690
  326MPD2    N1 4957   3.620   0.370  10.911 -0.2934  0.8111  0.3904
  326MPD2    H7 4958   3.640   0.387  10.813 -0.1360  0.4629  0.3637
  327TMC3    C1 4959   3.474   0.211  10.828 -0.4545 -0.3236 -0.5952
  327TMC3    C2 4960   3.345   0.248  10.804  0.2019  0.4011 -0.2841
  327TMC3    C3 4961   3.314   0.312  10.687 -0.5020 -0.2793 -0.9525
  327TMC3    C4 4962   3.563   0.219  10.724  0.4624 -0.2250 -0.4796
  327TMC3    C5 4963   3.526   0.279  10.599 -0.9412  0.0202  0.3169
  327TMC3    C6 4964   3.399   0.321  10.582 -0.4761  0.0334  0.0431
  327TMC3     C 4965   3.531   0.274  10.951 -0.3729 -0.5774 -0.1473
  327TMC3     O 4966   3.489   0.240  11.057 -0.3997  0.0277 -0.3516
  327TMC3     H 4967   3.267   0.249  10.879 -0.5140 -3.0200 -0.9830
  327TMC3    H1 4968   3.646   0.150  10.720  0.3261 -0.4839  1.1019
  327TMC3    H2 4969   3.362   0.349  10.484  2.2489 -1.4977 -1.4247
  327TMC3    C7 4970   3.638   0.341  10.525  0.0454  0.6508  0.7437
  327TMC3    C8 4971   3.212   0.401  10.689  0.9898 -0.0678  0.1338
  327TMC3    O1 4972   3.611   0.413  10.433  0.5052 -0.1588 -0.0583
  327TMC3    O2 4973   3.113   0.381  10.760  0.1190 -0.2596 -0.2720
  328MPD2     C 4974   1.079   0.783  17.058 -0.0345 -0.5273 -0.1456
  328MPD2    C1 4975   1.001   0.767  16.941 -0.6202  0.6867 -0.0005
  328MPD2    C2 4976   0.986   0.871  16.859  0.0892 -0.5517  0.0882
  328MPD2    C3 4977   1.041   0.995  16.880  0.4070 -0.2750 -0.4899
  328MPD2    C4 4978   1.120   1.015  16.995  0.4994 -0.6238  0.6306
  328MPD2    C5 4979   1.136   0.906  17.082  0.3439 -0.5080 -0.4276
  328MPD2     H 4980   0.916   0.842  16.782  0.7508  0.4781 -0.8864
  328MPD2    H1 4981   1.168   1.110  17.012  0.3303 -0.5320  0.5920
  328MPD2    H2 4982   1.098   0.703  17.130 -1.4740 -2.3063 -1.7422
  328MPD2    H3 4983   1.203   0.925  17.165  0.5260 -0.8073 -0.5089
  328MPD2     N 4984   1.023   1.108  16.794 -0.0439  0.1843 -0.0515
  328MPD2    H5 4985   1.038   1.199  16.836 -0.6120 -0.1108  0.7799
  328MPD2    N1 4986   0.925   0.651  16.916 -0.1059  0.7416  0.2244
  328MPD2    H7 4987   0.867   0.638  16.834  1.7501 -1.1740 -0.8119
  329TMC3    C1 4988   0.819   0.446  16.962 -0.0790 -0.4228  0.5101
  329TMC3    C2 4989   0.697   0.496  16.921 -0.3628 -0.5019 -0.7229
  329TMC3    C3 4990   0.608   0.408  16.871  0.8714 -0.4828  0.3162
  329TMC3    C4 4991   0.849   0.316  16.946 -0.1081  0.5814  0.6365
  329TMC3    C5 4992   0.763   0.233  16.885  0.6323 -0.4792  0.8777
  329TMC3    C6 4993   0.639   0.279  16.833 -0.2816 -0.1703 -0.1146
  329TMC3     C 4994   0.924   0.538  16.999 -0.1225  0.3236 -0.1999
  329TMC3     O 4995   1.001   0.497  17.086 -0.2634  0.1134  0.1954
  329TMC3     H 4996   0.687   0.604  16.931 -0.4824 -0.6902  1.2540
  329TMC3    H1 4997   0.949   0.284  16.971  0.5091  2.3571  0.3732
  329TMC3    H2 4998   0.559   0.222  16.788 -0.5126  0.6391 -0.7286
  329TMC3    C7 4999   0.794   0.094  16.855  0.4142  0.1359 -0.1038
  329TMC3    C8 5000   0.467   0.441  16.867  1.6260  0.1175  0.2529
  329TMC3    O1 5001   0.700   0.025  16.822 -0.0215 -0.5118  0.1178
  329TMC3    O2 5002   0.404   0.378  16.783  0.0603  0.2232 -0.0108
  330TMC3    C1 5003   4.218   4.380   9.706 -0.4740 -0.3271  0.2612
  330TMC3    C2 5004   4.111   4.321   9.638  0.8988  0.4862  0.2707
  330TMC3    C3 5005   4.114   4.186   9.632  0.4904  0.3115  0.2988
  330TMC3    C4 5006   4.303   4.312   9.784 -0.3575 -0.4375  0.2809
  330TMC3    C5 5007   4.281   4.176   9.788 -0.2990  0.1225 -0.0301
  330TMC3    C6 5008   4.189   4.109   9.709 -0.4113 -0.5871  0.7588
  330TMC3     C 5009   4.214   4.520   9.724  0.3352  0.0410 -0.0873
  330TMC3     O 5010   4.249   4.555   9.838 -0.4619  0.2108  0.2001
  330TMC3     H 5011   4.030   4.367   9.583  0.5285 -0.5184 -0.0302
  330TMC3    H1 5012   4.376   4.365   9.845 -0.2690 -1.8527  1.4121
  330TMC3    H2 5013   4.201   4.003   9.692  0.2810 -0.2966 -0.5256
  330TMC3    C7 5014   4.381   4.100   9.867  0.4513  0.4354 -0.6393
  330TMC3    C8 5015   4.001   4.132   9.564 -0.0395  1.1277  0.1381
  330TMC3    O1 5016   4.487   4.155   9.889 -0.0652  0.7825 -0.1836
  330TMC3    O2 5017   3.963   4.181   9.457 -0.3274  0.5469  0.7325
  331MPD2     C 5018   2.257   3.795  12.786  0.0395  0.5077  0.1514
  331MPD2    C1 5019   2.151   3.880  12.769  0.5106 -0.5267 -0.3605
  331MPD2    C2 5020   2.022   3.851  12.820  0.1652 -0.6721 -0.3133
  331MPD2    C3 5021   2.007   3.740  12.897  0.1281 -0.1675  0.3578
  331MPD2    C4 5022   2.118   3.665  12.932  0.6182  0.2633  0.0199
  331MPD2    C5 5023   2.242   3.684  12.867  0.6902  0.2367 -0.3769
  331MPD2     H 5024   1.940   3.918  12.800  1.2718  0.3564 -1.4210
  331MPD2    H1 5025   2.114   3.584  13.004 -3.4373  0.8312  0.4349
  331MPD2    H2 5026   2.355   3.815  12.742  0.4608 -0.9170  0.4196
  331MPD2    H3 5027   2.323   3.620  12.899  1.2271  0.4055 -1.4217
  331MPD2     N 5028   1.873   3.707  12.938  0.7111 -0.4832 -0.2955
  331MPD2    H5 5029   1.801   3.773  12.910 -0.2029 -2.0080 -1.5369
  331MPD2    N1 5030   2.184   3.992  12.688  0.4043  0.1614  0.4471
  331MPD2    H7 5031   2.279   4.000  12.653  0.6827 -0.9200  0.9500
  332TMC3    C1 5032   1.703   3.596  13.066  0.0969  0.2513  0.0901
  332TMC3    C2 5033   1.614   3.617  12.962 -0.1122 -0.3334  0.6315
  332TMC3    C3 5034   1.526   3.521  12.924  0.1806 -0.3727  0.1454
  332TMC3    C4 5035   1.690   3.488  13.145  0.4744 -0.3832  0.7574
  332TMC3    C5 5036   1.613   3.389  13.079  0.2748 -0.4504 -0.2335
  332TMC3    C6 5037   1.526   3.398  12.977 -0.5966 -0.5879  0.7666
  332TMC3     C 5038   1.841   3.606  13.021  0.2077  0.5698 -0.0806
  332TMC3     O 5039   1.908   3.513  13.064 -0.3859  0.5021  0.4317
  332TMC3     H 5040   1.598   3.715  12.920 -1.0262 -1.0655 -0.7176
  332TMC3    H1 5041   1.743   3.469  13.237 -1.7546  1.5696  2.4313
  332TMC3    H2 5042   1.454   3.321  12.955  0.2898 -0.9532 -0.8119
  332TMC3    C7 5043   1.649   3.255  13.113  0.9199 -0.7693  0.2214
  332TMC3    C8 5044   1.482   3.541  12.788 -0.2333 -0.3702 -0.6084
  332TMC3    O1 5045   1.577   3.169  13.072  0.1805 -0.3054  0.0831
  332TMC3    O2 5046   1.547   3.620  12.721 -0.1020 -0.0193  0.3755
  333MPD2     C 5047   2.170   3.412  11.862  0.6206  0.1819  0.3609
  333MPD2    C1 5048   2.105   3.432  11.746 -0.9276  0.3613  0.2157
  333MPD2    C2 5049   1.972   3.384  11.745  0.8774 -0.1727 -0.5655
  333MPD2    C3 5050   1.917   3.315  11.848  0.3485 -0.7313  0.2431
  333MPD2    C4 5051   1.982   3.325  11.968  0.0301 -0.2981 -0.2328
  333MPD2    C5 5052   2.113   3.367  11.980 -0.1532 -0.2574  0.2767
  333MPD2     H 5053   1.930   3.388  11.645 -2.8674  0.9382  1.0559
  333MPD2    H1 5054   1.945   3.285  12.062  0.6863  1.8017  0.9284
  333MPD2    H2 5055   2.270   3.455  11.869  0.1067  1.2719  0.8693
  333MPD2    H3 5056   2.158   3.378  12.078  1.9771  0.4500 -0.7910
  333MPD2     N 5057   1.794   3.248  11.835 -0.0653  0.2332  0.1673
  333MPD2    H5 5058   1.750   3.249  11.743 -1.1356  0.1867  0.6904
  333MPD2    N1 5059   2.165   3.500  11.632 -0.5269  0.2012  0.1258
  333MPD2    H7 5060   2.263   3.518  11.648 -0.4901 -0.6544  0.8919
  334TMC3    C1 5061   2.186   3.593  11.414  0.4236 -0.1228  0.0536
  334TMC3    C2 5062   2.319   3.546  11.410 -0.5416 -0.0533 -0.5695
  334TMC3    C3 5063   2.403   3.617  11.332 -0.1150 -0.1130  0.1067
  334TMC3    C4 5064   2.137   3.697  11.341  0.2933 -0.4361  0.8959
  334TMC3    C5 5065   2.224   3.754  11.248 -0.4385 -0.1996 -0.5710
  334TMC3    C6 5066   2.354   3.723  11.252  0.2604  0.1936  0.3880
  334TMC3     C 5067   2.099   3.545  11.519  0.9347 -0.1385 -0.7397
  334TMC3     O 5068   1.980   3.565  11.509 -0.0222  0.6104 -1.0095
  334TMC3     H 5069   2.359   3.474  11.481 -0.9345  1.7462  1.4678
  334TMC3    H1 5070   2.032   3.722  11.349 -0.1605 -2.0709  0.1692
  334TMC3    H2 5071   2.415   3.778  11.181 -0.0167 -0.5063 -0.3954
  334TMC3    C7 5072   2.188   3.877  11.168  0.6962 -0.5541  0.7606
  334TMC3    C8 5073   2.538   3.606  11.374 -0.3887  0.2525  0.4160
  334TMC3    O1 5074   2.271   3.937  11.103  0.1350 -0.1627  0.0479
  334TMC3    O2 5075   2.559   3.596  11.496 -0.2005  0.9490 -0.0332
  335TMC3    C1 5076   1.749   1.359  17.397  0.0238  0.1906  0.1472
  335TMC3    C2 5077   1.685   1.290  17.294 -0.0744 -1.0942  0.0886
  335TMC3    C3 5078   1.756   1.297  17.175  0.1454  0.3583  0.0973
  335TMC3    C4 5079   1.871   1.427  17.384 -0.3652  0.7389  0.0055
  335TMC3    C5 5080   1.922   1.438  17.258 -0.6946 -0.6487  0.3587
  335TMC3    C6 5081   1.864   1.375  17.156 -0.4279  0.2299 -0.0652
  335TMC3     C 5082   1.687   1.364  17.529  0.0243  0.4875  0.2195
  335TMC3     O 5083   1.585   1.292  17.538  0.4725  0.6167 -0.1698
  335TMC3     H 5084   1.595   1.229  17.304 -0.1762 -1.3723 -2.4839
  335TMC3    H1 5085   1.939   1.443  17.466  0.4737 -0.1636 -0.5126
  335TMC3    H2 5086   1.913   1.388  17.060  0.8182 -1.3580  0.3701
  335TMC3    C7 5087   2.063   1.473  17.247 -0.6555  0.7602  0.8741
  335TMC3    C8 5088   1.729   1.209  17.067  0.2115 -0.6031  0.3735
  335TMC3    O1 5089   2.136   1.406  17.172 -0.3211 -0.0779 -0.4698
  335TMC3    O2 5090   1.788   1.218  16.962  0.2229 -0.1214 -0.3001
  336MPD2     C 5091   1.641   3.405  16.235  0.3609 -0.4389 -0.3318
  336MPD2    C1 5092   1.556   3.358  16.137 -0.7734  0.4264  0.5140
  336MPD2    C2 5093   1.529   3.226  16.124 -0.2035 -0.3258  0.1705
  336MPD2    C3 5094   1.590   3.128  16.198 -0.2621 -1.3754 -0.1472
  336MPD2    C4 5095   1.675   3.181  16.297  0.0844  0.2938 -0.1870
  336MPD2    C5 5096   1.707   3.313  16.319  0.1323  0.4134  0.1350
  336MPD2     H 5097   1.445   3.200  16.061 -1.5631 -0.3965  2.0377
  336MPD2    H1 5098   1.729   3.112  16.361  0.0257  0.0475 -0.4052
  336MPD2    H2 5099   1.648   3.511  16.257 -1.1791 -0.5293  0.6243
  336MPD2    H3 5100   1.762   3.352  16.404  0.1345  0.0150  0.3168
  336MPD2     N 5101   1.574   2.981  16.187 -0.2784  0.2930 -0.5952
  336MPD2    H5 5102   1.612   2.926  16.263  1.9743  1.3675 -0.9542
  336MPD2    N1 5103   1.480   3.439  16.048 -0.6671 -0.0270  0.4254
  336MPD2    H7 5104   1.427   3.394  15.974  2.7047 -0.4178 -1.7564
  337TMC3    C1 5105   1.393   3.621  15.932 -0.1701  0.2565  0.3065
  337TMC3    C2 5106   1.270   3.562  15.914 -0.4423  0.3635 -0.4706
  337TMC3    C3 5107   1.191   3.634  15.823  0.6365  0.0604 -0.1439
  337TMC3    C4 5108   1.440   3.740  15.877 -0.4976 -0.3332  0.0750
  337TMC3    C5 5109   1.349   3.813  15.800 -0.0972 -0.7301 -0.4854
  337TMC3    C6 5110   1.227   3.759  15.773 -0.1412  0.0605 -0.1565
  337TMC3     C 5111   1.478   3.568  16.038  0.3502  0.5345 -0.0746
  337TMC3     O 5112   1.540   3.640  16.112 -0.7109 -0.3823  0.0977
  337TMC3     H 5113   1.238   3.466  15.954  0.0748  0.7693  0.9150
  337TMC3    H1 5114   1.538   3.775  15.908  0.0528 -1.1699 -0.7237
  337TMC3    H2 5115   1.167   3.795  15.690  0.6119 -0.4714 -0.9285
  337TMC3    C7 5116   1.396   3.918  15.710  0.3661  0.1079 -0.2709
  337TMC3    C8 5117   1.059   3.576  15.797  0.3475 -0.2464 -0.3660
  337TMC3    O1 5118   1.327   3.945  15.608  0.0215  0.1776 -0.1174
  337TMC3    O2 5119   1.032   3.475  15.852  0.0962  0.3054 -0.1471
  338MPD2     C 5120   1.278   3.692   0.911 -0.2129  0.1445 -0.5068
  338MPD2    C1 5121   1.262   3.627   0.793 -0.2176  0.2093  0.3715
  338MPD2    C2 5122   1.140   3.613   0.736 -1.0720 -0.4103  0.2835
  338MPD2    C3 5123   1.031   3.657   0.808  0.8354  0.4687 -0.4926
  338MPD2    C4 5124   1.044   3.721   0.935 -0.8088 -0.5542  0.6226
  338MPD2    C5 5125   1.174   3.747   0.986  0.1577  0.4067  0.2443
  338MPD2     H 5126   1.121   3.555   0.646 -0.4256  0.0349 -0.1364
  338MPD2    H1 5127   0.955   3.762   0.981  0.6760  2.9028  0.4671
  338MPD2    H2 5128   1.376   3.720   0.947 -0.0961 -1.9632  0.8046
  338MPD2    H3 5129   1.194   3.807   1.074  0.1460 -1.0244  1.2067
  338MPD2     N 5130   0.908   3.618   0.756  0.4608 -0.3481 -0.1902
  338MPD2    H5 5131   0.915   3.591   0.658 -0.8075 -0.7618 -0.1600
  338MPD2    N1 5132   1.363   3.572   0.719  0.4905 -0.4188  0.6607
  338MPD2    H7 5133   1.328   3.518   0.639 -1.7601  0.1814  1.2428
  339TMC3    C1 5134   0.680   3.577   0.740  0.0088 -0.1294 -0.4944
  339TMC3    C2 5135   0.626   3.452   0.762  0.2394 -0.2683 -0.2583
  339TMC3    C3 5136   0.558   3.387   0.662 -0.0457  0.1252  0.3638
  339TMC3    C4 5137   0.668   3.638   0.618  0.0657 -0.0312 -0.5895
  339TMC3    C5 5138   0.590   3.579   0.522  0.8739  0.6072  0.5735
  339TMC3    C6 5139   0.531   3.455   0.549 -0.1136  0.2262  0.2841
  339TMC3     C 5140   0.795   3.610   0.827  0.1219 -0.0004  0.2551
  339TMC3     O 5141   0.776   3.620   0.945  1.1516 -0.8521 -0.1459
  339TMC3     H 5142   0.641   3.406   0.859  0.9027  0.2850 -0.0945
  339TMC3    H1 5143   0.723   3.725   0.585 -1.4232  1.8925  2.0974
  339TMC3    H2 5144   0.481   3.397   0.472  0.2214  1.4142 -0.8351
  339TMC3    C7 5145   0.620   3.617   0.382  0.5697 -0.0533  0.0250
  339TMC3    C8 5146   0.586   3.250   0.631  0.2895  0.2907 -0.5050
  339TMC3    O1 5147   0.648   3.737   0.360  0.0521 -0.3576 -0.8579
  339TMC3    O2 5148   0.615   3.225   0.512 -0.0601  0.1547  0.4806
  340MPD2     C 5149   2.293   0.702   9.885  0.0147 -0.8098  0.2422
  340MPD2    C1 5150   2.265   0.583   9.949 -0.0631 -0.0564  0.0975
  340MPD2    C2 5151   2.264   0.575  10.082 -0.2963  0.3411 -0.0177
  340MPD2    C3 5152   2.319   0.678  10.154 -0.6169 -0.2321 -0.0610
  340MPD2    C4 5153   2.339   0.801  10.098  0.2622  0.2648 -0.3897
  340MPD2    C5 5154   2.329   0.815   9.958  0.3016 -0.7571 -0.4775
  340MPD2     H 5155   2.225   0.488  10.133 -2.1537 -0.0084 -2.0295
  340MPD2    H1 5156   2.372   0.888  10.154 -1.4765 -0.1834  1.3385
  340MPD2    H2 5157   2.297   0.699   9.777  0.7002 -2.2293  0.3025
  340MPD2    H3 5158   2.335   0.912   9.911 -1.8249 -0.3415  0.0855
  340MPD2     N 5159   2.331   0.678  10.291  0.7428  0.3883 -0.1835
  340MPD2    H5 5160   2.378   0.762  10.323 -0.6152  0.1134  2.5721
  340MPD2    N1 5161   2.246   0.467   9.867  0.3149  0.0948  1.0162
  340MPD2    H7 5162   2.254   0.490   9.768 -1.4223  2.5330  1.4598
  341TMC3    C1 5163   2.240   0.245   9.795 -0.1807 -0.4997  0.1705
  341TMC3    C2 5164   2.167   0.133   9.809 -0.0623 -0.1717 -0.1908
  341TMC3    C3 5165   2.177   0.041   9.710 -0.1106  0.2145 -0.2761
  341TMC3    C4 5166   2.316   0.265   9.686  0.5497 -0.7728 -0.3995
  341TMC3    C5 5167   2.327   0.169   9.593  0.3620  0.0506 -0.5102
  341TMC3    C6 5168   2.261   0.056   9.600 -0.6043 -0.1750 -0.1171
  341TMC3     C 5169   2.234   0.338   9.903  0.3071 -0.3323  0.5892
  341TMC3     O 5170   2.217   0.291  10.019  0.5085 -0.3220 -0.4747
  341TMC3     H 5171   2.091   0.126   9.886 -1.4627  1.9664 -1.3766
  341TMC3    H1 5172   2.361   0.361   9.660  0.6340 -0.6439  0.2376
  341TMC3    H2 5173   2.279   4.716   9.527 -0.7641  2.0975 -2.5436
  341TMC3    C7 5174   2.432   0.188   9.505  0.1577 -0.8041  0.0277
  341TMC3    C8 5175   2.112   4.651   9.739 -0.2559  0.2159  0.7255
  341TMC3    O1 5176   2.399   0.149   9.389 -0.3893 -1.1186  0.1879
  341TMC3    O2 5177   2.072   4.641   9.853  0.5250 -0.0367 -0.0596
  342MPD2     C 5178   4.523   3.730  17.540  0.4042 -0.0256 -0.0690
  342MPD2    C1 5179   4.507   3.759  17.406  0.6282 -0.3505  0.5424
  342MPD2    C2 5180   4.453   3.878  17.358  0.4586  0.2510  0.1095
  342MPD2    C3 5181   4.426   3.979  17.450 -0.2349  0.1018 -0.4042
  342MPD2    C4 5182   4.440   3.957  17.592 -0.7790  0.2915 -0.8492
  342MPD2    C5 5183   4.485   3.831  17.631 -0.2610 -0.2910 -0.1546
  342MPD2     H 5184   4.432   3.890  17.253 -2.2386  2.0049  0.8226
  342MPD2    H1 5185   4.427   4.035  17.666  0.2602 -0.1693 -0.1677
  342MPD2    H2 5186   4.554   3.630  17.568 -0.1633 -0.1081  0.2688
  342MPD2    H3 5187   4.489   3.813  17.737 -0.3827  1.6819  0.1956
  342MPD2     N 5188   4.368   4.107  17.415  0.2293 -0.1291  0.6538
  342MPD2    H5 5189   4.361   4.166  17.497 -0.5610 -0.6823  0.9863
  342MPD2    N1 5190   4.532   3.659  17.306  0.4613  0.0856  0.3792
  342MPD2    H7 5191   4.540   3.693  17.211  2.9387 -1.9208 -0.1308
  343TMC3    C1 5192   4.623   3.464  17.221 -0.0384 -0.9261  0.4728
  343TMC3    C2 5193   0.022   3.480  17.204  0.1032 -0.9113 -0.3090
  343TMC3    C3 5194   0.096   3.369  17.180 -0.0125  0.5284  0.0589
  343TMC3    C4 5195   4.569   3.340  17.223 -0.6253 -0.0862 -0.9040
  343TMC3    C5 5196   4.648   3.228  17.205  0.6293 -0.0017 -0.1595
  343TMC3    C6 5197   0.040   3.244  17.176 -0.4901  0.1223 -0.1724
  343TMC3     C 5198   4.571   3.531  17.334  0.3896  0.8431  0.0587
  343TMC3     O 5199   4.542   3.461  17.430 -0.2225  0.2665  0.4104
  343TMC3     H 5200   0.058   3.581  17.188 -0.5363 -1.0439 -2.5618
  343TMC3    H1 5201   4.465   3.320  17.247 -0.8845  2.1204 -0.2024
  343TMC3    H2 5202   0.111   3.162  17.170 -0.1787  0.4284 -0.6441
  343TMC3    C7 5203   4.593   3.100  17.244  0.5899  0.1416  0.6890
  343TMC3    C8 5204   0.240   3.387  17.151  0.2485  0.2871  0.1128
  343TMC3    O1 5205   4.476   3.082  17.221  0.2412 -0.0642 -0.3681
  343TMC3    O2 5206   0.294   3.481  17.211  0.0690  0.1766  0.1500
  344MPD2     C 5207   0.720   2.896  11.155 -0.6711  0.2514 -0.4257
  344MPD2    C1 5208   0.656   2.852  11.040  0.2054  0.5435  0.0100
  344MPD2    C2 5209   0.687   2.910  10.915  0.3672  0.2058  0.1788
  344MPD2    C3 5210   0.775   3.015  10.909  0.2105  0.2279  0.1237
  344MPD2    C4 5211   0.852   3.041  11.017  0.4534  0.5064 -0.1164
  344MPD2    C5 5212   0.830   2.984  11.140 -0.0913  0.6053 -0.4302
  344MPD2     H 5213   0.647   2.865  10.825 -0.8901 -1.0346  1.3587
  344MPD2    H1 5214   0.926   3.120  11.015  1.1282 -0.2293 -4.5735
  344MPD2    H2 5215   0.697   2.856  11.253  0.6691  1.2875  0.3102
  344MPD2    H3 5216   0.886   3.016  11.227 -0.8957  0.4417  0.1388
  344MPD2     N 5217   0.819   3.082  10.798 -0.5200 -0.9150 -0.3104
  344MPD2    H5 5218   0.901   3.141  10.804 -0.5244 -1.0049  0.7712
  344MPD2    N1 5219   0.553   2.756  11.052  0.2911  0.0950  0.3823
  344MPD2    H7 5220   0.506   2.740  10.964 -0.6196 -0.0749  0.9032
  345TMC3    C1 5221   0.838   3.150  10.574 -0.2197 -0.2258 -0.5705
  345TMC3    C2 5222   0.969   3.163  10.604 -0.3215  0.0278 -0.7858
  345TMC3    C3 5223   1.044   3.270  10.571 -0.2327  0.1274  0.5615
  345TMC3    C4 5224   0.778   3.244  10.494  0.0144  0.0865 -0.3442
  345TMC3    C5 5225   0.851   3.352  10.460  0.4931 -0.8659  0.6891
  345TMC3    C6 5226   0.988   3.364  10.485  0.6606 -0.5166 -0.1209
  345TMC3     C 5227   0.758   3.074  10.672 -0.5221 -0.3752 -0.2111
  345TMC3     O 5228   0.645   3.033  10.640 -0.1697  0.3655 -0.0508
  345TMC3     H 5229   1.016   3.081  10.657 -0.1328 -0.0912 -1.1339
  345TMC3    H1 5230   0.674   3.235  10.466 -0.5671  0.7435  1.5721
  345TMC3    H2 5231   1.033   3.460  10.459  0.5674 -0.3523  0.3114
  345TMC3    C7 5232   0.792   3.465  10.383  1.2763 -0.0110 -0.1251
  345TMC3    C8 5233   1.087   3.320  10.699  0.2939  0.3297 -1.0077
  345TMC3    O1 5234   0.832   3.578  10.414  0.4806  0.1018 -0.0744
  345TMC3    O2 5235   1.023   3.284  10.797 -0.4625 -0.3479 -0.2366
  346MPD2     C 5236   0.506   4.696  14.041  0.3496  0.1675 -0.2561
  346MPD2    C1 5237   0.641   4.724  14.014 -0.5177 -0.4006  0.3532
  346MPD2    C2 5238   0.701   0.071  14.101 -0.2375 -0.8896 -0.2574
  346MPD2    C3 5239   0.639   0.127  14.215  0.0158 -0.1680 -0.0779
  346MPD2    C4 5240   0.515   0.081  14.245 -0.3970  0.0933 -0.1952
  346MPD2    C5 5241   0.442   0.006  14.151  0.2521 -0.3606  0.6967
  346MPD2     H 5242   0.805   0.099  14.087 -0.4204  0.4179  0.9486
  346MPD2    H1 5243   0.474   0.104  14.342  1.1809 -0.1607  0.5319
  346MPD2    H2 5244   0.448   4.641  13.968  0.3575 -1.2891  0.8290
  346MPD2    H3 5245   0.347   4.696  14.174  0.2662 -0.5564  0.3545
  346MPD2     N 5246   0.713   0.210  14.298 -0.7060  0.2956 -0.1076
  346MPD2    H5 5247   0.790   0.252  14.247  0.7852 -0.3883  1.5671
  346MPD2    N1 5248   0.719   4.684  13.903 -0.6410  0.2504 -0.1801
  346MPD2    H7 5249   0.817   4.712  13.905 -1.2154  2.3262 -1.3101
  347TMC3    C1 5250   0.764   0.369  14.451 -0.2572 -0.5077  0.0174
  347TMC3    C2 5251   0.899   0.342  14.430  0.3087 -0.4287  0.5774
  347TMC3    C3 5252   0.986   0.416  14.505  0.9695 -0.2678 -0.2786
  347TMC3    C4 5253   0.725   0.451  14.553 -0.1662  0.1838 -0.0569
  347TMC3    C5 5254   0.818   0.512  14.636 -0.5904 -0.4087  0.3604
  347TMC3    C6 5255   0.953   0.499  14.612 -1.2385  0.2562  0.2239
  347TMC3     C 5256   0.663   0.273  14.409 -0.0513 -0.1567 -0.4288
  347TMC3     O 5257   0.553   0.275  14.468  0.3421 -0.2680 -0.2488
  347TMC3     H 5258   0.936   0.277  14.351  2.2661 -0.2304  1.3219
  347TMC3    H1 5259   0.619   0.470  14.566  0.1442  0.0493  2.8352
  347TMC3    H2 5260   1.026   0.534  14.683 -1.1017  1.7711 -0.6707
  347TMC3    C7 5261   0.769   0.557  14.772 -0.8889  0.2081 -0.7767
  347TMC3    C8 5262   1.119   0.397  14.478 -0.4140 -0.2039 -0.0007
  347TMC3    O1 5263   0.654   0.524  14.788  0.0720 -0.1923 -0.7111
  347TMC3    O2 5264   1.154   0.285  14.452 -0.3808 -0.5580 -0.4291
  348MPD2     C 5265   4.614   4.363  12.060  0.4974  0.5815 -0.5618
  348MPD2    C1 5266   4.535   4.287  11.975 -0.1500 -0.0250 -1.3216
  348MPD2    C2 5267   4.518   4.331  11.846 -0.0411  0.4648  0.1171
  348MPD2    C3 5268   4.573   4.445  11.803 -0.3598  0.2543 -0.4514
  348MPD2    C4 5269   4.656   4.517  11.884  0.1215 -0.2460 -0.3028
  348MPD2    C5 5270   4.670   4.475  12.014 -0.3674 -0.3077  0.3950
  348MPD2     H 5271   4.469   4.264  11.775 -1.8218  1.6222  0.2633
  348MPD2    H1 5272   4.714   4.604  11.855  0.4860  0.0016  1.1851
  348MPD2    H2 5273   4.653   4.341  12.159  1.0301 -3.0677 -1.6064
  348MPD2    H3 5274   4.737   4.532  12.077  0.9231 -1.5174  0.1227
  348MPD2     N 5275   4.564   4.472  11.665  0.1404 -0.1475  0.4458
  348MPD2    H5 5276   4.507   4.413  11.605  1.1506  0.1459 -0.8168
  348MPD2    N1 5277   4.471   4.168  12.014 -0.1544  0.0463  0.4829
  348MPD2    H7 5278   4.436   4.108  11.940 -0.2878 -0.7312  1.1820
  349TMC3    C1 5279   4.373   4.001  12.148  0.0684 -0.2480  0.1861
  349TMC3    C2 5280   4.377   3.920  12.258 -0.1136  0.2849  0.2068
  349TMC3    C3 5281   4.298   3.810  12.257  0.7104 -0.4276 -0.3715
  349TMC3    C4 5282   4.277   3.984  12.049 -0.4609  0.4514 -0.5414
  349TMC3    C5 5283   4.206   3.868  12.056  0.1282 -1.0176  0.0026
  349TMC3    C6 5284   4.211   3.782  12.162  0.8500 -0.2070 -0.2676
  349TMC3     C 5285   4.452   4.120  12.145  0.0512 -0.0532  0.5349
  349TMC3     O 5286   4.480   4.169  12.255  0.3410 -0.5391 -0.6496
  349TMC3     H 5287   4.448   3.939  12.338  0.1564 -0.2725  0.0975
  349TMC3    H1 5288   4.245   4.062  11.981 -1.3715 -1.0251 -1.8009
  349TMC3    H2 5289   4.147   3.694  12.165  0.0493  0.4247  1.4304
  349TMC3    C7 5290   4.093   3.869  11.968  0.2960  0.1615  0.8167
  349TMC3    C8 5291   4.334   3.702  12.347  0.3755 -0.0917 -0.4964
  349TMC3    O1 5292   3.984   3.842  12.014  0.2312  0.6594  0.1250
  349TMC3    O2 5293   4.448   3.712  12.389  0.2625 -0.3459 -0.8569
  350MPD2     C 5294   3.084   2.238  10.635  0.2834  0.9810  0.1449
  350MPD2    C1 5295   3.179   2.143  10.647  0.4801 -0.1702  0.0233
  350MPD2    C2 5296   3.307   2.182  10.692  0.4321 -0.4260 -0.1667
  350MPD2    C3 5297   3.335   2.317  10.718  0.1896 -0.5874  0.2392
  350MPD2    C4 5298   3.236   2.410  10.704  0.1688 -0.5363  1.0276
  350MPD2    C5 5299   3.115   2.366  10.654 -0.0906  0.6070  0.3679
  350MPD2     H 5300   3.385   2.106  10.701  1.4090  0.6722  0.7281
  350MPD2    H1 5301   3.251   2.516  10.719  0.9665 -0.7862  1.9956
  350MPD2    H2 5302   2.987   2.209  10.597  1.5744 -0.0733 -2.3714
  350MPD2    H3 5303   3.036   2.439  10.643 -0.6860 -0.2984 -1.3695
  350MPD2     N 5304   3.468   2.338  10.760  0.1440 -0.2802  0.2204
  350MPD2    H5 5305   3.538   2.264  10.760  0.8602  0.3958  0.8440
  350MPD2    N1 5306   3.161   2.002  10.617  0.0306 -0.4247  0.7008
  350MPD2    H7 5307   3.246   1.948  10.608  0.0381 -0.0788 -1.2770
  351TMC3    C1 5308   3.039   1.799  10.574  0.5032  0.7394  0.3665
  351TMC3    C2 5309   3.139   1.762  10.486 -0.4050 -0.3146 -0.5137
  351TMC3    C3 5310   3.125   1.640  10.414  0.0368  0.5246 -0.6973
  351TMC3    C4 5311   2.929   1.725  10.597  0.1431  0.3134  0.7605
  351TMC3    C5 5312   2.920   1.606  10.526  0.9126  0.1250 -0.2708
  351TMC3    C6 5313   3.016   1.559  10.442 -0.1693 -0.4199 -0.0352
  351TMC3     C 5314   3.037   1.939  10.617 -0.0947  0.2639  0.5943
  351TMC3     O 5315   2.935   1.992  10.660 -0.0848  0.3269 -0.2311
  351TMC3     H 5316   3.201   1.844  10.451 -0.7509  0.3084  0.3419
  351TMC3    H1 5317   2.861   1.738  10.680 -0.9062  2.9472 -0.5101
  351TMC3    H2 5318   2.991   1.469  10.387 -1.2979  0.1969 -0.5496
  351TMC3    C7 5319   2.793   1.540  10.513  0.4059  0.9887  0.2169
  351TMC3    C8 5320   3.214   1.590  10.312 -0.7962 -0.0787  0.2758
  351TMC3    O1 5321   2.781   1.436  10.446  0.2305 -0.6964 -0.4372
  351TMC3    O2 5322   3.162   1.507  10.241  0.4308 -0.3321  0.2321
  352MPD2     C 5323   1.374   0.747   1.413  0.2948 -0.0577 -0.1351
  352MPD2    C1 5324   1.316   0.696   1.297 -0.0653  0.1095 -0.5490
  352MPD2    C2 5325   1.364   0.582   1.238 -0.2354  0.4751 -0.4770
  352MPD2    C3 5326   1.476   0.518   1.294  0.0641  0.3886  0.0330
  352MPD2    C4 5327   1.533   0.573   1.402 -0.6228 -0.1397  0.1957
  352MPD2    C5 5328   1.479   0.685   1.465  0.3561  0.6011 -0.0818
  352MPD2     H 5329   1.307   0.532   1.160  1.2374 -0.8883 -0.6660
  352MPD2    H1 5330   1.618   0.528   1.453 -1.2269 -1.2933  0.1870
  352MPD2    H2 5331   1.345   0.838   1.463  1.2577  0.2376 -0.1109
  352MPD2    H3 5332   1.516   0.726   1.558 -1.3689 -0.4129  1.0454
  352MPD2     N 5333   1.515   0.383   1.249  0.0244 -0.0678  0.0158
  352MPD2    H5 5334   1.573   0.328   1.312 -0.1199  0.6541  0.7822
  352MPD2    N1 5335   1.213   0.772   1.240  0.2185  0.1049  0.0388
  352MPD2    H7 5336   1.177   0.844   1.302 -0.4595 -0.7773  0.6800
  353TMC3    C1 5337   1.492   0.178   1.139 -0.4007  0.1072  0.8927
  353TMC3    C2 5338   1.622   0.144   1.162  0.2780 -0.1720  0.0447
  353TMC3    C3 5339   1.662   0.024   1.133  0.8517  0.0409  0.3560
  353TMC3    C4 5340   1.397   0.088   1.092 -1.0360 -0.2893 -0.6205
  353TMC3    C5 5341   1.447   4.698   1.072 -0.1986  1.0338 -0.2955
  353TMC3    C6 5342   1.573   4.654   1.109 -0.6443 -0.1006 -0.1187
  353TMC3     C 5343   1.461   0.313   1.147 -0.1631 -0.5403  0.4771
  353TMC3     O 5344   1.392   0.351   1.055  0.3695 -0.2920  0.1732
  353TMC3     H 5345   1.707   0.211   1.174  0.6113 -0.6737  0.4852
  353TMC3    H1 5346   1.295   0.110   1.065 -0.7615  1.1554 -0.4723
  353TMC3    H2 5347   1.601   4.554   1.076 -2.5409 -1.6016  2.8338
  353TMC3    C7 5348   1.374   4.603   0.991 -0.3532  0.6695 -0.2212
  353TMC3    C8 5349   1.794   0.011   1.082 -0.0007  0.0193  0.1637
  353TMC3    O1 5350   1.415   4.484   0.991  1.1045  0.1119  0.4582
  353TMC3    O2 5351   1.854   0.109   1.037 -0.3394  0.1000 -0.5516
  354TMC3    C1 5352   2.987   1.091  13.474 -0.1966 -1.2379 -0.5256
  354TMC3    C2 5353   2.895   1.187  13.427 -0.9030 -0.8878 -0.2821
  354TMC3    C3 5354   2.895   1.214  13.297 -0.3136  0.2017 -0.6454
  354TMC3    C4 5355   3.087   1.036  13.401  0.4290 -0.3206  0.2189
  354TMC3    C5 5356   3.080   1.079  13.267  0.6807 -0.0284 -0.3213
  354TMC3    C6 5357   2.982   1.160  13.215 -0.8098 -0.0242 -0.1721
  354TMC3     C 5358   3.001   1.097  13.616 -0.4850  0.1774  0.2721
  354TMC3     O 5359   2.903   1.105  13.690 -0.1108 -0.0691 -0.5237
  354TMC3     H 5360   2.823   1.230  13.496  0.7363  0.3509  0.6641
  354TMC3    H1 5361   3.121   0.936  13.423  1.3726 -0.3075 -1.1588
  354TMC3    H2 5362   2.986   1.181  13.108 -1.2862  1.0775  0.0277
  354TMC3    C7 5363   3.144   0.986  13.173  1.5007 -0.8606 -1.3015
  354TMC3    C8 5364   2.827   1.340  13.254 -0.1646  1.1343  0.3652
  354TMC3    O1 5365   3.073   0.942  13.084  0.4396  0.2012 -0.4843
  354TMC3    O2 5366   2.766   1.412  13.332  0.2091  0.2916 -0.3819
  355MPD2     C 5367   4.068   1.203  11.888  0.4013 -0.2859 -0.4797
  355MPD2    C1 5368   4.164   1.282  11.837  0.9132  0.8019  0.5739
  355MPD2    C2 5369   4.281   1.292  11.913  0.0843  0.1664  0.2854
  355MPD2    C3 5370   4.310   1.233  12.033 -0.5110 -0.4243 -0.5692
  355MPD2    C4 5371   4.210   1.150  12.087 -0.2272  0.2569 -0.6005
  355MPD2    C5 5372   4.094   1.150  12.018 -0.0606 -0.6798  0.0292
  355MPD2     H 5373   4.354   1.360  11.870  0.9854 -0.2876  1.1094
  355MPD2    H1 5374   4.215   1.094  12.180  0.0855 -0.0863 -0.8242
  355MPD2    H2 5375   3.974   1.185  11.838 -0.2650  1.7118  0.0476
  355MPD2    H3 5376   4.017   1.085  12.058  1.4941 -2.3542  0.3392
  355MPD2     N 5377   4.422   1.284  12.096  0.3871  0.3022  0.0219
  355MPD2    H5 5378   4.459   1.365  12.046 -0.4929  0.4105 -0.4467
  355MPD2    N1 5379   4.134   1.356  11.717 -0.0643 -0.0033 -0.4286
  355MPD2    H7 5380   4.038   1.348  11.684  0.0001 -0.7213 -0.4441
  356TMC3    C1 5381   4.511   1.370  12.294 -0.1148  0.2988 -0.1001
  356TMC3    C2 5382   4.578   1.445  12.203 -0.1950  0.4355  0.0231
  356TMC3    C3 5383   4.556   1.575  12.190  0.3349  0.1378 -0.4833
  356TMC3    C4 5384   4.437   1.435  12.392  0.0547 -0.1136  0.4138
  356TMC3    C5 5385   4.422   1.573  12.389  0.2749  0.6917 -0.0935
  356TMC3    C6 5386   4.473   1.643  12.278 -0.2112  0.1338 -0.6000
  356TMC3     C 5387   4.446   1.260  12.226  0.4051  0.4150  0.1420
  356TMC3     O 5388   4.397   1.181  12.306  1.0425 -0.0338  0.1221
  356TMC3     H 5389   4.658   1.400  12.145 -1.5287 -2.3682  0.3388
  356TMC3    H1 5390   4.406   1.374  12.476 -1.1750  0.2135  0.1998
  356TMC3    H2 5391   4.448   1.745  12.252 -0.2019 -0.1874 -1.8380
  356TMC3    C7 5392   4.391   1.640  12.515  0.0010 -0.2416 -0.2701
  356TMC3    C8 5393   4.563   1.614  12.049  0.1105 -0.6468  0.4268
  356TMC3    O1 5394   4.356   1.566  12.607 -0.7942  0.0755  0.1661
  356TMC3    O2 5395   4.548   1.521  11.972  0.1643 -0.2010  0.0928
  357MPD2     C 5396   3.196   2.015   0.048 -0.1014 -0.3704 -0.9221
  357MPD2    C1 5397   3.227   1.895   0.112 -1.0965 -0.2425  0.4205
  357MPD2    C2 5398   3.222   1.884   0.244 -0.9237  0.3878 -0.1536
  357MPD2    C3 5399   3.181   1.990   0.323 -0.2081  0.0389 -0.2443
  357MPD2    C4 5400   3.154   2.114   0.268 -0.4600 -0.4149 -0.4554
  357MPD2    C5 5401   3.169   2.120   0.132 -0.4900  0.0726 -0.1181
  357MPD2     H 5402   3.212   1.784   0.284 -2.0606  1.6716  2.7502
  357MPD2    H1 5403   3.124   2.206   0.317 -0.8127 -0.8128  0.0811
  357MPD2    H2 5404   3.209   2.034  17.690  1.4325 -1.3756 -0.9094
  357MPD2    H3 5405   3.155   2.220   0.092 -1.8807 -1.2952 -3.0611
  357MPD2     N 5406   3.139   1.980   0.456 -0.1128 -0.1533  0.2155
  357MPD2    H5 5407   3.107   2.069   0.493 -1.0709 -0.3555 -0.1513
  357MPD2    N1 5408   3.256   1.780   0.027  0.9419  0.2383  0.0330
  357MPD2    H7 5409   3.232   1.799  17.678  0.9246  2.7664  0.5178
  358TMC3    C1 5410   3.303   1.563  17.713  0.5818  0.7517 -0.0514
  358TMC3    C2 5411   3.197   1.551  17.634  0.3976 -0.0083  1.0302
  358TMC3    C3 5412   3.188   1.443  17.554 -0.2725  0.0013 -0.0589
  358TMC3    C4 5413   3.411   1.476  17.704  0.1711  0.2318  0.3377
  358TMC3    C5 5414   3.400   1.380  17.600  0.5055 -1.4195  0.5270
  358TMC3    C6 5415   3.288   1.355  17.535 -0.5620 -0.1226  0.3594
  358TMC3     C 5416   3.318   1.667   0.065 -0.1830  0.6800 -0.2850
  358TMC3     O 5417   3.377   1.644   0.166 -0.1246  0.0313 -0.4532
  358TMC3     H 5418   3.109   1.614  17.642 -1.1382 -1.9458 -0.6584
  358TMC3    H1 5419   3.497   1.503   0.016 -0.4389  2.0528  0.3919
  358TMC3    H2 5420   3.285   1.284  17.453 -2.1790  0.8301 -0.3957
  358TMC3    C7 5421   3.497   1.272  17.615  0.2968  0.2307  0.9064
  358TMC3    C8 5422   3.053   1.405  17.525 -0.3527 -0.0060 -0.3894
  358TMC3    O1 5423   3.616   1.304  17.624 -0.1745 -0.2143 -0.6460
  358TMC3    O2 5424   2.968   1.484  17.555 -0.6257 -0.1400  0.9195
  359MPD2     C 5425   3.489   0.373  12.128 -0.5149  0.6183 -0.3263
  359MPD2    C1 5426   3.506   0.245  12.166  0.2874  0.3044  0.7200
  359MPD2    C2 5427   3.427   0.185  12.261  0.4025 -0.2384  0.3066
  359MPD2    C3 5428   3.341   0.260  12.337 -0.4119 -0.2927 -0.2032
  359MPD2    C4 5429   3.330   0.397  12.308 -0.0492  0.0631 -0.1808
  359MPD2    C5 5430   3.399   0.445  12.201  0.1067 -0.3612 -0.0763
  359MPD2     H 5431   3.453   0.082  12.282  0.2590  0.0481  1.8649
  359MPD2    H1 5432   3.253   0.462  12.349 -0.1274  0.2761 -0.6719
  359MPD2    H2 5433   3.546   0.414  12.045 -0.0420 -2.5114 -1.5345
  359MPD2    H3 5434   3.381   0.546  12.164 -1.2137 -0.9489 -1.0334
  359MPD2     N 5435   3.268   0.203  12.445 -0.3317  0.0562  0.2952
  359MPD2    H5 5436   3.214   0.269  12.500  2.4558  2.5394  0.0268
  359MPD2    N1 5437   3.612   0.176  12.090  0.1003 -0.0478 -0.1265
  359MPD2    H7 5438   3.670   0.230  12.026 -1.7720  0.5593 -1.3157
  360TMC3    C1 5439   3.786   0.022  12.047  0.3931  0.1332  0.5835
  360TMC3    C2 5440   3.885   4.703  12.124 -0.1575  0.3103  0.5603
  360TMC3    C3 5441   4.013   4.733  12.091  0.1256 -0.1539  0.1231
  360TMC3    C4 5442   3.811   0.085  11.924  0.0051  0.0090 -0.7515
  360TMC3    C5 5443   3.939   0.097  11.883 -0.7806 -0.1923  1.2995
  360TMC3    C6 5444   4.038   0.046  11.966 -0.2364 -0.1040 -0.0999
  360TMC3     C 5445   3.661   0.048  12.116 -0.4524  0.0720 -0.2747
  360TMC3     O 5446   3.625   4.697  12.193  0.7536 -0.0387  0.4491
  360TMC3     H 5447   3.859   4.663  12.221  1.5184 -0.7792  0.5569
  360TMC3    H1 5448   3.731   0.116  11.857 -1.5686 -0.8291  0.7632
  360TMC3    H2 5449   4.139   0.058  11.927 -0.8911  0.7229 -1.5150
  360TMC3    C7 5450   3.977   0.140  11.752  0.4617 -0.6133  0.3297
  360TMC3    C8 5451   4.116   4.717  12.195  0.2667 -1.1306 -0.5552
  360TMC3    O1 5452   4.092   0.157  11.727 -0.1296  0.7914  0.3644
  360TMC3    O2 5453   4.074   4.707  12.311  0.5240  0.3238  0.0851
  361MPD2     C 5454   0.524   4.361  17.047  0.4844 -0.3675 -0.1199
  361MPD2    C1 5455   0.574   4.485  17.028 -0.1452  0.5184 -0.8890
  361MPD2    C2 5456   0.712   4.504  17.044  0.7311 -0.1612  0.5669
  361MPD2    C3 5457   0.796   4.394  17.072 -0.3824  0.4813 -0.4474
  361MPD2    C4 5458   0.742   4.267  17.089 -0.2897  0.2788 -0.2074
  361MPD2    C5 5459   0.604   4.251  17.081  0.0998 -0.0927 -0.7920
  361MPD2     H 5460   0.748   4.604  17.020 -0.7565  0.8573  2.6040
  361MPD2    H1 5461   0.802   4.178  17.104  0.6076  0.6158 -1.8637
  361MPD2    H2 5462   0.418   4.339  17.037  0.1998  1.3314 -0.8700
  361MPD2    H3 5463   0.551   4.158  17.098 -0.0636  0.2588  0.6362
  361MPD2     N 5464   0.934   4.406  17.066  0.4666 -0.1064 -0.3340
  361MPD2    H5 5465   0.991   4.322  17.061  1.6697  0.3967  4.9003
  361MPD2    N1 5466   0.493   4.601  17.017  0.5404  0.3185  0.0613
  361MPD2    H7 5467   0.537   4.693  17.019  1.7453 -0.2850  1.1052
  362TMC3    C1 5468   0.309   4.730  16.961 -0.3717  0.3780  0.1765
  362TMC3    C2 5469   0.319   0.084  17.066 -1.3842  0.5920  0.4606
  362TMC3    C3 5470   0.243   0.198  17.064 -0.2833 -1.1158 -0.1758
  362TMC3    C4 5471   0.237   0.016  16.850  0.5271 -0.3332 -0.0977
  362TMC3    C5 5472   0.163   0.132  16.849  0.0683  0.3097 -0.0374
  362TMC3    C6 5473   0.156   0.223  16.959  0.4813  0.1580 -0.8248
  362TMC3     C 5474   0.358   4.595  16.983 -0.2109 -0.0767 -0.0238
  362TMC3     O 5475   0.287   4.510  16.932  0.1781 -0.4062  0.2714
  362TMC3     H 5476   0.364   0.059  17.162  1.5603 -1.8757 -1.5127
  362TMC3    H1 5477   0.245   4.693  16.760 -3.2779 -1.7807  0.5574
  362TMC3    H2 5478   0.099   0.316  16.952  0.6544  0.3430  0.2930
  362TMC3    C7 5479   0.107   0.170  16.720 -0.2044 -0.1812 -0.3593
  362TMC3    C8 5480   0.268   0.294  17.173 -0.0841 -0.3372 -0.6350
  362TMC3    O1 5481   0.103   0.290  16.703 -0.3197  0.0898 -0.6540
  362TMC3    O2 5482   0.372   0.299  17.236 -0.2773 -0.1953  0.1939
  363TMC3    C1 5483   3.821   1.295   9.329 -0.2781 -0.0059 -0.3846
  363TMC3    C2 5484   3.947   1.313   9.369  0.1910  0.0256 -0.1403
  363TMC3    C3 5485   3.970   1.426   9.449  0.1775  1.1858  0.2805
  363TMC3    C4 5486   3.723   1.390   9.351  0.0808 -0.0235  1.0230
  363TMC3    C5 5487   3.755   1.507   9.412 -0.3103 -0.1884  0.5168
  363TMC3    C6 5488   3.878   1.528   9.465  1.1514  0.4114 -0.1179
  363TMC3     C 5489   3.806   1.182   9.233  0.2252  0.2358 -0.6409
  363TMC3     O 5490   3.896   1.099   9.212  0.3506 -0.4799 -0.1598
  363TMC3     H 5491   4.019   1.235   9.344  0.4891  0.4405 -0.5813
  363TMC3    H1 5492   3.627   1.370   9.306  1.4854  0.4416 -2.1453
  363TMC3    H2 5493   3.902   1.623   9.511 -1.8263  0.3370  1.6198
  363TMC3    C7 5494   3.640   1.588   9.459  0.4289  1.1136  0.5462
  363TMC3    C8 5495   4.101   1.444   9.506  0.3203  0.4227  0.0420
  363TMC3    O1 5496   3.659   1.668   9.548 -0.2809 -0.4478  0.1912
  363TMC3    O2 5497   4.133   1.542   9.568 -0.0138 -0.6734  0.3450
  364MPD2     C 5498   3.101   0.898  10.682 -0.3062 -0.5571  0.0726
  364MPD2    C1 5499   3.231   0.874  10.646  0.1619  0.2808 -0.1327
  364MPD2    C2 5500   3.272   0.747  10.612  0.1827 -0.2642  0.0924
  364MPD2    C3 5501   3.188   0.643  10.632  0.3432  0.5003  0.0337
  364MPD2    C4 5502   3.051   0.663  10.662  0.0370  0.1938 -0.3050
  364MPD2    C5 5503   3.009   0.791  10.692 -0.3325 -0.0191  0.6909
  364MPD2     H 5504   3.368   0.717  10.571 -1.1856 -1.8230 -2.0419
  364MPD2    H1 5505   2.984   0.581  10.684  0.8105 -0.4712 -0.4611
  364MPD2    H2 5506   3.062   0.994  10.712 -2.1235 -1.8582  1.9540
  364MPD2    H3 5507   2.903   0.804  10.713 -0.1907  0.3649  1.1527
  364MPD2     N 5508   3.252   0.513  10.627 -0.4765  0.5716 -0.5035
  364MPD2    H5 5509   3.344   0.513  10.584 -0.3195 -0.5849 -0.1773
  364MPD2    N1 5510   3.324   0.981  10.632 -0.3234 -0.7307 -0.0161
  364MPD2    H7 5511   3.299   1.065  10.683  0.2054  0.1584 -1.2228
  365TMC3    C1 5512   3.512   1.113  10.580  0.4754  0.6541 -0.3450
  365TMC3    C2 5513   3.638   1.112  10.527 -0.2533  0.0060  0.1736
  365TMC3    C3 5514   3.683   1.229  10.463  0.1490  0.0972  0.2526
  365TMC3    C4 5515   3.436   1.233  10.583  0.0054 -0.1908  0.1910
  365TMC3    C5 5516   3.494   1.348  10.536 -0.0831 -0.9626  0.2237
  365TMC3    C6 5517   3.617   1.347  10.475  0.7660 -0.0437  0.1001
  365TMC3     C 5518   3.449   0.983  10.586 -0.4380  0.3685  0.1326
  365TMC3     O 5519   3.510   0.888  10.544  0.1798 -0.4420 -0.2090
  365TMC3     H 5520   3.692   1.018  10.535  0.4784  0.4015 -0.1315
  365TMC3    H1 5521   3.332   1.227  10.612 -0.1429 -1.0466 -0.5027
  365TMC3    H2 5522   3.656   1.438  10.431 -0.5926  0.9623  0.9608
  365TMC3    C7 5523   3.480   1.469  10.612 -0.5593 -0.0234 -0.1458
  365TMC3    C8 5524   3.785   1.209  10.361 -0.5647  0.6231  0.3994
  365TMC3    O1 5525   3.545   1.566  10.583 -0.1287 -0.3464  0.0818
  365TMC3    O2 5526   3.848   1.302  10.314 -0.2831 -0.3727 -0.0850
  366MPD2     C 5527   0.774   2.608  15.191 -0.5287 -0.2705  0.1795
  366MPD2    C1 5528   0.896   2.654  15.246  0.0893 -0.1579 -0.1313
  366MPD2    C2 5529   1.015   2.586  15.219  0.2584 -0.0811 -0.1797
  366MPD2    C3 5530   1.016   2.481  15.131 -0.4821  0.1881 -0.7578
  366MPD2    C4 5531   0.900   2.434  15.077  0.4123  0.4799 -0.4608
  366MPD2    C5 5532   0.782   2.501  15.100  0.2012  0.2543 -0.0682
  366MPD2     H 5533   1.101   2.625  15.272  0.0267  0.1332  0.0324
  366MPD2    H1 5534   0.884   2.343  15.022 -2.3764  0.5606  0.2514
  366MPD2    H2 5535   0.681   2.662  15.199 -0.0263  0.5496  0.4796
  366MPD2    H3 5536   0.685   2.472  15.061  0.3645  0.4493 -0.6166
  366MPD2     N 5537   1.139   2.418  15.112  0.1535 -0.4863  0.8129
  366MPD2    H5 5538   1.220   2.450  15.163  0.6534 -0.7584  0.1932
  366MPD2    N1 5539   0.916   2.772  15.319  0.2978  0.2334  0.4166
  366MPD2    H7 5540   1.011   2.790  15.351  0.3079 -0.5015  0.8096
  367TMC3    C1 5541   0.848   2.972  15.443  0.5114  0.3463  0.6237
  367TMC3    C2 5542   0.976   2.986  15.477  0.3846 -0.1587  0.2763
  367TMC3    C3 5543   1.013   3.106  15.511 -0.3817  0.4162 -0.2521
  367TMC3    C4 5544   0.756   3.071  15.451 -0.3818  0.0708 -0.3224
  367TMC3    C5 5545   0.798   3.197  15.476  0.1699 -0.5586 -0.0709
  367TMC3    C6 5546   0.928   3.210  15.511  0.6369 -0.9213  0.1784
  367TMC3     C 5547   0.814   2.855  15.366  0.1824  0.0376  0.0136
  367TMC3     O 5548   0.691   2.838  15.356 -0.6989  0.3780  0.4229
  367TMC3     H 5549   1.045   2.902  15.474 -1.8623 -1.9821  0.0760
  367TMC3    H1 5550   0.656   3.047  15.417 -0.4989 -1.7071  1.2261
  367TMC3    H2 5551   0.961   3.308  15.540 -1.8358  0.3706 -1.3693
  367TMC3    C7 5552   0.713   3.309  15.448  0.1541  0.0846 -0.2793
  367TMC3    C8 5553   1.143   3.116  15.572  0.8057 -0.5126  0.0703
  367TMC3    O1 5554   0.776   3.408  15.411 -0.3620 -0.5552 -0.8445
  367TMC3    O2 5555   1.208   3.016  15.591  0.1885  0.3671  0.0136
  368MPD2     C 5556   2.759   3.839  13.631  0.3012  0.0285 -0.2045
  368MPD2    C1 5557   2.780   3.898  13.513 -0.1972 -0.6650  0.0687
  368MPD2    C2 5558   2.901   3.961  13.482 -0.1995 -0.0983  0.4860
  368MPD2    C3 5559   3.001   3.948  13.578 -0.7451  0.0266 -0.5468
  368MPD2    C4 5560   2.977   3.894  13.704  0.4480 -0.1238  0.8662
  368MPD2    C5 5561   2.852   3.839  13.731  0.4234  0.3962  0.9065
  368MPD2     H 5562   2.906   4.028  13.398  1.5170  0.5761  1.1271
  368MPD2    H1 5563   3.050   3.906  13.783 -0.3798 -0.5259  1.6888
  368MPD2    H2 5564   2.665   3.789  13.652 -0.0146  1.9817  3.0336
  368MPD2    H3 5565   2.829   3.802  13.830  0.0733 -1.3883  0.1646
  368MPD2     N 5566   3.129   4.005  13.558  0.2659  0.3647 -0.1373
  368MPD2    H5 5567   3.193   4.008  13.637 -0.2676  0.6232  0.2891
  368MPD2    N1 5568   2.675   3.904  13.431  0.2601 -0.5763  0.7404
  368MPD2    H7 5569   2.585   3.866  13.460 -0.3444  0.1914 -0.0960
  369TMC3    C1 5570   2.563   3.928  13.225 -0.2056 -0.9485 -0.6654
  369TMC3    C2 5571   2.568   3.979  13.094 -0.3069 -0.3733  0.2490
  369TMC3    C3 5572   2.446   4.009  13.036  0.2735  0.1621 -0.6325
  369TMC3    C4 5573   2.444   3.898  13.293  0.3246  0.3780 -0.7687
  369TMC3    C5 5574   2.329   3.916  13.224 -0.4200  0.9703 -0.3974
  369TMC3    C6 5575   2.330   3.966  13.096 -0.5261 -0.2996 -1.0059
  369TMC3     C 5576   2.685   3.945  13.298 -0.1245  0.1094  0.4694
  369TMC3     O 5577   2.787   3.966  13.230 -0.0990 -0.3834  0.4014
  369TMC3     H 5578   2.663   3.996  13.046 -0.6281 -1.3308 -0.7171
  369TMC3    H1 5579   2.424   3.870  13.396 -0.0992  1.9209 -0.4368
  369TMC3    H2 5580   2.236   3.992  13.048 -1.1708  2.8879  2.0119
  369TMC3    C7 5581   2.205   3.874  13.283 -0.2887  0.3742 -0.2541
  369TMC3    C8 5582   2.444   4.081  12.908  0.3866  0.2547  0.2770
  369TMC3    O1 5583   2.206   3.794  13.375 -0.9907  0.2454 -0.0205
  369TMC3    O2 5584   2.355   4.163  12.892  1.1951 -0.4486 -0.4260
  370TMC3    C1 5585   2.065   0.740  16.227 -0.3972  0.3208 -0.4890
  370TMC3    C2 5586   1.975   0.668  16.305 -0.1307 -0.1803  0.4805
  370TMC3    C3 5587   1.930   0.545  16.265  0.2884 -0.6558 -0.0864
  370TMC3    C4 5588   2.124   0.679  16.121 -0.6085 -0.0523  0.4137
  370TMC3    C5 5589   2.082   0.557  16.079  0.4927  0.4632  0.0307
  370TMC3    C6 5590   1.983   0.488  16.147 -0.4981 -0.5021 -0.1109
  370TMC3     C 5591   2.123   0.850  16.296 -0.4293  0.0229 -0.2621
  370TMC3     O 5592   2.135   0.835  16.416 -0.0746  0.2604  0.7280
  370TMC3     H 5593   1.937   0.716  16.394 -1.1708 -0.6678  0.2989
  370TMC3    H1 5594   2.200   0.724  16.058 -0.5114 -1.0128 -0.1450
  370TMC3    H2 5595   1.934   0.401  16.105 -1.0162  0.6445 -1.8902
  370TMC3    C7 5596   2.169   0.483  15.982 -0.2211 -0.2085 -0.6486
  370TMC3    C8 5597   1.877   0.449  16.368  0.0925 -0.5134  0.6903
  370TMC3    O1 5598   2.242   0.545  15.905  0.1250 -0.4157 -0.3610
  370TMC3    O2 5599   1.893   0.331  16.347 -0.0759 -0.0321  0.0381
  371TMC3    C1 5600   3.162   3.469  15.630 -0.5089  0.3499 -0.1284
  371TMC3    C2 5601   3.071   3.475  15.735 -0.1823  0.0013 -0.0833
  371TMC3    C3 5602   3.010   3.592  15.763 -0.2483  0.1765 -0.2169
  371TMC3    C4 5603   3.187   3.589  15.564  0.1037  0.0686 -0.0717
  371TMC3    C5 5604   3.137   3.706  15.605  0.3373 -0.4100  0.8309
  371TMC3    C6 5605   3.029   3.708  15.689 -0.1677 -0.2054 -0.1877
  371TMC3     C 5606   3.283   3.396  15.656 -0.0867  0.4929 -0.0772
  371TMC3     O 5607   3.384   3.466  15.642 -0.2066 -0.4996 -0.5547
  371TMC3     H 5608   3.058   3.395  15.806 -0.5783  0.5695  0.4847
  371TMC3    H1 5609   3.277   3.593  15.503  0.3241  1.0572  0.3097
  371TMC3    H2 5610   2.989   3.805  15.717  1.0368  0.2710 -0.0943
  371TMC3    C7 5611   3.232   3.814  15.612 -0.6282  0.6767  0.6658
  371TMC3    C8 5612   2.978   3.607  15.903  0.4799  0.6433 -0.6517
  371TMC3    O1 5613   3.183   3.928  15.607 -0.2199  0.0537 -0.6585
  371TMC3    O2 5614   3.047   3.545  15.978 -0.1167 -0.0387  0.2116
  372MPD2     C 5615   2.305   4.191  13.433 -0.2407 -0.4494 -0.3262
  372MPD2    C1 5616   2.425   4.171  13.498  0.7030  0.1755  0.8586
  372MPD2    C2 5617   2.431   4.097  13.616  0.2037  0.0052  0.3201
  372MPD2    C3 5618   2.319   4.041  13.672 -0.1294  0.3665  0.5227
  372MPD2    C4 5619   2.204   4.062  13.597 -0.0775  0.3834  0.3413
  372MPD2    C5 5620   2.196   4.139  13.481  0.3936  0.2530 -0.5651
  372MPD2     H 5621   2.527   4.089  13.667 -0.2349  3.0042  1.6438
  372MPD2    H1 5622   2.103   4.034  13.627 -0.8892  0.8509 -1.9847
  372MPD2    H2 5623   2.284   4.240  13.339 -0.8557  0.5915  0.3511
  372MPD2    H3 5624   2.099   4.159  13.437 -0.8959 -1.9791  1.2616
  372MPD2     N 5625   2.307   3.991  13.802  0.3819 -0.4437 -0.3067
  372MPD2    H5 5626   2.386   3.990  13.866  0.6286 -0.2487 -0.6042
  372MPD2    N1 5627   2.549   4.216  13.431 -0.3872 -0.7183 -0.3331
  372MPD2    H7 5628   2.636   4.194  13.479  1.1043  1.2248 -2.1086
  373TMC3    C1 5629   2.217   3.872  13.980 -0.1212 -0.4005 -0.1688
  373TMC3    C2 5630   2.231   3.981  14.059  0.4447  0.2532 -0.3469
  373TMC3    C3 5631   2.280   3.959  14.185 -0.5700  0.6185  0.3583
  373TMC3    C4 5632   2.260   3.750  14.023 -0.2543 -0.4498 -0.5222
  373TMC3    C5 5633   2.293   3.732  14.154  0.3057  0.1488 -0.2009
  373TMC3    C6 5634   2.308   3.838  14.238  0.2322 -0.2428  0.4997
  373TMC3     C 5635   2.208   3.909  13.844 -0.4288 -0.0865 -0.9633
  373TMC3     O 5636   2.128   3.854  13.774  0.0344 -0.0408  0.6093
  373TMC3     H 5637   2.195   4.076  14.021  2.2978  0.6728 -1.0585
  373TMC3    H1 5638   2.249   3.673  13.948 -0.9586 -1.1496  0.2930
  373TMC3    H2 5639   2.343   3.831  14.340  0.6677  1.8429  0.4867
  373TMC3    C7 5640   2.397   3.627  14.170  0.6170 -0.0972  0.2900
  373TMC3    C8 5641   2.375   4.061  14.236 -0.4360 -0.4102 -0.3139
  373TMC3    O1 5642   2.505   3.668  14.207  0.2055  0.9081  0.0697
  373TMC3    O2 5643   2.487   4.026  14.280  0.3270  0.1134  0.3526
  374TMC3    C1 5644   3.054   4.128  10.256 -0.0357  0.6145 -0.0364
  374TMC3    C2 5645   3.163   4.163  10.187  0.1426 -0.1053  0.1092
  374TMC3    C3 5646   3.151   4.196  10.058 -0.6119  0.2530 -0.0362
  374TMC3    C4 5647   2.930   4.131  10.194 -0.1880  0.0695  0.4715
  374TMC3    C5 5648   2.930   4.158  10.062 -0.7197 -0.5241  1.1584
  374TMC3    C6 5649   3.038   4.187   9.988 -0.7724  0.1977 -0.0992
  374TMC3     C 5650   3.066   4.042  10.375  0.6698 -0.3534 -0.4037
  374TMC3     O 5651   3.178   4.017  10.412  0.3856 -0.3776 -0.0450
  374TMC3     H 5652   3.259   4.126  10.223  0.7321  1.3814  0.0429
  374TMC3    H1 5653   2.846   4.100  10.256  0.8833 -2.1890  0.7881
  374TMC3    H2 5654   3.036   4.226   9.886 -0.4252 -0.7981 -0.4880
  374TMC3    C7 5655   2.801   4.186   9.999  0.3532  0.2827  0.4962
  374TMC3    C8 5656   3.275   4.229   9.985  0.5256 -0.8151  0.2924
  374TMC3    O1 5657   2.804   4.206   9.878 -0.2506 -0.0618 -0.0651
  374TMC3    O2 5658   3.279   4.216   9.862  0.2534 -0.6706 -0.3111
  375MPD2     C 5659   3.467   1.500  17.264 -0.0728  0.0376 -0.8528
  375MPD2    C1 5660   3.380   1.425  17.187  0.1919  0.4583 -0.1151
  375MPD2    C2 5661   3.419   1.297  17.148  0.3079 -0.1871  0.0826
  375MPD2    C3 5662   3.543   1.238  17.187  0.8799 -0.1180 -0.0210
  375MPD2    C4 5663   3.622   1.314  17.272  0.3071 -0.1108 -0.1946
  375MPD2    C5 5664   3.580   1.438  17.302  0.6837 -0.5397  0.1145
  375MPD2     H 5665   3.345   1.244  17.089  0.8176  0.2245 -0.9113
  375MPD2    H1 5666   3.718   1.276  17.307 -0.2732 -1.4683 -0.1063
  375MPD2    H2 5667   3.443   1.602  17.291 -0.7096 -0.2117 -0.4530
  375MPD2    H3 5668   3.640   1.497  17.369 -1.8201  1.9423  0.1662
  375MPD2     N 5669   3.581   1.111  17.154  0.1152  0.8129 -0.5143
  375MPD2    H5 5670   3.671   1.078  17.188  0.0406 -0.0520 -1.1842
  375MPD2    N1 5671   3.252   1.470  17.152 -0.2969  0.0605  0.0128
  375MPD2    H7 5672   3.196   1.421  17.083  0.0328 -1.1262  0.5729
  376TMC3    C1 5673   3.573   0.908  17.026 -0.4816  0.2050  0.3943
  376TMC3    C2 5674   3.709   0.891  17.050 -0.1259  0.5628 -0.1789
  376TMC3    C3 5675   3.786   0.817  16.965  0.0621 -0.4282  0.0442
  376TMC3    C4 5676   3.520   0.860  16.906  0.0933 -0.9933  0.0241
  376TMC3    C5 5677   3.604   0.802  16.818 -0.6862 -1.0007  0.1409
  376TMC3    C6 5678   3.739   0.777  16.844 -0.0547 -0.4485  0.9130
  376TMC3     C 5679   3.504   1.025  17.080  0.4316  0.0060  0.0633
  376TMC3     O 5680   3.392   1.036  17.038 -0.6735 -0.4232 -0.3419
  376TMC3     H 5681   3.753   0.931  17.140 -2.6539 -0.5718  1.5607
  376TMC3    H1 5682   3.413   0.868  16.890  0.3765  1.4646 -0.6298
  376TMC3    H2 5683   3.798   0.729  16.767  0.2977  1.5417 -0.0716
  376TMC3    C7 5684   3.575   0.807  16.679 -0.0077  0.4693  0.8438
  376TMC3    C8 5685   3.924   0.834  16.972 -1.0524 -1.0103 -0.2562
  376TMC3    O1 5686   3.614   0.717  16.602 -0.4025  0.7496  0.2585
  376TMC3    O2 5687   3.958   0.948  16.984 -0.6455  0.5938  0.1329
  377MPD2     C 5688   1.928   4.596  13.028  0.3208  1.1469 -0.4403
  377MPD2    C1 5689   1.837   4.667  12.958 -0.1928  0.3768  0.1409
  377MPD2    C2 5690   1.708   4.661  13.002  0.0926  0.8463  0.1356
  377MPD2    C3 5691   1.662   4.585  13.106 -0.6650 -0.0636  0.3872
  377MPD2    C4 5692   1.752   4.508  13.176  0.9845 -0.1741  0.5572
  377MPD2    C5 5693   1.884   4.519  13.131  0.3470 -0.0987 -0.1906
  377MPD2     H 5694   1.636   4.715  12.941  0.2490  1.5258  0.5566
  377MPD2    H1 5695   1.736   4.447  13.264 -5.2598  0.8187  0.1144
  377MPD2    H2 5696   2.030   4.571  13.002  0.3716  0.6848  0.2185
  377MPD2    H3 5697   1.955   4.454  13.180 -0.3787  0.4079  1.5385
  377MPD2     N 5698   1.529   4.579  13.147 -0.3062 -0.1644  0.1528
  377MPD2    H5 5699   1.515   4.511  13.221 -3.1578  0.1074 -0.1571
  377MPD2    N1 5700   1.873   4.733  12.834 -0.0308 -0.5168  0.5322
  377MPD2    H7 5701   1.974   0.001  12.824 -0.1829 -0.6243 -0.9985
  378TMC3    C1 5702   1.845   0.024  12.360 -0.2801 -0.2879  0.1411
  378TMC3    C2 5703   1.781   0.012  12.483 -0.7836 -0.1410  0.7093
  378TMC3    C3 5704   1.853   0.033  12.598  0.6112 -0.2052  0.2882
  378TMC3    C4 5705   1.968   0.079  12.347  0.1279 -0.9040  0.4314
  378TMC3    C5 5706   2.033   0.110  12.467  0.6480 -0.3193  0.1788
  378TMC3    C6 5707   1.976   0.081  12.589 -0.4711 -0.1657  0.2509
  378TMC3     C 5708   1.756   0.042  12.247 -0.1233  0.0846 -0.3874
  378TMC3     O 5709   1.638   0.026  12.281  0.1115 -0.4187 -0.5469
  378TMC3     H 5710   1.690   4.691  12.490 -0.5867 -0.3449  1.5005
  378TMC3    H1 5711   2.008   0.109  12.251 -0.2079 -1.3725  0.1508
  378TMC3    H2 5712   2.031   0.092  12.682  2.0240  0.2746 -1.2745
  378TMC3    C7 5713   2.178   0.134  12.459 -0.8085 -0.4562  0.0803
  378TMC3    C8 5714   1.783   0.002  12.725  0.0398  0.6813  0.3517
  378TMC3    O1 5715   2.234   0.167  12.565 -0.1199  0.8343 -0.0389
  378TMC3    O2 5716   1.665   4.699  12.712 -0.3566  0.2181 -0.1386
  379MPD2     C 5717   2.276   3.401  16.147  0.2970 -0.0711 -0.0625
  379MPD2    C1 5718   2.208   3.306  16.220  0.2951 -0.1871 -0.9542
  379MPD2    C2 5719   2.244   3.279  16.353  0.6432  0.0236  0.0630
  379MPD2    C3 5720   2.354   3.340  16.409  0.5281 -0.1364  0.2080
  379MPD2    C4 5721   2.428   3.434  16.334  0.4541  0.0623 -0.2880
  379MPD2    C5 5722   2.382   3.460  16.206 -0.3050 -0.0531  0.5048
  379MPD2     H 5723   2.193   3.206  16.415  1.7251 -1.0009 -0.2490
  379MPD2    H1 5724   2.512   3.487  16.378 -0.4376  3.0920 -2.2038
  379MPD2    H2 5725   2.241   3.432  16.049  2.0156  0.5251 -0.5003
  379MPD2    H3 5726   2.435   3.538  16.152  0.8780 -0.6830  0.7354
  379MPD2     N 5727   2.392   3.312  16.543  0.7901  0.0815  0.3522
  379MPD2    H5 5728   2.485   3.340  16.573  0.7039  1.6130 -0.8381
  379MPD2    N1 5729   2.107   3.235  16.159  0.1145 -0.1014 -0.0319
  379MPD2    H7 5730   2.083   3.269  16.066  0.9920 -0.7833 -0.5137
  380TMC3    C1 5731   1.950   3.063  16.109  0.5606 -0.3615 -0.2194
  380TMC3    C2 5732   1.960   2.937  16.054 -0.5927  0.1776 -0.0105
  380TMC3    C3 5733   1.881   2.899  15.952  0.4945  0.4388 -0.4674
  380TMC3    C4 5734   1.885   3.165  16.037 -0.2907 -0.0882  0.9085
  380TMC3    C5 5735   1.808   3.123  15.927  0.6036 -0.8607  0.0756
  380TMC3    C6 5736   1.804   2.995  15.889  0.6033 -0.5884 -0.0326
  380TMC3     C 5737   2.060   3.109  16.192  0.3946 -0.3823 -0.9244
  380TMC3     O 5738   2.113   3.031  16.267 -0.6018 -0.3024 -0.9673
  380TMC3     H 5739   2.036   2.872  16.097 -1.9393 -0.8502  0.8160
  380TMC3    H1 5740   1.885   3.269  16.068 -0.1291 -0.3121  1.6715
  380TMC3    H2 5741   1.736   2.976  15.807  1.4540  0.9800 -1.0898
  380TMC3    C7 5742   1.728   3.227  15.857 -0.2505  0.1006 -0.5975
  380TMC3    C8 5743   1.934   2.806  15.852 -0.0617  0.2951  0.2778
  380TMC3    O1 5744   1.789   3.333  15.849  0.4303  0.4993 -0.0741
  380TMC3    O2 5745   1.895   2.835  15.737  0.0251 -0.2950 -0.0996
  381TMC3    C1 5746   1.901   4.568  16.171 -0.1215 -0.5332  0.3647
  381TMC3    C2 5747   1.989   4.673  16.182  0.2049 -0.0183  0.5864
  381TMC3    C3 5748   2.001   0.006  16.298 -0.1261  0.9755 -0.5484
  381TMC3    C4 5749   1.825   4.536  16.281  0.9094  0.3869 -0.0056
  381TMC3    C5 5750   1.836   4.610  16.391 -0.4180 -0.8246 -0.3053
  381TMC3    C6 5751   1.921   4.721  16.407  0.2634 -0.1312  0.1144
  381TMC3     C 5752   1.834   4.538  16.042  0.2658  0.0316  0.1840
  381TMC3     O 5753   1.764   4.437  16.048  0.1674  0.0793  0.3246
  381TMC3     H 5754   2.057   4.701  16.103 -1.7395  1.6169 -0.5164
  381TMC3    H1 5755   1.772   4.443  16.294  3.1588 -0.7976  0.8057
  381TMC3    H2 5756   1.944   0.020  16.507  2.7643 -1.4916  0.0249
  381TMC3    C7 5757   1.763   4.569  16.508 -0.0029 -0.4300 -0.0105
  381TMC3    C8 5758   2.133   0.063  16.320 -0.4801 -0.7445 -0.1468
  381TMC3    O1 5759   1.725   4.453  16.504 -0.3921 -0.1356  0.2318
  381TMC3    O2 5760   2.219   4.724  16.281 -0.1794  0.6905 -0.3380
  382MPD2     C 5761   1.356   2.105  16.947 -0.0220  0.6031 -0.0536
  382MPD2    C1 5762   1.317   2.121  17.080 -0.0741 -0.0878 -0.6491
  382MPD2    C2 5763   1.266   2.010  17.148 -0.6142 -0.3258 -0.3887
  382MPD2    C3 5764   1.269   1.882  17.086  0.2961 -0.0141  0.8420
  382MPD2    C4 5765   1.326   1.872  16.960  1.0894 -0.8790  0.5272
  382MPD2    C5 5766   1.371   1.981  16.892 -0.4442 -0.4220 -0.5356
  382MPD2     H 5767   1.230   2.036  17.246  0.2637 -0.3249 -0.0662
  382MPD2    H1 5768   1.331   1.774  16.914  1.9972 -1.2937  1.5150
  382MPD2    H2 5769   1.391   2.187  16.886 -0.1605  0.3999 -0.4064
  382MPD2    H3 5770   1.411   1.973  16.792 -0.1702 -0.9047 -0.3887
  382MPD2     N 5771   1.197   1.767  17.133 -0.7429 -0.6270  0.3886
  382MPD2    H5 5772   1.201   1.685  17.073  0.3023 -0.9262  0.8616
  382MPD2    N1 5773   1.328   2.245  17.149  0.2913 -0.1881  0.0770
  382MPD2    H7 5774   1.270   2.256  17.231  0.4136  0.0559  0.1308
  383TMC3    C1 5775   1.076   1.621  17.289  0.1173 -0.2033 -0.0762
  383TMC3    C2 5776   1.063   1.524  17.194  0.0931 -0.1246  0.1851
  383TMC3    C3 5777   1.020   1.400  17.241 -0.4961  0.3578  0.2264
  383TMC3    C4 5778   1.076   1.601  17.427  0.5583 -0.2872  0.0649
  383TMC3    C5 5779   1.030   1.474  17.464 -0.3991  0.3049  0.6539
  383TMC3    C6 5780   1.005   1.373  17.374  0.5114 -0.4203 -0.5970
  383TMC3     C 5781   1.117   1.757  17.251 -0.6087 -0.1048  0.1540
  383TMC3     O 5782   1.108   1.850  17.333 -0.1283 -0.3353 -0.1414
  383TMC3     H 5783   1.055   1.545  17.088 -1.8287  1.2607  0.6129
  383TMC3    H1 5784   1.089   1.690  17.488  0.6482 -0.2109 -0.0651
  383TMC3    H2 5785   0.982   1.271  17.402 -2.2882 -0.2112 -2.1093
  383TMC3    C7 5786   0.946   1.468  17.583  1.1489 -0.2595 -0.4080
  383TMC3    C8 5787   0.959   1.317  17.140 -0.2259 -0.0349 -0.6827
  383TMC3    O1 5788   0.874   1.371  17.583 -0.3169  0.0983  0.7754
  383TMC3    O2 5789   0.973   1.355  17.025  0.4586 -0.0114  0.3401
  384MPD2     C 5790   3.017   2.716  11.971  0.9598 -0.5766 -0.5020
  384MPD2    C1 5791   3.046   2.656  12.095  0.1715  0.2716  0.1312
  384MPD2    C2 5792   3.109   2.532  12.094 -0.9531  0.0118 -0.1777
  384MPD2    C3 5793   3.132   2.462  11.977 -0.0217  0.5259 -0.3661
  384MPD2    C4 5794   3.110   2.520  11.857 -0.6629  0.1050 -0.6211
  384MPD2    C5 5795   3.053   2.646  11.855 -0.0898  0.2996  0.2309
  384MPD2     H 5796   3.128   2.482  12.188 -0.2607  0.4157 -0.1105
  384MPD2    H1 5797   3.136   2.479  11.760 -0.0600  1.5880 -1.0903
  384MPD2    H2 5798   2.975   2.815  11.956  1.4411 -0.4552 -1.0445
  384MPD2    H3 5799   3.028   2.688  11.758 -1.3007 -1.6731 -0.3101
  384MPD2     N 5800   3.200   2.337  11.996  0.2469  0.4500  0.3636
  384MPD2    H5 5801   3.217   2.303  12.091 -0.4894  1.7476  0.9546
  384MPD2    N1 5802   3.023   2.718  12.221 -0.2696 -0.1787 -0.2857
  384MPD2    H7 5803   3.056   2.673  12.306  0.6076 -1.9380 -1.5478
  385TMC3    C1 5804   3.287   2.124  11.962  0.2156 -0.1611  0.3107
  385TMC3    C2 5805   3.200   2.020  11.932  0.2575  0.3506  0.8600
  385TMC3    C3 5806   3.142   1.962  12.043  0.0691 -0.1979  0.8869
  385TMC3    C4 5807   3.323   2.153  12.090  0.5911 -0.3239  0.1218
  385TMC3    C5 5808   3.265   2.083  12.198  0.2225  0.0681  0.1968
  385TMC3    C6 5809   3.169   1.991  12.171  0.4317  0.6158 -0.3638
  385TMC3     C 5810   3.230   2.244  11.896  0.2885  0.2276  0.2638
  385TMC3     O 5811   3.219   2.249  11.774  0.1516 -0.0404 -0.3191
  385TMC3     H 5812   3.154   2.027  11.834 -0.4742 -1.8297  1.0610
  385TMC3    H1 5813   3.398   2.230  12.102  0.6555 -0.2157 -0.9860
  385TMC3    H2 5814   3.130   1.943  12.261 -1.2541 -0.1823 -1.5159
  385TMC3    C7 5815   3.227   2.172  12.315  0.5658 -0.3800  0.0647
  385TMC3    C8 5816   3.019   1.886  12.035  0.1776  0.5514  0.5742
  385TMC3    O1 5817   3.236   2.288  12.292  0.0789  0.2390  0.4209
  385TMC3    O2 5818   2.960   1.859  12.140  0.3090  0.1265  0.6597
  386TMC3    C1 5819   3.356   4.657  11.791  0.7075  0.1704 -0.0987
  386TMC3    C2 5820   3.305   4.625  11.665  0.8724  0.1539  0.3449
  386TMC3    C3 5821   3.223   4.723  11.613  0.3657  0.2783 -0.2279
  386TMC3    C4 5822   3.340   0.042  11.856  0.3104 -0.0754 -0.3511
  386TMC3    C5 5823   3.248   0.124  11.801 -0.3266 -0.3171 -0.4045
  386TMC3    C6 5824   3.196   0.104  11.678 -0.3452  0.6224 -0.7726
  386TMC3     C 5825   3.431   4.556  11.868 -0.1816  0.7690 -0.4348
  386TMC3     O 5826   3.547   4.586  11.889  0.1317 -0.3212 -0.0553
  386TMC3     H 5827   3.327   4.531  11.617  0.2615  0.3348 -0.2961
  386TMC3    H1 5828   3.385   0.060  11.954 -1.2382 -3.0431  0.9134
  386TMC3    H2 5829   3.128   0.173  11.630 -0.0300  2.0502  0.8404
  386TMC3    C7 5830   3.191   0.225  11.880 -0.3974  0.1301 -0.3969
  386TMC3    C8 5831   3.124   4.689  11.517  0.0555  0.5860 -0.3199
  386TMC3    O1 5832   3.132   0.310  11.812  0.3486  0.2093  0.7065
  386TMC3    O2 5833   3.027   0.027  11.505  0.0295  0.7134 -0.2332
  387MPD2     C 5834   0.551   0.174   9.911  0.6072  0.1046 -0.3639
  387MPD2    C1 5835   0.592   0.114  10.033 -0.6104  0.4446  0.2568
  387MPD2    C2 5836   0.602   4.715  10.048  0.3243  0.1250 -0.2599
  387MPD2    C3 5837   0.586   4.633   9.942  0.5975  0.3473 -1.4270
  387MPD2    C4 5838   0.533   4.685   9.833  0.1255 -0.0943  0.5467
  387MPD2    C5 5839   0.518   0.086   9.810  0.1851  0.3368 -0.2850
  387MPD2     H 5840   0.643   4.674  10.140  1.8588 -0.3844 -1.1701
  387MPD2    H1 5841   0.503   4.625   9.748  1.9735 -0.4704  0.1752
  387MPD2    H2 5842   0.547   0.279   9.885  0.5125 -0.0198 -0.8468
  387MPD2    H3 5843   0.483   0.130   9.717  0.2372 -1.9129 -1.3587
  387MPD2     N 5844   0.623   4.495   9.957 -0.2197  0.1245 -0.3343
  387MPD2    H5 5845   0.663   4.475  10.048  0.8861 -0.3023 -0.9094
  387MPD2    N1 5846   0.638   0.197  10.139 -0.7496 -1.0354  0.4681
  387MPD2    H7 5847   0.659   0.146  10.224  0.9391  1.5442  1.5980
  388TMC3    C1 5848   0.745   0.373  10.250 -0.3560  0.4752  0.1285
  388TMC3    C2 5849   0.808   0.497  10.224  0.2349  0.2506  0.4484
  388TMC3    C3 5850   0.922   0.526  10.286  0.2878 -0.1373 -0.1776
  388TMC3    C4 5851   0.819   0.278  10.315  0.1771 -0.1801 -0.3136
  388TMC3    C5 5852   0.945   0.306  10.360  0.7129 -0.2680  0.3821
  388TMC3    C6 5853   0.997   0.435  10.355  0.1126  0.7362 -0.2404
  388TMC3     C 5854   0.665   0.327  10.135 -0.6625 -0.3852 -0.1045
  388TMC3     O 5855   0.665   0.396  10.034 -0.4628 -0.3891  0.5746
  388TMC3     H 5856   0.762   0.579  10.170  2.8121  0.1399 -1.9045
  388TMC3    H1 5857   0.782   0.184  10.354 -1.0702 -0.0456 -1.1817
  388TMC3    H2 5858   1.098   0.445  10.394  0.0387  0.2857  0.0714
  388TMC3    C7 5859   1.036   0.201  10.377  0.3661  0.4296  0.1271
  388TMC3    C8 5860   0.962   0.666  10.306 -0.5250  0.3777  0.8270
  388TMC3    O1 5861   1.144   0.225  10.424  0.5628 -0.0119 -0.1956
  388TMC3    O2 5862   0.905   0.754  10.242  0.2136 -0.3026 -0.5155
  389MPD2     C 5863   4.603   3.236  11.065 -0.2544 -0.6327  0.0279
  389MPD2    C1 5864   4.481   3.172  11.051  0.4847  0.2898  0.5886
  389MPD2    C2 5865   4.432   3.083  11.145 -0.3828  0.3019 -0.3299
  389MPD2    C3 5866   4.508   3.067  11.260 -0.5076  0.3794 -0.2129
  389MPD2    C4 5867   4.635   3.123  11.273 -0.0810 -0.7229  0.3886
  389MPD2    C5 5868   4.679   3.208  11.170 -0.0328  0.2135  0.2414
  389MPD2     H 5869   4.337   3.030  11.140 -0.4356  0.4772 -1.0983
  389MPD2    H1 5870   4.700   3.107  11.358 -1.2522  2.0879  1.8008
  389MPD2    H2 5871   4.629   3.320  11.001 -0.9605  1.0935  2.0322
  389MPD2    H3 5872   0.038   3.257  11.184 -0.3631  0.7677  0.5682
  389MPD2     N 5873   4.470   2.978  11.364 -0.1285 -0.4188 -0.0598
  389MPD2    H5 5874   4.531   2.978  11.446  1.8890 -1.1252 -1.5543
  389MPD2    N1 5875   4.411   3.210  10.930  0.4698 -0.4071 -0.1489
  389MPD2    H7 5876   4.459   3.288  10.886  2.1353  0.8949  3.9520
  390TMC3    C1 5877   4.358   2.822  11.488 -0.4489 -0.5623  0.2365
  390TMC3    C2 5878   4.316   2.692  11.498 -0.2013  0.6523 -0.2746
  390TMC3    C3 5879   4.270   2.648  11.620 -0.0703 -0.3183 -0.4592
  390TMC3    C4 5880   4.364   2.910  11.596  0.4067 -0.1467  0.2576
  390TMC3    C5 5881   4.321   2.856  11.717 -0.3439  0.2487 -0.3792
  390TMC3    C6 5882   4.276   2.725  11.731 -0.1885 -0.2632  0.6086
  390TMC3     C 5883   4.379   2.879  11.360 -0.2120 -0.5685 -0.0942
  390TMC3     O 5884   4.308   2.846  11.270 -0.1453  0.2849  0.5072
  390TMC3     H 5885   4.331   2.629  11.411 -0.3223 -1.9406  1.5652
  390TMC3    H1 5886   4.409   3.008  11.591  1.9090 -0.9129 -1.5320
  390TMC3    H2 5887   4.255   2.687  11.831 -1.0614 -1.1178  0.0966
  390TMC3    C7 5888   4.292   2.957  11.817 -0.6022 -0.4519 -0.2043
  390TMC3    C8 5889   4.235   2.508  11.630  0.4850 -0.3903  0.2636
  390TMC3    O1 5890   4.298   3.073  11.783 -0.3119 -0.0776  0.4687
  390TMC3    O2 5891   4.268   2.438  11.533 -0.7258 -0.0860 -0.1481
  391MPD2     C 5892   4.092   4.332  11.258  0.0145  0.2240  0.4604
  391MPD2    C1 5893   4.201   4.355  11.182  0.3548  0.4704  0.8192
  391MPD2    C2 5894   4.179   4.378  11.047  0.0311 -0.0045  1.0286
  391MPD2    C3 5895   4.056   4.383  10.982  0.1711  0.2995 -0.4692
  391MPD2    C4 5896   3.943   4.362  11.070  0.1398 -0.3129  0.5513
  391MPD2    C5 5897   3.967   4.338  11.202  0.0937 -0.5489 -1.0452
  391MPD2     H 5898   4.258   4.422  10.988 -1.4595 -2.1838 -2.6094
  391MPD2    H1 5899   3.840   4.350  11.038  0.9252 -2.2535 -1.2551
  391MPD2    H2 5900   4.108   4.332  11.365  0.2744 -1.4868  0.4219
  391MPD2    H3 5901   3.885   4.323  11.272  0.4617  0.3204 -0.4274
  391MPD2     N 5902   4.056   4.410  10.844  0.1025  0.1355 -0.0366
  391MPD2    H5 5903   4.144   4.399  10.794  0.8422 -1.7062  1.6922
  391MPD2    N1 5904   4.326   4.361  11.244 -0.3260  0.0085 -0.3894
  391MPD2    H7 5905   4.316   4.368  11.345 -0.0912  1.0789 -0.4326
  392TMC3    C1 5906   3.977   4.467  10.627  0.1030 -0.1646  0.1853
  392TMC3    C2 5907   3.867   4.472  10.545  0.2677  1.1016  0.1750
  392TMC3    C3 5908   3.878   4.510  10.417  0.2995  0.0969  0.3583
  392TMC3    C4 5909   4.101   4.510  10.578  0.0997  0.2785  0.0912
  392TMC3    C5 5910   4.110   4.544  10.439  0.7805 -0.9287  0.5520
  392TMC3    C6 5911   3.994   4.557  10.367 -0.0781 -0.6768  0.3644
  392TMC3     C 5912   3.942   4.440  10.768 -0.0364 -0.1155 -0.6095
  392TMC3     O 5913   3.827   4.427  10.808 -0.2059  0.0848 -0.3067
  392TMC3     H 5914   3.773   4.437  10.585  0.1104 -1.2223 -2.2663
  392TMC3    H1 5915   4.190   4.489  10.636 -0.1372 -0.1826  0.2843
  392TMC3    H2 5916   3.995   4.609  10.272  1.9899  0.3737  0.9542
  392TMC3    C7 5917   4.228   4.619  10.408  0.0770 -0.5215 -0.0649
  392TMC3    C8 5918   3.770   4.477  10.332  0.1745 -0.4319  1.1640
  392TMC3    O1 5919   4.312   4.608  10.494  0.1087 -0.6896 -0.4075
  392TMC3    O2 5920   3.686   4.419  10.393  0.1282  0.2555  0.1382
  393TMC3    C1 5921   2.850   2.439  11.060  0.3747  0.2787  0.0986
  393TMC3    C2 5922   2.749   2.467  11.145 -0.2763 -0.5381  0.3252
  393TMC3    C3 5923   2.749   2.404  11.267 -0.1175 -0.6543  0.8406
  393TMC3    C4 5924   2.955   2.362  11.081  0.6335 -0.4359  0.3229
  393TMC3    C5 5925   2.955   2.294  11.198  0.3448 -0.2400  0.1851
  393TMC3    C6 5926   2.849   2.315  11.286 -0.3497 -0.2249  0.4470
  393TMC3     C 5927   2.841   2.522  10.942  0.0815 -0.1343 -0.0065
  393TMC3     O 5928   2.737   2.559  10.896  0.6464 -0.2791  0.1902
  393TMC3     H 5929   2.682   2.547  11.119 -0.0830  0.1165  1.8105
  393TMC3    H1 5930   3.032   2.342  11.008 -1.5572 -1.4501 -1.7175
  393TMC3    H2 5931   2.856   2.262  11.381  2.2638 -0.5650  0.0769
  393TMC3    C7 5932   3.017   2.164  11.213  0.1455 -0.1209 -0.0919
  393TMC3    C8 5933   2.626   2.418  11.345  0.7377 -0.3240  0.2013
  393TMC3    O1 5934   2.970   2.084  11.295 -0.0379  0.0182  0.3340
  393TMC3    O2 5935   2.524   2.463  11.297 -0.3971  0.0139 -0.1031
  394TMC3    C1 5936   4.263   3.221  10.755  0.1427  0.5654 -0.1695
  394TMC3    C2 5937   4.135   3.215  10.704  0.0498  0.0760 -0.0265
  394TMC3    C3 5938   4.105   3.269  10.582 -0.0395 -0.0933  0.3210
  394TMC3    C4 5939   4.366   3.265  10.677 -0.3042 -0.2216  0.2790
  394TMC3    C5 5940   4.332   3.308  10.548 -0.1408  0.3760 -0.1382
  394TMC3    C6 5941   4.202   3.318  10.502 -0.2475 -0.1797 -0.1733
  394TMC3     C 5942   4.283   3.175  10.888  0.0566 -0.2182  0.7827
  394TMC3     O 5943   4.195   3.102  10.936 -0.7981  0.2313 -0.7842
  394TMC3     H 5944   4.056   3.163  10.756  0.1393 -0.6469 -0.6069
  394TMC3    H1 5945   4.468   3.287  10.704 -1.0200  0.8189  2.1352
  394TMC3    H2 5946   4.186   3.348  10.399  0.4326 -2.3503 -0.8905
  394TMC3    C7 5947   4.443   3.322  10.462  0.3085  0.0319 -0.6216
  394TMC3    C8 5948   4.019   3.176  10.511  0.4143 -0.5225  0.5512
  394TMC3    O1 5949   4.446   3.406  10.369  0.0628 -0.2886  0.0093
  394TMC3    O2 5950   3.907   3.210  10.500  0.1213  0.3246  0.6236
  395TMC3    C1 5951   4.041   0.362  14.994  0.3353 -0.3261  0.4073
  395TMC3    C2 5952   3.916   0.391  14.941  0.0063 -0.2797 -0.2186
  395TMC3    C3 5953   3.916   0.466  14.826  0.0743 -0.0229 -0.5754
  395TMC3    C4 5954   4.157   0.407  14.945 -0.0564  0.2403  0.0125
  395TMC3    C5 5955   4.150   0.501  14.842 -0.5543 -0.0197 -0.1247
  395TMC3    C6 5956   4.031   0.537  14.788 -0.3236  0.7060 -0.2167
  395TMC3     C 5957   4.028   0.334  15.137  0.0658 -0.3024 -0.4783
  395TMC3     O 5958   3.923   0.373  15.191  0.1732  0.0924 -0.0321
  395TMC3     H 5959   3.823   0.342  14.972  1.0191 -0.5493  2.4502
  395TMC3    H1 5960   4.246   0.396  15.006 -0.4783 -2.7956  0.0558
  395TMC3    H2 5961   4.024   0.617  14.715 -1.0224 -0.0798 -1.0248
  395TMC3    C7 5962   4.244   0.609  14.847  0.3506  0.1646 -0.1484
  395TMC3    C8 5963   3.797   0.533  14.788 -0.6804 -0.1545  0.4268
  395TMC3    O1 5964   4.200   0.723  14.857  0.5373 -0.2515  0.3412
  395TMC3    O2 5965   3.795   0.651  14.819  0.4940  0.1831  0.0388
  396MPD2     C 5966   4.009   1.486  17.245 -0.2351 -0.7110 -0.2554
  396MPD2    C1 5967   4.117   1.511  17.319  0.0287  0.5299  0.9733
  396MPD2    C2 5968   4.157   1.639  17.342 -0.4828  1.1887  0.2780
  396MPD2    C3 5969   4.088   1.751  17.287  0.2439  0.0963  0.1484
  396MPD2    C4 5970   3.967   1.718  17.218 -0.8385  0.4011 -0.5668
  396MPD2    C5 5971   3.931   1.592  17.191 -0.3576 -0.5925 -0.7987
  396MPD2     H 5972   4.242   1.666  17.403  0.7599  0.6445 -1.2176
  396MPD2    H1 5973   3.902   1.792  17.174 -0.0899  1.0841 -0.5356
  396MPD2    H2 5974   3.985   1.384  17.214 -2.0059 -0.5300  0.5111
  396MPD2    H3 5975   3.854   1.567  17.118  0.1135  0.9146 -1.8206
  396MPD2     N 5976   4.147   1.877  17.309 -0.2511 -0.3256  0.1573
  396MPD2    H5 5977   4.243   1.879  17.342 -0.8760  0.0119  1.9323
  396MPD2    N1 5978   4.198   1.406  17.357 -0.2878 -0.5163  0.1132
  396MPD2    H7 5979   4.172   1.321  17.308 -1.4809  0.9159 -1.7614
  397TMC3    C1 5980   4.398   1.314  17.474 -0.1929 -0.1820 -0.7589
  397TMC3    C2 5981   4.481   1.322  17.364 -0.2306 -0.1619 -0.6295
  397TMC3    C3 5982   4.614   1.351  17.379  0.0440 -0.4249  0.5381
  397TMC3    C4 5983   4.451   1.347  17.588  0.0309 -0.5273 -0.0748
  397TMC3    C5 5984   4.584   1.376  17.610 -0.3108  0.4892  0.5152
  397TMC3    C6 5985   4.670   1.372  17.500 -0.1226  0.3189  0.1956
  397TMC3     C 5986   4.294   1.413  17.464 -0.5853 -0.3985 -0.0563
  397TMC3     O 5987   4.324   1.506  17.541  0.3743 -0.4481  0.3019
  397TMC3     H 5988   4.435   1.313  17.266 -0.9234  0.3898 -0.3486
  397TMC3    H1 5989   4.397   1.323  17.679 -0.1899  1.0834  0.2184
  397TMC3    H2 5990   0.038   1.399  17.502 -0.1961  0.6305 -0.0409
  397TMC3    C7 5991   4.614   1.485  17.702  0.1050  0.2972  0.6315
  397TMC3    C8 5992   4.681   1.411  17.267  1.2039 -0.6418 -0.3811
  397TMC3    O1 5993   4.733   1.515  17.712  0.6388 -1.2129 -0.2267
  397TMC3    O2 5994   0.065   1.404  17.261  0.0235  0.1664 -0.1339
  398MPD2     C 5995   2.119   3.655   0.333  0.0670  0.6414  0.2029
  398MPD2    C1 5996   2.198   3.559   0.389 -0.0587 -0.3749  0.5999
  398MPD2    C2 5997   2.317   3.605   0.426  0.1469  0.2434  0.5122
  398MPD2    C3 5998   2.371   3.730   0.401  0.1102  0.9984  0.8403
  398MPD2    C4 5999   2.295   3.822   0.332  0.0116 -0.4089  0.0116
  398MPD2    C5 6000   2.163   3.785   0.299 -0.0586  0.4195  0.0424
  398MPD2     H 6001   2.384   3.532   0.470 -0.4741  0.0903  1.2108
  398MPD2    H1 6002   2.331   3.923   0.313  0.8820 -0.7267 -0.0610
  398MPD2    H2 6003   2.020   3.621   0.307 -0.0584  0.2546  1.1517
  398MPD2    H3 6004   2.098   3.858   0.252 -0.8869  0.8387  1.8199
  398MPD2     N 6005   2.505   3.755   0.439  0.0617 -0.1037 -0.1877
  398MPD2    H5 6006   2.544   3.677   0.492 -1.8568 -0.8361  0.1417
  398MPD2    N1 6007   2.165   3.427   0.414  0.0545 -0.0258 -0.2856
  398MPD2    H7 6008   2.224   3.376   0.479  1.7424 -1.1774 -2.7403
  399TMC3    C1 6009   2.056   3.228   0.401 -0.0058 -0.6690  0.2039
  399TMC3    C2 6010   2.119   3.189   0.510 -0.0303 -1.2966  0.4447
  399TMC3    C3 6011   2.132   3.053   0.524 -0.0593  0.6084 -0.0325
  399TMC3    C4 6012   2.002   3.141   0.312  0.1908 -0.3896 -0.2298
  399TMC3    C5 6013   2.039   3.011   0.325  0.7273 -0.1348 -0.3092
  399TMC3    C6 6014   2.103   2.965   0.429 -1.0850  0.3501 -0.1766
  399TMC3     C 6015   2.054   3.366   0.362 -1.2897  0.2221 -1.0220
  399TMC3     O 6016   1.972   3.400   0.276 -0.3751 -0.6677 -0.1093
  399TMC3     H 6017   2.156   3.248   0.593  1.8368  0.8292 -1.9003
  399TMC3    H1 6018   1.962   3.184   0.221 -0.6787 -0.3486  0.1634
  399TMC3    H2 6019   2.110   2.859   0.448 -0.6610  0.2185 -1.0508
  399TMC3    C7 6020   1.957   2.916   0.258  0.0835 -0.2638 -0.1404
  399TMC3    C8 6021   2.224   3.011   0.629  0.3731  0.0676  0.3403
  399TMC3    O1 6022   1.923   2.824   0.328  0.0229 -0.4792 -0.1773
  399TMC3    O2 6023   2.307   3.087   0.679 -0.3192  0.0599  0.4496
  400TMC3    C1 6024   0.917   1.229  16.634 -0.0700 -0.4140 -0.1356
  400TMC3    C2 6025   0.815   1.221  16.549  0.0638 -0.8032  0.0232
  400TMC3    C3 6026   0.732   1.338  16.537 -0.2004 -0.0381  0.6682
  400TMC3    C4 6027   0.964   1.347  16.691 -0.8900 -0.1654 -0.3844
  400TMC3    C5 6028   0.875   1.449  16.689  0.7891 -0.4878 -0.4557
  400TMC3    C6 6029   0.754   1.438  16.626  0.0367  0.2633  0.1832
  400TMC3     C 6030   0.962   1.099  16.674  0.1716 -0.2785 -0.0694
  400TMC3     O 6031   0.950   1.006  16.595 -0.1810  0.0852 -0.0591
  400TMC3     H 6032   0.801   1.126  16.498  0.0414 -1.0857  0.5532
  400TMC3    H1 6033   1.060   1.364  16.738 -0.5333  2.0977 -1.9710
  400TMC3    H2 6034   0.693   1.528  16.625 -1.1432 -0.5561 -1.0211
  400TMC3    C7 6035   0.907   1.560  16.780 -0.0810 -0.1176  0.2365
  400TMC3    C8 6036   0.605   1.335  16.469  0.7791  0.0520 -0.9025
  400TMC3    O1 6037   1.021   1.575  16.811  0.5669  0.1993  0.0103
  400TMC3    O2 6038   0.532   1.432  16.466  0.1632 -0.8508  0.1934
  401MPD2     C 6039   3.085   0.348   0.994 -0.3361 -0.0201  0.2925
  401MPD2    C1 6040   3.058   0.261   0.890  0.5106 -0.2846 -0.6040
  401MPD2    C2 6041   3.018   0.129   0.909  0.0813  0.1049  0.1050
  401MPD2    C3 6042   3.023   0.079   1.036  0.3542 -0.3817 -0.4316
  401MPD2    C4 6043   3.036   0.167   1.146  0.2195 -0.3438  0.4122
  401MPD2    C5 6044   3.074   0.302   1.115 -1.1643  0.2646  1.3837
  401MPD2     H 6045   3.009   0.069   0.819 -2.8963  0.3370  0.2417
  401MPD2    H1 6046   3.020   0.143   1.250  1.9626  0.8352  0.9545
  401MPD2    H2 6047   3.112   0.453   0.984 -2.1287  0.3434 -0.6310
  401MPD2    H3 6048   3.085   0.367   1.201  0.7678  0.0684  1.2812
  401MPD2     N 6049   3.036   4.671   1.049  0.3660  0.0005  0.3782
  401MPD2    H5 6050   3.049   4.613   0.967 -1.4193  0.6951 -0.3703
  401MPD2    N1 6051   3.070   0.305   0.752  0.1616 -0.5264  0.0831
  401MPD2    H7 6052   3.050   0.238   0.678 -0.1204 -0.2309 -0.1056
  402TMC3    C1 6053   3.098   4.474   1.175 -0.3423 -0.7440  0.7436
  402TMC3    C2 6054   3.157   4.431   1.289  0.3429  0.1411  0.4243
  402TMC3    C3 6055   3.228   4.319   1.278 -0.3647 -0.0435  0.8592
  402TMC3    C4 6056   3.090   4.407   1.055 -0.9666 -0.9389 -0.0349
  402TMC3    C5 6057   3.158   4.292   1.049  0.7276  0.3444 -0.0296
  402TMC3    C6 6058   3.226   4.247   1.161 -0.7877 -0.0819 -0.4692
  402TMC3     C 6059   3.060   4.617   1.177  0.5794 -0.0060 -0.1690
  402TMC3     O 6060   3.087   4.680   1.278  0.1479  0.0878 -0.3332
  402TMC3     H 6061   3.160   4.495   1.376  0.5961  0.0704  0.4674
  402TMC3    H1 6062   3.036   4.446   0.969  0.4423 -2.0230 -1.4007
  402TMC3    H2 6063   3.256   4.143   1.169 -1.5358 -0.2402  0.2578
  402TMC3    C7 6064   3.215   4.259   0.917 -0.0734 -0.2344 -0.0681
  402TMC3    C8 6065   3.339   4.301   1.361  0.1775  0.2786  0.2003
  402TMC3    O1 6066   3.164   4.292   0.809 -0.2992  0.0882  0.1738
  402TMC3    O2 6067   3.429   4.239   1.306  0.7790  0.3225 -0.3450
  403MPD2     C 6068   2.354   2.644  13.181 -0.5307 -0.2504  0.4789
  403MPD2    C1 6069   2.243   2.614  13.256  0.1729  0.2762  0.3560
  403MPD2    C2 6070   2.258   2.590  13.395  0.2015 -0.0091  0.3391
  403MPD2    C3 6071   2.376   2.615  13.455  0.0161  0.1194  0.1120
  403MPD2    C4 6072   2.486   2.666  13.375  0.5536  0.5702 -0.1016
  403MPD2    C5 6073   2.471   2.670  13.239 -0.0765  0.1262  0.0673
  403MPD2     H 6074   2.175   2.544  13.448 -0.3776 -1.5031 -1.8387
  403MPD2    H1 6075   2.585   2.690  13.412  0.1251 -0.4653  1.7329
  403MPD2    H2 6076   2.349   2.648  13.073  0.6604  3.0399  0.5310
  403MPD2    H3 6077   2.552   2.697  13.173 -0.6722  0.7131 -0.4122
  403MPD2     N 6078   2.386   2.580  13.594 -0.1703  0.3094  0.1796
  403MPD2    H5 6079   2.304   2.538  13.638  0.6604 -1.1384  0.3709
  403MPD2    N1 6080   2.124   2.587  13.196  0.4584 -0.3130  0.5610
  403MPD2    H7 6081   2.139   2.564  13.099 -0.7196  0.2463  0.2543
  404TMC3    C1 6082   1.913   2.487  13.179  0.5947 -0.4768 -0.3256
  404TMC3    C2 6083   1.875   2.384  13.259  0.1378  0.6916 -0.7758
  404TMC3    C3 6084   1.852   2.261  13.208  0.5520  0.5663  0.8483
  404TMC3    C4 6085   1.931   2.479  13.044 -0.1373 -0.4303  0.7035
  404TMC3    C5 6086   1.920   2.355  13.001 -0.3739 -0.1234 -0.3707
  404TMC3    C6 6087   1.868   2.250  13.074 -0.2651 -0.4407  0.3459
  404TMC3     C 6088   2.000   2.576  13.256  0.5926  0.0475 -0.2373
  404TMC3     O 6089   1.975   2.601  13.374  0.4007 -0.0838 -0.2266
  404TMC3     H 6090   1.887   2.393  13.367  0.7941  1.6839 -0.9297
  404TMC3    H1 6091   1.968   2.562  12.985 -0.2428 -0.5084  0.5281
  404TMC3    H2 6092   1.858   2.153  13.027 -1.7600 -0.2596  0.2670
  404TMC3    C7 6093   1.967   2.354  12.863 -0.1214 -0.6219 -0.1987
  404TMC3    C8 6094   1.902   2.145  13.279  0.2179  0.3747 -0.0748
  404TMC3    O1 6095   2.059   2.426  12.832 -0.0390 -0.5408  0.1137
  404TMC3    O2 6096   1.968   2.071  13.209 -0.5319 -1.0334 -0.1498
  405MPD2     C 6097   2.516   3.268  14.915  0.2247 -0.0282 -0.1362
  405MPD2    C1 6098   2.465   3.199  14.806 -0.7496  0.0900  0.3680
  405MPD2    C2 6099   2.339   3.228  14.758  0.0410 -0.6039  0.5903
  405MPD2    C3 6100   2.275   3.341  14.808 -0.2947 -0.7037  0.3128
  405MPD2    C4 6101   2.328   3.411  14.911  0.2535 -0.8574  0.1934
  405MPD2    C5 6102   2.446   3.375  14.965 -0.2055 -0.6777 -0.7690
  405MPD2     H 6103   2.283   3.178  14.681 -0.4175  0.9989 -0.1171
  405MPD2    H1 6104   2.281   3.496  14.957 -1.4686 -0.8540 -1.5468
  405MPD2    H2 6105   2.607   3.240  14.967  0.2841 -1.3549 -0.9663
  405MPD2    H3 6106   2.487   3.419  15.055 -1.1502 -0.9078 -0.2220
  405MPD2     N 6107   2.143   3.364  14.751 -0.5098 -0.2217  0.1363
  405MPD2    H5 6108   2.112   3.294  14.684  1.3059  0.3666 -1.3093
  405MPD2    N1 6109   2.550   3.094  14.758 -0.1840 -0.1687  0.4121
  405MPD2    H7 6110   2.633   3.073  14.813 -0.1035 -0.4020  0.2000
  406TMC3    C1 6111   1.689   3.414  14.762 -0.1723 -0.9738 -0.0615
  406TMC3    C2 6112   1.678   3.307  14.680  0.1135 -0.0599  0.2647
  406TMC3    C3 6113   1.788   3.275  14.607 -0.0781 -0.8727 -0.7459
  406TMC3    C4 6114   1.806   3.480  14.789 -0.0764 -0.3436  0.1196
  406TMC3    C5 6115   1.919   3.437  14.722 -0.5371  0.2890 -0.8359
  406TMC3    C6 6116   1.908   3.336  14.630  0.7030  0.6786  0.3713
  406TMC3     C 6117   1.575   3.490  14.799 -0.1421  0.0446 -0.1413
  406TMC3     O 6118   1.568   3.613  14.797  0.1966 -0.0740 -0.4687
  406TMC3     H 6119   1.583   3.257  14.666 -0.6119  1.0641  1.0974
  406TMC3    H1 6120   1.794   3.564  14.856  1.8029  3.4475 -4.3249
  406TMC3    H2 6121   1.989   3.311  14.562  0.4842 -0.3091  0.4751
  406TMC3    C7 6122   2.051   3.457  14.787  0.2917 -0.2703  0.1442
  406TMC3    C8 6123   1.790   3.139  14.563  1.1074  0.2802  0.3949
  406TMC3    O1 6124   2.066   3.550  14.863  0.3801 -0.2533 -0.3094
  406TMC3    O2 6125   1.691   3.078  14.536  0.0591  0.5914  0.2720
  407MPD2     C 6126   0.115   4.263   9.675 -0.1085 -0.1962  0.4645
  407MPD2    C1 6127   0.238   4.310   9.718 -0.7210 -0.6498  0.2921
  407MPD2    C2 6128   0.239   4.378   9.843  0.0845  0.1184  0.5236
  407MPD2    C3 6129   0.126   4.396   9.919 -1.1622 -0.9740  0.1351
  407MPD2    C4 6130   0.001   4.354   9.869  0.0110  0.1056 -0.2973
  407MPD2    C5 6131   0.003   4.287   9.749 -0.2366  0.1488  0.0229
  407MPD2     H 6132   0.335   4.409   9.881  0.2015 -1.0325  1.1640
  407MPD2    H1 6133   4.649   4.366   9.930  0.2948  0.9393 -0.0544
  407MPD2    H2 6134   0.107   4.224   9.574 -1.1020  2.1938 -0.3611
  407MPD2    H3 6135   4.651   4.234   9.719 -0.3090  0.4776 -0.3418
  407MPD2     N 6136   0.127   4.465  10.044 -0.1717  0.3455 -0.7802
  407MPD2    H5 6137   0.037   4.480  10.089 -0.7625  0.6248 -2.0658
  407MPD2    N1 6138   0.353   4.299   9.647  0.2497 -0.4429 -0.3609
  407MPD2    H7 6139   0.441   4.331   9.687  0.3839 -0.3047 -0.7592
  408TMC3    C1 6140   0.501   4.254   9.464 -0.0266  0.2627  0.0987
  408TMC3    C2 6141   0.552   4.134   9.437 -0.4567  0.3798  0.1739
  408TMC3    C3 6142   0.680   4.134   9.396 -0.0017  0.2774 -0.2285
  408TMC3    C4 6143   0.577   4.368   9.468  0.2354 -0.6864  0.0973
  408TMC3    C5 6144   0.710   4.355   9.429  0.3032  0.2536 -0.3052
  408TMC3    C6 6145   0.750   4.242   9.372 -0.8266 -0.6162 -0.1960
  408TMC3     C 6146   0.362   4.253   9.515  0.0054  0.6773  0.0316
  408TMC3     O 6147   0.283   4.196   9.437 -0.0527  0.3253  0.1599
  408TMC3     H 6148   0.481   4.052   9.447 -0.9199  0.6003 -1.3396
  408TMC3    H1 6149   0.535   4.462   9.499 -2.1035 -1.1653 -1.6020
  408TMC3    H2 6150   0.851   4.230   9.333 -0.1475 -0.8355  1.5946
  408TMC3    C7 6151   0.811   4.436   9.501 -0.3189 -0.2445 -0.2501
  408TMC3    C8 6152   0.749   4.019   9.460  0.0460  0.0354  0.2015
  408TMC3    O1 6153   0.914   4.373   9.517  0.6001  0.2045  0.0461
  408TMC3    O2 6154   0.687   3.916   9.475  0.2534  0.1717  0.1183
  409MPD2     C 6155   4.288   1.273  16.981 -0.3414 -0.2977 -0.3494
  409MPD2    C1 6156   4.384   1.182  17.010 -0.4691 -0.0974 -0.4959
  409MPD2    C2 6157   4.508   1.200  16.956  0.2984  0.0274 -0.7587
  409MPD2    C3 6158   4.543   1.318  16.888  0.1684 -0.5357 -0.1853
  409MPD2    C4 6159   4.443   1.409  16.861  0.2432  0.4374  0.7633
  409MPD2    C5 6160   4.312   1.387  16.914 -0.3528 -0.6662  0.2716
  409MPD2     H 6161   4.581   1.122  16.966 -1.9641 -1.4710  3.9864
  409MPD2    H1 6162   4.472   1.499  16.809  1.5611 -0.9318 -0.8984
  409MPD2    H2 6163   4.191   1.263  17.030 -0.6760  1.1670 -0.6987
  409MPD2    H3 6164   4.231   1.459  16.910  1.9441  1.9121 -0.0531
  409MPD2     N 6165   4.672   1.352  16.843  0.2621  0.2364 -0.3460
  409MPD2    H5 6166   4.686   1.443  16.800  0.3083  0.0036 -0.8250
  409MPD2    N1 6167   4.359   1.070  17.096  0.0819 -0.4861  0.1557
  409MPD2    H7 6168   4.430   0.997  17.098  1.8923  1.2359 -0.4272
  410TMC3    C1 6169   0.159   1.351  16.783 -0.0486 -0.5581  0.0443
  410TMC3    C2 6170   0.283   1.289  16.795  0.2602  0.0149 -0.0744
  410TMC3    C3 6171   0.392   1.360  16.760  0.1018 -0.7206  0.1877
  410TMC3    C4 6172   0.151   1.472  16.720 -0.3547 -0.0596  0.1160
  410TMC3    C5 6173   0.264   1.534  16.674  0.0796 -0.2067  0.0189
  410TMC3    C6 6174   0.387   1.486  16.711  0.2670  0.3800  0.5675
  410TMC3     C 6175   0.046   1.281  16.843  0.2177 -0.0118  0.4494
  410TMC3     O 6176   0.070   1.164  16.883  0.3211 -0.0608  0.3374
  410TMC3     H 6177   0.288   1.202  16.861  0.1476 -0.3399 -0.5331
  410TMC3    H1 6178   0.052   1.511  16.698 -0.9416 -0.6925  1.6593
  410TMC3    H2 6179   0.479   1.543  16.697 -0.7193  1.3643 -1.9533
  410TMC3    C7 6180   0.256   1.633  16.566 -1.4190 -0.9132 -0.7295
  410TMC3    C8 6181   0.522   1.317  16.820 -0.1140 -0.0475 -0.1676
  410TMC3    O1 6182   0.148   1.688  16.578  0.0158 -0.0112  0.6520
  410TMC3    O2 6183   0.594   1.410  16.851  0.1621 -0.0417  0.1623
  411MPD2     C 6184   4.494   1.231  14.724 -0.3018  0.1707 -1.2800
  411MPD2    C1 6185   4.374   1.291  14.754  0.2272  0.1881 -0.3064
  411MPD2    C2 6186   4.260   1.215  14.779 -0.5771  1.3327 -0.4672
  411MPD2    C3 6187   4.271   1.078  14.775  0.7567  0.3992 -0.2170
  411MPD2    C4 6188   4.385   1.013  14.734 -0.4300  0.3624  0.1461
  411MPD2    C5 6189   4.499   1.089  14.712 -0.2329  0.1951 -0.5919
  411MPD2     H 6190   4.166   1.267  14.796 -1.0677 -0.0112  0.8479
  411MPD2    H1 6191   4.398   0.908  14.756  1.2778  0.6424  0.4841
  411MPD2    H2 6192   4.572   1.291  14.681 -1.6639  1.5239 -1.8546
  411MPD2    H3 6193   4.594   1.046  14.681  0.5423 -0.8401  3.2966
  411MPD2     N 6194   4.151   1.000  14.789 -0.2274 -0.4699 -0.4338
  411MPD2    H5 6195   4.161   0.907  14.751 -1.9991 -1.2348  0.9497
  411MPD2    N1 6196   4.356   1.427  14.738 -0.0392 -0.0174  0.5300
  411MPD2    H7 6197   4.261   1.460  14.748  0.0429  0.1940  0.6294
  412TMC3    C1 6198   3.911   0.973  14.786  0.4424  0.0823  0.3033
  412TMC3    C2 6199   3.800   1.061  14.777 -1.1666 -0.0332 -0.0485
  412TMC3    C3 6200   3.719   1.054  14.667 -0.1307  0.0532 -0.1455
  412TMC3    C4 6201   3.938   0.890  14.685 -0.8481  0.5498  0.4631
  412TMC3    C5 6202   3.850   0.880  14.582  0.1173 -0.3755  0.3548
  412TMC3    C6 6203   3.740   0.957  14.571  0.3530 -0.0990  0.5114
  412TMC3     C 6204   4.027   1.041  14.833  0.0856 -0.4585  0.2872
  412TMC3     O 6205   4.008   1.131  14.920  0.4544 -0.0750  0.3440
  412TMC3     H 6206   3.777   1.131  14.857 -1.4037 -1.4221  1.1042
  412TMC3    H1 6207   4.021   0.820  14.690 -0.0109  1.6416  2.2547
  412TMC3    H2 6208   3.671   0.951  14.488  1.4101  1.1152 -0.4624
  412TMC3    C7 6209   3.863   0.780  14.470 -0.1500 -0.0523 -0.2252
  412TMC3    C8 6210   3.712   1.189  14.619  0.0255  0.4163  0.1035
  412TMC3    O1 6211   3.753   0.744  14.426  0.0692 -0.0774  0.7062
  412TMC3    O2 6212   3.774   1.283  14.668 -0.0773 -0.2096  0.0586
  413MPD2     C 6213   2.123   4.597  15.681 -0.4289  0.6652  0.0941
  413MPD2    C1 6214   2.070   4.524  15.578  0.4764 -0.0305 -0.3801
  413MPD2    C2 6215   2.070   4.381  15.577 -0.1104  0.3926 -0.0420
  413MPD2    C3 6216   2.127   4.321  15.687  0.5650 -0.6085 -0.4249
  413MPD2    C4 6217   2.192   4.392  15.786 -0.5344 -0.4296 -0.3002
  413MPD2    C5 6218   2.185   4.529  15.783 -0.6210 -0.5221  0.7172
  413MPD2     H 6219   2.025   4.326  15.495 -1.6051 -1.8044  2.2578
  413MPD2    H1 6220   2.246   4.339  15.864 -3.5552 -0.4097  1.8187
  413MPD2    H2 6221   2.129   4.705  15.676  0.8203  0.6330  0.6442
  413MPD2    H3 6222   2.232   4.588  15.861  1.6745  2.6693 -3.0751
  413MPD2     N 6223   2.154   4.185  15.668 -0.3575 -0.3222  0.8239
  413MPD2    H5 6224   2.115   4.141  15.585 -0.5323  2.9063 -0.8115
  413MPD2    N1 6225   2.009   4.595  15.468  0.3080  0.2355  0.0859
  413MPD2    H7 6226   2.008   4.696  15.462  0.5216  0.0317 -3.1168
  414TMC3    C1 6227   2.244   3.968  15.693  0.0901  0.8066  0.5936
  414TMC3    C2 6228   2.228   3.849  15.766 -0.3124  0.4916 -0.1326
  414TMC3    C3 6229   2.256   3.735  15.695 -0.5664 -0.5680 -0.0831
  414TMC3    C4 6230   2.285   3.975  15.568  0.4126  0.0033  0.7716
  414TMC3    C5 6231   2.322   3.851  15.514 -0.3173 -0.0083  0.4884
  414TMC3    C6 6232   2.307   3.727  15.574 -0.2480 -0.1123  0.8274
  414TMC3     C 6233   2.213   4.096  15.756  0.0081  0.0706 -0.0690
  414TMC3     O 6234   2.230   4.100  15.878 -0.0685 -0.3397  0.2559
  414TMC3     H 6235   2.183   3.846  15.864 -0.0445  2.6445  0.0636
  414TMC3    H1 6236   2.317   4.068  15.522  1.2968 -0.6123  0.1452
  414TMC3    H2 6237   2.353   3.632  15.546  2.2416  1.3096  0.1527
  414TMC3    C7 6238   2.435   3.863  15.425  0.5803  0.1667  0.0401
  414TMC3    C8 6239   2.273   3.615  15.771 -0.4506 -0.1647 -0.4895
  414TMC3    O1 6240   2.471   3.976  15.397 -0.7479 -0.1293 -0.0309
  414TMC3    O2 6241   2.196   3.525  15.729  0.5345  0.0260  0.0406
  415TMC3    C1 6242   2.481   1.856  10.366  0.1907 -0.3049  0.5583
  415TMC3    C2 6243   2.619   1.890  10.366  0.1959 -0.4729 -0.4474
  415TMC3    C3 6244   2.706   1.802  10.297 -0.5932 -0.0574  0.9959
  415TMC3    C4 6245   2.427   1.746  10.310  0.0847  0.3703  0.7530
  415TMC3    C5 6246   2.516   1.665  10.241  0.1404  0.2990  0.6961
  415TMC3    C6 6247   2.649   1.691  10.241  0.0743  0.5430 -0.2689
  415TMC3     C 6248   2.394   1.927  10.460  0.6008 -0.1764  0.1795
  415TMC3     O 6249   2.277   1.894  10.466 -0.1531  0.3382 -0.0416
  415TMC3     H 6250   2.656   1.986  10.400  2.3937 -0.5324 -2.6418
  415TMC3    H1 6251   2.319   1.744  10.299  0.3828 -1.1079 -1.8600
  415TMC3    H2 6252   2.720   1.624  10.194 -0.5673 -2.1294  2.5863
  415TMC3    C7 6253   2.472   1.554  10.159  0.5741 -0.6603  0.6974
  415TMC3    C8 6254   2.841   1.831  10.262 -0.6382 -0.1246 -0.1899
  415TMC3    O1 6255   2.547   1.526  10.069 -0.5893 -0.5362  0.2563
  415TMC3    O2 6256   2.901   1.744  10.201 -0.5753 -0.4087  0.6236
  416MPD2     C 6257   3.759   1.070  11.326  0.2570 -0.8421  0.2738
  416MPD2    C1 6258   3.771   0.959  11.406  0.4057 -0.1344  0.0044
  416MPD2    C2 6259   3.885   0.880  11.391  0.0569  0.0572  0.6344
  416MPD2    C3 6260   3.984   0.907  11.297  0.3844  0.6669  0.2845
  416MPD2    C4 6261   3.976   1.031  11.226 -0.1769 -0.8655 -0.3118
  416MPD2    C5 6262   3.866   1.105  11.242 -0.4907 -0.3862 -0.4539
  416MPD2     H 6263   3.904   0.791  11.449  1.3276 -1.3897 -1.9914
  416MPD2    H1 6264   4.065   1.080  11.189 -0.7835  0.9128  0.5837
  416MPD2    H2 6265   3.667   1.127  11.333  0.0017 -0.9415 -2.2223
  416MPD2    H3 6266   3.870   1.190  11.175 -2.5345  1.0485  1.2705
  416MPD2     N 6267   4.085   0.815  11.268 -0.0862 -0.3945 -0.2058
  416MPD2    H5 6268   4.098   0.746  11.341  1.3539  1.1268  0.9624
  416MPD2    N1 6269   3.656   0.919  11.481  0.2737 -0.6048 -0.3135
  416MPD2    H7 6270   3.577   0.982  11.469  0.8584 -0.3332 -2.6899
  417TMC3    C1 6271   3.499   0.797  11.597  0.2615  0.0454 -0.6369
  417TMC3    C2 6272   3.471   0.872  11.711  0.6826 -0.2382  0.1082
  417TMC3    C3 6273   3.373   0.973  11.701 -0.4293 -0.1469 -0.3516
  417TMC3    C4 6274   3.432   0.815  11.480  0.7407 -0.5025 -0.5263
  417TMC3    C5 6275   3.337   0.915  11.476 -0.1591 -0.2902  0.4629
  417TMC3    C6 6276   3.308   0.997  11.584 -0.1430  0.0522  0.4449
  417TMC3     C 6277   3.638   0.814  11.570 -0.4152 -0.4134 -0.4117
  417TMC3     O 6278   3.724   0.749  11.623 -0.2663 -0.1720 -0.0357
  417TMC3     H 6279   3.542   0.851  11.791 -0.2807 -0.2670  0.9547
  417TMC3    H1 6280   3.473   0.759  11.397 -1.6002 -1.4313 -1.0641
  417TMC3    H2 6281   3.228   1.071  11.582  0.5659  0.8457  1.2095
  417TMC3    C7 6282   3.362   0.998  11.360 -0.0492 -0.1454  0.2410
  417TMC3    C8 6283   3.319   1.032  11.821 -0.2143 -0.2129  0.2026
  417TMC3    O1 6284   3.404   1.112  11.390  0.1170 -0.2517  0.0373
  417TMC3    O2 6285   3.258   1.140  11.805  0.2268 -0.1304  0.3723
  418TMC3    C1 6286   2.938   3.741   0.385 -0.7058 -0.9943 -0.0022
  418TMC3    C2 6287   2.825   3.809   0.338 -0.1996  0.7008 -0.5283
  418TMC3    C3 6288   2.732   3.838   0.434 -0.4685  0.1224  1.0933
  418TMC3    C4 6289   2.956   3.702   0.512  0.6275 -0.6107  0.9922
  418TMC3    C5 6290   2.848   3.715   0.595 -0.1362 -0.1499 -0.1062
  418TMC3    C6 6291   2.740   3.798   0.564 -0.5402  0.1767  0.1210
  418TMC3     C 6292   3.013   3.676   0.280 -0.0824  0.1120 -0.4717
  418TMC3     O 6293   3.022   3.734   0.174 -0.2276  0.1060  0.2873
  418TMC3     H 6294   2.820   3.832   0.233 -1.4936 -0.7888 -0.7901
  418TMC3    H1 6295   3.042   3.648   0.549  0.8216 -2.0566 -1.5197
  418TMC3    H2 6296   2.659   3.805   0.635 -0.1068  5.0013  0.1535
  418TMC3    C7 6297   2.869   3.666   0.725 -0.9012 -0.3143 -0.7665
  418TMC3    C8 6298   2.588   3.856   0.395  0.4730  0.9060  0.3057
  418TMC3    O1 6299   2.943   3.569   0.734  0.1386  0.1422 -0.0761
  418TMC3    O2 6300   2.563   3.965   0.339  0.0115  0.2630  0.3309
  419MPD2     C 6301   1.351   0.653  12.776  0.0597 -0.5354 -0.3638
  419MPD2    C1 6302   1.283   0.763  12.731  0.9205 -0.1004  0.0019
  419MPD2    C2 6303   1.227   0.846  12.822 -0.6039  0.4215  0.1701
  419MPD2    C3 6304   1.241   0.827  12.959 -0.4267 -0.5245 -0.1241
  419MPD2    C4 6305   1.311   0.714  13.005 -0.0128  0.3988 -0.6449
  419MPD2    C5 6306   1.359   0.628  12.914 -0.6601 -0.5595 -0.0967
  419MPD2     H 6307   1.166   0.927  12.785 -0.3812  0.2461 -0.5942
  419MPD2    H1 6308   1.315   0.694  13.112 -1.1134 -0.4972 -0.7756
  419MPD2    H2 6309   1.408   0.600  12.701  1.0218 -1.0702  0.7457
  419MPD2    H3 6310   1.403   0.536  12.950 -0.0700 -0.7852 -1.4011
  419MPD2     N 6311   1.193   0.932  13.040 -0.1472  0.2919  0.3028
  419MPD2    H5 6312   1.143   1.003  12.988  1.4483 -0.5458 -2.3282
  419MPD2    N1 6313   1.282   0.808  12.600  0.1205  0.5673  0.0650
  419MPD2    H7 6314   1.239   0.899  12.583  2.2162  1.6634  0.5170
  420TMC3    C1 6315   1.128   1.048  13.225  0.1918 -0.5926  0.7285
  420TMC3    C2 6316   1.115   1.154  13.147  0.0097  0.6441 -0.3164
  420TMC3    C3 6317   1.047   1.261  13.204 -0.5969  0.3462  0.4351
  420TMC3    C4 6318   1.065   1.038  13.352 -0.5703  0.0234 -0.2671
  420TMC3    C5 6319   0.996   1.143  13.399 -0.5389  0.7616 -0.2970
  420TMC3    C6 6320   0.978   1.254  13.319 -0.4582  0.0664  0.5881
  420TMC3     C 6321   1.196   0.935  13.181  0.2051  0.2531 -0.3500
  420TMC3     O 6322   1.223   0.847  13.265  0.0565  0.3098 -0.6885
  420TMC3     H 6323   1.167   1.173  13.053  0.5645  1.0353  0.0684
  420TMC3    H1 6324   1.069   0.945  13.406  0.8267 -0.0116 -0.4412
  420TMC3    H2 6325   0.897   1.322  13.345 -0.8839 -0.4205  0.5372
  420TMC3    C7 6326   0.939   1.125  13.538 -0.4168  0.1630 -0.1385
  420TMC3    C8 6327   0.994   1.361  13.109  0.0834  0.0003 -0.4604
  420TMC3    O1 6328   0.951   1.012  13.587  0.1849  0.0210 -0.1866
  420TMC3    O2 6329   0.993   1.337  12.992  0.1921 -0.1303 -0.2826
  421TMC3    C1 6330   2.478   2.519  13.805 -0.1952 -0.3453 -0.0030
  421TMC3    C2 6331   2.395   2.588  13.886  0.4151  0.3826  0.4587
  421TMC3    C3 6332   2.435   2.584  14.021  0.8089  0.6502  0.7588
  421TMC3    C4 6333   2.580   2.446  13.861  0.1107 -0.0861  0.8286
  421TMC3    C5 6334   2.607   2.440  13.993  0.0643 -0.4307  0.1468
  421TMC3    C6 6335   2.531   2.510  14.075 -0.2698 -0.5049 -0.3356
  421TMC3     C 6336   2.497   2.587  13.677  0.0042  0.0349  0.7004
  421TMC3     O 6337   2.604   2.624  13.640 -0.6616  0.9143  0.2399
  421TMC3     H 6338   2.322   2.651  13.838  0.0297  0.1975  0.8065
  421TMC3    H1 6339   2.654   2.424  13.785 -0.9690 -1.0697  0.0579
  421TMC3    H2 6340   2.551   2.504  14.182 -3.2104  0.1126  0.2608
  421TMC3    C7 6341   2.749   2.419  14.030 -0.1131 -0.3604  0.0675
  421TMC3    C8 6342   2.396   2.695  14.106 -0.2227  0.3902 -0.1313
  421TMC3    O1 6343   2.798   2.486  14.119 -0.3189  0.0833 -0.6893
  421TMC3    O2 6344   2.483   2.737  14.179  0.1376 -0.2188 -0.5519
  422TMC3    C1 6345   4.594   3.873  12.768 -0.3049 -0.0228  0.0839
  422TMC3    C2 6346   4.571   3.980  12.849  0.3074 -0.4070  0.5084
  422TMC3    C3 6347   4.507   3.959  12.969 -0.0647  0.3016 -0.3269
  422TMC3    C4 6348   4.548   3.749  12.804  0.5753 -0.7875  0.4370
  422TMC3    C5 6349   4.467   3.742  12.920  0.5307  0.4897 -0.5011
  422TMC3    C6 6350   4.437   3.844  13.000 -1.2928 -0.1097  1.0336
  422TMC3     C 6351   4.699   3.879  12.670 -0.2402  0.0686  0.4579
  422TMC3     O 6352   0.045   3.969  12.675  0.0466  0.1882 -0.0011
  422TMC3     H 6353   4.636   4.066  12.844 -0.7806  0.1721 -3.7812
  422TMC3    H1 6354   4.578   3.661  12.749  0.6148 -2.4887  3.1450
  422TMC3    H2 6355   4.381   3.841  13.092 -1.3022  2.4574  1.1176
  422TMC3    C7 6356   4.420   3.604  12.949 -0.2788  0.4175 -0.6505
  422TMC3    C8 6357   4.519   4.072  13.070 -0.4013 -0.8617  0.2918
  422TMC3    O1 6358   4.502   3.517  12.929  0.4382  0.4394 -0.0781
  422TMC3    O2 6359   4.553   4.186  13.038  0.3712  0.3411 -0.4194
  423MPD2     C 6360   1.155   1.087   0.477 -0.5590  0.5345 -0.3822
  423MPD2    C1 6361   1.143   0.963   0.535 -0.3145  0.2782  0.0180
  423MPD2    C2 6362   1.187   0.851   0.459  0.0897 -0.0029 -0.4417
  423MPD2    C3 6363   1.251   0.871   0.336 -0.4427  0.1547 -0.8718
  423MPD2    C4 6364   1.267   0.996   0.283 -0.7652  0.1747 -0.1792
  423MPD2    C5 6365   1.223   1.109   0.358 -0.0699 -0.0862  0.1328
  423MPD2     H 6366   1.177   0.753   0.504 -1.1099  1.3567  2.2496
  423MPD2    H1 6367   1.305   1.024   0.186 -0.4310  0.1980 -0.0427
  423MPD2    H2 6368   1.120   1.178   0.524 -2.0056 -0.0171 -0.3986
  423MPD2    H3 6369   1.232   1.207   0.312  2.3394 -0.1232  0.5096
  423MPD2     N 6370   1.308   0.768   0.267  0.4060 -0.5993 -0.2731
  423MPD2    H5 6371   1.340   0.794   0.174  2.4850  0.1452  0.6450
  423MPD2    N1 6372   1.104   0.939   0.664  0.0129 -0.3898 -0.2403
  423MPD2    H7 6373   1.136   0.848   0.698 -2.4851 -1.0736  0.2619
  424TMC3    C1 6374   1.007   0.975   0.878  0.7621 -0.4216 -0.4409
  424TMC3    C2 6375   1.100   0.891   0.936 -0.5736  0.2528  0.6668
  424TMC3    C3 6376   1.081   0.855   1.065  0.3601  0.2842 -0.0878
  424TMC3    C4 6377   0.896   1.021   0.954  0.4039 -0.2580 -0.0080
  424TMC3    C5 6378   0.884   0.981   1.080 -0.3883 -0.3561  0.4299
  424TMC3    C6 6379   0.977   0.900   1.143 -0.2618  0.7100 -0.0513
  424TMC3     C 6380   1.013   1.014   0.739  0.5554 -0.5575  0.4194
  424TMC3     O 6381   0.941   1.107   0.698 -0.0954 -0.0721 -0.7169
  424TMC3     H 6382   1.188   0.858   0.883  0.3814  2.0980  1.1371
  424TMC3    H1 6383   0.821   1.086   0.908  2.1279  0.4660 -1.8391
  424TMC3    H2 6384   0.945   0.851   1.234 -1.1470  0.2118 -0.6372
  424TMC3    C7 6385   0.751   0.988   1.144  0.2125  0.4741  0.4164
  424TMC3    C8 6386   1.156   0.750   1.115 -0.1191 -0.3519 -0.4611
  424TMC3    O1 6387   0.747   0.985   1.266 -0.5900  0.5697  0.2649
  424TMC3    O2 6388   1.182   0.663   1.034  0.1489  0.0293 -1.0230
  425MPD2     C 6389   4.675   4.411  16.775 -0.3865  0.0010  0.1364
  425MPD2    C1 6390   4.694   4.381  16.910  0.0173  0.2524 -0.4350
  425MPD2    C2 6391   4.617   4.449  17.003  0.8602  0.8179 -0.2251
  425MPD2    C3 6392   4.525   4.551  16.964  0.0207 -0.0649 -1.0102
  425MPD2    C4 6393   4.508   4.579  16.830  0.1397  0.6886  0.4285
  425MPD2    C5 6394   4.588   4.514  16.745 -0.4486 -0.2222  0.3201
  425MPD2     H 6395   4.640   4.415  17.103 -0.0819 -1.5668 -0.8108
  425MPD2    H1 6396   4.442   4.656  16.792 -0.1090  0.2093 -0.1021
  425MPD2    H2 6397   0.005   4.376  16.698  2.7172  1.2169  2.2834
  425MPD2    H3 6398   4.572   4.538  16.640 -0.1523  1.8344  0.7527
  425MPD2     N 6399   4.433   4.615  17.058 -0.4608  0.2388  0.6814
  425MPD2    H5 6400   4.346   4.637  17.010 -0.2503 -0.4298 -0.0032
  425MPD2    N1 6401   0.037   4.273  16.949  0.1310 -0.3956 -0.0547
  425MPD2    H7 6402   0.059   4.209  16.874 -0.3615  1.0909 -1.4835
  426TMC3    C1 6403   0.135   4.118  17.089  0.0261 -0.0045  1.2240
  426TMC3    C2 6404   0.133   4.028  16.988  0.9466 -0.9125  0.7644
  426TMC3    C3 6405   0.134   3.898  17.021 -0.4306 -0.2810  0.0564
  426TMC3    C4 6406   0.118   4.084  17.220  0.3584  0.2607 -0.4736
  426TMC3    C5 6407   0.121   3.947  17.248  0.6201  0.0822  0.2421
  426TMC3    C6 6408   0.134   3.858  17.149  0.1416 -0.1786 -0.2260
  426TMC3     C 6409   0.102   4.256  17.069  0.4482 -0.6315 -1.0021
  426TMC3     O 6410   0.110   4.338  17.163  0.7196  0.0188  0.0931
  426TMC3     H 6411   0.146   4.058  16.884 -1.2036  0.2715  0.8355
  426TMC3    H1 6412   0.132   4.157  17.299 -0.4581 -0.7075  0.5577
  426TMC3    H2 6413   0.166   3.756  17.165  1.6398  0.5741  1.6047
  426TMC3    C7 6414   0.117   3.907  17.388 -0.1033 -0.0463  1.1052
  426TMC3    C8 6415   0.167   3.807  16.914  0.1976 -0.5045  0.1919
  426TMC3    O1 6416   0.147   3.791  17.408  0.4673 -0.0367  0.2275
  426TMC3    O2 6417   0.259   3.827  16.838 -0.6462  0.6962  0.4368
  427MPD2     C 6418   3.744   1.381  15.017 -0.0672  0.5832 -0.7444
  427MPD2    C1 6419   3.695   1.377  15.149  0.1278  0.1409  0.0684
  427MPD2    C2 6420   3.569   1.425  15.179 -0.5273 -0.2209  0.2943
  427MPD2    C3 6421   3.483   1.477  15.086  0.0974  0.2169 -0.1596
  427MPD2    C4 6422   3.541   1.495  14.956  0.4952 -0.0067 -0.0924
  427MPD2    C5 6423   3.669   1.458  14.930  0.0676 -0.6635  0.4492
  427MPD2     H 6424   3.524   1.442  15.277 -0.3757 -1.4551  0.5712
  427MPD2    H1 6425   3.474   1.543  14.886  0.8917 -0.2033 -0.6055
  427MPD2    H2 6426   3.842   1.347  14.984  1.4986  2.0954  2.3984
  427MPD2    H3 6427   3.707   1.482  14.832 -1.6848  1.1098  0.2136
  427MPD2     N 6428   3.352   1.533  15.109  0.5117 -0.1500 -0.1241
  427MPD2    H5 6429   3.306   1.578  15.031  2.3297  1.3407 -0.3449
  427MPD2    N1 6430   3.787   1.327  15.244 -0.3949 -0.5806 -0.5872
  427MPD2    H7 6431   3.880   1.302  15.212  0.0359 -0.3269  0.4728
  428TMC3    C1 6432   3.886   1.269  15.444 -0.1479 -0.1857 -0.7277
  428TMC3    C2 6433   3.864   1.215  15.567 -0.4863  0.3062  0.3644
  428TMC3    C3 6434   3.957   1.222  15.663  1.0096  0.1614 -0.1158
  428TMC3    C4 6435   3.994   1.347  15.420  0.0378 -0.1884  0.3348
  428TMC3    C5 6436   4.090   1.347  15.518 -0.2723 -0.1802 -0.2271
  428TMC3    C6 6437   4.068   1.290  15.640  0.2395  0.1577 -0.2441
  428TMC3     C 6438   3.762   1.296  15.378 -0.0374  0.2700 -0.3965
  428TMC3     O 6439   3.656   1.299  15.438  0.2698 -0.7580 -0.0035
  428TMC3     H 6440   3.776   1.152  15.571  0.1756 -0.6392 -0.0605
  428TMC3    H1 6441   3.997   1.412  15.334 -1.9665 -0.8804 -0.2774
  428TMC3    H2 6442   4.143   1.302  15.718  0.3122 -1.2877 -0.0923
  428TMC3    C7 6443   4.214   1.426  15.498 -0.5256 -0.9069 -0.2083
  428TMC3    C8 6444   3.946   1.127  15.767 -0.2373  0.4216 -0.2729
  428TMC3    O1 6445   4.267   1.460  15.602 -0.0368 -0.0873  0.3375
  428TMC3    O2 6446   3.859   1.038  15.752  0.3719 -0.0567  0.5017
  429MPD2     C 6447   0.266   1.745   0.282 -0.7832 -0.1880  0.4430
  429MPD2    C1 6448   0.254   1.646   0.185 -0.6907 -0.0071  0.1616
  429MPD2    C2 6449   0.256   1.679   0.056  0.3997  0.1928 -0.5824
  429MPD2    C3 6450   0.265   1.807   0.011  0.3065 -0.1746  0.4654
  429MPD2    C4 6451   0.281   1.906   0.105  0.0201 -0.0396  0.0362
  429MPD2    C5 6452   0.275   1.875   0.241 -0.2883 -0.1844 -0.6191
  429MPD2     H 6453   0.243   1.594  17.737  0.1716 -1.4975  1.6401
  429MPD2    H1 6454   0.290   2.012   0.085  1.3800 -0.2316 -0.3439
  429MPD2    H2 6455   0.269   1.726   0.389 -2.7169 -1.3996  0.2747
  429MPD2    H3 6456   0.290   1.948   0.320  0.5031 -0.3422 -0.6205
  429MPD2     N 6457   0.261   1.831  17.615 -0.2209  0.1512 -0.1504
  429MPD2    H5 6458   0.237   1.750  17.560  1.8856  0.0704 -0.9723
  429MPD2    N1 6459   0.226   1.513   0.219  0.2282 -0.7225 -0.4727
  429MPD2    H7 6460   0.190   1.453   0.145 -1.4642 -0.7819  0.4033
  430TMC3    C1 6461   0.273   1.952  17.405  0.0328  0.1038  0.2903
  430TMC3    C2 6462   0.199   2.049  17.341 -0.1993  0.4080 -0.1834
  430TMC3    C3 6463   0.185   2.034  17.209  0.7338 -1.0349 -0.2830
  430TMC3    C4 6464   0.336   1.845  17.341 -1.4275  0.7480  0.1432
  430TMC3    C5 6465   0.319   1.838  17.206  0.0155  0.5770 -0.0839
  430TMC3    C6 6466   0.246   1.935  17.141 -0.0131 -0.0504 -0.0676
  430TMC3     C 6467   0.267   1.952  17.552  0.4427 -0.3923 -0.4897
  430TMC3     O 6468   0.266   2.066  17.597 -0.2115 -0.0453 -0.6183
  430TMC3     H 6469   0.166   2.137  17.395  0.4205  0.8568 -0.5408
  430TMC3    H1 6470   0.402   1.773  17.389 -1.9563  0.3950  0.3454
  430TMC3    H2 6471   0.257   1.936  17.033  0.2567 -0.7490 -0.0474
  430TMC3    C7 6472   0.422   1.789  17.128  0.0591  0.3612 -0.6714
  430TMC3    C8 6473   0.151   2.149  17.120 -0.7095 -0.0108  0.1157
  430TMC3    O1 6474   0.383   1.746  17.019 -0.2484 -0.9502  0.0417
  430TMC3    O2 6475   0.114   2.119  17.008  0.5632  0.3826 -0.1087
  431MPD2     C 6476   1.054   1.571  12.553 -0.5297 -0.3074  0.5302
  431MPD2    C1 6477   1.139   1.557  12.450 -0.7664 -1.1425  0.5192
  431MPD2    C2 6478   1.146   1.425  12.397 -0.3399 -0.2426  0.5522
  431MPD2    C3 6479   1.073   1.320  12.450  0.7679  0.9323 -0.3182
  431MPD2    C4 6480   1.002   1.339  12.567  0.5521  0.4258 -0.5134
  431MPD2    C5 6481   0.981   1.470  12.600  0.0735  0.1948  0.2245
  431MPD2     H 6482   1.219   1.408  12.319  1.1000  0.3436  1.7755
  431MPD2    H1 6483   0.952   1.268  12.632  2.7980 -1.3470 -0.7580
  431MPD2    H2 6484   1.033   1.664  12.603  2.7669 -0.4192  2.1196
  431MPD2    H3 6485   0.917   1.494  12.685  0.7823 -3.0371  1.6796
  431MPD2     N 6486   1.093   1.188  12.401  0.0060 -0.8749 -0.4003
  431MPD2    H5 6487   1.062   1.115  12.465 -0.9126 -0.7950 -0.7625
  431MPD2    N1 6488   1.215   1.663  12.396 -0.7970  0.1081  0.1730
  431MPD2    H7 6489   1.271   1.628  12.319 -1.0528 -3.0615  1.4366
  432TMC3    C1 6490   1.212   1.026  12.272 -0.0646  0.1395  0.0892
  432TMC3    C2 6491   1.273   1.001  12.152 -0.3501  0.3551  0.0696
  432TMC3    C3 6492   1.352   0.887  12.138  1.0177 -0.1931 -0.2404
  432TMC3    C4 6493   1.222   0.947  12.387  0.2140  0.4094  0.1063
  432TMC3    C5 6494   1.295   0.834  12.366 -0.6329  0.2175 -0.0353
  432TMC3    C6 6495   1.355   0.799  12.247 -0.8846 -0.1468 -0.3388
  432TMC3     C 6496   1.156   1.159  12.284  0.2111  0.2000  0.3869
  432TMC3     O 6497   1.156   1.234  12.184 -0.2688  0.7694  0.2697
  432TMC3     H 6498   1.251   1.060  12.063  1.0792 -1.1359 -1.2740
  432TMC3    H1 6499   1.183   0.978  12.484 -0.4909  2.0736 -0.7037
  432TMC3    H2 6500   1.409   0.706  12.235  0.2537  0.4261  0.3423
  432TMC3    C7 6501   1.343   0.757  12.485  0.1743 -0.5104  0.0177
  432TMC3    C8 6502   1.462   0.871  12.046 -0.2384 -0.0285 -0.7080
  432TMC3    O1 6503   1.430   0.670  12.481  0.1522 -0.4414  0.1091
  432TMC3    O2 6504   1.502   0.754  12.030  0.4823 -0.3678  0.0092
  433MPD2     C 6505   0.230   0.188  11.129 -0.1763 -0.0999  1.4229
  433MPD2    C1 6506   0.211   0.061  11.183 -0.5267  0.4883  0.3686
  433MPD2    C2 6507   0.228   0.047  11.321  0.3254 -0.7183  0.2020
  433MPD2    C3 6508   0.254   0.155  11.400 -0.7019 -0.8491  0.3800
  433MPD2    C4 6509   0.281   0.280  11.343 -1.1089 -0.1912  0.1013
  433MPD2    C5 6510   0.260   0.297  11.205 -0.4459 -0.9091 -0.0761
  433MPD2     H 6511   0.214   4.698  11.385  0.4400  1.4102  3.1091
  433MPD2    H1 6512   0.297   0.374  11.394  0.1886  0.1544 -0.9571
  433MPD2    H2 6513   0.212   0.194  11.022  0.9509 -2.5812  1.0852
  433MPD2    H3 6514   0.261   0.396  11.160  0.0833  0.0274  2.0350
  433MPD2     N 6515   0.265   0.113  11.538 -0.4461  0.3063  0.0421
  433MPD2    H5 6516   0.268   0.016  11.567 -0.5617  0.7285  1.4825
  433MPD2    N1 6517   0.171   4.694  11.098  0.1375 -0.0464 -0.4002
  433MPD2    H7 6518   0.175   4.712  10.998  2.1821  0.1373 -0.2897
  434TMC3    C1 6519   0.151   4.471  11.024  0.5259  0.3266 -0.0878
  434TMC3    C2 6520   0.153   4.339  11.055 -0.4218  0.6582  0.4981
  434TMC3    C3 6521   0.186   4.244  10.967  0.3372  0.1816  0.3360
  434TMC3    C4 6522   0.174   4.513  10.892  0.0094  0.0803 -0.2834
  434TMC3    C5 6523   0.211   4.413  10.798  0.3742 -0.5270  0.6118
  434TMC3    C6 6524   0.204   4.274  10.838  0.2933 -0.0210 -0.0007
  434TMC3     C 6525   0.159   4.565  11.139  0.2353  0.3833 -0.3120
  434TMC3     O 6526   0.178   4.512  11.249  0.3928  0.4443  0.0889
  434TMC3     H 6527   0.127   4.308  11.156 -1.4681 -0.5595 -0.1308
  434TMC3    H1 6528   0.187   4.617  10.865  1.0652 -0.5104 -2.0180
  434TMC3    H2 6529   0.244   4.198  10.772 -0.3668 -0.7653  0.4536
  434TMC3    C7 6530   0.172   4.434  10.660  0.1820  0.2650  0.4465
  434TMC3    C8 6531   0.236   4.121  11.023 -0.1696  0.1542 -0.4644
  434TMC3    O1 6532   0.248   4.487  10.581  0.0205  0.8149 -0.1744
  434TMC3    O2 6533   0.276   4.131  11.135 -0.1045 -0.5280 -0.3218
  435MPD2     C 6534   2.511   0.533  15.472 -1.3257  0.1008 -0.2312
  435MPD2    C1 6535   2.451   0.546  15.594 -0.5323  0.0075  0.1840
  435MPD2    C2 6536   2.519   0.499  15.703 -0.2397  0.1050  0.1551
  435MPD2    C3 6537   2.640   0.426  15.696 -0.1259 -0.3581  0.0743
  435MPD2    C4 6538   2.701   0.424  15.570 -0.2703 -0.0307 -0.5848
  435MPD2    C5 6539   2.634   0.476  15.460  0.3397 -0.3522 -0.2370
  435MPD2     H 6540   2.473   0.507  15.801  0.5157 -0.2791  0.5372
  435MPD2    H1 6541   2.799   0.382  15.555  0.6405  2.0420 -0.3788
  435MPD2    H2 6542   2.472   0.559  15.374 -0.1289  2.6333 -0.0350
  435MPD2    H3 6543   2.689   0.471  15.366  1.3359  1.3045  0.2592
  435MPD2     N 6544   2.685   0.349  15.806  0.0743 -0.3361  0.2703
  435MPD2    H5 6545   2.630   0.347  15.892 -0.5950 -1.1385 -0.1729
  435MPD2    N1 6546   2.323   0.597  15.615 -0.1902  0.4968  0.1261
  435MPD2    H7 6547   2.294   0.594  15.712  0.1371  0.6546  0.2294
  436TMC3    C1 6548   2.037   0.805  15.786 -0.1226  0.2096 -0.1685
  436TMC3    C2 6549   2.147   0.786  15.701 -0.4565  0.0706  0.0112
  436TMC3    C3 6550   2.130   0.729  15.575 -0.2896  0.3147  0.2794
  436TMC3    C4 6551   1.912   0.765  15.746 -0.2032 -0.7327 -0.1174
  436TMC3    C5 6552   1.898   0.717  15.619  0.1620  0.4871  0.4565
  436TMC3    C6 6553   2.005   0.695  15.531 -0.5210  0.3787  0.8350
  436TMC3     C 6554   2.066   0.911  15.882 -0.2066  0.5324  0.4868
  436TMC3     O 6555   2.178   0.958  15.897  0.1153 -0.2394  0.3672
  436TMC3     H 6556   2.247   0.819  15.724 -0.8325  1.9612 -1.0429
  436TMC3    H1 6557   1.826   0.792  15.806 -1.4463 -0.6435 -1.9599
  436TMC3    H2 6558   1.990   0.645  15.436  0.9042  0.2153  0.7006
  436TMC3    C7 6559   1.805   0.605  15.603 -0.4526  0.1323 -0.2892
  436TMC3    C8 6560   2.235   0.648  15.519 -0.1875 -0.0516  0.0338
  436TMC3    O1 6561   1.754   0.559  15.707 -0.2397  0.4351 -0.7495
  436TMC3    O2 6562   2.239   0.630  15.401 -0.4646  0.1627 -0.5047
  437TMC3    C1 6563   1.332   2.106  11.502  0.9635  0.0824 -0.1946
  437TMC3    C2 6564   1.247   2.044  11.599  0.4180  0.0671  0.1115
  437TMC3    C3 6565   1.301   2.048  11.728  0.3526 -0.7711  0.4115
  437TMC3    C4 6566   1.460   2.133  11.532  0.0905 -0.2426 -0.1405
  437TMC3    C5 6567   1.509   2.126  11.662  0.2289  0.1479 -0.2592
  437TMC3    C6 6568   1.431   2.080  11.764  0.3500  0.3390 -0.7304
  437TMC3     C 6569   1.274   2.193  11.397  0.3644 -0.2956  0.9238
  437TMC3     O 6570   1.325   2.184  11.286 -0.1173 -0.2421  0.1647
  437TMC3     H 6571   1.144   2.028  11.573  1.2636 -2.0248 -1.9347
  437TMC3    H1 6572   1.529   2.169  11.457  1.0768 -0.1008  0.8234
  437TMC3    H2 6573   1.473   2.065  11.863  2.1675 -0.1908 -1.5654
  437TMC3    C7 6574   1.650   2.143  11.699  0.0718 -0.0148  0.0612
  437TMC3    C8 6575   1.222   1.997  11.841  0.1803 -0.0022  0.3713
  437TMC3    O1 6576   1.739   2.116  11.615 -0.4574 -0.8511 -0.3926
  437TMC3    O2 6577   1.138   1.916  11.811 -0.2203  0.0127  0.0419
  438MPD2     C 6578   2.869   3.350  16.966 -0.3844 -0.2912 -0.6737
  438MPD2    C1 6579   2.990   3.326  17.021  0.4878  0.4175  0.4650
  438MPD2    C2 6580   3.022   3.375  17.143  0.3194 -0.1870 -0.3083
  438MPD2    C3 6581   2.932   3.448  17.220 -0.1502  0.2158  1.3451
  438MPD2    C4 6582   2.814   3.477  17.159 -0.1745 -0.0862  0.3991
  438MPD2    C5 6583   2.782   3.426  17.039 -0.3433  0.7811  0.3394
  438MPD2     H 6584   3.122   3.355  17.179  0.2328  0.2753  0.1948
  438MPD2    H1 6585   2.735   3.528  17.213 -0.4741 -1.8225  1.6006
  438MPD2    H2 6586   2.833   3.313  16.870  1.6033 -2.2106 -0.6745
  438MPD2    H3 6587   2.685   3.447  16.995  0.8145  3.0088 -1.1673
  438MPD2     N 6588   2.948   3.471  17.355 -0.1253  0.8463  0.4072
  438MPD2    H5 6589   2.886   3.546  17.386 -1.1649  0.2773 -0.2889
  438MPD2    N1 6590   3.097   3.252  16.972  0.0602  0.5147 -0.5639
  438MPD2    H7 6591   3.181   3.244  17.028  0.1350 -2.5268 -1.1199
  439TMC3    C1 6592   3.193   3.071  16.844 -0.4688  0.5683  0.6470
  439TMC3    C2 6593   3.211   3.024  16.715 -0.0770  0.6226 -0.0666
  439TMC3    C3 6594   3.274   2.904  16.697 -0.0188  0.0448  0.2936
  439TMC3    C4 6595   3.246   3.012  16.949  0.2974 -0.3298 -0.6641
  439TMC3    C5 6596   3.316   2.891  16.929  0.5367 -0.2034  0.1796
  439TMC3    C6 6597   3.335   2.841  16.804  0.1884  0.1916  0.0163
  439TMC3     C 6598   3.083   3.178  16.857  0.8364  0.4336 -0.2858
  439TMC3     O 6599   2.997   3.182  16.773  0.1098  0.7221 -0.1138
  439TMC3     H 6600   3.166   3.070  16.627 -0.9699  2.2569  1.2552
  439TMC3    H1 6601   3.227   3.043  17.051 -0.4236  0.2507 -0.9830
  439TMC3    H2 6602   3.384   2.745  16.792  1.3809  0.8222 -0.0660
  439TMC3    C7 6603   3.411   2.842  17.030  0.1481  0.0146  0.1130
  439TMC3    C8 6604   3.328   2.863  16.568  0.0582  0.2286 -0.1539
  439TMC3    O1 6605   3.506   2.780  16.985  0.1108 -0.6658  0.1024
  439TMC3    O2 6606   3.403   2.767  16.580  0.8616  0.2093  0.3241
  440MPD2     C 6607   1.889   3.185  15.023  0.2849  0.3378  0.2791
  440MPD2    C1 6608   1.960   3.270  15.103  0.6405  0.7372 -0.0951
  440MPD2    C2 6609   2.081   3.238  15.145 -0.0452  0.0401 -1.0519
  440MPD2    C3 6610   2.153   3.130  15.099  0.1554 -0.4176 -0.5057
  440MPD2    C4 6611   2.083   3.053  15.001 -0.2353  1.0740 -0.7247
  440MPD2    C5 6612   1.955   3.077  14.972 -0.2411 -0.2662  0.7437
  440MPD2     H 6613   2.120   3.296  15.228 -2.7682 -1.1676  1.0549
  440MPD2    H1 6614   2.124   2.962  14.959 -0.4391 -0.3562  2.1945
  440MPD2    H2 6615   1.796   3.208  14.973 -0.0339 -3.7262 -1.0601
  440MPD2    H3 6616   1.906   3.003  14.909 -0.7808  0.3852  0.3988
  440MPD2     N 6617   2.273   3.082  15.155  0.3860 -0.1144 -0.1784
  440MPD2    H5 6618   2.296   2.991  15.116 -0.9478 -0.8086  0.6864
  440MPD2    N1 6619   1.912   3.394  15.164  0.1531  0.1333  0.6131
  440MPD2    H7 6620   1.975   3.463  15.203  1.2505 -1.5606  1.8167
  441TMC3    C1 6621   2.456   3.047  15.304 -0.0447 -0.2175 -0.2545
  441TMC3    C2 6622   2.544   3.084  15.399 -0.3087 -0.1473  0.1799
  441TMC3    C3 6623   2.585   3.001  15.502 -0.1633  0.6517  0.0979
  441TMC3    C4 6624   2.394   2.920  15.314  0.3082 -0.4447 -1.1955
  441TMC3    C5 6625   2.422   2.845  15.420 -0.4495  1.0027  1.0831
  441TMC3    C6 6626   2.515   2.882  15.517 -0.5118  0.1198 -0.3459
  441TMC3     C 6627   2.363   3.143  15.242  0.1760 -0.2069 -0.1154
  441TMC3     O 6628   2.350   3.257  15.279  0.0643 -0.1842 -0.5173
  441TMC3     H 6629   2.585   3.184  15.387 -0.1994 -0.1017  0.9199
  441TMC3    H1 6630   2.311   2.881  15.257 -0.3271  0.3346 -0.8055
  441TMC3    H2 6631   2.526   2.829  15.610  4.7237  2.8915  0.6059
  441TMC3    C7 6632   2.309   2.772  15.470  0.2823 -0.0191  0.7375
  441TMC3    C8 6633   2.621   3.080  15.626  0.2535 -0.7587  0.3247
  441TMC3    O1 6634   2.200   2.813  15.432 -0.0146  0.1637  0.0463
  441TMC3    O2 6635   2.699   3.031  15.710  0.1843  0.3032 -0.4835
  442MPD2     C 6636   0.018   4.218  16.289 -0.2944  0.0013 -0.2482
  442MPD2    C1 6637   4.687   4.147  16.387  0.5754  0.0690  0.4160
  442MPD2    C2 6638   4.729   4.023  16.428  0.2058 -0.2349  0.1812
  442MPD2    C3 6639   0.097   3.960  16.362 -0.8473 -0.2791 -0.0437
  442MPD2    C4 6640   0.164   4.028  16.255  0.2475 -0.9660  0.3381
  442MPD2    C5 6641   0.124   4.160  16.232 -0.1461 -0.3346  0.4214
  442MPD2     H 6642   4.683   3.977  16.515  0.7397  0.3947  0.7946
  442MPD2    H1 6643   0.235   3.975  16.192  0.9547  1.6033 -1.0011
  442MPD2    H2 6644   4.730   4.316  16.249  0.0478 -0.2087 -0.9714
  442MPD2    H3 6645   0.176   4.215  16.155  1.6252 -1.8073  0.5683
  442MPD2     N 6646   0.124   3.824  16.370 -0.2385 -0.5085 -0.1010
  442MPD2    H5 6647   0.197   3.802  16.304  1.4251  2.5061  0.7687
  442MPD2    N1 6648   4.585   4.208  16.455  0.7913  0.1358  0.3419
  442MPD2    H7 6649   4.551   4.164  16.539 -0.9041 -0.9786 -0.9329
  443TMC3    C1 6650   4.403   4.367  16.503 -0.3945 -0.5769 -0.1036
  443TMC3    C2 6651   4.335   4.476  16.447 -0.5016  0.6537  0.2145
  443TMC3    C3 6652   4.223   4.514  16.512 -0.1954  0.9143 -0.4051
  443TMC3    C4 6653   4.366   4.311  16.620 -0.6318 -0.5181 -0.1259
  443TMC3    C5 6654   4.263   4.381  16.690  0.5976 -0.3026  0.3354
  443TMC3    C6 6655   4.183   4.478  16.637 -0.0369  0.4338  0.1095
  443TMC3     C 6656   4.519   4.325  16.418 -0.6104 -0.4492 -0.4825
  443TMC3     O 6657   4.529   4.386  16.313 -0.2436 -0.5594  0.0361
  443TMC3     H 6658   4.368   4.529  16.358 -1.2224  0.7217 -0.0148
  443TMC3    H1 6659   4.431   4.236  16.662  2.2226  1.5316 -0.8545
  443TMC3    H2 6660   4.094   4.512  16.688 -0.4786 -0.3355 -0.1418
  443TMC3    C7 6661   4.214   4.304  16.810 -0.3631  0.2984 -0.5776
  443TMC3    C8 6662   4.138   4.618  16.455 -0.3148 -0.1780  0.4836
  443TMC3    O1 6663   4.256   4.192  16.838  0.3383 -0.6359 -0.0021
  443TMC3    O2 6664   4.116   4.704  16.536  0.1563  0.2640 -0.3008
  444MPD2     C 6665   0.502   3.385  17.016 -0.6140 -0.4176  0.2476
  444MPD2    C1 6666   0.414   3.280  17.020  0.5665 -1.0698  0.8473
  444MPD2    C2 6667   0.454   3.158  16.961 -0.0002 -0.7016  0.4851
  444MPD2    C3 6668   0.582   3.134  16.914 -0.0071  0.4538 -0.9565
  444MPD2    C4 6669   0.674   3.240  16.927 -0.2096 -0.5393  0.2679
  444MPD2    C5 6670   0.635   3.362  16.974  0.7831 -0.3726  0.8768
  444MPD2     H 6671   0.376   3.084  16.948 -0.8357  0.5207 -1.4202
  444MPD2    H1 6672   0.776   3.232  16.891 -0.1993  1.3123 -0.1345
  444MPD2    H2 6673   0.478   3.488  17.038  2.8007  1.2381 -3.8056
  444MPD2    H3 6674   0.707   3.443  16.977 -2.3558  2.4352  0.3531
  444MPD2     N 6675   0.606   3.014  16.846 -0.7351 -0.1973  0.0353
  444MPD2    H5 6676   0.529   2.948  16.836  0.2071 -1.3885  0.7134
  444MPD2    N1 6677   0.283   3.294  17.064  0.5749  0.3005 -0.1865
  444MPD2    H7 6678   0.225   3.216  17.036  0.9649  0.0693 -0.3508
  445TMC3    C1 6679   0.722   2.848  16.726 -0.1667  0.9250 -0.1150
  445TMC3    C2 6680   0.613   2.811  16.653 -0.9103 -0.1883 -0.7028
  445TMC3    C3 6681   0.619   2.694  16.585  0.9293 -0.3828  0.2738
  445TMC3    C4 6682   0.840   2.776  16.728 -0.1995 -0.4242 -0.1015
  445TMC3    C5 6683   0.836   2.654  16.659 -0.0291  0.2087  0.4769
  445TMC3    C6 6684   0.727   2.607  16.596  0.4716  0.4045  0.3998
  445TMC3     C 6685   0.725   2.976  16.790  0.0288  0.6891  0.5239
  445TMC3     O 6686   0.832   3.036  16.792  0.0881  0.3293 -0.6371
  445TMC3     H 6687   0.540   2.887  16.629 -0.8081  0.0172 -0.3735
  445TMC3    H1 6688   0.927   2.813  16.781 -2.0459 -0.8822  3.2498
  445TMC3    H2 6689   0.735   2.521  16.530 -1.9179  0.8409 -0.4695
  445TMC3    C7 6690   0.959   2.590  16.633 -0.3279  0.0405 -0.0060
  445TMC3    C8 6691   0.518   2.682  16.481 -0.6346  0.1214  0.2172
  445TMC3    O1 6692   0.959   2.502  16.549  0.4351 -0.6780 -0.4177
  445TMC3    O2 6693   0.454   2.784  16.461 -0.3869  0.3298 -0.5573
  446MPD2     C 6694   4.659   4.157  11.566  0.3648 -0.1692  0.8888
  446MPD2    C1 6695   4.686   4.113  11.441  0.4724 -0.1398  0.4383
  446MPD2    C2 6696   0.075   4.136  11.382 -0.3561 -0.7466  0.3733
  446MPD2    C3 6697   0.173   4.203  11.454 -0.0924  0.0973 -0.0549
  446MPD2    C4 6698   0.146   4.245  11.578 -0.0218 -0.2641 -0.1340
  446MPD2    C5 6699   0.027   4.219  11.642 -0.2515  0.1965 -0.0385
  446MPD2     H 6700   0.082   4.105  11.279 -0.7075 -0.8638  0.3832
  446MPD2    H1 6701   0.225   4.292  11.634  0.9004  0.6585 -2.2015
  446MPD2    H2 6702   4.561   4.148  11.611 -0.8141 -1.3371 -1.9445
  446MPD2    H3 6703   0.020   4.251  11.745 -0.8026 -0.5262  0.1464
  446MPD2     N 6704   0.295   4.240  11.388  0.0668  0.4931 -0.0944
  446MPD2    H5 6705   0.300   4.214  11.290 -0.0870  1.4146 -0.3463
  446MPD2    N1 6706   4.587   4.052  11.362  0.0758  0.8184  0.2078
  446MPD2    H7 6707   4.614   4.044  11.264  0.2158  0.7345  0.2550
  447TMC3    C1 6708   0.523   4.294  11.349  0.0295  0.0463 -0.1632
  447TMC3    C2 6709   0.501   4.331  11.219 -0.5409  0.6013 -0.4358
  447TMC3    C3 6710   0.606   4.348  11.136 -0.2744  0.2614  0.0781
  447TMC3    C4 6711   0.649   4.278  11.397  0.8220  0.1869 -0.4675
  447TMC3    C5 6712   0.757   4.284  11.307 -0.2366 -0.1294  0.6459
  447TMC3    C6 6713   0.736   4.318  11.175  0.1551  0.2927 -0.6528
  447TMC3     C 6714   0.417   4.269  11.444 -0.0838 -0.5229 -0.3539
  447TMC3     O 6715   0.442   4.285  11.561  0.0006  0.1159 -0.4145
  447TMC3     H 6716   0.401   4.361  11.189 -0.8610 -0.7813 -0.7840
  447TMC3    H1 6717   0.661   4.238  11.497  2.0196  0.3799 -0.5399
  447TMC3    H2 6718   0.827   4.335  11.119  1.4653 -0.1056  1.3747
  447TMC3    C7 6719   0.891   4.265  11.354 -0.4563  0.5120  0.4829
  447TMC3    C8 6720   0.586   4.418  11.011  0.1313  0.0593 -0.4030
  447TMC3    O1 6721   0.971   4.223  11.272 -0.4633  0.3807  0.5377
  447TMC3    O2 6722   0.469   4.438  10.976  0.2505 -0.0233  0.2859
  448TMC3    C1 6723   2.742   0.109  17.173  0.4534  0.9647  0.1346
  448TMC3    C2 6724   2.711   4.725  17.111  0.7149  0.6098 -0.8217
  448TMC3    C3 6725   2.749   4.609  17.181  1.1932  0.0299  0.1397
  448TMC3    C4 6726   2.797   0.118  17.296 -0.0261  0.1704  0.2470
  448TMC3    C5 6727   2.823   0.006  17.363 -0.0596 -0.4625  0.9372
  448TMC3    C6 6728   2.801   4.622  17.309 -0.4591  0.0875 -0.4569
  448TMC3     C 6729   2.670   0.223  17.111 -0.2436 -0.2038 -0.0845
  448TMC3     O 6730   2.661   0.230  16.989  0.1632  0.2252  0.1876
  448TMC3     H 6731   2.640   4.722  17.029 -0.8319 -0.2493  0.5509
  448TMC3    H1 6732   2.801   0.215  17.344 -0.0593  0.2865  0.0168
  448TMC3    H2 6733   2.836   4.530  17.356  2.2749  1.8282  0.9167
  448TMC3    C7 6734   2.897   0.022  17.483  0.4021 -1.0054  0.7642
  448TMC3    C8 6735   2.768   4.484  17.118 -0.3529  1.2010  0.0348
  448TMC3    O1 6736   2.989   0.106  17.472 -0.0749 -0.4260  0.0237
  448TMC3    O2 6737   2.737   4.385  17.182 -0.4778  0.6867  0.0618
  449MPD2     C 6738   4.627   2.659  14.230 -0.4520  0.7751  0.8731
  449MPD2    C1 6739   4.488   2.687  14.243 -0.0086  0.5334 -0.6832
  449MPD2    C2 6740   4.403   2.579  14.218 -0.0198 -0.2477  0.9404
  449MPD2    C3 6741   4.451   2.452  14.191  0.1534  0.0203 -0.0368
  449MPD2    C4 6742   4.587   2.431  14.186  0.1309  0.3378  0.2019
  449MPD2    C5 6743   4.671   2.534  14.198  0.7551 -0.2770 -0.1667
  449MPD2     H 6744   4.298   2.605  14.211 -0.0524 -0.8199 -0.5472
  449MPD2    H1 6745   4.618   2.327  14.183 -0.0645  0.2888 -0.1863
  449MPD2    H2 6746   4.709   2.730  14.229  0.8453 -0.7874 -1.8267
  449MPD2    H3 6747   0.042   2.520  14.191  0.6719  0.0567 -1.9702
  449MPD2     N 6748   4.360   2.346  14.157  0.0395  0.7030  0.0487
  449MPD2    H5 6749   4.264   2.380  14.158  0.0062  0.6229 -0.4788
  449MPD2    N1 6750   4.427   2.805  14.281  0.4211  0.0892  0.2507
  449MPD2    H7 6751   4.326   2.808  14.273  0.4143 -0.0637  0.2871
  450TMC3    C1 6752   4.394   3.031  14.290  0.1508  0.7294 -0.1196
  450TMC3    C2 6753   4.424   3.106  14.180 -0.5780 -0.4478 -0.5151
  450TMC3    C3 6754   4.321   3.124  14.098 -0.2014  0.3566  0.0793
  450TMC3    C4 6755   4.269   2.976  14.312 -0.0204  0.1839  0.2167
  450TMC3    C5 6756   4.161   3.005  14.233  0.8693  0.9285  0.3376
  450TMC3    C6 6757   4.191   3.088  14.124 -0.3612 -0.0365  0.4240
  450TMC3     C 6758   4.491   2.923  14.302  0.5176  0.3389  0.8575
  450TMC3     O 6759   4.610   2.942  14.305  0.1000 -0.1038 -0.5560
  450TMC3     H 6760   4.522   3.151  14.170 -1.1185  1.0556  0.9909
  450TMC3    H1 6761   4.244   2.915  14.398  0.5631  0.5414  0.6392
  450TMC3    H2 6762   4.127   3.099  14.038  1.3020  2.3701 -0.4852
  450TMC3    C7 6763   4.091   2.886  14.198  0.2505  0.1476 -0.2053
  450TMC3    C8 6764   4.341   3.219  13.983 -1.0748 -0.4176 -0.7110
  450TMC3    O1 6765   4.141   2.783  14.245 -0.1365  0.5921  0.8004
  450TMC3    O2 6766   4.245   3.283  13.948  0.7516  0.2279 -0.7112
  451MPD2     C 6767   0.349   1.361   0.850  0.3880 -0.0920  0.2184
  451MPD2    C1 6768   0.400   1.478   0.788 -0.3550  0.8267  0.2173
  451MPD2    C2 6769   0.492   1.464   0.688  0.7160  0.5001 -0.0038
  451MPD2    C3 6770   0.551   1.333   0.649 -0.9431  0.2158 -0.3905
  451MPD2    C4 6771   0.496   1.220   0.718  0.0464 -0.1326  0.5737
  451MPD2    C5 6772   0.399   1.237   0.811  0.4935 -0.0034  0.4238
  451MPD2     H 6773   0.531   1.558   0.651  0.3965 -0.2322 -2.1935
  451MPD2    H1 6774   0.538   1.124   0.690 -1.9151 -0.4813 -1.0867
  451MPD2    H2 6775   0.291   1.364   0.941  0.6217 -0.0364  0.3634
  451MPD2    H3 6776   0.367   1.149   0.865 -0.2351 -0.0417 -0.0605
  451MPD2     N 6777   0.656   1.312   0.553  0.1536 -0.0940 -0.4351
  451MPD2    H5 6778   0.648   1.221   0.510  1.0735 -0.7053  0.6944
  451MPD2    N1 6779   0.375   1.605   0.851 -0.4580  0.2691  0.4691
  451MPD2    H7 6780   0.316   1.596   0.933  1.7152 -1.6279  1.8323
  452TMC3    C1 6781   0.853   1.378   0.434  0.1466 -1.0666 -0.1026
  452TMC3    C2 6782   0.843   1.285   0.334 -0.4336  0.5772 -0.2636
  452TMC3    C3 6783   0.929   1.297   0.230 -0.2624  0.3272  0.3931
  452TMC3    C4 6784   0.958   1.466   0.434 -0.4713  0.2162 -0.7787
  452TMC3    C5 6785   1.050   1.464   0.329  0.1752  0.2246 -0.1379
  452TMC3    C6 6786   1.035   1.385   0.222  0.3812  1.4183  0.1404
  452TMC3     C 6787   0.742   1.417   0.517  0.3373 -0.1378  0.0199
  452TMC3     O 6788   0.764   1.520   0.582 -0.8540 -0.9492  0.3743
  452TMC3     H 6789   0.746   1.237   0.327 -0.8574  1.3540  0.2564
  452TMC3    H1 6790   0.973   1.533   0.518  1.3288  0.2055 -1.0955
  452TMC3    H2 6791   1.097   1.390   0.134  0.6835 -0.8837  0.2330
  452TMC3    C7 6792   1.166   1.557   0.327 -0.2772 -0.1308  0.7694
  452TMC3    C8 6793   0.898   1.205   0.124 -0.2022  0.2308 -0.0953
  452TMC3    O1 6794   1.201   1.611   0.224  0.3997  0.9160  0.5561
  452TMC3    O2 6795   0.793   1.148   0.129 -0.2908 -0.1391  0.0088
  453TMC3    C1 6796   1.981   3.261  12.845 -0.7454  0.5974  0.2897
  453TMC3    C2 6797   1.904   3.145  12.839  0.2555  0.8875  0.6156
  453TMC3    C3 6798   1.781   3.160  12.786  0.3491 -0.1850 -0.3929
  453TMC3    C4 6799   1.945   3.376  12.783  0.2859  0.3700  0.2688
  453TMC3    C5 6800   1.819   3.388  12.733  0.1779  0.4976 -0.2848
  453TMC3    C6 6801   1.732   3.281  12.737  0.3009  0.1489 -0.4557
  453TMC3     C 6802   2.120   3.251  12.890  0.4560 -0.1485 -0.5983
  453TMC3     O 6803   2.191   3.346  12.868  0.6388 -0.2010 -0.4436
  453TMC3     H 6804   1.938   3.047  12.869  0.5322  0.1021 -2.2139
  453TMC3    H1 6805   2.011   3.462  12.785  0.6796  0.0199  2.3156
  453TMC3    H2 6806   1.642   3.286  12.677  0.4228  0.2406 -0.6334
  453TMC3    C7 6807   1.810   3.480  12.618 -0.6253 -0.1799  0.4765
  453TMC3    C8 6808   1.748   3.044  12.698  0.8034 -0.0226 -0.2280
  453TMC3    O1 6809   1.886   3.573  12.616  0.2258  0.2740 -0.1206
  453TMC3    O2 6810   1.844   2.964  12.674  0.0576  0.0552 -0.2487
  454MPD2     C 6811   1.188   2.970  16.388  0.6461  0.4991 -0.3121
  454MPD2    C1 6812   1.144   3.086  16.321 -0.1785 -0.6731  0.0164
  454MPD2    C2 6813   1.068   3.177  16.390 -0.1768 -0.7906 -0.2175
  454MPD2    C3 6814   1.034   3.157  16.524  0.2608 -0.2217 -0.1486
  454MPD2    C4 6815   1.084   3.042  16.594  0.1149  0.6850  0.3010
  454MPD2    C5 6816   1.154   2.950  16.526  1.0723 -0.7026  0.5882
  454MPD2     H 6817   1.038   3.267  16.337 -1.2017 -2.1890 -1.9721
  454MPD2    H1 6818   1.061   3.021  16.698  1.7666  0.4243  0.6069
  454MPD2    H2 6819   1.240   2.898  16.325 -2.3857 -0.5733 -1.5673
  454MPD2    H3 6820   1.176   2.853  16.571  0.7573 -1.2678 -0.4818
  454MPD2     N 6821   0.929   3.230  16.590 -0.1484 -0.0201  0.8654
  454MPD2    H5 6822   0.904   3.187  16.678 -1.3333  0.3199  0.6894
  454MPD2    N1 6823   1.146   3.097  16.179  0.5342  0.0426 -0.3443
  454MPD2    H7 6824   1.113   3.187  16.147  1.6710  0.8125  0.6747
  455TMC3    C1 6825   0.730   3.273  16.505  0.0674 -0.3286 -0.3853
  455TMC3    C2 6826   0.632   3.291  16.590 -0.6045 -0.3906  1.3668
  455TMC3    C3 6827   0.511   3.225  16.562  0.3384 -0.6961  0.8714
  455TMC3    C4 6828   0.736   3.196  16.398  0.7887  0.3156  0.9013
  455TMC3    C5 6829   0.617   3.135  16.372  0.2609 -0.2498  0.2619
  455TMC3    C6 6830   0.506   3.143  16.451 -0.3109  0.6161  0.1803
  455TMC3     C 6831   0.853   3.330  16.535 -0.1001  0.2656  0.4831
  455TMC3     O 6832   0.893   3.407  16.447 -0.3145  0.5440 -0.0384
  455TMC3     H 6833   0.648   3.344  16.683  0.1975 -0.5021  1.2909
  455TMC3    H1 6834   0.808   3.194  16.318  1.4753 -1.1910  1.5546
  455TMC3    H2 6835   0.421   3.080  16.432 -0.8307  0.5900  2.5000
  455TMC3    C7 6836   0.622   3.008  16.299  0.1351 -0.2836  0.1159
  455TMC3    C8 6837   0.395   3.238  16.644  0.3146  0.5279 -0.5131
  455TMC3    O1 6838   0.525   2.973  16.234 -0.1706 -0.1397 -0.3193
  455TMC3    O2 6839   0.335   3.137  16.651 -0.4250  0.4841  0.1391
  456MPD2     C 6840   3.216   3.452  16.332  0.9747 -0.0713  0.1339
  456MPD2    C1 6841   3.307   3.421  16.432  0.3300 -0.0165 -0.4810
  456MPD2    C2 6842   3.260   3.417  16.567 -0.0998 -0.0482 -0.5367
  456MPD2    C3 6843   3.133   3.469  16.598 -0.4090 -0.4390 -0.6780
  456MPD2    C4 6844   3.049   3.506  16.499  0.2990 -0.4721  0.6741
  456MPD2    C5 6845   3.088   3.488  16.368  0.6755 -0.0048  0.0894
  456MPD2     H 6846   3.328   3.379  16.641  0.2766 -0.7720 -1.2534
  456MPD2    H1 6847   2.943   3.527  16.512  0.0578  0.2795 -2.4678
  456MPD2    H2 6848   3.257   3.459  16.232  0.6119  1.6421  0.0971
  456MPD2    H3 6849   3.021   3.511  16.286  2.6438  0.7306 -1.3112
  456MPD2     N 6850   3.107   3.506  16.738 -0.3598 -0.0648 -1.2676
  456MPD2    H5 6851   3.190   3.496  16.795 -0.2126  2.1420 -1.0856
  456MPD2    N1 6852   3.440   3.387  16.388 -0.2998  0.8984  0.3630
  456MPD2    H7 6853   3.456   3.401  16.289 -0.4229  0.4133  0.2751
  457TMC3    C1 6854   3.009   3.654  16.896 -0.2774  1.0042 -0.4019
  457TMC3    C2 6855   2.935   3.774  16.909  0.0770  0.3477  0.2155
  457TMC3    C3 6856   2.975   3.853  17.014 -0.3519  0.9493 -0.4103
  457TMC3    C4 6857   3.117   3.619  16.980  0.3835  0.1135 -0.1749
  457TMC3    C5 6858   3.146   3.712  17.083  0.0071 -0.3591  0.0757
  457TMC3    C6 6859   3.081   3.835  17.098  0.6187 -0.4576  0.5554
  457TMC3     C 6860   2.993   3.580  16.777  0.3877 -0.2154 -0.0660
  457TMC3     O 6861   2.888   3.586  16.713 -0.2163  0.3805  0.3053
  457TMC3     H 6862   2.845   3.785  16.849 -0.5718 -1.2745  0.9045
  457TMC3    H1 6863   3.176   3.529  16.963 -1.5412 -1.1277 -0.2355
  457TMC3    H2 6864   3.106   3.899  17.182 -0.3009 -0.8048  1.0999
  457TMC3    C7 6865   3.266   3.694  17.157  0.0835 -0.1488 -0.2098
  457TMC3    C8 6866   2.942   3.998  17.011  0.4931  0.9057  0.8976
  457TMC3    O1 6867   3.313   3.581  17.176  0.0714 -0.0148 -0.2182
  457TMC3    O2 6868   2.950   4.060  17.117 -0.4299  0.3199  0.0901
  458MPD2     C 6869   2.016   2.303  12.005  0.0134  0.0979  0.1799
  458MPD2    C1 6870   1.902   2.342  12.052  0.0989  0.8329 -0.3643
  458MPD2    C2 6871   1.783   2.310  11.987  0.0869 -0.2402 -0.2421
  458MPD2    C3 6872   1.784   2.229  11.875  0.5477 -0.4024  0.2177
  458MPD2    C4 6873   1.908   2.184  11.827 -0.2938 -0.5393  0.0348
  458MPD2    C5 6874   2.023   2.219  11.892  0.2123  0.1373 -0.3102
  458MPD2     H 6875   1.686   2.348  12.016  0.0415  0.4913 -1.3486
  458MPD2    H1 6876   1.907   2.101  11.757  3.2162 -0.2140 -0.3643
  458MPD2    H2 6877   2.108   2.334  12.053  0.7083  0.3792 -1.3348
  458MPD2    H3 6878   2.122   2.183  11.865 -0.7576 -0.2872 -3.2824
  458MPD2     N 6879   1.661   2.214  11.813 -0.4309  0.0551 -0.7459
  458MPD2    H5 6880   1.582   2.245  11.868  0.0843 -1.6823  0.9954
  458MPD2    N1 6881   1.898   2.425  12.165 -0.0735 -0.0378 -0.4192
  458MPD2    H7 6882   1.989   2.461  12.192 -0.4428  0.1290  0.6086
  459TMC3    C1 6883   1.822   2.506  12.377 -0.2772  0.3707 -0.8715
  459TMC3    C2 6884   1.936   2.574  12.403 -0.0797 -0.2562 -0.2475
  459TMC3    C3 6885   1.953   2.646  12.517  0.4120  0.8108 -0.4473
  459TMC3    C4 6886   1.714   2.524  12.469  0.2928 -0.2169 -0.2582
  459TMC3    C5 6887   1.731   2.610  12.583 -0.8826 -0.2722  0.0284
  459TMC3    C6 6888   1.854   2.661  12.610 -0.7885 -0.0424  0.6635
  459TMC3     C 6889   1.790   2.448  12.240  0.1143  0.3590 -1.0070
  459TMC3     O 6890   1.678   2.404  12.226 -0.2225  0.2474  0.5963
  459TMC3     H 6891   2.031   2.556  12.353  0.4288 -1.1291  1.0157
  459TMC3    H1 6892   1.615   2.483  12.449 -1.1622  2.6552  1.1036
  459TMC3    H2 6893   1.878   2.707  12.705 -2.6190  0.4975  0.8786
  459TMC3    C7 6894   1.653   2.574  12.697 -0.0909  0.5984 -0.0670
  459TMC3    C8 6895   2.086   2.680  12.556 -0.9066  0.0279 -0.8903
  459TMC3    O1 6896   1.563   2.484  12.687  0.1710 -0.8381 -0.6719
  459TMC3    O2 6897   2.184   2.609  12.531  0.3450  0.0820 -0.2288
  460MPD2     C 6898   0.842   4.518  10.771  0.2990  0.0344  0.0424
  460MPD2    C1 6899   0.717   4.493  10.816 -0.3354 -0.3678 -0.3296
  460MPD2    C2 6900   0.606   4.517  10.730  1.1368 -0.8392  0.3513
  460MPD2    C3 6901   0.629   4.585  10.608 -0.0956 -0.3667  0.4713
  460MPD2    C4 6902   0.761   4.612  10.570 -0.1340 -0.9932  0.2984
  460MPD2    C5 6903   0.862   4.576  10.649 -0.2380  0.0153 -0.1493
  460MPD2     H 6904   0.504   4.500  10.761  0.2548  0.7115 -1.7788
  460MPD2    H1 6905   0.779   4.650  10.470  2.0059 -0.5851  0.8396
  460MPD2    H2 6906   0.929   4.494  10.831  0.6056  0.5995 -0.1719
  460MPD2    H3 6907   0.965   4.594  10.619 -0.8348 -0.7805 -2.6599
  460MPD2     N 6908   0.516   4.607  10.522 -0.5178  1.0639  0.5413
  460MPD2    H5 6909   0.428   4.559  10.537 -1.4607  2.5701 -0.2160
  460MPD2    N1 6910   0.698   4.443  10.947  0.3276  0.2856  0.1126
  460MPD2    H7 6911   0.789   4.415  10.982 -0.4680  0.0756  2.0254
  461TMC3    C1 6912   0.402   4.685  10.334 -0.1009  0.3683  0.2725
  461TMC3    C2 6913   0.329   4.574  10.313 -0.2627  0.3487  0.2871
  461TMC3    C3 6914   0.232   4.575  10.222  0.5479 -0.0131  0.1331
  461TMC3    C4 6915   0.354   0.067  10.288  0.5153 -0.4164 -0.2686
  461TMC3    C5 6916   0.246   0.076  10.200  0.3262  0.9381  0.1516
  461TMC3    C6 6917   0.192   4.694  10.160 -0.3403 -0.2743 -0.2421
  461TMC3     C 6918   0.524   4.686  10.412  0.3817 -0.0104  0.1484
  461TMC3     O 6919   0.606   0.037  10.386 -0.0866  0.0261  0.5276
  461TMC3     H 6920   0.359   4.481  10.361 -0.7269 -0.9073 -1.8552
  461TMC3    H1 6921   0.409   0.157  10.314 -1.7506 -0.0217  3.2139
  461TMC3    H2 6922   0.114   4.706  10.086 -0.0290 -1.3885 -0.7456
  461TMC3    C7 6923   0.217   0.192  10.116 -0.2111 -0.3209  0.3446
  461TMC3    C8 6924   0.239   4.474  10.118 -0.1880 -0.0710 -0.6624
  461TMC3    O1 6925   0.124   0.180  10.036  0.2627  0.5783  0.1928
  461TMC3    O2 6926   0.342   4.412  10.109  0.0951 -0.4022 -0.0434
  462TMC3    C1 6927   0.202   1.163  17.440 -0.1145  0.4990  0.3809
  462TMC3    C2 6928   0.177   1.103  17.318 -0.0033  0.2954  0.1481
  462TMC3    C3 6929   0.067   1.027  17.306  0.3385 -0.1390  0.0041
  462TMC3    C4 6930   0.128   1.138  17.546  0.1357 -0.4847  0.1272
  462TMC3    C5 6931   0.016   1.065  17.524  0.4583 -0.0872  0.0825
  462TMC3    C6 6932   4.711   1.022  17.403  0.3251 -0.6893 -0.1679
  462TMC3     C 6933   0.306   1.265  17.467 -0.5693 -0.3812 -0.6611
  462TMC3     O 6934   0.294   1.327  17.573  0.0014 -0.2097  0.1829
  462TMC3     H 6935   0.233   1.116  17.226  1.1931 -0.4563  0.7634
  462TMC3    H1 6936   0.165   1.154  17.647 -0.8726  0.4653  0.3409
  462TMC3    H2 6937   4.621   0.966  17.380  0.0663 -0.3543  0.0283
  462TMC3    C7 6938   4.687   1.005  17.636 -0.2586  0.0281  0.7575
  462TMC3    C8 6939   0.041   0.950  17.182  0.0021  0.0440  0.8248
  462TMC3    O1 6940   4.600   0.927  17.603 -0.0558 -0.1524 -0.1750
  462TMC3    O2 6941   4.662   0.934  17.148 -0.6483  0.4150 -0.1202
  463MPD2     C 6942   1.808   4.704   1.501 -0.3560  0.1807  0.0506
  463MPD2    C1 6943   1.786   4.582   1.443 -1.3204  0.0821  0.2915
  463MPD2    C2 6944   1.895   4.516   1.383  0.4838  0.8095 -0.1336
  463MPD2    C3 6945   2.019   4.577   1.379 -0.2852  0.1871  0.0835
  463MPD2    C4 6946   2.033   4.709   1.406  0.6718 -0.2582  0.3362
  463MPD2    C5 6947   1.925   0.030   1.476  0.3865 -0.2547  0.5848
  463MPD2     H 6948   1.877   4.416   1.345 -1.0422  0.6748  0.9593
  463MPD2    H1 6949   2.121   0.033   1.396  0.7929  0.1521  3.8664
  463MPD2    H2 6950   1.731   0.020   1.557  0.7091  0.6442  1.0789
  463MPD2    H3 6951   1.943   0.128   1.519 -2.4932  1.2350 -1.5580
  463MPD2     N 6952   2.136   4.512   1.324  1.2754  0.0536 -0.5173
  463MPD2    H5 6953   2.215   4.573   1.306  2.0557 -0.6074  0.7130
  463MPD2    N1 6954   1.652   4.539   1.455 -1.2025  0.0163 -0.5428
  463MPD2    H7 6955   1.599   4.601   1.515  1.6140  1.0571  0.8784
  464TMC3    C1 6956   1.453   4.437   1.389 -0.0516 -0.3015  0.0372
  464TMC3    C2 6957   1.381   4.542   1.442  0.6179 -0.3889 -0.9009
  464TMC3    C3 6958   1.251   4.560   1.396  0.1963 -0.0484  0.3248
  464TMC3    C4 6959   1.390   4.329   1.325  0.4971 -0.1552  0.1839
  464TMC3    C5 6960   1.260   4.345   1.288 -0.4688  0.5885  0.7944
  464TMC3    C6 6961   1.186   4.456   1.332 -0.3705  0.4227  0.0849
  464TMC3     C 6962   1.600   4.438   1.386  0.4977  0.5706 -0.2577
  464TMC3     O 6963   1.652   4.380   1.296 -0.7048  0.3651  0.1032
  464TMC3     H 6964   1.429   4.638   1.457 -0.7879 -0.0991  1.7055
  464TMC3    H1 6965   1.450   4.245   1.291  1.3319  0.8627 -0.8199
  464TMC3    H2 6966   1.090   4.481   1.287 -1.0763 -0.6516  1.0123
  464TMC3    C7 6967   1.199   4.249   1.190 -0.2777  0.0478  0.3491
  464TMC3    C8 6968   1.196   4.693   1.399  0.3367  0.4170  0.2854
  464TMC3    O1 6969   1.267   4.148   1.171  0.1238 -0.4230 -0.1540
  464TMC3    O2 6970   1.104   4.712   1.317 -0.1799 -0.4937  0.2326
  465MPD2     C 6971   2.567   4.008  17.228  0.0340  0.4243 -0.4302
  465MPD2    C1 6972   2.494   3.888  17.227  0.8790  0.0880 -0.4430
  465MPD2    C2 6973   2.483   3.816  17.110  0.2301 -0.2640 -0.8390
  465MPD2    C3 6974   2.544   3.855  16.995 -0.5379  0.3738  0.1180
  465MPD2    C4 6975   2.627   3.966  16.997  0.2789 -0.6258 -0.1682
  465MPD2    C5 6976   2.631   4.043  17.109 -0.0989  0.3987  0.2196
  465MPD2     H 6977   2.424   3.725  17.111 -0.9417  0.5081 -0.6786
  465MPD2    H1 6978   2.673   4.015  16.912 -0.5272 -1.3430 -1.0188
  465MPD2    H2 6979   2.587   4.075  17.310 -1.2234  0.0973  0.1456
  465MPD2    H3 6980   2.703   4.124  17.102  0.9051 -0.4259  1.0172
  465MPD2     N 6981   2.504   3.788  16.873  0.3664 -0.3943 -0.2027
  465MPD2    H5 6982   2.424   3.728  16.888  0.3009 -0.1092  0.5478
  465MPD2    N1 6983   2.439   3.835  17.347  0.2581  0.5764 -0.7614
  465MPD2    H7 6984   2.410   3.740  17.330  2.2692 -0.0859 -0.5178
  466TMC3    C1 6985   2.283   3.655  16.585  0.1529 -0.0929  0.5174
  466TMC3    C2 6986   2.286   3.711  16.459  0.0574 -0.0371  0.4964
  466TMC3    C3 6987   2.391   3.793  16.433 -0.0123 -0.1457 -0.8691
  466TMC3    C4 6988   2.389   3.671  16.673  0.4232  0.1859  0.3684
  466TMC3    C5 6989   2.487   3.755  16.643 -0.2672 -0.1745  0.3179
  466TMC3    C6 6990   2.489   3.818  16.528 -0.1027 -0.2337 -0.2923
  466TMC3     C 6991   2.163   3.594  16.642  0.1309  0.0558  0.1874
  466TMC3     O 6992   2.173   3.533  16.744 -0.5596  0.4251  0.5134
  466TMC3     H 6993   2.194   3.706  16.401 -0.2068 -1.1093  1.0021
  466TMC3    H1 6994   2.390   3.611  16.764 -0.1338  0.5261  0.5986
  466TMC3    H2 6995   2.581   3.872  16.508 -0.3991 -0.0217 -1.0844
  466TMC3    C7 6996   2.556   3.820  16.755 -0.6848 -0.0210  0.1366
  466TMC3    C8 6997   2.355   3.902  16.344  0.3878 -0.2298 -0.1507
  466TMC3    O1 6998   2.649   3.893  16.726  0.0142 -0.4621 -0.2968
  466TMC3    O2 6999   2.320   3.869  16.234 -0.4442  0.4753 -0.5394
  467TMC3    C1 7000   3.185   1.600  13.275 -0.3521  0.4776  0.4488
  467TMC3    C2 7001   3.269   1.687  13.218  0.9275  0.3653 -0.2605
  467TMC3    C3 7002   3.227   1.812  13.184  0.5292 -0.3802  0.6073
  467TMC3    C4 7003   3.058   1.636  13.320 -0.6121 -0.1894  0.0592
  467TMC3    C5 7004   3.017   1.768  13.294 -0.0476  1.0257 -0.2101
  467TMC3    C6 7005   3.103   1.854  13.221 -0.1125 -0.2585  0.0436
  467TMC3     C 7006   3.239   1.469  13.327  0.1595 -0.0999  0.1935
  467TMC3     O 7007   3.212   1.444  13.444 -0.0399 -0.2898 -0.0248
  467TMC3     H 7008   3.359   1.639  13.182  0.3370 -0.5348 -0.5509
  467TMC3    H1 7009   2.995   1.559  13.363 -2.1940  1.3656  0.4935
  467TMC3    H2 7010   3.078   1.959  13.210 -1.5945 -0.3845  2.4163
  467TMC3    C7 7011   2.886   1.820  13.327  0.3789 -0.6094  0.1421
  467TMC3    C8 7012   3.318   1.921  13.211 -0.3537  0.4943  0.1387
  467TMC3    O1 7013   2.870   1.929  13.281  0.1730 -0.4283  0.3502
  467TMC3    O2 7014   3.278   2.026  13.269  0.5653 -0.1678  0.8674
  468MPD2     C 7015   1.918   4.287  11.063 -0.4911 -0.4146  0.4070
  468MPD2    C1 7016   2.053   4.271  11.085 -0.2580  0.0285 -1.2757
  468MPD2    C2 7017   2.100   4.150  11.125  1.1163  0.0820  0.3377
  468MPD2    C3 7018   2.017   4.040  11.146 -0.2085  0.4501  0.4123
  468MPD2    C4 7019   1.881   4.061  11.130  0.4352  0.5654  0.8677
  468MPD2    C5 7020   1.832   4.183  11.084  0.9332  0.3631  0.3226
  468MPD2     H 7021   2.204   4.149  11.155  1.3143  1.9487 -0.2980
  468MPD2    H1 7022   1.809   3.982  11.148  0.5252  0.6411  1.5523
  468MPD2    H2 7023   1.890   4.382  11.018  1.9512  0.6439  1.1086
  468MPD2    H3 7024   1.728   4.193  11.058  1.2357  1.5081 -0.4564
  468MPD2     N 7025   2.058   3.911  11.193 -0.0895 -0.0904 -0.5283
  468MPD2    H5 7026   2.001   3.831  11.220 -1.3705  1.3990  1.2396
  468MPD2    N1 7027   2.150   4.378  11.071 -0.2255 -0.6834 -0.0045
  468MPD2    H7 7028   2.240   4.344  11.105  1.5439  2.8562 -1.1121
  469TMC3    C1 7029   2.254   4.586  11.098  0.0636 -0.1991  0.0110
  469TMC3    C2 7030   2.369   4.514  11.131  0.6244  0.0716  0.4835
  469TMC3    C3 7031   2.480   4.588  11.166  0.3912  0.4111 -0.1438
  469TMC3    C4 7032   2.236   4.727  11.090  0.6247 -0.1050 -0.7225
  469TMC3    C5 7033   2.357   0.056  11.116  0.3170  0.0502  0.0523
  469TMC3    C6 7034   2.471   4.725  11.155 -0.2748 -0.3792 -0.1595
  469TMC3     C 7035   2.128   4.513  11.063  0.3621  0.1738  0.4043
  469TMC3     O 7036   2.022   4.575  11.063  0.6628 -0.4629 -0.5012
  469TMC3     H 7037   2.381   4.407  11.120  0.2802  0.1194 -0.4018
  469TMC3    H1 7038   2.146   0.037  11.053  1.0151  2.1233  1.1911
  469TMC3    H2 7039   2.556   0.039  11.199 -1.2756  1.3894 -0.2826
  469TMC3    C7 7040   2.363   0.195  11.149  0.3761 -1.0128 -0.1865
  469TMC3    C8 7041   2.608   4.523  11.135  0.6282  0.7560 -0.6281
  469TMC3    O1 7042   2.471   0.243  11.126 -0.0624 -0.2017 -0.4967
  469TMC3    O2 7043   2.596   4.430  11.054 -0.3154 -0.1731 -0.0284
  470TMC3    C1 7044   4.187   2.175   0.781 -0.2477 -0.5696  0.1986
  470TMC3    C2 7045   4.108   2.230   0.883  0.4801 -0.0529 -0.1615
  470TMC3    C3 7046   4.054   2.148   0.976  0.2881 -0.0211 -0.1958
  470TMC3    C4 7047   4.198   2.038   0.770 -0.4950 -0.5083 -0.9920
  470TMC3    C5 7048   4.139   1.960   0.870  0.2604 -0.3195  0.2633
  470TMC3    C6 7049   4.066   2.013   0.976 -0.3538 -0.1203  0.3871
  470TMC3     C 7050   4.290   2.266   0.731 -0.6239 -0.1784  0.0939
  470TMC3     O 7051   4.301   2.377   0.780 -0.0396 -0.0020 -0.5526
  470TMC3     H 7052   4.116   2.336   0.906 -1.4155 -0.0510  0.4802
  470TMC3    H1 7053   4.255   1.990   0.692 -1.6568 -1.0968 -1.4608
  470TMC3    H2 7054   4.015   1.958   1.054  0.6633 -1.4863  0.0737
  470TMC3    C7 7055   4.155   1.814   0.853  0.1377  0.6284  0.5782
  470TMC3    C8 7056   4.062   2.203   1.109 -0.0223 -1.0571  0.4719
  470TMC3    O1 7057   4.183   1.769   0.744 -0.4090  0.1948  0.5594
  470TMC3    O2 7058   4.124   2.139   1.194  0.2485  0.1494  0.0489
  471MPD2     C 7059   0.125   2.628  16.946  0.1849  0.1507  1.0229
  471MPD2    C1 7060   0.119   2.508  16.883 -0.2682  0.3573 -0.5371
  471MPD2    C2 7061   0.134   2.387  16.953 -0.3062  0.5506  0.7172
  471MPD2    C3 7062   0.149   2.391  17.094 -0.3566 -0.3151 -0.7660
  471MPD2    C4 7063   0.151   2.513  17.153 -0.0198  0.2407  0.2408
  471MPD2    C5 7064   0.131   2.630  17.081  0.1575  0.0283 -0.6004
  471MPD2     H 7065   0.138   2.291  16.901  2.1983  0.7902  0.4694
  471MPD2    H1 7066   0.171   2.519  17.259 -1.1145  0.8247  0.4163
  471MPD2    H2 7067   0.114   2.720  16.890 -1.0676 -1.2576 -1.0822
  471MPD2    H3 7068   0.124   2.724  17.134 -1.5152 -0.4665  0.0416
  471MPD2     N 7069   0.161   2.276  17.174 -0.3438  0.5413  0.3175
  471MPD2    H5 7070   0.166   2.281  17.275 -1.3465  1.5679  0.3091
  471MPD2    N1 7071   0.118   2.492  16.742 -0.6772  0.7304  0.2156
  471MPD2    H7 7072   0.099   2.398  16.706  0.0717  0.8424 -0.4853
  472TMC3    C1 7073   0.161   2.521  16.529 -0.0954 -1.0526  0.5179
  472TMC3    C2 7074   0.068   2.550  16.429  0.5769 -0.3416  0.0966
  472TMC3    C3 7075   0.045   2.460  16.330 -0.5029 -0.3765 -0.3125
  472TMC3    C4 7076   0.214   2.397  16.540  0.3341 -0.3127  0.4895
  472TMC3    C5 7077   0.190   2.303  16.436 -0.4939 -0.6674  1.0846
  472TMC3    C6 7078   0.101   2.335  16.333  0.2447  1.1253 -0.0222
  472TMC3     C 7079   0.149   2.590  16.653  0.2721 -0.5493  0.0858
  472TMC3     O 7080   0.177   2.707  16.673  0.4942 -0.2068 -0.0734
  472TMC3     H 7081   0.008   2.638  16.448 -0.1922 -0.2762 -2.6937
  472TMC3    H1 7082   0.282   2.368  16.619  0.5038  0.6522  0.6951
  472TMC3    H2 7083   0.084   2.266  16.250  0.9002  0.6836  0.2180
  472TMC3    C7 7084   0.230   2.170  16.459  0.2700  0.2074  0.5284
  472TMC3    C8 7085   4.658   2.479  16.256 -0.7502 -0.3286  0.6775
  472TMC3    O1 7086   0.250   2.133  16.571 -0.2215  0.0815  0.1056
  472TMC3    O2 7087   4.632   2.585  16.201  0.0519 -0.2417  0.3883
  473MPD2     C 7088   0.812   4.322  13.923  0.5619 -0.1352 -0.1814
  473MPD2    C1 7089   0.691   4.309  13.975  0.7422 -0.1972  0.0394
  473MPD2    C2 7090   0.665   4.351  14.104 -0.4572 -0.4070 -0.2924
  473MPD2    C3 7091   0.761   4.415  14.181 -0.3545  0.1786 -0.2898
  473MPD2    C4 7092   0.883   4.427  14.126  0.2096 -0.0331  0.0166
  473MPD2    C5 7093   0.907   4.380  14.001 -0.1558  0.3403 -0.0807
  473MPD2     H 7094   0.562   4.340  14.135 -0.3430 -2.1385 -0.5427
  473MPD2    H1 7095   0.958   4.484  14.180  1.7689  0.0013 -2.1902
  473MPD2    H2 7096   0.838   4.302  13.819  2.8923  1.7403  0.0490
  473MPD2    H3 7097   1.002   4.401  13.953  1.0971  0.0655  2.2452
  473MPD2     N 7098   0.731   4.479  14.302 -0.0444  0.6400 -0.4300
  473MPD2    H5 7099   0.800   4.542  14.341  0.4606 -0.1954  0.0275
  473MPD2    N1 7100   0.584   4.271  13.891 -0.6262  0.2323 -0.4002
  473MPD2    H7 7101   0.494   4.299  13.931  0.0225  0.8172  0.6480
  474TMC3    C1 7102   0.612   4.559  14.490 -0.3069  0.0849 -0.8743
  474TMC3    C2 7103   0.489   4.605  14.516 -0.1188  0.1770 -0.5517
  474TMC3    C3 7104   0.471   4.726  14.586 -0.4661 -0.4077  0.0571
  474TMC3    C4 7105   0.724   4.632  14.533 -0.1436 -0.3379 -0.1754
  474TMC3    C5 7106   0.706   4.732  14.623  0.2484 -0.4005  0.6051
  474TMC3    C6 7107   0.582   0.052  14.644 -0.1844 -0.2506  0.0829
  474TMC3     C 7108   0.616   4.463  14.375  0.5104 -0.0520 -0.1291
  474TMC3     O 7109   0.512   4.405  14.344 -0.0202  0.5322 -0.1689
  474TMC3     H 7110   0.401   4.558  14.474  0.6452 -0.5221 -1.3689
  474TMC3    H1 7111   0.826   4.601  14.510 -0.0592  0.7130 -1.2099
  474TMC3    H2 7112   0.569   0.132  14.716  1.0265 -0.1976  0.2410
  474TMC3    C7 7113   0.828   0.066  14.654 -0.3973 -0.8352  0.6591
  474TMC3    C8 7114   0.333   0.046  14.587  0.2991  0.4109 -0.2436
  474TMC3    O1 7115   0.921   0.061  14.570 -0.7824 -0.2743 -0.0425
  474TMC3    O2 7116   0.239   4.698  14.587 -0.3556  0.0906 -0.1777
  475MPD2     C 7117   3.458   1.889  11.222 -0.8056  0.4908  0.1455
  475MPD2    C1 7118   3.465   1.975  11.117 -0.8209 -0.4236 -0.1100
  475MPD2    C2 7119   3.360   2.065  11.096 -0.3755 -0.1269  0.0294
  475MPD2    C3 7120   3.238   2.056  11.169  0.5068  0.0949 -0.3730
  475MPD2    C4 7121   3.229   1.948  11.251  0.0523  0.6437 -0.6589
  475MPD2    C5 7122   3.333   1.865  11.275  0.1201  0.2967  0.2957
  475MPD2     H 7123   3.374   2.154  11.036 -0.8059  0.1381  0.3210
  475MPD2    H1 7124   3.135   1.918  11.296  0.8450  0.5030  0.9004
  475MPD2    H2 7125   3.542   1.833  11.261 -0.2607 -1.0300 -3.2583
  475MPD2    H3 7126   3.321   1.785  11.347 -0.1616  1.1299  1.1790
  475MPD2     N 7127   3.146   2.164  11.157 -0.6634  0.2790  0.3111
  475MPD2    H5 7128   3.163   2.253  11.111 -1.7846  0.8063  0.8900
  475MPD2    N1 7129   3.596   1.991  11.063 -0.1367  0.1842  0.1814
  475MPD2    H7 7130   3.673   1.947  11.113  0.4617  2.1711  1.0066
  476TMC3    C1 7131   3.695   2.187  10.976  0.4470  0.5381  0.2794
  476TMC3    C2 7132   3.677   2.277  10.881  0.1737  0.0667 -0.0522
  476TMC3    C3 7133   3.637   2.408  10.896  0.2225 -0.1397  0.2907
  476TMC3    C4 7134   3.682   2.232  11.106 -0.1481 -0.3595 -0.1341
  476TMC3    C5 7135   3.659   2.365  11.123 -0.2714  0.6404  0.7706
  476TMC3    C6 7136   3.627   2.450  11.020  0.5964  0.0492  0.0700
  476TMC3     C 7137   3.623   2.057  10.948  0.1030 -0.5778 -0.5638
  476TMC3     O 7138   3.558   2.077  10.852 -0.0189 -0.4027  0.7145
  476TMC3     H 7139   3.684   2.244  10.777  1.2412  1.7432 -0.5061
  476TMC3    H1 7140   3.693   2.167  11.193 -0.5032 -0.3345 -0.0719
  476TMC3    H2 7141   3.586   2.548  11.042 -0.2582  0.0242 -1.4745
  476TMC3    C7 7142   3.604   2.401  11.249 -0.4494  0.4674  0.7710
  476TMC3    C8 7143   3.512   2.448  10.829  0.1203  0.1822  0.4970
  476TMC3    O1 7144   3.576   2.303  11.320  0.2210 -0.6243 -0.2136
  476TMC3    O2 7145   3.444   2.544  10.866 -0.3418  0.0779 -0.0784
  477MPD2     C 7146   0.945   3.968  11.853  0.2096  0.1918 -0.3133
  477MPD2    C1 7147   0.885   3.849  11.839 -0.1935  0.1844 -0.4919
  477MPD2    C2 7148   0.909   3.751  11.941 -0.4468 -0.1576  0.1578
  477MPD2    C3 7149   0.966   3.790  12.064  0.0948  0.0376 -0.0678
  477MPD2    C4 7150   1.012   3.920  12.071  0.3675 -0.7912  0.2707
  477MPD2    C5 7151   1.020   3.994  11.960 -0.0149 -0.6511 -0.2472
  477MPD2     H 7152   0.860   3.654  11.942  0.2898 -0.4973  2.3468
  477MPD2    H1 7153   1.049   3.969  12.160  2.5123  1.5650 -1.9189
  477MPD2    H2 7154   0.939   4.039  11.771 -1.3146 -1.7309 -1.8444
  477MPD2    H3 7155   1.053   4.097  11.963  0.2366 -0.6786 -1.8985
  477MPD2     N 7156   0.963   3.693  12.165  0.4776  0.6140  0.4634
  477MPD2    H5 7157   0.911   3.610  12.141 -0.0853  0.9948  0.3821
  477MPD2    N1 7158   0.791   3.818  11.729  0.5742  0.5338  0.4489
  477MPD2    H7 7159   0.747   3.893  11.677 -0.0889  0.8574  1.4567
  478TMC3    C1 7160   0.596   3.733  11.638 -0.4117  0.0480 -0.4918
  478TMC3    C2 7161   0.521   3.831  11.681 -0.1067 -0.1652 -0.0224
  478TMC3    C3 7162   0.395   3.843  11.637  0.0615  0.9519  0.0210
  478TMC3    C4 7163   0.550   3.639  11.555  0.1692 -0.5954 -0.4300
  478TMC3    C5 7164   0.417   3.638  11.521  0.2237  0.1474  0.3359
  478TMC3    C6 7165   0.339   3.744  11.551 -0.0601 -0.1820 -0.1582
  478TMC3     C 7166   0.719   3.702  11.710 -0.2388 -0.5997  0.6193
  478TMC3     O 7167   0.742   3.594  11.756 -0.5124  0.4681 -0.1757
  478TMC3     H 7168   0.562   3.883  11.766  0.7175  0.1079 -0.5875
  478TMC3    H1 7169   0.612   3.554  11.529 -0.2845 -0.4199 -2.1210
  478TMC3    H2 7170   0.235   3.744  11.522 -0.1566  1.8353  0.2136
  478TMC3    C7 7171   0.384   3.603  11.391 -0.3601 -0.7635  0.1708
  478TMC3    C8 7172   0.304   3.909  11.729 -0.2722  0.9544 -0.9219
  478TMC3    O1 7173   0.416   3.496  11.345  0.3966 -0.4138 -0.0866
  478TMC3    O2 7174   0.197   3.847  11.749  0.1709  0.0212  0.0129
  479MPD2     C 7175   4.408   1.499  15.186  0.2603  0.3473 -0.6872
  479MPD2    C1 7176   4.376   1.506  15.320 -0.5111 -0.0740 -0.6535
  479MPD2    C2 7177   4.465   1.562  15.406 -0.4146  0.2862 -0.1054
  479MPD2    C3 7178   4.588   1.611  15.365  0.0449  0.3920 -0.7035
  479MPD2    C4 7179   4.617   1.614  15.223 -0.0775 -0.3682  0.3224
  479MPD2    C5 7180   4.524   1.558  15.143 -0.5376 -0.1061  0.0516
  479MPD2     H 7181   4.441   1.551  15.511 -0.4267 -1.2687 -0.2777
  479MPD2    H1 7182   4.702   1.661  15.176  0.5468 -0.2034  1.6216
  479MPD2    H2 7183   4.337   1.463  15.113 -1.7860 -1.3420  2.1255
  479MPD2    H3 7184   4.547   1.559  15.037 -2.9995  1.4673 -0.4656
  479MPD2     N 7185   4.671   1.681  15.454 -0.1032 -0.3124  0.7827
  479MPD2    H5 7186   0.004   1.744  15.417 -1.3509 -0.1351 -1.2558
  479MPD2    N1 7187   4.258   1.448  15.367 -0.2646 -0.2573 -0.1167
  479MPD2    H7 7188   4.197   1.405  15.299 -2.3985  1.1704  0.9003
  480TMC3    C1 7189   4.577   1.797  15.863  1.0580 -0.4171 -0.0641
  480TMC3    C2 7190   4.479   1.871  15.805 -0.5033  0.0918  0.6510
  480TMC3    C3 7191   4.499   1.927  15.682  0.1532  0.5391 -0.5141
  480TMC3    C4 7192   4.691   1.766  15.795  0.6464 -0.2880  0.1269
  480TMC3    C5 7193   4.687   1.792  15.663  0.7748  0.0209  0.1749
  480TMC3    C6 7194   4.605   1.890  15.612 -1.2072 -0.0404  0.0328
  480TMC3     C 7195   4.540   1.698  15.962  0.1194 -0.6208  0.1089
  480TMC3     O 7196   4.631   1.637  16.015  0.1774  0.5344  0.1802
  480TMC3     H 7197   4.390   1.907  15.856  0.8600  3.1734  0.8200
  480TMC3    H1 7198   0.016   1.686  15.833 -0.2989 -0.6379  0.9440
  480TMC3    H2 7199   4.615   1.934  15.514 -1.0589 -0.4334 -0.1303
  480TMC3    C7 7200   4.665   1.668  15.593 -0.7300 -0.3494  0.0463
  480TMC3    C8 7201   4.372   1.946  15.608  0.0532 -0.1083 -0.3644
  480TMC3    O1 7202   4.605   1.586  15.660  0.2040  0.4204  0.2768
  480TMC3    O2 7203   4.283   2.005  15.669 -0.3971 -0.5521 -0.3957
  481MPD2     C 7204   1.355   0.999  14.225  0.9265  0.5920  0.0968
  481MPD2    C1 7205   1.274   0.943  14.323 -0.4644  0.5021 -0.3678
  481MPD2    C2 7206   1.303   0.965  14.459 -0.8830 -0.0194 -0.2635
  481MPD2    C3 7207   1.403   1.042  14.506 -0.6666 -0.0274  0.6139
  481MPD2    C4 7208   1.487   1.097  14.412 -0.1564  0.2988 -0.8046
  481MPD2    C5 7209   1.467   1.074  14.276 -0.1195 -0.0045  0.1074
  481MPD2     H 7210   1.235   0.920  14.530  0.4765 -0.0726  0.9925
  481MPD2    H1 7211   1.568   1.165  14.435 -0.7879  1.0943 -0.9479
  481MPD2    H2 7212   1.344   1.011  14.118  2.2809 -1.4053 -0.2801
  481MPD2    H3 7213   1.537   1.117  14.206  0.3238 -0.5495  0.2124
  481MPD2     N 7214   1.440   1.057  14.646 -0.0648  0.6636  0.1528
  481MPD2    H5 7215   1.529   1.100  14.666  0.6018  0.6512 -2.7956
  481MPD2    N1 7216   1.157   0.882  14.271  0.0874  0.0245 -0.8040
  481MPD2    H7 7217   1.150   0.872  14.170 -0.0050  1.2009 -0.9100
  482TMC3    C1 7218   0.952   0.773  14.263  0.3679  0.1341  0.1468
  482TMC3    C2 7219   0.894   0.655  14.272  0.6680 -0.2168  0.2346
  482TMC3    C3 7220   0.765   0.640  14.231  0.0066  0.0613  0.2819
  482TMC3    C4 7221   0.893   0.887  14.213  0.3443 -0.2221  0.1721
  482TMC3    C5 7222   0.759   0.867  14.175 -0.1380 -0.0028  0.1015
  482TMC3    C6 7223   0.691   0.749  14.190  0.3661  0.5309 -0.4108
  482TMC3     C 7224   1.068   0.803  14.342  0.3061 -0.5193 -0.0235
  482TMC3     O 7225   1.067   0.779  14.466  0.0557 -0.1770 -0.2365
  482TMC3     H 7226   0.956   0.572  14.304  0.1635 -0.6496  0.0868
  482TMC3    H1 7227   0.942   0.982  14.199  0.4441 -0.5660 -1.7812
  482TMC3    H2 7228   0.585   0.746  14.171  0.3591  0.7042 -0.4018
  482TMC3    C7 7229   0.689   0.968  14.109  0.3425  0.7610  0.1182
  482TMC3    C8 7230   0.747   0.524  14.149  0.8717 -0.2888 -0.3808
  482TMC3    O1 7231   0.569   0.971  14.112  0.1059 -0.2352 -0.0560
  482TMC3    O2 7232   0.839   0.445  14.139  0.0602  0.2063  0.3193
  483TMC3    C1 7233   3.119   0.449   0.575 -0.0184 -1.1320  0.1385
  483TMC3    C2 7234   3.192   0.563   0.539 -1.3800  0.5861  0.4828
  483TMC3    C3 7235   3.275   0.555   0.427  0.8158  0.3302 -0.5331
  483TMC3    C4 7236   3.126   0.332   0.505  0.3484  0.2930  0.2502
  483TMC3    C5 7237   3.204   0.332   0.392 -0.3999 -0.2579 -0.4502
  483TMC3    C6 7238   3.269   0.443   0.346  0.5694 -0.3772  0.3299
  483TMC3     C 7239   3.096   0.434   0.715 -0.3125 -0.0536 -0.4812
  483TMC3     O 7240   3.120   0.532   0.784  0.5766  0.1972  0.2474
  483TMC3     H 7241   3.200   0.655   0.595  0.6770  0.5063  0.3258
  483TMC3    H1 7242   3.063   0.246   0.520 -1.5865  1.9859  1.6881
  483TMC3    H2 7243   3.336   0.441   0.260  0.7565  1.4402  0.4317
  483TMC3    C7 7244   3.258   0.209   0.342  0.4667  0.0109 -0.0626
  483TMC3    C8 7245   3.412   0.579   0.455  0.4310 -0.8306 -0.0730
  483TMC3    O1 7246   3.337   0.213   0.248  0.1132  0.3246  0.0114
  483TMC3    O2 7247   3.488   0.571   0.362 -0.0074 -0.2133 -0.1264
  484MPD2     C 7248   2.180   3.030  12.571  0.4842 -0.3088 -0.6696
  484MPD2    C1 7249   2.201   2.901  12.565  0.3301  1.0731  0.0258
  484MPD2    C2 7250   2.339   2.858  12.568 -0.5695  0.1585  0.1353
  484MPD2    C3 7251   2.433   2.955  12.540  0.6946  0.0691  0.0375
  484MPD2    C4 7252   2.402   3.087  12.517  0.2592  0.1300  0.8479
  484MPD2    C5 7253   2.274   3.117  12.525  0.1280 -0.2577 -0.4603
  484MPD2     H 7254   2.366   2.753  12.570 -0.3775  0.2099  0.3351
  484MPD2    H1 7255   2.475   3.161  12.484 -0.9635  1.2136  0.5492
  484MPD2    H2 7256   2.084   3.075  12.593  1.2248  1.6115 -1.3834
  484MPD2    H3 7257   2.235   3.216  12.503 -0.1564 -0.6440 -1.6832
  484MPD2     N 7258   2.569   2.930  12.524 -0.6979 -0.2734 -0.3357
  484MPD2    H5 7259   2.627   3.002  12.481  0.8606 -1.8176 -0.8483
  484MPD2    N1 7260   2.091   2.815  12.583 -0.1616  0.1400 -0.0917
  484MPD2    H7 7261   2.001   2.864  12.586 -0.0436  0.3587 -0.1306
  485TMC3    C1 7262   2.766   2.800  12.539  0.2473  0.4622 -0.6445
  485TMC3    C2 7263   2.854   2.727  12.616 -0.2111 -0.3991  0.0730
  485TMC3    C3 7264   2.985   2.721  12.579 -0.5179  0.1532 -0.2587
  485TMC3    C4 7265   2.810   2.858  12.419 -0.3736 -0.3599 -0.1043
  485TMC3    C5 7266   2.937   2.850  12.392  1.1575 -0.3232 -0.7588
  485TMC3    C6 7267   3.028   2.788  12.473  0.2205 -0.5503 -0.4715
  485TMC3     C 7268   2.625   2.810  12.568  0.4291 -0.2392 -0.3857
  485TMC3     O 7269   2.579   2.719  12.638  0.2518  0.1520 -0.1139
  485TMC3     H 7270   2.814   2.668  12.698  3.0246  1.2214  2.8100
  485TMC3    H1 7271   2.741   2.901  12.347 -0.2011  2.8614  1.6399
  485TMC3    H2 7272   3.133   2.791  12.444  0.0828 -0.5974 -0.9693
  485TMC3    C7 7273   2.962   2.839  12.247 -0.5438 -0.1396  0.5128
  485TMC3    C8 7274   3.039   2.590  12.562 -0.3017 -1.3015  0.0176
  485TMC3    O1 7275   2.894   2.902  12.170 -0.0059 -0.1613  0.4080
  485TMC3    O2 7276   3.092   2.574  12.450  0.5012  0.0144 -1.0831
  486MPD2     C 7277   4.371   1.123  12.950 -0.2674  0.4650  0.0271
  486MPD2    C1 7278   4.236   1.117  12.966 -0.0894  0.4103  0.2520
  486MPD2    C2 7279   4.155   1.209  12.893 -0.3937  0.7000 -0.2827
  486MPD2    C3 7280   4.208   1.295  12.804  0.0313  1.2194  0.4990
  486MPD2    C4 7281   4.347   1.295  12.791 -0.0586 -0.0507 -0.0590
  486MPD2    C5 7282   4.428   1.216  12.872  0.6642  0.2646 -0.0437
  486MPD2     H 7283   4.049   1.213  12.913  0.0684  3.0679  1.7361
  486MPD2    H1 7284   4.410   1.362  12.734  0.3291 -1.0715 -0.8455
  486MPD2    H2 7285   4.435   1.057  13.009 -1.0080  0.6781  1.0774
  486MPD2    H3 7286   4.535   1.216  12.854  0.8734  0.8586  1.1444
  486MPD2     N 7287   4.127   1.384  12.729 -0.2201 -0.1310 -0.6680
  486MPD2    H5 7288   4.162   1.459  12.669  1.9221 -0.4397  0.1869
  486MPD2    N1 7289   4.193   1.033  13.065  0.0198  0.9552 -0.0237
  486MPD2    H7 7290   4.265   0.990  13.122 -2.1865  0.1392  2.1777
  487TMC3    C1 7291   4.052   0.907  13.191  1.0376  0.3581 -0.0748
  487TMC3    C2 7292   3.951   0.811  13.194 -0.1841 -0.3828  0.3733
  487TMC3    C3 7293   3.891   0.789  13.319  0.0797  0.5376  0.5019
  487TMC3    C4 7294   4.078   0.984  13.301 -0.1284 -0.4456  0.0277
  487TMC3    C5 7295   4.029   0.945  13.424 -0.2201 -0.9829  0.2662
  487TMC3    C6 7296   3.942   0.838  13.441  0.1497  0.1683 -0.0751
  487TMC3     C 7297   4.061   0.984  13.072  0.5054 -0.0659 -0.1273
  487TMC3     O 7298   3.960   0.995  13.005 -0.5620 -0.5828 -0.2828
  487TMC3     H 7299   3.917   0.770  13.100  0.8527  0.3354 -0.3019
  487TMC3    H1 7300   4.139   1.072  13.285 -2.3954  1.4634  2.0537
  487TMC3    H2 7301   3.889   0.827  13.536 -0.4195  1.2264 -0.2645
  487TMC3    C7 7302   4.083   1.013  13.541 -0.3481  0.2269  0.1330
  487TMC3    C8 7303   3.748   0.803  13.307  0.0867 -0.1581  0.6480
  487TMC3    O1 7304   4.028   1.012  13.653 -0.4489  0.3324 -0.4901
  487TMC3    O2 7305   3.693   0.855  13.406  0.0452 -0.3742  0.2801
  488MPD2     C 7306   4.348   3.469  16.744 -1.0282  0.0293  0.5843
  488MPD2    C1 7307   4.305   3.599  16.746  0.2620  0.6242  0.4009
  488MPD2    C2 7308   4.240   3.648  16.861  0.0183  0.3184 -0.1659
  488MPD2    C3 7309   4.232   3.565  16.971  0.6412  0.4464 -0.3696
  488MPD2    C4 7310   4.275   3.435  16.966 -0.0956  0.4220 -0.0263
  488MPD2    C5 7311   4.334   3.389  16.850 -0.4818 -0.1979 -0.3233
  488MPD2     H 7312   4.208   3.752  16.859  0.3039  0.3867 -0.8818
  488MPD2    H1 7313   4.254   3.366  17.047  2.1418 -0.5771 -0.3064
  488MPD2    H2 7314   4.403   3.425  16.661 -0.3792  0.8948  0.5647
  488MPD2    H3 7315   4.368   3.288  16.831  0.4139  0.4519 -2.1992
  488MPD2     N 7316   4.163   3.613  17.086  0.1569  0.2354  0.0777
  488MPD2    H5 7317   4.115   3.702  17.070  0.9933  0.7581  0.4816
  488MPD2    N1 7318   4.301   3.689  16.634  0.6193 -0.2604 -0.4139
  488MPD2    H7 7319   4.272   3.785  16.647 -2.2360 -1.1353 -0.4452
  489TMC3    C1 7320   4.074   3.635  17.296  0.5856 -0.4090  0.3199
  489TMC3    C2 7321   4.006   3.736  17.247 -1.4478 -0.1419 -0.2072
  489TMC3    C3 7322   4.011   3.859  17.303  0.4025  0.2695 -0.2589
  489TMC3    C4 7323   4.121   3.650  17.423 -0.8327 -0.2189  0.1117
  489TMC3    C5 7324   4.121   3.770  17.481 -0.2424 -0.4886  1.0679
  489TMC3    C6 7325   4.074   3.885  17.420  1.1184 -0.6385 -0.0805
  489TMC3     C 7326   4.155   3.552  17.208  0.1913  0.0884 -0.5718
  489TMC3     O 7327   4.235   3.469  17.249 -0.6092 -0.3180  0.2716
  489TMC3     H 7328   3.960   3.732  17.148 -0.2918 -0.0916 -0.7507
  489TMC3    H1 7329   4.196   3.576  17.450 -0.9022 -0.6346 -0.8317
  489TMC3    H2 7330   4.093   3.980  17.467  0.0520 -1.1575  1.3913
  489TMC3    C7 7331   4.142   3.776  17.626  0.4755 -0.6983 -0.0625
  489TMC3    C8 7332   4.032   3.962  17.204  0.2875 -0.2680 -0.2565
  489TMC3    O1 7333   4.135   3.884  17.679  0.1717 -0.2931 -0.0595
  489TMC3    O2 7334   4.050   3.926  17.087  0.5860  0.1441  0.3283
  490MPD2     C 7335   0.401   2.736  17.423 -0.1442 -0.7963 -0.2238
  490MPD2    C1 7336   0.382   2.837  17.524  0.5002  0.4208  0.0573
  490MPD2    C2 7337   0.425   2.967  17.494 -0.1704 -0.4282  0.2844
  490MPD2    C3 7338   0.465   3.003  17.372 -0.0856  0.6292  0.0698
  490MPD2    C4 7339   0.458   2.906  17.272  0.1223  0.0375 -0.3623
  490MPD2    C5 7340   0.435   2.773  17.300 -0.0694  0.7898  0.2490
  490MPD2     H 7341   0.416   3.039  17.574  0.2037 -0.1774  0.1016
  490MPD2    H1 7342   0.485   2.928  17.169 -0.2830  0.7637 -0.3125
  490MPD2    H2 7343   0.382   2.629  17.433  0.0345 -0.6201  2.1407
  490MPD2    H3 7344   0.453   2.705  17.218  0.2212  3.5299 -1.9412
  490MPD2     N 7345   0.511   3.128  17.331  0.1272  0.4978 -0.8574
  490MPD2    H5 7346   0.560   3.147  17.244  0.3229 -1.3514 -1.1583
  490MPD2    N1 7347   0.336   2.810  17.655 -0.7345 -0.0924  0.0056
  490MPD2    H7 7348   0.335   2.890  17.716 -1.2513 -0.0577 -0.0479
  491TMC3    C1 7349   0.202   2.692   0.080 -0.3934  0.1147 -0.1812
  491TMC3    C2 7350   0.134   2.812   0.106 -0.1489  0.2261  0.2808
  491TMC3    C3 7351   0.026   2.800   0.193  0.5846 -0.3728 -0.1216
  491TMC3    C4 7352   0.180   2.569   0.138  0.0912  0.2456  0.8064
  491TMC3    C5 7353   0.064   2.566   0.213  0.1320 -0.2411 -0.1753
  491TMC3    C6 7354   4.737   2.681   0.255  0.2698  0.4986  0.1957
  491TMC3     C 7355   0.289   2.683  17.704  0.6612  1.0235 -0.1055
  491TMC3     O 7356   0.305   2.569  17.658 -0.1207  0.2608  0.0011
  491TMC3     H 7357   0.152   2.896   0.040  0.1993  0.0764  0.1830
  491TMC3    H1 7358   0.216   2.481   0.086 -4.7013 -2.2356  1.6559
  491TMC3    H2 7359   4.638   2.680   0.299 -0.5127  4.0666 -1.4744
  491TMC3    C7 7360   4.708   2.478   0.150  0.8736 -1.3106 -0.7606
  491TMC3    C8 7361   4.706   2.919   0.252  0.3454 -0.2200  0.6128
  491TMC3    O1 7362   4.610   2.531   0.104  0.1218  0.3752  0.0763
  491TMC3    O2 7363   4.662   2.912   0.366 -0.4550 -0.1265  0.4999
  492MPD2     C 7364   0.247   2.480  11.706 -0.4031  0.4777 -0.2206
  492MPD2    C1 7365   0.232   2.390  11.602 -0.5729  0.2963  0.1834
  492MPD2    C2 7366   0.210   2.257  11.634  0.5654  0.7419  0.5263
  492MPD2    C3 7367   0.202   2.212  11.768 -0.3222  0.5628  0.8379
  492MPD2    C4 7368   0.214   2.307  11.867 -0.0392  0.3397 -0.4818
  492MPD2    C5 7369   0.232   2.437  11.835  0.8171 -0.1039  0.1514
  492MPD2     H 7370   0.225   2.186  11.554 -0.3962  2.3877 -1.0920
  492MPD2    H1 7371   0.233   2.287  11.972 -0.4128  0.6307 -0.3588
  492MPD2    H2 7372   0.274   2.583  11.690  0.1862  0.5075  0.9969
  492MPD2    H3 7373   0.246   2.511  11.913 -0.2607 -0.3148  0.5538
  492MPD2     N 7374   0.187   2.074  11.806  0.2404 -0.1081  0.0593
  492MPD2    H5 7375   0.189   2.053  11.905  0.8909 -0.7882 -0.0994
  492MPD2    N1 7376   0.249   2.441  11.470  0.4416  0.1345  0.3474
  492MPD2    H7 7377   0.272   2.537  11.449 -0.0698 -0.4122 -2.7647
  493TMC3    C1 7378   0.278   2.435  11.242 -0.0544  0.7051 -0.3727
  493TMC3    C2 7379   0.375   2.529  11.252 -0.1870  0.0328  0.6725
  493TMC3    C3 7380   0.417   2.594  11.136 -0.0262 -0.4877 -0.3792
  493TMC3    C4 7381   0.239   2.387  11.122 -0.5810  0.1605 -0.3982
  493TMC3    C5 7382   0.279   2.458  11.010 -0.7064 -0.5900  0.5068
  493TMC3    C6 7383   0.366   2.562  11.006  0.0379  0.2948 -0.2899
  493TMC3     C 7384   0.236   2.368  11.356 -1.0271  0.1120 -0.4181
  493TMC3     O 7385   0.180   2.266  11.332  0.5974 -0.5905  0.5372
  493TMC3     H 7386   0.429   2.537  11.346  0.4738  0.0726  0.2944
  493TMC3    H1 7387   0.166   2.307  11.113  0.6007 -0.9365 -0.1815
  493TMC3    H2 7388   0.403   2.598  10.911 -0.3258 -0.5520 -0.7494
  493TMC3    C7 7389   0.226   2.417  10.877 -0.0110 -0.1308  0.5597
  493TMC3    C8 7390   0.526   2.688  11.164 -0.3454 -0.0454 -0.1155
  493TMC3    O1 7391   0.225   2.496  10.783  0.9218  0.6889  0.3361
  493TMC3    O2 7392   0.573   2.686  11.273 -0.1831  0.1117 -0.3940
  494TMC3    C1 7393   0.735   0.184   0.415 -0.0391  0.2656  0.4714
  494TMC3    C2 7394   0.729   0.049   0.411  0.5676  0.3807 -0.0715
  494TMC3    C3 7395   0.761   4.731   0.294 -0.6067 -0.1683 -0.1982
  494TMC3    C4 7396   0.798   0.261   0.326  0.3132  0.1954 -0.1862
  494TMC3    C5 7397   0.835   0.202   0.207 -0.2437 -0.0675  0.1994
  494TMC3    C6 7398   0.804   0.065   0.189 -0.2363  0.1617  0.2620
  494TMC3     C 7399   0.699   0.245   0.542 -0.3481 -0.2197 -0.8211
  494TMC3     O 7400   0.753   0.353   0.575 -0.6272  0.0804 -0.4457
  494TMC3     H 7401   0.710   4.725   0.499 -2.0502  1.6325  0.2384
  494TMC3    H1 7402   0.826   0.362   0.354 -1.1955 -0.3770  3.3397
  494TMC3    H2 7403   0.831   0.020   0.094 -1.8332  0.1495 -0.1704
  494TMC3    C7 7404   0.903   0.269   0.103  0.2422  0.0967 -0.4265
  494TMC3    C8 7405   0.790   4.584   0.299 -0.6523 -0.1073 -0.6072
  494TMC3    O1 7406   0.924   0.202   0.003  0.0574  0.1260  0.2362
  494TMC3    O2 7407   0.786   4.524   0.404  0.2044 -0.0001  0.6527
  495TMC3    C1 7408   4.397   1.654  14.716  0.3950 -0.1206  0.3500
  495TMC3    C2 7409   4.280   1.664  14.640  0.4076  0.2538 -0.0368
  495TMC3    C3 7410   4.203   1.770  14.657  0.3017 -0.4433  0.0341
  495TMC3    C4 7411   4.431   1.746  14.809 -0.1541  0.2990  0.4241
  495TMC3    C5 7412   4.348   1.854  14.827 -0.1691 -0.4562 -0.4810
  495TMC3    C6 7413   4.231   1.863  14.756  0.7838 -0.2672 -0.4434
  495TMC3     C 7414   4.455   1.528  14.745 -0.0292 -0.6392  0.0219
  495TMC3     O 7415   4.567   1.511  14.786 -0.0746  0.5437  0.1133
  495TMC3     H 7416   4.269   1.590  14.561 -2.8614  3.4276 -2.5306
  495TMC3    H1 7417   4.521   1.728  14.867 -0.5294  1.0503  1.2502
  495TMC3    H2 7418   4.165   1.947  14.774 -0.4053 -1.7730  2.2111
  495TMC3    C7 7419   4.341   1.887  14.966 -0.2394  0.8796  0.1497
  495TMC3    C8 7420   4.137   1.831  14.536 -0.3987 -0.3137 -0.6476
  495TMC3    O1 7421   4.453   1.901  15.015  0.3283  0.1325 -0.2078
  495TMC3    O2 7422   4.020   1.870  14.543  0.3088  0.2925 -0.0378
  496MPD2     C 7423   2.218   2.093  15.478 -0.0314  0.0776  0.3560
  496MPD2    C1 7424   2.176   2.059  15.352 -0.4085 -0.1859 -0.9300
  496MPD2    C2 7425   2.041   2.061  15.319  0.0958  0.5793 -0.0100
  496MPD2    C3 7426   1.945   2.097  15.411  0.1720  0.5325  0.1445
  496MPD2    C4 7427   1.986   2.119  15.539 -0.3522 -0.6410 -0.1491
  496MPD2    C5 7428   2.123   2.114  15.569  0.7393  0.1214 -0.4891
  496MPD2     H 7429   2.011   2.017  15.225  0.3912  0.3675 -0.0034
  496MPD2    H1 7430   1.920   2.148  15.620 -0.9841 -2.5338  0.0076
  496MPD2    H2 7431   2.320   2.081  15.511  0.3543  3.1283  0.2738
  496MPD2    H3 7432   2.142   2.148  15.670  1.7187 -0.3330 -0.5193
  496MPD2     N 7433   1.806   2.089  15.394 -0.1435 -0.4482  0.0586
  496MPD2    H5 7434   1.742   2.097  15.472 -0.2059  2.0611 -0.2814
  496MPD2    N1 7435   2.278   2.022  15.254  0.1832  0.2394 -0.2237
  496MPD2    H7 7436   2.371   2.001  15.290  0.1411  0.4093 -0.0195
  497TMC3    C1 7437   1.598   2.047  15.292 -0.5079 -0.6028 -0.5250
  497TMC3    C2 7438   1.547   1.960  15.201 -0.5571 -1.0550 -0.8710
  497TMC3    C3 7439   1.435   1.897  15.240 -0.2287 -0.4703 -0.4573
  497TMC3    C4 7440   1.546   2.078  15.415 -0.6691 -0.5065 -0.3455
  497TMC3    C5 7441   1.447   1.997  15.454 -0.3514  0.1889  0.2861
  497TMC3    C6 7442   1.391   1.908  15.365  0.5960 -0.3116  1.0225
  497TMC3     C 7443   1.745   2.062  15.276 -0.9430 -0.1334  0.0831
  497TMC3     O 7444   1.799   2.061  15.167 -0.3640 -0.1723 -0.7634
  497TMC3     H 7445   1.592   1.951  15.103  2.5876 -1.3023  0.5611
  497TMC3    H1 7446   1.578   2.161  15.476 -1.0513  0.6899 -1.7452
  497TMC3    H2 7447   1.316   1.843  15.408  0.2515 -0.0672  0.7867
  497TMC3    C7 7448   1.478   1.939  15.580  0.4501 -0.3106 -0.1424
  497TMC3    C8 7449   1.370   1.797  15.154 -0.2996 -0.9921  0.8475
  497TMC3    O1 7450   1.454   1.819  15.594  0.4637  0.3176 -0.2194
  497TMC3    O2 7451   1.299   1.718  15.221  0.8629  0.7325 -0.2467
  498MPD2     C 7452   3.245   2.133  10.220 -0.5049 -0.8874 -0.0671
  498MPD2    C1 7453   3.140   2.207  10.273 -0.3434  0.3590  0.0679
  498MPD2    C2 7454   3.018   2.149  10.279  1.1802  0.3145  0.2939
  498MPD2    C3 7455   3.003   2.015  10.242 -0.0971 -0.6081  0.1899
  498MPD2    C4 7456   3.109   1.940  10.196 -0.5155 -0.1312 -0.2696
  498MPD2    C5 7457   3.227   2.004  10.180  0.3208  0.0392 -0.8595
  498MPD2     H 7458   2.928   2.206  10.300  0.2406 -0.4396 -1.7890
  498MPD2    H1 7459   3.103   1.835  10.172 -0.6687  0.2087 -1.7523
  498MPD2    H2 7460   3.348   2.166  10.216 -1.0550  0.9273  0.5249
  498MPD2    H3 7461   3.320   1.953  10.156  0.8642  1.1703 -1.1501
  498MPD2     N 7462   2.875   1.960  10.273 -0.1055 -0.0524 -0.1819
  498MPD2    H5 7463   2.797   2.019  10.302 -0.0933  0.7682 -1.8409
  498MPD2    N1 7464   3.157   2.341  10.313  0.4897 -0.2561 -0.2725
  498MPD2    H7 7465   3.083   2.407  10.336  0.2795 -0.7764  0.5387
  499TMC3    C1 7466   3.273   2.531  10.391  0.0494  0.0343 -0.1783
  499TMC3    C2 7467   3.383   2.576  10.461 -0.2621  0.4309 -0.1207
  499TMC3    C3 7468   3.401   2.708  10.486 -0.0097 -0.4010 -0.4315
  499TMC3    C4 7469   3.172   2.618  10.362 -0.5707 -0.3735  0.0930
  499TMC3    C5 7470   3.189   2.750  10.388 -0.6106 -0.2087 -0.4894
  499TMC3    C6 7471   3.299   2.794  10.454  0.0665  0.2548  0.5410
  499TMC3     C 7472   3.283   2.389  10.344 -0.4189 -0.1632 -0.5376
  499TMC3     O 7473   3.387   2.327  10.359 -0.5988  0.0973  0.4017
  499TMC3     H 7474   3.458   2.503  10.491  0.9807  1.9296  0.4169
  499TMC3    H1 7475   3.093   2.592  10.291  0.4256 -1.6872 -0.5351
  499TMC3    H2 7476   3.296   2.899  10.480 -0.7567  0.1124  1.0466
  499TMC3    C7 7477   3.094   2.849  10.340 -0.7674 -0.2266  0.3987
  499TMC3    C8 7478   3.502   2.751  10.577 -0.0627  0.0295  0.5195
  499TMC3    O1 7479   3.127   2.965  10.336  0.6846  0.2357 -0.5276
  499TMC3    O2 7480   3.578   2.664  10.616 -0.4004  0.6515 -0.4374
  500MPD2     C 7481   4.296   3.581  10.911 -0.2786  0.1947  0.5473
  500MPD2    C1 7482   4.300   3.585  10.775  0.1688  0.1171 -0.1683
  500MPD2    C2 7483   4.187   3.590  10.699  0.2001  0.9151 -0.6312
  500MPD2    C3 7484   4.065   3.565  10.761 -0.0646  0.2964 -0.1036
  500MPD2    C4 7485   4.065   3.552  10.897 -0.0774  0.1053 -0.6455
  500MPD2    C5 7486   4.173   3.554  10.972  0.5212  0.0473  0.6901
  500MPD2     H 7487   4.199   3.615  10.594 -0.2552  1.0318 -0.6565
  500MPD2    H1 7488   3.973   3.509  10.934  0.9821  0.1031  1.9310
  500MPD2    H2 7489   4.387   3.574  10.969 -0.4353  0.1628  0.7898
  500MPD2    H3 7490   4.164   3.538  11.079 -1.7792  0.6292  0.5714
  500MPD2     N 7491   3.939   3.552  10.698 -0.9299 -0.2848  0.2762
  500MPD2    H5 7492   3.862   3.529  10.759 -1.0393  4.1723  1.7908
  500MPD2    N1 7493   4.428   3.588  10.700 -0.4575  0.0802  0.5448
  500MPD2    H7 7494   4.421   3.613  10.601  1.8578 -1.2406  0.0522
  501TMC3    C1 7495   4.650   3.563  10.647  0.8868 -0.0389  0.3185
  501TMC3    C2 7496   4.649   3.672  10.558 -0.2810 -0.3414  0.4674
  501TMC3    C3 7497   0.015   3.680  10.472  0.6350 -0.4850  0.4895
  501TMC3    C4 7498   0.022   3.487  10.654 -0.6255 -0.7401  0.2512
  501TMC3    C5 7499   0.127   3.508  10.580 -0.3227 -0.5631 -0.9074
  501TMC3    C6 7500   0.122   3.598  10.478 -0.1083 -0.1350  0.5361
  501TMC3     C 7501   4.554   3.561  10.750 -0.4004 -0.2702  0.5405
  501TMC3     O 7502   4.592   3.529  10.863 -0.2242  0.1274 -0.3860
  501TMC3     H 7503   4.559   3.732  10.551 -1.1486 -1.5483  1.3061
  501TMC3    H1 7504   0.022   3.405  10.724  2.0665 -0.4257  0.6408
  501TMC3    H2 7505   0.205   3.629  10.415  0.1838 -0.9363  0.5270
  501TMC3    C7 7506   0.243   3.438  10.619  0.5083  0.4338  0.7975
  501TMC3    C8 7507   0.039   3.800  10.393 -0.9616  0.4517 -0.3449
  501TMC3    O1 7508   0.228   3.325  10.654 -0.3497 -0.7713 -0.1774
  501TMC3    O2 7509   0.109   3.790  10.289  0.2174 -0.1286  0.2370
  502TMC3    C1 7510   4.179   2.659  15.501 -0.8127 -0.5017 -0.9797
  502TMC3    C2 7511   4.183   2.784  15.449  0.5480  0.3985 -0.4765
  502TMC3    C3 7512   4.075   2.809  15.364 -0.4259  0.5968  0.1646
  502TMC3    C4 7513   4.077   2.571  15.486 -0.1604 -0.0775  0.3638
  502TMC3    C5 7514   3.977   2.607  15.403  0.0137  0.0227 -0.5443
  502TMC3    C6 7515   3.966   2.729  15.339 -0.0156  0.2358 -0.4241
  502TMC3     C 7516   4.244   2.654  15.635  0.1238  0.2286 -0.4246
  502TMC3     O 7517   4.187   2.587  15.718  0.4722 -0.2612  0.0018
  502TMC3     H 7518   4.273   2.845  15.444  1.0374 -0.2341  0.4998
  502TMC3    H1 7519   4.087   2.473  15.531  0.7013  1.6837  3.9989
  502TMC3    H2 7520   3.885   2.747  15.269 -0.0139 -0.2525 -0.5518
  502TMC3    C7 7521   3.890   2.493  15.352  0.6510 -0.4033 -0.9995
  502TMC3    C8 7522   4.047   2.941  15.321 -0.8684 -0.3701 -1.3830
  502TMC3    O1 7523   3.941   2.383  15.340  0.7172  0.1487 -0.1045
  502TMC3    O2 7524   3.960   2.959  15.240 -0.7775  0.6470  0.4858
  503MPD2     C 7525   1.318   3.937  16.794  0.0201 -0.2231 -0.7690
  503MPD2    C1 7526   1.316   3.954  16.934  0.1286  0.4864 -0.3433
  503MPD2    C2 7527   1.320   3.842  17.016 -0.7468  0.0620 -0.1125
  503MPD2    C3 7528   1.324   3.715  16.961 -0.3301 -0.0069 -0.5335
  503MPD2    C4 7529   1.328   3.699  16.824 -0.8309  0.4654  0.7738
  503MPD2    C5 7530   1.317   3.808  16.745 -0.1706  0.3188  0.2844
  503MPD2     H 7531   1.317   3.864  17.122 -0.0378 -1.2288  0.1679
  503MPD2    H1 7532   1.319   3.600  16.781 -1.2028  2.1149 -2.9741
  503MPD2    H2 7533   1.319   4.023  16.729 -1.9377  0.0335 -0.4569
  503MPD2    H3 7534   1.303   3.786  16.639  2.8282  0.2345 -0.0802
  503MPD2     N 7535   1.338   3.606  17.042 -0.0867 -0.0429  0.3764
  503MPD2    H5 7536   1.329   3.629  17.140  1.9673 -0.5598  0.6989
  503MPD2    N1 7537   1.303   4.078  16.999 -0.6560 -0.4471 -0.0414
  503MPD2    H7 7538   1.284   4.083  17.099  0.1645 -0.5634  0.1216
  504TMC3    C1 7539   1.385   3.395  17.133  0.6923  0.2990  0.3362
  504TMC3    C2 7540   1.314   3.425  17.240 -0.6029  0.6140  0.1909
  504TMC3    C3 7541   1.347   3.355  17.354  0.8995  0.9756 -0.5009
  504TMC3    C4 7542   1.491   3.309  17.139 -0.3159  0.7935 -0.6497
  504TMC3    C5 7543   1.523   3.241  17.249  0.0335  0.1343  0.1962
  504TMC3    C6 7544   1.457   3.273  17.369  0.6653 -0.8447 -0.2083
  504TMC3     C 7545   1.376   3.475  17.007  0.0177 -0.8887 -0.3086
  504TMC3     O 7546   1.435   3.425  16.910  0.5926 -0.3022  0.5052
  504TMC3     H 7547   1.222   3.478  17.220 -1.8826 -1.7697 -0.1845
  504TMC3    H1 7548   1.555   3.281  17.056  2.3095 -0.0366  1.6741
  504TMC3    H2 7549   1.487   3.216  17.456 -0.9122 -0.5477  0.5255
  504TMC3    C7 7550   1.651   3.171  17.248 -0.6131  0.1747 -0.6649
  504TMC3    C8 7551   1.256   3.384  17.467  0.2351 -0.3966  0.3531
  504TMC3    O1 7552   1.675   3.110  17.146  0.1653 -0.5070 -0.0393
  504TMC3    O2 7553   1.157   3.455  17.448 -0.2768  0.6467 -0.4040
  505MPD2     C 7554   1.689   1.799  10.344  0.6346  0.2370  0.4446
  505MPD2    C1 7555   1.664   1.700  10.439 -0.0177 -0.7379  0.3632
  505MPD2    C2 7556   1.685   1.733  10.569  1.0141  0.2580  0.0407
  505MPD2    C3 7557   1.715   1.862  10.612 -0.3028 -0.6020 -0.1689
  505MPD2    C4 7558   1.734   1.964  10.518  0.2042 -0.1293 -0.0033
  505MPD2    C5 7559   1.720   1.928  10.382 -0.6556 -0.6406  0.4136
  505MPD2     H 7560   1.688   1.650  10.638 -1.1981  0.9173  0.9199
  505MPD2    H1 7561   1.773   2.059  10.553 -0.9191  0.2711  0.1487
  505MPD2    H2 7562   1.679   1.781  10.238  0.4129 -0.9992  0.6739
  505MPD2    H3 7563   1.730   2.012  10.314 -1.1788 -1.5350 -0.7691
  505MPD2     N 7564   1.729   1.894  10.741  0.3825 -0.2290 -0.0979
  505MPD2    H5 7565   1.791   1.972  10.761 -1.9519  1.2585  1.3170
  505MPD2    N1 7566   1.632   1.568  10.398 -0.0608 -0.4584  0.0648
  505MPD2    H7 7567   1.637   1.553  10.298 -0.7967  0.9935 -0.2000
  506TMC3    C1 7568   1.605   1.341  10.394  0.0912 -0.0481  0.1117
  506TMC3    C2 7569   1.690   1.323  10.286  0.1488  0.3211  0.1564
  506TMC3    C3 7570   1.744   1.195  10.286  0.6443 -0.2983 -1.0943
  506TMC3    C4 7571   1.568   1.232  10.473  0.0691 -0.2687  0.4416
  506TMC3    C5 7572   1.617   1.105  10.458  0.3111  0.0331  0.3865
  506TMC3    C6 7573   1.717   1.090  10.364  0.2137  0.4711 -0.1802
  506TMC3     C 7574   1.603   1.460  10.474 -0.0752  0.1256 -0.1597
  506TMC3     O 7575   1.578   1.450  10.592  0.3732 -0.0769 -0.5870
  506TMC3     H 7576   1.738   1.403  10.230  0.9742 -0.4651 -0.2683
  506TMC3    H1 7577   1.485   1.255  10.539  1.6327  1.2938  1.8456
  506TMC3    H2 7578   1.781   1.002  10.369 -0.2386  0.1940  0.8363
  506TMC3    C7 7579   1.649   1.057  10.585  0.3640  0.4453  0.2153
  506TMC3    C8 7580   1.851   1.178  10.186  0.3230 -0.3552 -0.0900
  506TMC3    O1 7581   1.653   0.939  10.612 -0.7030 -0.4277  0.2104
  506TMC3    O2 7582   1.823   1.127  10.081  0.2423  0.3267 -0.6472
  507TMC3    C1 7583   2.491   2.712  14.828  0.4911  0.0704 -0.7301
  507TMC3    C2 7584   2.462   2.625  14.721 -0.1328  0.5038  0.3404
  507TMC3    C3 7585   2.469   2.677  14.596  0.7716 -0.3120 -0.1884
  507TMC3    C4 7586   2.537   2.837  14.805 -0.6603  0.2974 -0.5806
  507TMC3    C5 7587   2.557   2.882  14.675 -0.3579 -0.4019  0.3772
  507TMC3    C6 7588   2.518   2.805  14.572  0.2192  0.5699  0.2048
  507TMC3     C 7589   2.392   2.708  14.926 -0.0312  0.0354  0.7034
  507TMC3     O 7590   2.429   2.742  15.037 -0.4353  0.0146  0.4075
  507TMC3     H 7591   2.406   2.537  14.748 -0.9309  0.9177  0.0515
  507TMC3    H1 7592   2.564   2.900  14.890 -1.3933 -0.4922  0.2414
  507TMC3    H2 7593   2.522   2.840  14.470 -1.1627 -0.5433 -0.2472
  507TMC3    C7 7594   2.516   3.014  14.653 -0.5210 -0.9910  0.1995
  507TMC3    C8 7595   2.338   2.651  14.536 -0.1318  0.1411 -0.4098
  507TMC3    O1 7596   2.435   3.032  14.564  0.4445 -0.4977  0.4838
  507TMC3    O2 7597   2.281   2.544  14.561 -0.2631 -0.3246 -0.2432
  508MPD2     C 7598   3.480   0.893  16.415  0.1275 -0.2831 -0.2189
  508MPD2    C1 7599   3.498   0.984  16.522 -0.4964  0.1089 -0.1702
  508MPD2    C2 7600   3.488   1.118  16.499 -0.0540  0.2873 -0.2530
  508MPD2    C3 7601   3.467   1.162  16.362  0.4342 -0.6118  0.6963
  508MPD2    C4 7602   3.462   1.071  16.260 -0.5796  0.0488  0.2871
  508MPD2    C5 7603   3.473   0.941  16.285 -0.4577 -0.4713  0.2600
  508MPD2     H 7604   3.493   1.187  16.582 -1.5973 -0.2215  0.2558
  508MPD2    H1 7605   3.453   1.100  16.155 -0.6588 -1.1926 -0.0476
  508MPD2    H2 7606   3.461   0.786  16.419  1.9012 -0.6005 -0.5000
  508MPD2    H3 7607   3.464   0.878  16.197  0.3667 -0.3786  0.1109
  508MPD2     N 7608   3.455   1.303  16.345  0.8194  0.4653  0.1474
  508MPD2    H5 7609   3.470   1.357  16.429  0.3944  2.4544 -1.0777
  508MPD2    N1 7610   3.521   0.936  16.649  0.1069  0.5064  0.4996
  508MPD2    H7 7611   3.523   0.999  16.729  2.9430  1.0697 -0.0287
  509TMC3    C1 7612   3.241   1.700  16.231 -0.7776  0.4739 -0.3990
  509TMC3    C2 7613   3.317   1.761  16.333  1.0012 -0.2702 -0.6175
  509TMC3    C3 7614   3.417   1.685  16.392  0.6388  0.3620  0.3862
  509TMC3    C4 7615   3.270   1.570  16.195 -0.1133  0.0541 -0.0108
  509TMC3    C5 7616   3.375   1.505  16.255  0.2588 -0.0050  0.4516
  509TMC3    C6 7617   3.450   1.559  16.352 -0.1121  0.4719 -0.1363
  509TMC3     C 7618   3.132   1.773  16.167 -0.4825  0.6181 -0.1069
  509TMC3     O 7619   3.079   1.874  16.211 -0.2578  0.0561 -0.2576
  509TMC3     H 7620   3.296   1.862  16.368 -0.0224 -0.4874 -0.6152
  509TMC3    H1 7621   3.214   1.529  16.111  0.0768 -1.8057  0.7716
  509TMC3    H2 7622   3.535   1.508  16.395  0.9821  1.4690 -1.0938
  509TMC3    C7 7623   3.389   1.362  16.238 -0.4264 -0.7232 -0.5934
  509TMC3    C8 7624   3.519   1.745  16.479 -0.2630  0.0522 -0.2397
  509TMC3    O1 7625   3.350   1.308  16.135 -0.1227  0.1839  0.6018
  509TMC3    O2 7626   3.499   1.737  16.599  0.0860  0.0266 -0.4775
  510MPD2     C 7627   1.134   2.026  14.337 -0.0261 -0.1323  0.3492
  510MPD2    C1 7628   1.210   2.036  14.448 -0.2156 -0.7282  0.0817
  510MPD2    C2 7629   1.342   2.086  14.429 -0.3376 -0.2839 -0.3105
  510MPD2    C3 7630   1.396   2.132  14.310  0.2807 -0.1217 -0.1889
  510MPD2    C4 7631   1.309   2.134  14.203 -0.6030  0.5263  0.2496
  510MPD2    C5 7632   1.183   2.082  14.221  0.4668  0.2457 -0.0943
  510MPD2     H 7633   1.406   2.079  14.517 -1.2956  1.1970  0.5063
  510MPD2    H1 7634   1.349   2.163  14.107 -0.9044  1.9353  0.5348
  510MPD2    H2 7635   1.030   1.996  14.339  0.3867 -1.5384  0.6146
  510MPD2    H3 7636   1.120   2.079  14.133 -3.7677  2.9816  2.8598
  510MPD2     N 7637   1.534   2.161  14.305  0.7094  0.7155 -0.0013
  510MPD2    H5 7638   1.587   2.159  14.391 -0.4415  1.2042  0.7254
  510MPD2    N1 7639   1.157   1.989  14.565  0.2956 -0.7020 -0.4354
  510MPD2    H7 7640   1.068   1.942  14.556 -0.9194  1.1616  1.6920
  511TMC3    C1 7641   1.150   1.897  14.772 -0.2174 -0.3524 -0.3248
  511TMC3    C2 7642   1.132   1.933  14.901  0.3060  0.3882  0.2144
  511TMC3    C3 7643   1.048   1.856  14.975 -0.1988 -0.3996  0.5396
  511TMC3    C4 7644   1.092   1.782  14.719 -0.6473  0.3117  0.1958
  511TMC3    C5 7645   1.013   1.706  14.796  0.1107  0.7939 -0.9987
  511TMC3    C6 7646   0.987   1.741  14.927  1.1543  0.2240 -0.0638
  511TMC3     C 7647   1.223   1.986  14.686 -0.2350 -0.0474 -0.1797
  511TMC3     O 7648   1.308   2.063  14.726  0.2592  0.4157  0.5538
  511TMC3     H 7649   1.182   2.016  14.950 -0.4049  1.6801 -1.2260
  511TMC3    H1 7650   1.130   1.735  14.629  0.8010 -0.2799  1.1198
  511TMC3    H2 7651   0.900   1.698  14.974 -0.1011  3.2743  0.4370
  511TMC3    C7 7652   0.950   1.602  14.731  0.1765 -0.3537  0.2554
  511TMC3    C8 7653   1.001   1.908  15.104  0.7724  0.5671 -0.3474
  511TMC3    O1 7654   0.980   1.579  14.614 -1.0912  0.8817  0.1209
  511TMC3    O2 7655   1.036   2.018  15.142  0.1393 -0.0451 -0.4283
  512TMC3    C1 7656   4.672   1.193  13.261 -0.7863  0.0044 -0.5941
  512TMC3    C2 7657   0.036   1.184  13.354  0.0226  0.6714 -0.0849
  512TMC3    C3 7658   0.025   1.091  13.448 -0.8232  0.2029  0.3421
  512TMC3    C4 7659   4.563   1.110  13.264  0.1874  0.8647  0.7331
  512TMC3    C5 7660   4.572   1.005  13.356  0.9878 -0.0981  0.2930
  512TMC3    C6 7661   4.663   0.998  13.456  0.2575  0.4483 -0.4752
  512TMC3     C 7662   4.682   1.293  13.157 -0.0246  0.0504  0.1173
  512TMC3     O 7663   4.574   1.345  13.129  0.1069  0.0380 -0.0386
  512TMC3     H 7664   0.129   1.240  13.350 -0.7157  1.7439 -2.3292
  512TMC3    H1 7665   4.481   1.126  13.196  0.3076  1.6893  0.7797
  512TMC3    H2 7666   4.671   0.926  13.537 -2.3561 -0.1800 -0.7773
  512TMC3    C7 7667   4.486   0.896  13.325  0.3417  0.0995  0.8712
  512TMC3    C8 7668   0.087   1.097  13.580  0.2867 -0.2641  0.4448
  512TMC3    O1 7669   4.380   0.927  13.274 -0.2929 -0.1903 -0.4905
  512TMC3    O2 7670   0.115   0.994  13.637  0.0091 -0.2609 -0.1716
  513MPD2     C 7671   1.216   1.954  13.260  0.8885  0.2793 -0.3680
  513MPD2    C1 7672   1.217   1.821  13.221  0.1102 -0.1453  0.2244
  513MPD2    C2 7673   1.245   1.725  13.313 -1.3068 -0.4360 -0.2264
  513MPD2    C3 7674   1.257   1.756  13.446  0.9707  0.4507 -0.3643
  513MPD2    C4 7675   1.238   1.886  13.489 -0.3200  0.0765  0.0820
  513MPD2    C5 7676   1.211   1.985  13.391  0.7057 -0.5613  0.3025
  513MPD2     H 7677   1.253   1.620  13.288  2.3495 -0.1466 -0.1603
  513MPD2    H1 7678   1.231   1.911  13.594  1.3813  0.1031  0.1751
  513MPD2    H2 7679   1.201   2.039  13.194  0.0535 -0.3219 -0.9470
  513MPD2    H3 7680   1.210   2.089  13.423 -1.6539 -0.6148  0.3834
  513MPD2     N 7681   1.293   1.645  13.527 -0.0949  0.5387 -0.0666
  513MPD2    H5 7682   1.300   1.554  13.482  2.4134  1.2413 -1.1330
  513MPD2    N1 7683   1.212   1.778  13.082  0.2135  0.0361 -0.2022
  513MPD2    H7 7684   1.239   1.682  13.063  0.2375 -0.4800  2.4344
  514TMC3    C1 7685   1.219   1.800  12.856  0.1751 -0.5039  0.0107
  514TMC3    C2 7686   1.331   1.849  12.802  0.0350  1.3008  0.6653
  514TMC3    C3 7687   1.424   1.761  12.750  0.6967 -0.5252 -0.0138
  514TMC3    C4 7688   1.204   1.665  12.858 -0.7373 -0.4183  0.1233
  514TMC3    C5 7689   1.304   1.579  12.823  0.6823  0.3590 -0.2141
  514TMC3    C6 7690   1.414   1.623  12.759  1.0861 -0.2936 -1.1015
  514TMC3     C 7691   1.181   1.863  12.979 -0.3817  0.3854 -0.1360
  514TMC3     O 7692   1.153   1.983  12.984 -0.6541  0.1706  0.2263
  514TMC3     H 7693   1.346   1.955  12.782 -0.3065  1.4927  1.4338
  514TMC3    H1 7694   1.112   1.632  12.904  0.0973 -0.8921  1.4374
  514TMC3    H2 7695   1.496   1.557  12.732  0.3382 -2.6276  2.2707
  514TMC3    C7 7696   1.338   1.495  12.941 -1.2173 -0.1409  0.3332
  514TMC3    C8 7697   1.543   1.822  12.693  0.0646 -0.5192  0.0530
  514TMC3    O1 7698   1.307   1.542  13.048  0.4961  0.1965  0.2818
  514TMC3    O2 7699   1.559   1.938  12.724  0.1800  0.4792  0.1542
  515MPD2     C 7700   4.646   3.458  15.509  0.3802 -0.0184  0.4385
  515MPD2    C1 7701   4.602   3.532  15.396  0.2649  0.0356  0.3460
  515MPD2    C2 7702   4.662   3.652  15.366  0.1909 -0.9095  0.0764
  515MPD2    C3 7703   0.022   3.704  15.453  0.5588 -0.0184  0.8272
  515MPD2    C4 7704   0.064   3.630  15.566  0.4948 -0.2371 -0.3152
  515MPD2    C5 7705   0.002   3.511  15.595 -0.0255 -0.3436  0.8070
  515MPD2     H 7706   4.647   3.704  15.272 -0.8360 -2.5483 -0.6649
  515MPD2    H1 7707   0.136   3.664  15.640 -0.1028 -1.3398  0.7771
  515MPD2    H2 7708   4.617   3.359  15.543  2.6360 -0.9704 -0.4136
  515MPD2    H3 7709   0.034   3.458  15.685 -1.6903 -1.0365  0.9883
  515MPD2     N 7710   0.095   3.820  15.424 -0.3268  0.2350  0.3323
  515MPD2    H5 7711   0.176   3.833  15.485  1.2450  2.8707 -2.3082
  515MPD2    N1 7712   4.517   3.462  15.308  0.0367 -0.9556 -0.2331
  515MPD2    H7 7713   4.479   3.372  15.333 -1.8798 -0.4548 -1.2976
  516TMC3    C1 7714   4.373   3.430  15.124  0.5329  0.1401 -0.5201
  516TMC3    C2 7715   4.273   3.482  15.044 -0.7251 -0.4450 -0.0079
  516TMC3    C3 7716   4.207   3.386  14.977 -0.5946  0.0140  0.7319
  516TMC3    C4 7717   4.409   3.297  15.128  0.1481  0.0038 -0.2179
  516TMC3    C5 7718   4.331   3.206  15.075 -0.0112  0.5501  0.1149
  516TMC3    C6 7719   4.219   3.249  15.003  0.4062 -0.6506 -0.9196
  516TMC3     C 7720   4.455   3.522  15.203 -0.1337 -0.5418 -0.2621
  516TMC3     O 7721   4.457   3.637  15.161  0.3979 -0.0835 -0.2586
  516TMC3     H 7722   4.261   3.590  15.036 -0.8049 -0.5400 -1.2113
  516TMC3    H1 7723   4.500   3.273  15.182 -1.1717 -1.4182  1.3813
  516TMC3    H2 7724   4.162   3.177  14.945 -0.4405 -1.7684  1.2936
  516TMC3    C7 7725   4.357   3.072  15.128 -0.0169 -0.0972  0.0746
  516TMC3    C8 7726   4.138   3.425  14.859  0.7099  0.1416  1.0592
  516TMC3    O1 7727   4.448   3.057  15.208  0.4053 -0.4526 -0.0732
  516TMC3    O2 7728   4.052   3.350  14.821  0.5825  0.1619  0.0132
  517MPD2     C 7729   3.910   4.666  17.684 -0.0151  0.0396 -0.5998
  517MPD2    C1 7730   4.037   4.709  17.652 -0.7687  0.0390  0.2202
  517MPD2    C2 7731   4.083   0.088  17.718 -0.1317 -0.1759  0.4179
  517MPD2    C3 7732   4.005   0.155   0.064 -0.3844 -0.1064  0.3552
  517MPD2    C4 7733   3.873   0.117   0.081 -0.1453  0.1453 -0.4787
  517MPD2    C5 7734   3.829   0.001   0.023 -0.3248  0.4421 -0.5831
  517MPD2     H 7735   4.188   0.116  17.708  0.5111 -1.5117  3.2608
  517MPD2    H1 7736   3.798   0.180   0.126  1.0955 -0.8373  3.0022
  517MPD2    H2 7737   3.865   4.577  17.642 -0.5661 -0.4951  1.1104
  517MPD2    H3 7738   3.726   4.708   0.040  0.4779 -1.1016  1.5073
  517MPD2     N 7739   4.049   0.270   0.130 -0.3762 -0.2448 -0.3505
  517MPD2    H5 7740   3.979   0.315   0.188 -1.1834 -1.0193 -0.7329
  517MPD2    N1 7741   4.121   4.642  17.565 -0.0678 -0.1750 -0.0620
  517MPD2    H7 7742   4.211   4.680  17.537  0.5312 -1.2939  0.3681
  518TMC3    C1 7743   4.198   4.468  17.422 -0.3386  0.4661  0.2990
  518TMC3    C2 7744   4.216   4.336  17.403  0.7019  0.2870  0.0364
  518TMC3    C3 7745   4.293   4.296  17.295  0.0995  0.2226 -0.5883
  518TMC3    C4 7746   4.259   4.555  17.338  0.4239  0.0793  0.1232
  518TMC3    C5 7747   4.314   4.515  17.222  0.6118  0.5603  1.1273
  518TMC3    C6 7748   4.336   4.379  17.203  0.6928  0.0766 -0.3910
  518TMC3     C 7749   4.098   4.515  17.513  0.3017 -0.2878 -0.6813
  518TMC3     O 7750   4.017   4.431  17.553  0.0097 -0.1957  0.1221
  518TMC3     H 7751   4.190   4.264  17.480 -1.4761 -0.1029 -1.0531
  518TMC3    H1 7752   4.237   4.662  17.341 -1.3492 -0.3110  0.9431
  518TMC3    H2 7753   4.397   4.351  17.118  1.0326 -0.2792 -0.0326
  518TMC3    C7 7754   4.432   4.595  17.190 -0.0218 -0.6960 -0.7403
  518TMC3    C8 7755   4.354   4.164  17.291 -0.0959  0.1605 -1.1679
  518TMC3    O1 7756   4.533   4.588  17.259  0.8130  0.0690 -0.4739
  518TMC3    O2 7757   4.384   4.112  17.188  0.4744 -0.0821  0.5393
  519MPD2     C 7758   1.186   3.224  14.620  0.6738  1.0894  0.1387
  519MPD2    C1 7759   1.090   3.130  14.587  0.5612 -0.2657 -0.7242
  519MPD2    C2 7760   1.126   3.013  14.518 -1.6660  0.6977  0.3868
  519MPD2    C3 7761   1.262   2.989  14.501 -0.4352  0.3384  0.3222
  519MPD2    C4 7762   1.353   3.086  14.537  0.7403  0.5461 -0.5986
  519MPD2    C5 7763   1.315   3.202  14.595 -0.4079  0.2236 -0.3521
  519MPD2     H 7764   1.053   2.934  14.506 -1.2515  0.2039  1.1392
  519MPD2    H1 7765   1.461   3.073  14.535  0.5625 -1.1485  0.9905
  519MPD2    H2 7766   1.151   3.315  14.666  1.1855 -0.0507  2.7390
  519MPD2    H3 7767   1.373   3.288  14.628 -1.2792  0.1300  1.3823
  519MPD2     N 7768   1.313   2.871  14.435 -0.3319 -0.0224 -0.4170
  519MPD2    H5 7769   1.412   2.869  14.412 -0.3597  1.0328 -0.6294
  519MPD2    N1 7770   0.956   3.166  14.589  1.3360  0.0718 -0.1404
  519MPD2    H7 7771   0.936   3.263  14.610  1.0031  0.1985 -1.0949
  520TMC3    C1 7772   1.315   2.687  14.301 -0.0192 -0.0029  0.1604
  520TMC3    C2 7773   1.242   2.620  14.204  0.1446 -0.4743 -0.1002
  520TMC3    C3 7774   1.292   2.526  14.117  0.5992  1.0974 -0.5607
  520TMC3    C4 7775   1.439   2.652  14.331  0.1331  0.7470 -0.2694
  520TMC3    C5 7776   1.486   2.549  14.249 -0.1404 -0.4320  1.0764
  520TMC3    C6 7777   1.421   2.494  14.138 -0.2529  0.0996  0.0977
  520TMC3     C 7778   1.237   2.773  14.384 -0.2554  0.5313 -0.1034
  520TMC3     O 7779   1.117   2.759  14.382 -0.5476 -0.1721 -0.1947
  520TMC3     H 7780   1.138   2.651  14.192  0.4141 -0.6647 -2.9183
  520TMC3    H1 7781   1.500   2.684  14.416 -0.5768  0.7639  0.2314
  520TMC3    H2 7782   1.470   2.427  14.069  0.5438  0.5909  0.1861
  520TMC3    C7 7783   1.625   2.506  14.271  0.0471  0.2164  0.4380
  520TMC3    C8 7784   1.239   2.527  13.983  0.3248  0.5511 -0.0891
  520TMC3    O1 7785   1.658   2.504  14.389 -0.2484 -0.0300  0.1062
  520TMC3    O2 7786   1.314   2.510  13.887 -0.6643  0.5987  1.5770
  521MPD2     C 7787   2.227   1.749  17.423  0.1593  0.2617  0.3156
  521MPD2    C1 7788   2.225   1.644  17.332  0.4358  0.7891 -0.5885
  521MPD2    C2 7789   2.344   1.603  17.280 -0.8209  0.6720 -0.7877
  521MPD2    C3 7790   2.465   1.661  17.313  0.0942 -0.0260  0.6173
  521MPD2    C4 7791   2.463   1.775  17.387 -0.0163 -0.1497 -0.2087
  521MPD2    C5 7792   2.346   1.816  17.449 -0.1399 -0.0409  0.0519
  521MPD2     H 7793   2.353   1.513  17.220  0.0232 -0.5261  1.1684
  521MPD2    H1 7794   2.550   1.834  17.412 -0.2429 -0.9723  2.5322
  521MPD2    H2 7795   2.130   1.784  17.458 -0.8669 -1.7976 -0.4614
  521MPD2    H3 7796   2.338   1.900  17.517 -0.0167  1.8691 -2.2863
  521MPD2     N 7797   2.585   1.603  17.267 -0.4989  0.1368  0.2099
  521MPD2    H5 7798   2.581   1.516  17.215 -0.0168  0.9258 -1.1493
  521MPD2    N1 7799   2.089   1.585  17.327 -0.0319  0.5621  0.0894
  521MPD2    H7 7800   2.014   1.635  17.372  0.1912  2.5002 -1.6979
  522TMC3    C1 7801   2.817   1.601  17.193 -0.7344 -0.1380  0.4009
  522TMC3    C2 7802   2.941   1.616  17.234  0.4025 -0.5559  0.3123
  522TMC3    C3 7803   3.042   1.563  17.161  0.6423 -0.4054 -0.8886
  522TMC3    C4 7804   2.786   1.530  17.080  0.4350 -0.0206 -0.7169
  522TMC3    C5 7805   2.884   1.491  17.001  0.1613 -0.4010  0.0477
  522TMC3    C6 7806   3.015   1.506  17.037  0.0201 -0.0991 -0.8874
  522TMC3     C 7807   2.711   1.670  17.271  0.6465 -0.2489  1.1954
  522TMC3     O 7808   2.734   1.790  17.296 -0.0418 -0.1355  0.5370
  522TMC3     H 7809   2.955   1.672  17.326  1.8020 -0.1125 -0.1744
  522TMC3    H1 7810   2.683   1.502  17.059  0.8952 -2.5930  0.3895
  522TMC3    H2 7811   3.094   1.477  16.969  0.4392 -1.2174  0.0771
  522TMC3    C7 7812   2.852   1.442  16.867  0.2635 -0.3877  0.3542
  522TMC3    C8 7813   3.178   1.565  17.208 -0.1322 -0.3773  0.1532
  522TMC3    O1 7814   2.925   1.354  16.820 -0.1832 -0.2092 -0.2101
  522TMC3    O2 7815   3.199   1.645  17.298  0.0489  0.0295 -0.2995
  523MPD2     C 7816   0.352   0.526  10.141 -0.0753 -0.1905  0.0395
  523MPD2    C1 7817   0.274   0.430  10.090  0.6060 -0.2115 -0.5526
  523MPD2    C2 7818   0.193   0.453   9.982 -0.6895  0.3005  0.4979
  523MPD2    C3 7819   0.183   0.585   9.936  0.5129 -0.2576  0.8423
  523MPD2    C4 7820   0.260   0.681  10.001 -0.3728  0.0437  0.4936
  523MPD2    C5 7821   0.348   0.652  10.102 -0.9760 -0.2545  0.1716
  523MPD2     H 7822   0.136   0.375   9.933  0.3776  2.0659 -3.5027
  523MPD2    H1 7823   0.270   0.783   9.965  0.3422 -0.0904  0.3281
  523MPD2    H2 7824   0.425   0.512  10.220  1.0433 -0.7444 -1.0770
  523MPD2    H3 7825   0.384   0.738  10.156  2.6774 -1.5545 -0.1986
  523MPD2     N 7826   0.123   0.627   9.815  0.2077 -0.0120 -0.3575
  523MPD2    H5 7827   0.138   0.723   9.786  1.4190 -0.4874 -1.2891
  523MPD2    N1 7828   0.299   0.303  10.147  0.1368 -0.2107  0.2004
  523MPD2    H7 7829   0.362   0.305  10.227  0.6076  0.7790 -0.1931
  524TMC3    C1 7830   4.696   0.622   9.644 -0.0375 -0.1658 -0.3016
  524TMC3    C2 7831   4.646   0.550   9.535  0.5492  0.0960 -0.6804
  524TMC3    C3 7832   4.595   0.619   9.426 -0.0572  0.3809  0.3885
  524TMC3    C4 7833   4.700   0.756   9.641 -0.3648 -0.6876 -0.0589
  524TMC3    C5 7834   4.640   0.821   9.528 -0.5026  0.6561 -0.7187
  524TMC3    C6 7835   4.589   0.751   9.422  0.1022  0.2265  0.2336
  524TMC3     C 7836   0.029   0.551   9.752 -0.0770 -0.0384  0.7705
  524TMC3     O 7837   4.714   0.446   9.787  0.5238  0.3111 -0.2321
  524TMC3     H 7838   4.675   0.445   9.527 -3.0296 -0.7854 -2.1049
  524TMC3    H1 7839   4.720   0.812   9.732  0.1587 -0.8226 -0.0918
  524TMC3    H2 7840   4.573   0.810   9.332 -0.2083  0.9647  0.7711
  524TMC3    C7 7841   4.657   0.963   9.520  0.3118 -0.2970  0.2859
  524TMC3    C8 7842   4.540   0.542   9.320 -0.6751  0.5228 -0.0968
  524TMC3    O1 7843   0.024   1.003   9.570  0.3910  0.4029 -0.8234
  524TMC3    O2 7844   4.563   0.422   9.316  0.2960 -0.1485  0.0745
  525MPD2     C 7845   2.737   2.420  14.553 -0.0483  0.0310  0.3712
  525MPD2    C1 7846   2.833   2.469  14.633  0.4175 -0.2708  0.2292
  525MPD2    C2 7847   2.890   2.590  14.607  0.5137 -0.5053 -0.0189
  525MPD2    C3 7848   2.844   2.666  14.504 -0.4684  0.3934  0.1540
  525MPD2    C4 7849   2.748   2.616  14.417  0.2930 -0.5249 -0.6951
  525MPD2    C5 7850   2.699   2.495  14.443 -0.2649 -0.1725 -0.9386
  525MPD2     H 7851   2.954   2.638  14.680 -1.6565  0.4087  1.2978
  525MPD2    H1 7852   2.723   2.673  14.328  3.3820  1.4907 -0.2842
  525MPD2    H2 7853   2.684   2.325  14.561 -0.3379  0.1795  0.2261
  525MPD2    H3 7854   2.623   2.447  14.383 -1.8667 -2.1013  2.6174
  525MPD2     N 7855   2.881   2.802  14.499  0.5863 -0.0766  0.6947
  525MPD2    H5 7856   2.820   2.859  14.440  1.9922 -0.3223 -1.0015
  525MPD2    N1 7857   2.875   2.394  14.746 -0.0696  0.7618  0.0880
  525MPD2    H7 7858   2.959   2.421  14.795  2.2026 -1.4139 -2.6074
  526TMC3    C1 7859   2.891   2.209  14.885  0.0397  0.5400  0.8842
  526TMC3    C2 7860   2.854   2.189  15.015 -0.4396 -0.1126  0.4554
  526TMC3    C3 7861   2.938   2.125  15.097  0.1189  0.1772 -0.0768
  526TMC3    C4 7862   3.009   2.172  14.831  0.3544  0.9657  0.2744
  526TMC3    C5 7863   3.094   2.119  14.918 -0.8115 -0.5425  0.5453
  526TMC3    C6 7864   3.059   2.087  15.050 -0.1312  0.0083  0.1678
  526TMC3     C 7865   2.804   2.289  14.796 -0.4169  0.1226  0.6266
  526TMC3     O 7866   2.690   2.249  14.781 -0.2223 -0.0147 -0.3811
  526TMC3     H 7867   2.757   2.225  15.048 -0.1073  0.2825  0.9899
  526TMC3    H1 7868   3.024   2.187  14.725 -1.4757 -1.2444 -0.3217
  526TMC3    H2 7869   3.132   2.047  15.119 -0.9288 -1.3453  0.2312
  526TMC3    C7 7870   3.236   2.122  14.883 -0.5532 -0.9991 -0.2732
  526TMC3    C8 7871   2.948   2.178  15.233 -0.0569 -0.5734 -0.1093
  526TMC3    O1 7872   3.318   2.082  14.963 -0.1181  0.2327 -0.3275
  526TMC3    O2 7873   3.060   2.220  15.266 -0.1924 -0.4075  0.2698
  527MPD2     C 7874   0.251   0.905   1.098  0.1023  0.4207  0.5504
  527MPD2    C1 7875   0.316   0.852   0.984 -0.1801 -0.0114 -0.1194
  527MPD2    C2 7876   0.452   0.871   0.977  0.0057  0.1417  0.4988
  527MPD2    C3 7877   0.520   0.935   1.074  0.0046 -0.0593 -0.6088
  527MPD2    C4 7878   0.458   0.991   1.183  0.3894 -0.2397  0.3847
  527MPD2    C5 7879   0.319   0.973   1.191 -0.3958  0.6843 -0.6845
  527MPD2     H 7880   0.509   0.846   0.889  0.7074  1.3638  0.6022
  527MPD2    H1 7881   0.508   1.059   1.250  0.8102  1.7618 -1.9531
  527MPD2    H2 7882   0.146   0.888   1.121  1.0169 -4.1642  1.2770
  527MPD2    H3 7883   0.267   1.003   1.282  0.8821 -1.8882  0.9213
  527MPD2     N 7884   0.655   0.960   1.049  0.4053  0.9474 -0.2642
  527MPD2    H5 7885   0.688   0.944   0.955 -0.3358  0.1572 -0.3953
  527MPD2    N1 7886   0.244   0.787   0.879 -0.3866  0.3128  0.1143
  527MPD2    H7 7887   0.301   0.742   0.808 -1.2389 -0.1859 -0.2533
  528TMC3    C1 7888   0.060   0.675   0.769  0.0071 -0.5533  0.4579
  528TMC3    C2 7889   0.156   0.649   0.670 -0.1637 -0.4504 -0.1989
  528TMC3    C3 7890   0.146   0.534   0.600 -1.0461 -0.0058  0.3117
  528TMC3    C4 7891   4.693   0.588   0.788  0.3353 -0.6935 -0.7461
  528TMC3    C5 7892   4.677   0.491   0.691 -1.7246  0.5325  0.2013
  528TMC3    C6 7893   0.031   0.457   0.595 -0.2613 -0.6295  0.4844
  528TMC3     C 7894   0.112   0.749   0.881  0.2202  0.2361  0.2248
  528TMC3     O 7895   0.021   0.774   0.964 -0.8026 -0.4729 -0.4262
  528TMC3     H 7896   0.226   0.727   0.644 -2.0148  0.6239 -1.9377
  528TMC3    H1 7897   4.616   0.602   0.863  1.2230 -1.1230  0.2455
  528TMC3    H2 7898   0.018   0.364   0.542 -5.2498  1.1187 -1.3541
  528TMC3    C7 7899   4.560   0.418   0.708 -1.0561  0.5283  0.0876
  528TMC3    C8 7900   0.251   0.501   0.512 -0.2959  0.6271  0.3569
  528TMC3    O1 7901   4.500   0.429   0.816  0.1420  0.2375 -0.2896
  528TMC3    O2 7902   0.336   0.590   0.488 -0.3078 -0.7788 -0.1439
  529MPD2     C 7903   2.782   4.315   1.256  0.0399  0.1161  0.4059
  529MPD2    C1 7904   2.832   4.199   1.192  0.6705  0.5751  0.6263
  529MPD2    C2 7905   2.819   4.196   1.055  0.1928  0.5507 -0.3304
  529MPD2    C3 7906   2.774   4.305   0.979 -0.0147 -0.3377  0.5401
  529MPD2    C4 7907   2.731   4.418   1.045  0.5171 -0.3198 -0.6905
  529MPD2    C5 7908   2.741   4.417   1.187 -0.0583 -0.4477  0.0630
  529MPD2     H 7909   2.870   4.113   1.006  2.4019  0.8810  1.3928
  529MPD2    H1 7910   2.713   4.509   0.989 -0.7610  1.3568  2.4369
  529MPD2    H2 7911   2.789   4.327   1.363  1.2079 -1.8866  0.5363
  529MPD2    H3 7912   2.701   4.504   1.237 -1.0332 -1.5628  1.2117
  529MPD2     N 7913   2.769   4.294   0.844  0.2425 -0.0755  0.1605
  529MPD2    H5 7914   2.755   4.378   0.790 -0.0974  0.4368  1.0464
  529MPD2    N1 7915   2.900   4.087   1.259 -0.2967 -0.5266  0.1222
  529MPD2    H7 7916   2.943   4.020   1.196 -0.7947  0.5405 -1.3558
  530TMC3    C1 7917   3.027   3.985   1.439  0.1909 -0.3115  0.4500
  530TMC3    C2 7918   3.124   4.022   1.523  0.0301 -0.4000  0.0493
  530TMC3    C3 7919   3.231   3.934   1.549 -0.3180 -0.0414  0.2575
  530TMC3    C4 7920   3.040   3.870   1.370  0.9119  0.2498  0.1052
  530TMC3    C5 7921   3.153   3.790   1.389  0.1799 -0.2859  0.8406
  530TMC3    C6 7922   3.252   3.819   1.479 -0.1595 -0.4210 -0.0643
  530TMC3     C 7923   2.938   4.093   1.394 -0.0206 -0.1374  0.1092
  530TMC3     O 7924   2.917   4.178   1.481 -0.4316  0.4326  0.6690
  530TMC3     H 7925   3.105   4.104   1.591 -0.7162 -0.1929 -0.3970
  530TMC3    H1 7926   2.953   3.834   1.316  1.4005  0.4099 -0.7797
  530TMC3    H2 7927   3.333   3.752   1.505 -0.5991 -1.4983 -1.5062
  530TMC3    C7 7928   3.155   3.652   1.347 -0.8444  0.5252 -0.1557
  530TMC3    C8 7929   3.315   3.966   1.661 -0.0404  0.1568  0.0836
  530TMC3    O1 7930   3.261   3.605   1.306  0.2771 -0.0599 -0.4676
  530TMC3    O2 7931   3.264   4.012   1.768  0.3905 -0.5490  0.2800
  531MPD2     C 7932   1.533   1.093  13.180  1.0146  0.0036  0.3322
  531MPD2    C1 7933   1.467   1.195  13.230 -0.3904  0.1380 -0.3105
  531MPD2    C2 7934   1.414   1.293  13.144  1.1194  0.1269 -0.4657
  531MPD2    C3 7935   1.420   1.272  13.008 -0.1131  0.2367  0.4023
  531MPD2    C4 7936   1.472   1.153  12.957 -0.7444 -0.7247  0.9203
  531MPD2    C5 7937   1.535   1.066  13.041  0.0408 -0.3033  0.2956
  531MPD2     H 7938   1.387   1.389  13.187  0.9993  1.4054 -3.3499
  531MPD2    H1 7939   1.481   1.136  12.850 -2.2442 -0.7791  0.8043
  531MPD2    H2 7940   1.576   1.018  13.245  1.7101 -0.2849 -0.4616
  531MPD2    H3 7941   1.577   0.971  13.010 -0.2708 -0.7430  1.1955
  531MPD2     N 7942   1.381   1.369  12.918  0.3227 -0.0086 -0.2977
  531MPD2    H5 7943   1.385   1.343  12.820 -0.8668  1.6343 -0.7761
  531MPD2    N1 7944   1.462   1.219  13.364 -0.5054  0.1551 -0.5558
  531MPD2    H7 7945   1.520   1.164  13.426  1.1534 -0.0308 -2.3132
  532TMC3    C1 7946   1.410   1.332  13.568  0.2079 -0.1953 -0.4158
  532TMC3    C2 7947   1.320   1.422  13.628  0.0583 -0.2536 -0.3400
  532TMC3    C3 7948   1.380   1.517  13.706  0.0596 -0.6094 -0.6251
  532TMC3    C4 7949   1.540   1.322  13.601 -0.1253  0.3827  0.2423
  532TMC3    C5 7950   1.593   1.428  13.677 -0.1611  0.5581 -0.0658
  532TMC3    C6 7951   1.514   1.525  13.733 -0.0590 -0.3423 -0.2277
  532TMC3     C 7952   1.386   1.320  13.425  0.0991  0.1481 -0.0889
  532TMC3     O 7953   1.294   1.390  13.388  0.3412  0.4000 -0.2881
  532TMC3     H 7954   1.212   1.425  13.620 -0.0756  0.2442  1.4895
  532TMC3    H1 7955   1.612   1.262  13.547 -0.4797 -2.2760  2.7218
  532TMC3    H2 7956   1.554   1.588  13.812  0.9658 -1.4950  0.1762
  532TMC3    C7 7957   1.722   1.411  13.736  0.8543 -0.0709 -0.4958
  532TMC3    C8 7958   1.325   1.644  13.661 -0.2836  1.0615 -0.2764
  532TMC3    O1 7959   1.744   1.439  13.852 -0.0133 -0.3136 -0.5108
  532TMC3    O2 7960   1.345   1.738  13.732 -0.4300  0.7045 -0.1604
  533TMC3    C1 7961   3.014   2.975  14.588 -0.6163  0.7779  0.8261
  533TMC3    C2 7962   3.135   3.026  14.599  0.1201 -0.2117 -0.2298
  533TMC3    C3 7963   3.162   3.134  14.677  0.4498  0.1031  0.0227
  533TMC3    C4 7964   2.914   3.030  14.663 -0.5169  0.0545  0.6495
  533TMC3    C5 7965   2.940   3.127  14.754  0.5995 -0.2228 -0.6562
  533TMC3    C6 7966   3.060   3.188  14.752  0.5575  0.2663 -0.0799
  533TMC3     C 7967   3.006   2.841  14.547  0.2220  0.3064  0.2991
  533TMC3     O 7968   3.105   2.767  14.563 -0.1386 -0.1809  0.5875
  533TMC3     H 7969   3.210   2.982  14.534 -0.7171 -1.5841 -0.2607
  533TMC3    H1 7970   2.816   2.984  14.660 -1.0578  1.2133  0.3781
  533TMC3    H2 7971   3.086   3.278  14.806 -0.0121  1.7686 -2.3445
  533TMC3    C7 7972   2.877   3.122  14.881 -0.5670  0.3904 -0.6220
  533TMC3    C8 7973   3.293   3.202  14.678 -0.2527 -0.1065 -0.6988
  533TMC3    O1 7974   2.784   3.045  14.894  0.3045  0.4035 -0.2305
  533TMC3    O2 7975   3.289   3.303  14.746 -0.1488  0.0853 -0.5613
  534MPD2     C 7976   1.063   4.103   0.961  0.8316 -0.0790 -0.7834
  534MPD2    C1 7977   1.010   4.211   1.033  0.8186  0.9092  0.7824
  534MPD2    C2 7978   0.875   4.249   1.011  0.1034 -0.5551  0.5331
  534MPD2    C3 7979   0.791   4.186   0.914 -0.0236  1.0853  0.5672
  534MPD2    C4 7980   0.854   4.091   0.849 -0.8958  0.5207  0.3045
  534MPD2    C5 7981   0.976   4.047   0.873 -0.2839 -0.0919 -0.0717
  534MPD2     H 7982   0.834   4.333   1.065  0.2731  0.4567 -0.9235
  534MPD2    H1 7983   0.794   4.033   0.780  1.1412  0.2841 -1.2972
  534MPD2    H2 7984   1.161   4.062   0.978  0.4762 -0.0303  1.3029
  534MPD2    H3 7985   1.013   3.960   0.820 -1.9481 -0.3016 -0.8851
  534MPD2     N 7986   0.649   4.205   0.899  0.8460 -0.5295 -0.0291
  534MPD2    H5 7987   0.606   4.153   0.823 -0.2785 -0.0582  0.2962
  534MPD2    N1 7988   1.072   4.279   1.140 -0.4657 -0.3001  0.1253
  534MPD2    H7 7989   1.014   4.350   1.183 -3.8486 -2.7246 -0.4988
  535TMC3    C1 7990   0.436   4.299   0.933 -0.3028  0.4929  0.0325
  535TMC3    C2 7991   0.347   4.310   1.037 -0.1172 -0.4291 -0.9447
  535TMC3    C3 7992   0.227   4.369   1.007 -0.4719 -0.3848 -0.6482
  535TMC3    C4 7993   0.404   4.316   0.802 -0.7445 -0.3292  0.0020
  535TMC3    C5 7994   0.288   4.381   0.782 -0.6194  0.2802 -0.9074
  535TMC3    C6 7995   0.197   4.412   0.878 -0.4189  0.4910  0.5929
  535TMC3     C 7996   0.570   4.281   0.981 -0.2443 -0.6320 -0.0105
  535TMC3     O 7997   0.595   4.326   1.096  0.2060 -0.1245  0.8212
  535TMC3     H 7998   0.370   4.279   1.138  0.2699  1.3926 -0.4698
  535TMC3    H1 7999   0.476   4.299   0.722  0.0718  0.8557  0.4664
  535TMC3    H2 8000   0.101   4.453   0.848 -0.2600 -0.9408 -1.8848
  535TMC3    C7 8001   0.259   4.400   0.640 -0.3588  0.6608  0.4367
  535TMC3    C8 8002   0.118   4.359   1.100 -0.0640 -0.3145  1.2557
  535TMC3    O1 8003   0.330   4.342   0.565 -0.1311  0.5768  0.7135
  535TMC3    O2 8004   0.102   4.252   1.158  0.0901  0.7218  0.0544
  536MPD2     C 8005   4.511   2.658  16.999  0.3507  0.1984 -0.0050
  536MPD2    C1 8006   4.419   2.567  16.961  0.5954  0.5304  0.5354
  536MPD2    C2 8007   4.367   2.573  16.826  0.3826  0.1669 -0.6038
  536MPD2    C3 8008   4.410   2.670  16.741  0.4191  0.3962 -0.1576
  536MPD2    C4 8009   4.508   2.755  16.775  0.0864  0.2164 -0.5724
  536MPD2    C5 8010   4.560   2.749  16.902  0.3017  0.4394 -0.1078
  536MPD2     H 8011   4.283   2.509  16.804  0.9789 -0.6110 -0.6168
  536MPD2    H1 8012   4.561   2.827  16.712  0.3884  1.5650  1.2269
  536MPD2    H2 8013   4.555   2.660  17.098  3.4352  1.3684 -1.3880
  536MPD2    H3 8014   4.636   2.818  16.936  0.5812  0.0997 -0.0422
  536MPD2     N 8015   4.346   2.691  16.610  0.4473  0.0694 -0.3727
  536MPD2    H5 8016   4.380   2.762  16.547 -0.5523  0.3012 -0.6474
  536MPD2    N1 8017   4.369   2.480  17.057  0.4859  0.2395  0.5215
  536MPD2    H7 8018   4.427   2.481  17.140 -0.0825 -1.8231  0.9499
  537TMC3    C1 8019   4.263   2.298  17.157  0.0466  0.6415 -0.1893
  537TMC3    C2 8020   4.345   2.324  17.261 -0.5814  0.6584 -0.0461
  537TMC3    C3 8021   4.339   2.237  17.369  0.3660  0.6771 -0.4270
  537TMC3    C4 8022   4.175   2.187  17.159  0.2002 -0.1203 -0.2324
  537TMC3    C5 8023   4.167   2.116  17.274 -0.4112 -0.2666  0.0078
  537TMC3    C6 8024   4.254   2.133  17.376  0.2239 -0.1351 -0.3463
  537TMC3     C 8025   4.264   2.386  17.043 -0.7984 -0.5895  0.1814
  537TMC3     O 8026   4.186   2.364  16.953  0.8671 -0.3117 -0.7462
  537TMC3     H 8027   4.428   2.393  17.268 -1.8542  2.2039 -0.0511
  537TMC3    H1 8028   4.103   2.165  17.080 -0.3601  2.5838 -0.4892
  537TMC3    H2 8029   4.234   2.098  17.477  0.2801 -1.6729 -0.8656
  537TMC3    C7 8030   4.093   1.988  17.260 -0.1780 -0.3508  0.9237
  537TMC3    C8 8031   4.429   2.256  17.479 -1.3884  0.7270  0.3795
  537TMC3    O1 8032   3.989   2.001  17.196 -0.4049 -0.5213 -0.6465
  537TMC3    O2 8033   4.457   2.375  17.499 -0.0360  0.3442  0.1688
  538TMC3    C1 8034   0.883   0.150  10.895 -0.0034 -0.8274  0.6882
  538TMC3    C2 8035   1.013   0.119  10.912 -0.5274 -1.0281  0.3834
  538TMC3    C3 8036   1.100   0.187  10.827 -0.5058 -0.1524  0.7787
  538TMC3    C4 8037   0.842   0.250  10.809 -0.2538  0.8964 -0.2913
  538TMC3    C5 8038   0.939   0.333  10.745  0.5983  0.7134 -0.4031
  538TMC3    C6 8039   1.067   0.302  10.758  0.0187  0.3374 -0.7867
  538TMC3     C 8040   0.793   0.087  10.991  0.5666  0.5011 -0.1489
  538TMC3     O 8041   0.675   0.096  10.964 -0.5136 -0.1620 -0.4082
  538TMC3     H 8042   1.049   0.043  10.980  0.7534  0.1881  1.0745
  538TMC3    H1 8043   0.737   0.277  10.814 -0.4407 -0.0896  1.0499
  538TMC3    H2 8044   1.140   0.356  10.698  0.2440  0.3924 -0.4626
  538TMC3    C7 8045   0.904   0.467  10.707  0.0602 -0.0116 -0.7803
  538TMC3    C8 8046   1.223   0.121  10.814  0.4362 -0.1655  0.2769
  538TMC3    O1 8047   0.992   0.551  10.685  0.0027 -0.2229  0.2582
  538TMC3    O2 8048   1.261   0.043  10.900 -0.1672 -0.2527  0.7995
  539MPD2     C 8049   0.215   4.050  11.949  0.0175 -0.1216  0.3413
  539MPD2    C1 8050   0.305   4.111  11.868  0.5528 -0.4758 -0.3179
  539MPD2    C2 8051   0.341   4.242  11.881  0.2646 -0.7924 -0.1427
  539MPD2    C3 8052   0.280   4.314  11.983  0.1253  0.2278  0.7557
  539MPD2    C4 8053   0.200   4.252  12.074 -0.6602 -0.2410  0.4517
  539MPD2    C5 8054   0.171   4.122  12.056 -0.3778 -0.0334 -0.8105
  539MPD2     H 8055   0.420   4.281  11.817  1.2982 -2.6525 -0.0165
  539MPD2    H1 8056   0.153   4.295  12.162 -0.1085 -2.0962  1.6215
  539MPD2    H2 8057   0.189   3.945  11.948  1.8989 -0.5749 -1.9040
  539MPD2    H3 8058   0.105   4.072  12.127  1.0749  1.1541  1.3832
  539MPD2     N 8059   0.309   4.457  12.003  0.0581 -0.1061  0.4089
  539MPD2    H5 8060   0.269   4.490  12.090  0.6558  1.1082  0.2240
  539MPD2    N1 8061   0.353   4.033  11.766  0.1171 -0.2358  0.3072
  539MPD2    H7 8062   0.428   4.074  11.710  0.2755 -1.9161 -0.7181
  540TMC3    C1 8063   0.321   4.685  11.910 -0.4448 -0.1837 -0.4030
  540TMC3    C2 8064   0.335   0.021  11.787  0.4688  1.2720  0.7166
  540TMC3    C3 8065   0.247   0.127  11.768 -0.8355 -0.9210 -0.1243
  540TMC3    C4 8066   0.224   4.730  12.006 -1.1202 -0.5375  0.6982
  540TMC3    C5 8067   0.152   0.106  11.979  0.0081  0.1726 -0.6272
  540TMC3    C6 8068   0.166   0.175  11.864  0.0013 -0.0912  0.7142
  540TMC3     C 8069   0.351   4.542  11.899 -0.3202  0.1980  0.1028
  540TMC3     O 8070   0.423   4.519  11.801  0.1448 -0.9018 -0.3624
  540TMC3     H 8071   0.404   4.725  11.710 -0.5081  0.8497  0.0212
  540TMC3    H1 8072   0.200   4.672  12.094 -2.2986 -1.3915 -0.1758
  540TMC3    H2 8073   0.096   0.255  11.841 -0.5964 -0.8329 -0.0265
  540TMC3    C7 8074   0.011   0.107  12.032 -0.0844 -1.0749 -0.5373
  540TMC3    C8 8075   0.259   0.205  11.648  0.3062 -0.7116 -0.3406
  540TMC3    O1 8076   4.667   0.151  11.952 -0.7765 -0.4858 -0.0900
  540TMC3    O2 8077   0.244   0.328  11.655  0.6401 -0.5338 -0.4104
  541MPD2     C 8078   2.779   1.615  13.101 -0.2067  0.0604 -0.5907
  541MPD2    C1 8079   2.833   1.498  13.055  0.0098 -0.0432  0.6429
  541MPD2    C2 8080   2.871   1.496  12.923  0.0628 -0.2631 -0.4879
  541MPD2    C3 8081   2.879   1.603  12.845  0.5231 -0.5762 -0.0155
  541MPD2    C4 8082   2.832   1.726  12.904  0.6922  0.2562  0.6976
  541MPD2    C5 8083   2.774   1.724  13.027  0.3295  0.0231 -0.4263
  541MPD2     H 8084   2.903   1.397  12.890  0.9985  0.3277 -1.3489
  541MPD2    H1 8085   2.825   1.810  12.836 -2.2420 -1.8858 -1.6404
  541MPD2    H2 8086   2.734   1.615  13.199 -0.7219 -0.8209 -0.8217
  541MPD2    H3 8087   2.733   1.818  13.063 -0.3682 -1.0050  1.4492
  541MPD2     N 8088   2.921   1.597  12.710 -0.5403  0.4267  0.4330
  541MPD2    H5 8089   2.929   1.688  12.666  0.2176 -0.2276 -0.7862
  541MPD2    N1 8090   2.853   1.376  13.122 -0.2205  0.1592 -0.2948
  541MPD2    H7 8091   2.882   1.302  13.059 -0.7316  0.0129 -0.3596
  542TMC3    C1 8092   3.018   1.516  12.506  0.0932 -0.0312  0.8726
  542TMC3    C2 8093   3.039   1.417  12.413 -0.6455 -0.2996  0.1110
  542TMC3    C3 8094   3.136   1.429  12.320 -0.1717 -0.3208 -0.1495
  542TMC3    C4 8095   3.104   1.625  12.508  0.2712 -0.9151  0.6047
  542TMC3    C5 8096   3.198   1.637  12.412  0.0108  0.3643  0.5694
  542TMC3    C6 8097   3.215   1.541  12.315 -0.2573 -0.9772  0.7732
  542TMC3     C 8098   2.953   1.484  12.637 -0.6846 -0.2569  0.0847
  542TMC3     O 8099   2.926   1.364  12.660 -0.0703 -0.0874 -0.4282
  542TMC3     H 8100   2.970   1.334  12.415 -0.2026 -0.6577  0.5766
  542TMC3    H1 8101   3.096   1.698  12.587 -1.0865 -1.0898  0.6220
  542TMC3    H2 8102   3.293   1.540  12.240 -1.8012 -0.5886 -0.8189
  542TMC3    C7 8103   3.299   1.746  12.427 -0.9223 -0.5917  0.7133
  542TMC3    C8 8104   3.162   1.322  12.220  0.2304  0.3156 -0.4753
  542TMC3    O1 8105   3.244   1.844  12.473 -0.2519 -0.2374 -0.2868
  542TMC3    O2 8106   3.222   1.352  12.120  0.8902  0.2539 -0.1866
  543TMC3    C1 8107   3.018   3.457  17.583  0.2234  0.3068 -0.9817
  543TMC3    C2 8108   3.026   3.351  17.665 -0.1863  0.1764 -0.2122
  543TMC3    C3 8109   2.932   3.334   0.017 -0.6322 -1.0747 -0.3458
  543TMC3    C4 8110   2.940   3.559  17.607  0.3864  0.1792  0.4148
  543TMC3    C5 8111   2.845   3.545  17.702  0.0852 -0.1100  0.0591
  543TMC3    C6 8112   2.836   3.434   0.040 -0.5957 -0.0373 -0.3392
  543TMC3     C 8113   3.040   3.423  17.440 -0.2150 -0.8239  0.2626
  543TMC3     O 8114   3.135   3.349  17.426 -0.8820 -0.4492 -0.1082
  543TMC3     H 8115   3.087   3.265  17.640 -0.2230  0.6043 -1.7759
  543TMC3    H1 8116   2.949   3.649  17.548  2.8689 -0.3674 -0.0377
  543TMC3    H2 8117   2.755   3.435   0.111  0.1466 -0.8125  0.5123
  543TMC3    C7 8118   2.754   3.650  17.731 -0.0147  0.3206  0.4530
  543TMC3    C8 8119   2.894   3.198   0.059 -0.6752 -0.4821 -0.0749
  543TMC3    O1 8120   2.660   3.631   0.068  0.6681  0.8842  0.2093
  543TMC3    O2 8121   2.944   3.099   0.005 -0.6279 -0.1767  0.6219
  544MPD2     C 8122   2.643   2.858   0.366  1.3371  0.0678  0.0836
  544MPD2    C1 8123   2.708   2.840   0.246 -0.0696 -0.2226 -0.7132
  544MPD2    C2 8124   2.764   2.951   0.179  0.4294  0.3153 -0.0698
  544MPD2    C3 8125   2.759   3.076   0.231  0.1854  0.7819 -0.4092
  544MPD2    C4 8126   2.691   3.090   0.347 -0.2146  0.0219  0.4554
  544MPD2    C5 8127   2.639   2.981   0.419  0.5876 -0.0392 -0.5557
  544MPD2     H 8128   2.792   2.936   0.076 -1.4986  3.3093 -1.0485
  544MPD2    H1 8129   2.696   3.185   0.399 -1.8742  0.5147 -0.2944
  544MPD2    H2 8130   2.587   2.777   0.411  1.9547 -1.1600 -1.3792
  544MPD2    H3 8131   2.581   3.002   0.508  1.8589  1.5139 -0.0882
  544MPD2     N 8132   2.814   3.198   0.172 -0.0080 -0.4284  0.2357
  544MPD2    H5 8133   2.798   3.290   0.211  0.4699 -1.0619  1.8802
  544MPD2    N1 8134   2.699   2.714   0.188 -0.1065  0.5529  0.2503
  544MPD2    H7 8135   2.646   2.643   0.238  1.6178 -0.5448  0.5315
  545TMC3    C1 8136   2.761   2.545   0.037  0.2068  0.4110  0.0301
  545TMC3    C2 8137   2.857   2.497  17.702  0.2039 -1.2271 -0.6899
  545TMC3    C3 8138   2.837   2.372  17.647  0.2591 -0.7948  0.0433
  545TMC3    C4 8139   2.639   2.490   0.052 -0.3006  0.2342 -0.5002
  545TMC3    C5 8140   2.617   2.367  17.741 -0.3399 -0.0895 -1.1793
  545TMC3    C6 8141   2.718   2.302  17.675  0.7162 -0.6009 -0.0067
  545TMC3     C 8142   2.786   2.675   0.094  0.0715 -0.2440  0.0016
  545TMC3     O 8143   2.892   2.727   0.058  0.7983 -0.6999  0.0193
  545TMC3     H 8144   2.956   2.537  17.686 -0.4195  1.2876  1.8003
  545TMC3    H1 8145   2.557   2.537   0.105 -0.2705 -0.2559 -0.0199
  545TMC3    H2 8146   2.706   2.201  17.638 -0.4350 -0.8347  1.0276
  545TMC3    C7 8147   2.494   2.298   0.030  0.0529 -0.2378  0.3321
  545TMC3    C8 8148   2.952   2.317  17.568  0.9337 -0.2015  0.6244
  545TMC3    O1 8149   2.389   2.364   0.032 -0.8402  0.9454  0.5078
  545TMC3    O2 8150   3.065   2.359  17.581 -0.1501  0.5859 -0.1501
  546MPD2     C 8151   4.647   2.633  17.435 -0.6930  0.0746 -0.3924
  546MPD2    C1 8152   4.534   2.700  17.398 -0.0137  0.1472  0.7935
  546MPD2    C2 8153   4.546   2.835  17.367  0.1096  0.2483 -0.0775
  546MPD2    C3 8154   4.670   2.896  17.365  0.1854  0.4193  0.6392
  546MPD2    C4 8155   0.048   2.825  17.410  0.4204 -0.1246 -0.1134
  546MPD2    C5 8156   0.032   2.691  17.441 -0.2712 -0.1333  0.1690
  546MPD2     H 8157   4.454   2.886  17.340  1.4136  2.4471 -0.3465
  546MPD2    H1 8158   0.140   2.879  17.428  1.4072 -2.4571  1.8197
  546MPD2    H2 8159   4.626   2.531  17.464 -0.7120  0.3523  0.5977
  546MPD2    H3 8160   0.106   2.627  17.489 -0.1571  0.8218  1.2627
  546MPD2     N 8161   4.688   3.026  17.311 -0.0562  0.2997 -0.1287
  546MPD2    H5 8162   0.042   3.070  17.319  1.8014 -3.9224  1.9756
  546MPD2    N1 8163   4.412   2.632  17.416 -0.2812 -0.4464 -0.0063
  546MPD2    H7 8164   4.418   2.544  17.467 -0.3905 -1.1107 -1.1427
  547TMC3    C1 8165   4.172   2.593  17.407  0.0494  0.1228  0.1810
  547TMC3    C2 8166   4.060   2.614  17.330  0.3767  0.1200 -1.0685
  547TMC3    C3 8167   3.948   2.587  17.395  0.6019  0.5619 -0.2872
  547TMC3    C4 8168   4.172   2.542  17.531 -0.0891  0.6018  0.2773
  547TMC3    C5 8169   4.048   2.504  17.581 -0.0079 -0.4843  0.0205
  547TMC3    C6 8170   3.935   2.517  17.511  0.2993  0.2019  0.3687
  547TMC3     C 8171   4.289   2.672  17.367 -0.4872  0.4578  0.0505
  547TMC3     O 8172   4.271   2.758  17.282 -0.1637  0.2652 -0.0216
  547TMC3     H 8173   4.065   2.669  17.236 -0.0727 -0.6325 -1.5387
  547TMC3    H1 8174   4.267   2.527  17.581 -0.0394  1.2347  0.3755
  547TMC3    H2 8175   3.841   2.477  17.547  0.8074  0.8377  2.4145
  547TMC3    C7 8176   4.028   2.460  17.715 -0.0469  0.1632  0.3246
  547TMC3    C8 8177   3.825   2.653  17.334 -0.3452  0.1246  0.3997
  547TMC3    O1 8178   3.916   2.427   0.004  0.6455 -0.2085 -0.0780
  547TMC3    O2 8179   3.824   2.679  17.213 -0.2824 -0.0655  0.0651
  548MPD2     C 8180   4.183   2.847  13.170  0.0392  0.1276 -0.3075
  548MPD2    C1 8181   4.126   2.753  13.086 -0.6560  0.8726 -0.5668
  548MPD2    C2 8182   4.199   2.691  12.987 -0.0389  0.2598  0.2347
  548MPD2    C3 8183   4.325   2.736  12.962  0.2867 -0.0853 -0.0153
  548MPD2    C4 8184   4.381   2.837  13.039 -0.1481  0.7704 -0.6993
  548MPD2    C5 8185   4.309   2.881  13.143  0.8580 -0.4545  0.0973
  548MPD2     H 8186   4.152   2.617  12.923  1.1756 -0.8211  0.6148
  548MPD2    H1 8187   4.480   2.881  13.036  0.4783 -0.5923 -0.1469
  548MPD2    H2 8188   4.128   2.898  13.247  1.0042  0.8996 -0.1315
  548MPD2    H3 8189   4.345   2.967  13.197  3.5618 -0.2466 -2.0646
  548MPD2     N 8190   4.405   2.675  12.864 -0.2581 -0.6717  0.5956
  548MPD2    H5 8191   4.369   2.595  12.814  0.5726  0.9017 -2.4968
  548MPD2    N1 8192   3.992   2.714  13.117 -0.2390  0.2711  0.0376
  548MPD2    H7 8193   3.937   2.776  13.175 -2.5460 -2.6059  0.9028
  549TMC3    C1 8194   3.782   2.596  13.073  0.7147 -0.5729  0.0380
  549TMC3    C2 8195   3.711   2.713  13.082  0.1694  0.2928  0.3276
  549TMC3    C3 8196   3.574   2.710  13.098  0.5469  0.2452 -0.5784
  549TMC3    C4 8197   3.725   2.473  13.071 -0.0838 -0.1792 -0.1485
  549TMC3    C5 8198   3.590   2.475  13.082 -0.3832 -0.7868  0.1000
  549TMC3    C6 8199   3.516   2.582  13.088  0.0476 -0.1466 -0.1150
  549TMC3     C 8200   3.927   2.604  13.062  0.3028  0.2669  0.5989
  549TMC3     O 8201   3.978   2.503  13.019  0.2889 -0.1133 -0.4418
  549TMC3     H 8202   3.768   2.805  13.069 -0.3733  0.7279  1.0366
  549TMC3    H1 8203   3.772   2.377  13.091 -2.1432 -1.3553 -0.8845
  549TMC3    H2 8204   3.411   2.576  13.115 -0.3079  2.1327 -0.9959
  549TMC3    C7 8205   3.515   2.361  13.037 -0.6214 -0.8153  0.4412
  549TMC3    C8 8206   3.493   2.826  13.091  0.1420  0.6757 -0.2770
  549TMC3    O1 8207   3.390   2.362  13.063  0.3161 -0.3023  0.0223
  549TMC3    O2 8208   3.378   2.816  13.054 -0.1023  0.3586  0.3434
  550TMC3    C1 8209   2.513   1.077  12.715  0.8771  0.1324  0.5785
  550TMC3    C2 8210   2.480   1.156  12.823 -0.4562 -0.4744  0.1689
  550TMC3    C3 8211   2.524   1.289  12.835 -0.0397  0.4779 -0.0636
  550TMC3    C4 8212   2.595   1.123  12.617 -0.2179  0.5389 -0.1282
  550TMC3    C5 8213   2.639   1.250  12.630  0.2624 -0.1911 -0.0310
  550TMC3    C6 8214   2.610   1.338  12.734  0.2292  0.7488 -0.2185
  550TMC3     C 8215   2.466   0.940  12.720  0.2038  0.2002 -0.0830
  550TMC3     O 8216   2.404   0.902  12.817  0.5706 -0.2417  0.0089
  550TMC3     H 8217   2.410   1.123  12.899 -0.0948  1.3359  1.2958
  550TMC3    H1 8218   2.614   1.068  12.525 -1.2116  2.0922 -1.2453
  550TMC3    H2 8219   2.664   1.431  12.735  1.8372 -0.2734  4.7934
  550TMC3    C7 8220   2.644   1.334  12.507  0.4338  0.2285  0.7067
  550TMC3    C8 8221   2.469   1.378  12.933 -0.0157  0.0752 -0.5042
  550TMC3    O1 8222   2.619   1.454  12.513 -0.0848  0.0367  0.2521
  550TMC3    O2 8223   2.390   1.338  13.015 -0.3438 -0.0703  0.4455
  551TMC3    C1 8224   0.579   3.829  13.537  0.1686 -0.1071 -0.2733
  551TMC3    C2 8225   0.712   3.808  13.521  0.2430  0.7426  0.3176
  551TMC3    C3 8226   0.784   3.811  13.638  0.0609 -0.4707  0.2068
  551TMC3    C4 8227   0.518   3.855  13.664  0.5703  0.8698  0.4820
  551TMC3    C5 8228   0.604   3.882  13.765  0.9185 -0.0572  0.0694
  551TMC3    C6 8229   0.737   3.858  13.757 -0.0084 -0.2777 -0.8261
  551TMC3     C 8230   0.492   3.773  13.434  0.4872  0.3381 -0.3562
  551TMC3     O 8231   0.401   3.700  13.466 -0.3810 -0.0614  0.3724
  551TMC3     H 8232   0.760   3.775  13.429 -1.7743  0.1451 -0.5248
  551TMC3    H1 8233   0.414   3.882  13.674  0.9666  1.3866  3.1422
  551TMC3    H2 8234   0.810   3.858  13.836 -1.6108 -0.9592  0.6504
  551TMC3    C7 8235   0.549   3.922  13.888 -0.4700  0.6022  0.1805
  551TMC3    C8 8236   0.925   3.798  13.620 -0.0223  0.4619  0.3159
  551TMC3    O1 8237   0.431   3.897  13.912  0.4554 -0.2564 -0.2443
  551TMC3    O2 8238   0.996   3.719  13.680 -0.1646 -0.3712  0.5713
  552MPD2     C 8239   2.100   1.232  14.193 -0.1475 -0.0503 -1.0280
  552MPD2    C1 8240   2.167   1.123  14.140  0.5633 -0.5238  0.5203
  552MPD2    C2 8241   2.297   1.098  14.186  0.0457 -0.9921 -0.1139
  552MPD2    C3 8242   2.358   1.184  14.276  1.1062 -0.3345  0.0486
  552MPD2    C4 8243   2.291   1.296  14.319  0.1417 -0.6805  0.2372
  552MPD2    C5 8244   2.162   1.311  14.284 -0.2029 -0.3269  0.7843
  552MPD2     H 8245   2.347   1.008  14.151 -0.0221 -0.2219 -2.1700
  552MPD2    H1 8246   2.333   1.364  14.392  3.0718 -1.5264 -0.6633
  552MPD2    H2 8247   1.996   1.248  14.170 -0.3296  2.0270  1.2753
  552MPD2    H3 8248   2.102   1.394  14.320  1.5475  1.6121 -0.7214
  552MPD2     N 8249   2.492   1.174  14.322 -0.2096  0.5853  0.3553
  552MPD2    H5 8250   2.517   1.232  14.401  0.6692 -0.6018  0.9523
  552MPD2    N1 8251   2.097   1.033  14.058 -0.0151  0.2217 -0.4935
  552MPD2    H7 8252   2.155   0.959  14.018 -0.5678 -0.9106  0.8014
  553TMC3    C1 8253   1.943   0.926  13.932 -0.4602  0.0894  0.0553
  553TMC3    C2 8254   1.913   0.938  13.803 -0.0295 -0.2819 -0.4231
  553TMC3    C3 8255   1.899   0.821  13.730  0.0718 -0.4251 -0.5115
  553TMC3    C4 8256   1.975   0.811  13.993 -0.5552  0.2821 -0.0450
  553TMC3    C5 8257   1.969   0.694  13.915  0.5784  0.0819  0.7512
  553TMC3    C6 8258   1.936   0.699  13.783 -0.9419 -0.1826  0.3612
  553TMC3     C 8259   1.969   1.041  14.011 -0.5850  0.3109 -0.0471
  553TMC3     O 8260   1.879   1.119  14.046  0.2905  0.5873 -0.2567
  553TMC3     H 8261   1.892   1.031  13.750  1.0113 -1.2494 -2.5404
  553TMC3    H1 8262   1.991   0.796  14.099 -1.1349  1.1617  0.1663
  553TMC3    H2 8263   1.941   0.610  13.721 -0.5187  1.1519 -1.5421
  553TMC3    C7 8264   2.049   0.581  13.970  0.6595  0.4253  0.3812
  553TMC3    C8 8265   1.860   0.830  13.591  0.5243 -0.3452  0.3952
  553TMC3    O1 8266   1.980   0.483  13.989  0.2220 -0.2344  0.1384
  553TMC3    O2 8267   1.889   0.935  13.534 -0.0028 -0.1959 -0.5135
  554TMC3    C1 8268   4.590   4.587  11.457  0.6568  1.1657  0.0592
  554TMC3    C2 8269   4.544   4.475  11.396 -0.0550 -0.4633 -0.1457
  554TMC3    C3 8270   4.518   4.489  11.258  0.4190  0.6009  0.3781
  554TMC3    C4 8271   4.606   4.706  11.392  0.1100 -0.1147  1.1563
  554TMC3    C5 8272   4.574   4.710  11.261  0.1270 -0.4381  0.0606
  554TMC3    C6 8273   4.540   4.597  11.187  0.0658 -1.6131  0.3830
  554TMC3     C 8274   4.603   4.589  11.601  0.2033 -0.3615 -0.0367
  554TMC3     O 8275   4.644   4.697  11.648 -0.2143  0.3562 -0.4280
  554TMC3     H 8276   4.536   4.376  11.439 -0.5635 -0.2848  0.1662
  554TMC3    H1 8277   4.643   0.056  11.445  0.3384  0.0270  0.7690
  554TMC3    H2 8278   4.510   4.605  11.084  2.5105 -0.8527 -0.2910
  554TMC3    C7 8279   4.589   0.094  11.183  0.0239 -0.0087 -0.5519
  554TMC3    C8 8280   4.442   4.388  11.183 -0.3775 -0.1559 -1.0372
  554TMC3    O1 8281   4.585   0.077  11.063 -0.1173 -0.3135  0.1487
  554TMC3    O2 8282   4.463   4.365  11.062  0.4751 -0.1683 -0.4356
  555TMC3    C1 8283   3.483   4.622  15.445 -0.1354 -0.2110 -0.4004
  555TMC3    C2 8284   3.493   4.695  15.558  0.0895  0.3494  0.0377
  555TMC3    C3 8285   3.538   4.635  15.672 -0.2620 -0.2595 -1.0811
  555TMC3    C4 8286   3.501   4.488  15.446  0.2093  0.5764 -0.4144
  555TMC3    C5 8287   3.531   4.424  15.561 -0.0845 -0.5243 -0.0549
  555TMC3    C6 8288   3.554   4.497  15.675 -0.0593  0.2920  0.4224
  555TMC3     C 8289   3.446   4.680  15.320  0.0627  0.2930  0.4960
  555TMC3     O 8290   3.373   4.601  15.256 -0.4063  0.4956  0.2223
  555TMC3     H 8291   3.460   0.061  15.552 -0.1869  0.2242 -0.6932
  555TMC3    H1 8292   3.518   4.429  15.357 -3.8612 -2.8677  1.1069
  555TMC3    H2 8293   3.569   4.447  15.770 -0.1792  1.6142  1.1245
  555TMC3    C7 8294   3.513   4.285  15.561 -0.2026 -0.1263  0.6130
  555TMC3    C8 8295   3.560   4.718  15.785  0.0239 -0.9847 -0.3002
  555TMC3    O1 8296   3.478   4.232  15.455 -0.0938 -0.4308  0.4381
  555TMC3    O2 8297   3.523   0.098  15.783  0.4167 -0.3632  0.0767
  556MPD2     C 8298   2.143   0.988  10.423  0.0986 -0.8767  0.0058
  556MPD2    C1 8299   2.056   0.911  10.508 -0.1758 -0.3279 -0.1349
  556MPD2    C2 8300   1.986   0.803  10.451  0.0922  0.1406  0.4914
  556MPD2    C3 8301   1.985   0.784  10.314  0.0384  0.3294 -0.5440
  556MPD2    C4 8302   2.061   0.865  10.232  0.1013 -0.0852  0.0973
  556MPD2    C5 8303   2.138   0.965  10.286 -0.2111 -0.6510 -0.0907
  556MPD2     H 8304   1.918   0.747  10.514 -0.7955  2.3933  1.5096
  556MPD2    H1 8305   2.049   0.862  10.124  0.8991 -1.0986  0.0405
  556MPD2    H2 8306   2.198   1.073  10.462  1.5551 -0.6600 -2.5819
  556MPD2    H3 8307   2.192   1.033  10.221 -3.7280  1.7052 -0.5992
  556MPD2     N 8308   1.886   0.698  10.266 -0.2485 -0.3275 -0.3332
  556MPD2    H5 8309   1.823   0.654  10.333 -0.1730 -1.2759 -0.8910
  556MPD2    N1 8310   2.024   0.934  10.644  0.7700 -0.0921  0.3419
  556MPD2    H7 8311   1.963   0.871  10.693 -0.5588 -0.2009 -1.4591
  557TMC3    C1 8312   1.794   0.541  10.116  0.9481 -0.2812  0.3812
  557TMC3    C2 8313   1.833   0.451  10.024  0.0689 -0.6082 -0.2735
  557TMC3    C3 8314   1.777   0.328  10.017 -1.3071 -0.4368  0.2766
  557TMC3    C4 8315   1.706   0.506  10.209 -0.2008 -0.2838 -0.8524
  557TMC3    C5 8316   1.653   0.378  10.207 -0.2781  0.2209 -0.2970
  557TMC3    C6 8317   1.675   0.292  10.101  1.3588 -0.6583  0.6870
  557TMC3     C 8318   1.861   0.673  10.132  0.6267  0.1487  0.6335
  557TMC3     O 8319   1.912   0.713  10.030  0.4089 -0.5197  0.0386
  557TMC3     H 8320   1.926   0.464   9.972  0.4932  1.2420  0.9482
  557TMC3    H1 8321   1.668   0.573  10.285  2.1693  0.3045 -0.1898
  557TMC3    H2 8322   1.631   0.194  10.115 -0.6815  0.0384 -0.7800
  557TMC3    C7 8323   1.594   0.332  10.330  0.7073 -0.4834 -0.3309
  557TMC3    C8 8324   1.794   0.268   9.880 -0.2560  0.0176  1.1146
  557TMC3    O1 8325   1.544   0.419  10.404 -0.3521 -0.1764  0.4226
  557TMC3    O2 8326   1.851   0.333   9.802 -0.5918 -0.7045 -0.6696
  558TMC3    C1 8327   3.791   3.547  10.511 -0.1639 -0.5091 -0.7428
  558TMC3    C2 8328   3.692   3.527  10.601 -0.6789 -0.1722  0.0551
  558TMC3    C3 8329   3.568   3.490  10.554  0.0585  0.4540  0.0705
  558TMC3    C4 8330   3.772   3.564  10.378 -0.3375  0.9578 -0.7935
  558TMC3    C5 8331   3.642   3.539  10.328  0.3668 -0.1970 -0.3438
  558TMC3    C6 8332   3.551   3.488  10.416  0.2127  0.1337  0.8246
  558TMC3     C 8333   3.925   3.560  10.564 -0.1598 -0.0354 -0.7829
  558TMC3     O 8334   4.013   3.581  10.479 -0.1951 -0.0477  0.0381
  558TMC3     H 8335   3.709   3.497  10.704  0.7659  0.4836  0.0144
  558TMC3    H1 8336   3.849   3.598  10.311  0.4497  0.9833  0.1285
  558TMC3    H2 8337   3.465   3.438  10.373  0.5225  1.5090 -1.3538
  558TMC3    C7 8338   3.630   3.536  10.184  0.9548 -0.1009  0.1292
  558TMC3    C8 8339   3.449   3.457  10.635  0.7027 -0.7427 -0.4479
  558TMC3    O1 8340   3.726   3.576  10.123  0.0731 -0.4612  0.7791
  558TMC3    O2 8341   3.356   3.421  10.566 -0.3884  0.1594 -0.9847
  559MPD2     C 8342   3.845   4.055  10.628 -0.3721  0.5558  0.0010
  559MPD2    C1 8343   3.787   3.993  10.741 -1.0617 -0.5135  0.0124
  559MPD2    C2 8344   3.866   3.969  10.853  0.0216 -0.2964 -0.1767
  559MPD2    C3 8345   4.004   3.990  10.853 -0.2447  0.4006  0.1907
  559MPD2    C4 8346   4.060   4.048  10.740  0.4387  0.2997  0.4188
  559MPD2    C5 8347   3.982   4.079  10.628 -0.4041 -0.0820 -0.1888
  559MPD2     H 8348   3.829   3.919  10.942 -0.0580 -1.5871 -0.9329
  559MPD2    H1 8349   4.166   4.070  10.733  0.2970  0.6823 -0.5836
  559MPD2    H2 8350   3.774   4.077  10.550 -1.2469 -0.6396  0.4511
  559MPD2    H3 8351   4.029   4.113  10.537 -0.2640 -0.0113 -0.0894
  559MPD2     N 8352   4.083   3.969  10.972 -0.0710  0.3717  0.5329
  559MPD2    H5 8353   4.032   3.928  11.050  2.4202 -2.9636  0.3792
  559MPD2    N1 8354   3.654   3.955  10.734 -0.1240  0.3254 -0.3888
  559MPD2    H7 8355   3.600   3.978  10.651  1.0962  0.8235 -1.0472
  560TMC3    C1 8356   4.245   3.952  11.128  0.1805  0.4207  0.4408
  560TMC3    C2 8357   4.170   3.844  11.175  0.0583 -0.2624  0.2325
  560TMC3    C3 8358   4.216   3.791  11.291  0.6743 -0.2221 -0.1183
  560TMC3    C4 8359   4.354   3.999  11.189 -0.0450  0.3237  0.0225
  560TMC3    C5 8360   4.404   3.926  11.292 -0.1464 -0.1894 -0.0833
  560TMC3    C6 8361   4.334   3.834  11.352  0.1209  0.2984  0.3866
  560TMC3     C 8362   4.209   4.010  11.000  0.2117 -0.5000  0.1869
  560TMC3     O 8363   4.289   4.083  10.940 -0.5227 -0.9459  0.0895
  560TMC3     H 8364   4.071   3.816  11.142 -0.7910  1.1825  1.5312
  560TMC3    H1 8365   4.410   4.083  11.150 -2.4077  2.0608  0.3859
  560TMC3    H2 8366   4.375   3.774  11.433 -0.8659 -2.2039 -1.0001
  560TMC3    C7 8367   4.466   4.003  11.400 -0.0675  0.5202 -0.0061
  560TMC3    C8 8368   4.129   3.693  11.348  0.1312  0.1394  0.0794
  560TMC3    O1 8369   4.410   4.013  11.509  0.8121  0.4072 -0.4147
  560TMC3    O2 8370   4.033   3.655  11.277 -0.4153 -0.0742  0.7075
  561TMC3    C1 8371   1.604   2.920  11.701 -0.1566 -0.8954  0.5740
  561TMC3    C2 8372   1.480   2.883  11.760  0.8059  0.4436 -0.8357
  561TMC3    C3 8373   1.463   2.943  11.878 -0.3442  0.0493 -0.5731
  561TMC3    C4 8374   1.676   3.025  11.749 -0.1078  0.1286  0.8330
  561TMC3    C5 8375   1.639   3.083  11.863  0.5492  0.2010  0.2608
  561TMC3    C6 8376   1.539   3.035  11.935 -0.1069  0.4435 -0.2858
  561TMC3     C 8377   1.636   2.863  11.577 -0.2672  0.2966  0.6009
  561TMC3     O 8378   1.551   2.788  11.530  0.1367  0.7106  0.0887
  561TMC3     H 8379   1.413   2.813  11.711  0.5195  0.1522 -0.0339
  561TMC3    H1 8380   1.756   3.066  11.688 -2.1402 -1.5490 -2.9992
  561TMC3    H2 8381   1.524   3.071  12.036  4.0875 -0.1421  0.5402
  561TMC3    C7 8382   1.718   3.185  11.926 -0.3799  0.6977 -0.6443
  561TMC3    C8 8383   1.339   2.904  11.951 -0.0066 -0.0339 -0.1704
  561TMC3    O1 8384   1.743   3.176  12.046 -0.5482 -0.2927 -0.6819
  561TMC3    O2 8385   1.301   2.790  11.931 -0.1697 -0.2327 -0.5242
  562TMC3    C1 8386   3.166   0.139  16.178 -0.2833 -0.0465  0.1935
  562TMC3    C2 8387   3.147   0.230  16.071  0.7488  0.6561 -0.4711
  562TMC3    C3 8388   3.190   0.189  15.950 -0.2965  0.6369  0.1325
  562TMC3    C4 8389   3.216   0.010  16.163  0.3673  0.1629 -0.2771
  562TMC3    C5 8390   3.247   4.710  16.035  0.5883  0.4845 -0.3898
  562TMC3    C6 8391   3.238   0.062  15.931  0.3766  0.2144  0.2259
  562TMC3     C 8392   3.116   0.174  16.306 -0.4234 -0.1821  0.1558
  562TMC3     O 8393   3.087   0.079  16.379  0.2374  0.0226  0.2801
  562TMC3     H 8394   3.099   0.323  16.099 -1.0014 -0.3820  0.0573
  562TMC3    H1 8395   3.231   4.677  16.245 -0.5711  0.0501 -0.2052
  562TMC3    H2 8396   3.252   0.030  15.828  0.7820  0.7949  0.1053
  562TMC3    C7 8397   3.288   4.575  16.000 -0.5770  0.4761 -0.6168
  562TMC3    C8 8398   3.161   0.288  15.849  0.1530  0.2850 -0.3537
  562TMC3    O1 8399   3.313   4.552  15.883 -0.5949 -0.1896  0.0617
  562TMC3    O2 8400   3.124   0.401  15.879  0.1072 -0.1224  0.4378
  563MPD2     C 8401   0.931   1.318  15.420  0.6920 -0.4961 -0.3023
  563MPD2    C1 8402   0.960   1.380  15.538 -0.0368  0.2281 -0.2317
  563MPD2    C2 8403   1.091   1.376  15.589 -0.8927  0.3654 -0.1911
  563MPD2    C3 8404   1.190   1.314  15.521 -0.5500  0.0609 -0.0293
  563MPD2    C4 8405   1.163   1.251  15.403 -0.2359 -0.4473 -1.2401
  563MPD2    C5 8406   1.035   1.254  15.347 -0.1783 -0.2303 -0.3259
  563MPD2     H 8407   1.110   1.409  15.690  0.5460 -0.9510 -0.0415
  563MPD2    H1 8408   1.235   1.187  15.354 -0.2411 -0.4799 -1.2047
  563MPD2    H2 8409   0.832   1.304  15.377  0.6111  0.1959 -0.3477
  563MPD2    H3 8410   1.005   1.197  15.260 -2.7570 -0.5848  0.8147
  563MPD2     N 8411   1.306   1.284  15.590 -0.4679  0.1931 -0.2840
  563MPD2    H5 8412   1.310   1.312  15.688  0.2666  0.6073 -0.4330
  563MPD2    N1 8413   0.842   1.430  15.611 -0.9819 -0.6356 -0.7123
  563MPD2    H7 8414   0.753   1.420  15.564 -1.0177 -3.3180 -0.0687
  564TMC3    C1 8415   0.719   1.503  15.796  0.3815 -0.9854 -0.3237
  564TMC3    C2 8416   0.617   1.430  15.751  0.0965  0.4520  0.0674
  564TMC3    C3 8417   0.508   1.398  15.830  0.2168  0.5807 -0.5507
  564TMC3    C4 8418   0.721   1.550  15.923  0.6281 -0.4622 -0.1796
  564TMC3    C5 8419   0.615   1.515  16.008 -0.8097  0.3867  0.2216
  564TMC3    C6 8420   0.508   1.447  15.962 -0.3914  0.4612 -0.1716
  564TMC3     C 8421   0.852   1.479  15.746  0.6462  0.2722 -0.1052
  564TMC3     O 8422   0.950   1.511  15.809  0.0765  0.6210 -0.4517
  564TMC3     H 8423   0.618   1.375  15.657  1.1865 -1.3037  1.1194
  564TMC3    H1 8424   0.804   1.601  15.968  1.2442  0.3257 -2.2156
  564TMC3    H2 8425   0.430   1.419  16.032  0.6287 -1.7926  0.0687
  564TMC3    C7 8426   0.679   1.443  16.119 -0.2924 -0.1316 -0.1761
  564TMC3    C8 8427   0.448   1.265  15.826 -0.1665 -0.8841 -0.0506
  564TMC3    O1 8428   0.782   1.490  16.168  0.2458 -0.0009 -0.2213
  564TMC3    O2 8429   0.433   1.208  15.931 -0.5768  0.2349  0.3926
  565TMC3    C1 8430   1.430   2.701  10.303  0.6447 -0.0250  0.5202
  565TMC3    C2 8431   1.429   2.647  10.431  0.4631  0.3724  0.2940
  565TMC3    C3 8432   1.310   2.588  10.464 -0.0868  0.3641 -0.5402
  565TMC3    C4 8433   1.319   2.710  10.226 -0.6836 -0.5871 -0.3699
  565TMC3    C5 8434   1.201   2.653  10.267 -0.7113  0.4184 -0.3831
  565TMC3    C6 8435   1.199   2.586  10.385 -0.0439 -0.3284 -0.6319
  565TMC3     C 8436   1.547   2.785  10.268  0.5107 -0.8831  0.9461
  565TMC3     O 8437   1.561   2.822  10.149  0.5059 -0.2898 -0.6786
  565TMC3     H 8438   1.519   2.630  10.489  0.1458  0.4596  0.8128
  565TMC3    H1 8439   1.330   2.761  10.131 -0.0946 -1.1650 -0.6162
  565TMC3    H2 8440   1.101   2.563  10.425  0.3290  1.0312  1.0712
  565TMC3    C7 8441   1.072   2.670  10.200 -0.0941 -0.0333 -0.5467
  565TMC3    C8 8442   1.326   2.493  10.576 -1.0971  0.0925 -0.6161
  565TMC3    O1 8443   0.968   2.654  10.260 -0.1180  0.3508  0.4490
  565TMC3    O2 8444   1.439   2.453  10.601  0.7220  0.0309 -0.1380
  566MPD2     C 8445   2.527   4.560  14.190  0.1439 -0.0385 -0.2063
  566MPD2    C1 8446   2.588   4.445  14.246  0.1582  0.7155  0.2836
  566MPD2    C2 8447   2.526   4.321  14.244  0.1206  0.0674  0.1313
  566MPD2    C3 8448   2.399   4.314  14.208  0.2249 -0.4040  0.3639
  566MPD2    C4 8449   2.332   4.421  14.163  0.2275 -0.3120  0.0163
  566MPD2    C5 8450   2.396   4.542  14.148  0.2535 -0.2471 -0.4889
  566MPD2     H 8451   2.583   4.234  14.273  0.9107  0.1926 -1.0663
  566MPD2    H1 8452   2.229   4.421  14.131  0.4332  1.3740 -0.6723
  566MPD2    H2 8453   2.583   4.652  14.185  2.1855 -1.3181 -0.9552
  566MPD2    H3 8454   2.334   4.627  14.120  0.0659  0.4207  1.9788
  566MPD2     N 8455   2.330   4.191  14.203 -0.4258 -0.2924  0.0248
  566MPD2    H5 8456   2.240   4.191  14.156 -1.3853  1.7097  1.8909
  566MPD2    N1 8457   2.723   4.456  14.291  0.2615 -0.1847  0.1806
  566MPD2    H7 8458   2.767   4.534  14.244 -3.0136  2.0712  0.8510
  567TMC3    C1 8459   2.922   4.365  14.324  0.3606 -0.5141  0.5015
  567TMC3    C2 8460   2.935   4.373  14.186 -0.1627 -0.1440 -0.8564
  567TMC3    C3 8461   3.042   4.429  14.134 -0.1919  0.2477  0.3874
  567TMC3    C4 8462   3.013   4.425  14.405 -0.1534 -0.1426 -0.0646
  567TMC3    C5 8463   3.119   4.479  14.344  0.1325 -0.7987  0.1381
  567TMC3    C6 8464   3.147   4.480  14.209  0.8273  1.0198  0.2446
  567TMC3     C 8465   2.789   4.366  14.367 -0.1005  0.9611 -0.3972
  567TMC3     O 8466   2.753   4.275  14.440  0.7541  0.3551  0.1852
  567TMC3     H 8467   2.864   4.305  14.140 -0.0345  0.2891 -1.6809
  567TMC3    H1 8468   2.973   4.439  14.505  0.3651  2.8388 -0.2745
  567TMC3    H2 8469   3.237   4.528  14.174  0.5375  0.1733 -1.6413
  567TMC3    C7 8470   3.229   4.524  14.428 -0.2448  0.7792  0.0151
  567TMC3    C8 8471   3.042   4.433  13.989  0.1394 -0.0001  0.3175
  567TMC3    O1 8472   3.310   4.602  14.382 -0.4353 -0.5586  0.2355
  567TMC3    O2 8473   2.936   4.390  13.939 -0.4896  0.5735 -0.1848
  568MPD2     C 8474   4.703   4.698  16.443 -0.4301  0.3431  0.0735
  568MPD2    C1 8475   0.027   0.075  16.506  0.0294  0.4523  1.0354
  568MPD2    C2 8476   0.038   0.185  16.429 -0.9794 -0.1736  0.3452
  568MPD2    C3 8477   0.006   0.188  16.300  0.3214 -0.0235 -0.0471
  568MPD2    C4 8478   4.684   0.078  16.237 -0.3106  0.0339  0.2880
  568MPD2    C5 8479   4.664   4.700  16.307  0.3087  0.2368  0.3311
  568MPD2     H 8480   0.090   0.271  16.471  1.9238 -0.2926 -2.9812
  568MPD2    H1 8481   4.668   0.075  16.129  0.0447 -0.8985  0.2590
  568MPD2    H2 8482   4.696   4.604  16.496 -0.2746  0.2095 -0.1409
  568MPD2    H3 8483   4.630   4.609  16.260  1.3916 -0.4703  0.9005
  568MPD2     N 8484   0.032   0.314  16.234 -0.2999  0.2982  0.7463
  568MPD2    H5 8485   0.064   0.388  16.295  0.2072 -0.5701  1.5337
  568MPD2    N1 8486   0.064   0.063  16.642 -0.3333  0.1987 -0.0273
  568MPD2    H7 8487   0.048   4.711  16.687  0.6209  0.5595  1.0093
  569TMC3    C1 8488   0.032   0.498  16.079 -0.2586  0.0095  0.8723
  569TMC3    C2 8489   0.064   0.573  16.187  0.2781 -0.0429  0.5912
  569TMC3    C3 8490   0.144   0.689  16.166 -0.9288 -0.1603  0.5932
  569TMC3    C4 8491   0.072   0.526  15.951 -0.1112 -0.0351  0.4382
  569TMC3    C5 8492   0.149   0.639  15.939  0.1279 -0.0751  0.4663
  569TMC3    C6 8493   0.190   0.721  16.044 -0.3942 -0.3742  0.2637
  569TMC3     C 8494   0.009   0.350  16.104 -0.1807  0.1546 -0.8659
  569TMC3     O 8495   4.725   0.280  16.004  0.0675  0.7916  0.6779
  569TMC3     H 8496   0.036   0.545  16.288 -1.9278  1.1947  0.3286
  569TMC3    H1 8497   0.034   0.476  15.863  0.3617  0.1600  0.1230
  569TMC3    H2 8498   0.223   0.823  16.027  0.8810 -0.7262  0.6386
  569TMC3    C7 8499   0.191   0.678  15.801  0.5786 -0.6399 -0.3958
  569TMC3    C8 8500   0.162   0.787  16.272 -0.7094  0.4485  0.2137
  569TMC3    O1 8501   0.148   0.613  15.706  0.6737  0.5084 -0.1663
  569TMC3    O2 8502   0.071   0.784  16.353  0.0234 -0.2553 -0.0225
  570TMC3    C1 8503   4.367   3.757  16.406  0.2441 -0.8173  0.3609
  570TMC3    C2 8504   4.452   3.735  16.301 -0.4044  0.0594  0.3786
  570TMC3    C3 8505   4.464   3.835  16.213 -0.0713 -0.1859  0.5577
  570TMC3    C4 8506   4.290   3.869  16.422  0.0540  0.3842 -0.1901
  570TMC3    C5 8507   4.291   3.954  16.319  0.3372 -0.3367  0.5099
  570TMC3    C6 8508   4.382   3.939  16.218 -0.5280 -0.0282 -0.1719
  570TMC3     C 8509   4.363   3.658  16.511  0.5099 -0.7068 -0.5225
  570TMC3     O 8510   4.426   3.558  16.478 -0.0772  0.4216  0.1431
  570TMC3     H 8511   4.519   3.650  16.294  0.5837  0.8118  0.6642
  570TMC3    H1 8512   4.217   3.884  16.501 -0.1422  5.2919 -1.3361
  570TMC3    H2 8513   4.388   4.014  16.141  0.2589  0.2129  0.1173
  570TMC3    C7 8514   4.207   4.072  16.327 -0.1576  0.1942  0.2338
  570TMC3    C8 8515   4.568   3.836  16.111  0.3229 -1.0829  0.1084
  570TMC3    O1 8516   4.176   4.112  16.438 -0.8043 -0.2355 -0.6151
  570TMC3    O2 8517   4.572   3.933  16.037 -0.2853  0.6967  0.1713
  571MPD2     C 8518   2.357   0.940  17.679 -0.0273  0.2680 -0.8331
  571MPD2    C1 8519   2.274   0.975   0.039 -0.4417 -0.1591 -0.7169
  571MPD2    C2 8520   2.312   1.080   0.120  0.1609 -0.5739  0.0955
  571MPD2    C3 8521   2.437   1.145   0.097 -0.0323 -0.0082  0.2793
  571MPD2    C4 8522   2.513   1.112  17.734  0.5845  0.7241 -0.3467
  571MPD2    C5 8523   2.469   1.007  17.653  0.8940 -0.3935  0.4903
  571MPD2     H 8524   2.253   1.112   0.205  0.5013  0.4996 -0.0635
  571MPD2    H1 8525   2.614   1.151  17.720  1.9749 -2.6595  0.1877
  571MPD2    H2 8526   2.338   0.854  17.616  0.2496  0.3507 -1.0291
  571MPD2    H3 8527   2.535   0.979  17.571  1.7587  2.0379  0.3361
  571MPD2     N 8528   2.492   1.249   0.178  0.5990 -0.2480  1.1441
  571MPD2    H5 8529   2.587   1.275   0.155 -0.8002  2.4505 -1.5708
  571MPD2    N1 8530   2.161   0.897   0.066 -0.5326  0.5127 -0.0491
  571MPD2    H7 8531   2.130   0.839  17.735  2.2872 -0.4660 -0.4658
  572TMC3    C1 8532   2.524   1.423   0.330  0.5668  0.0997 -0.6229
  572TMC3    C2 8533   2.643   1.371   0.369 -0.2409  0.1284  0.2386
  572TMC3    C3 8534   2.711   1.459   0.451  0.0661 -0.4405  0.0909
  572TMC3    C4 8535   2.481   1.550   0.347  0.2367  0.1185 -0.0994
  572TMC3    C5 8536   2.561   1.637   0.423  0.1954  0.0147 -0.7714
  572TMC3    C6 8537   2.684   1.591   0.467  0.0802 -0.0248 -0.0259
  572TMC3     C 8538   2.431   1.328   0.267  0.0147  0.1693 -0.1616
  572TMC3     O 8539   2.309   1.350   0.290 -0.7594  0.7732 -0.1642
  572TMC3     H 8540   2.658   1.264   0.373  1.1334  0.3289  0.3102
  572TMC3    H1 8541   2.387   1.596   0.318  0.1109  0.1140  0.2949
  572TMC3    H2 8542   2.746   1.659   0.524 -0.1988  1.5569 -1.6042
  572TMC3    C7 8543   2.534   1.780   0.420 -0.3044  0.4712  0.7467
  572TMC3    C8 8544   2.792   1.409   0.560  0.2551 -0.5014 -0.2411
  572TMC3    O1 8545   2.428   1.825   0.460 -0.1319 -0.0352 -0.1090
  572TMC3    O2 8546   2.821   1.495   0.643  0.0662  0.3060 -0.4509
  573MPD2     C 8547   2.917   1.180  17.260 -0.0976  0.6225  0.2725
  573MPD2    C1 8548   2.918   1.258  17.374 -0.4032 -0.5716  0.7735
  573MPD2    C2 8549   2.794   1.286  17.437  0.2995  0.2757  0.4706
  573MPD2    C3 8550   2.673   1.255  17.375 -0.1622 -0.3127  0.2438
  573MPD2    C4 8551   2.677   1.181  17.257 -0.1559 -0.1558  1.0939
  573MPD2    C5 8552   2.798   1.138  17.212  0.1068 -0.0855 -0.3487
  573MPD2     H 8553   2.793   1.347  17.527  1.0130  0.6206  0.2471
  573MPD2    H1 8554   2.590   1.146  17.202  1.0132 -0.4778 -0.5225
  573MPD2    H2 8555   3.008   1.139  17.217 -1.7705 -0.8651 -1.8566
  573MPD2    H3 8556   2.809   1.074  17.125 -1.4618  1.2062 -1.4942
  573MPD2     N 8557   2.548   1.289  17.423 -0.1927 -0.1429 -0.1531
  573MPD2    H5 8558   2.474   1.266  17.358 -1.3422 -0.4394  1.2684
  573MPD2    N1 8559   3.042   1.300  17.431  0.8582 -0.4775 -0.5061
  573MPD2    H7 8560   3.125   1.246  17.406  0.8898 -1.1859  1.1368
  574TMC3    C1 8561   2.391   1.393  17.563 -0.3274 -0.5915  0.6829
  574TMC3    C2 8562   2.366   1.491  17.654 -0.9556  0.5147  1.1694
  574TMC3    C3 8563   2.237   1.515  17.693  0.1144 -0.3071 -0.0649
  574TMC3    C4 8564   2.292   1.296  17.533 -0.0251  0.2862 -0.3795
  574TMC3    C5 8565   2.171   1.317  17.592 -0.0506 -0.0591 -0.1336
  574TMC3    C6 8566   2.138   1.430  17.666 -0.0663 -0.0569 -0.0815
  574TMC3     C 8567   2.527   1.362  17.541 -0.9123  0.7390 -1.1586
  574TMC3     O 8568   2.603   1.380  17.634 -0.0232 -0.6302 -0.0236
  574TMC3     H 8569   2.454   1.550  17.679 -1.1510  0.8991  0.9628
  574TMC3    H1 8570   2.305   1.215  17.462  1.6952  1.0312 -0.8977
  574TMC3    H2 8571   2.032   1.443  17.682  0.1629  1.6777 -0.0183
  574TMC3    C7 8572   2.067   1.212  17.571  0.3970 -0.3325  0.1926
  574TMC3    C8 8573   2.199   1.629   0.018  0.2854  0.3280  0.2647
  574TMC3    O1 8574   2.062   1.153  17.464  0.1939 -0.3017 -0.2153
  574TMC3    O2 8575   2.084   1.636   0.055 -0.0920  0.4601  0.2018
  575TMC3    C1 8576   1.729   2.071  11.230  0.1225 -0.4583 -0.4742
  575TMC3    C2 8577   1.680   1.957  11.275 -0.1855  0.3620 -0.1928
  575TMC3    C3 8578   1.581   1.896  11.201  0.6998  0.4135 -0.3289
  575TMC3    C4 8579   1.686   2.130  11.110 -0.0878  0.0277 -0.1496
  575TMC3    C5 8580   1.571   2.074  11.061 -0.2591 -0.3543 -0.5597
  575TMC3    C6 8581   1.522   1.946  11.092  0.4713 -0.0964 -0.2041
  575TMC3     C 8582   1.870   2.088  11.235 -0.8236 -0.6159 -0.4179
  575TMC3     O 8583   1.932   2.127  11.138 -0.1461 -0.2972 -0.0448
  575TMC3     H 8584   1.728   1.916  11.363 -0.7063  0.2708  0.0435
  575TMC3    H1 8585   1.726   2.222  11.069  1.6024  0.0397  1.4906
  575TMC3    H2 8586   1.441   1.905  11.032  0.9262 -0.4732 -0.5641
  575TMC3    C7 8587   1.502   2.143  10.955  0.2219 -0.4374 -0.3717
  575TMC3    C8 8588   1.546   1.762  11.248  0.1941 -0.0396  0.4632
  575TMC3    O1 8589   1.557   2.167  10.848 -0.0454 -0.4402  0.2156
  575TMC3    O2 8590   1.632   1.704  11.305 -0.0239 -0.4202 -0.0984
  576MPD2     C 8591   1.028   3.614  13.022 -0.4297 -0.2172  0.2950
  576MPD2    C1 8592   0.994   3.703  12.919  0.3464  0.0065 -0.7930
  576MPD2    C2 8593   0.949   3.827  12.955  0.7159 -0.0558 -0.4628
  576MPD2    C3 8594   0.929   3.865  13.084  0.5823  0.5268 -0.2050
  576MPD2    C4 8595   0.957   3.773  13.183  0.4818  0.2376 -0.8505
  576MPD2    C5 8596   1.010   3.656  13.149  0.5948  0.0530  0.1989
  576MPD2     H 8597   0.918   3.897  12.878 -0.8255 -0.8231 -0.5448
  576MPD2    H1 8598   0.946   3.796  13.288 -2.8998  0.4154 -1.2365
  576MPD2    H2 8599   1.068   3.513  13.012  1.1317  0.7323 -3.1626
  576MPD2    H3 8600   0.996   3.582  13.226  0.9358 -1.0055 -0.7668
  576MPD2     N 8601   0.873   3.996  13.101 -0.3073  0.1629  0.1909
  576MPD2    H5 8602   0.850   4.058  13.024 -0.6283 -1.5641 -1.1064
  576MPD2    N1 8603   0.990   3.667  12.781 -0.0643 -0.3679  0.7135
  576MPD2    H7 8604   0.956   3.736  12.715  0.3531  0.3239  1.2204
  577TMC3    C1 8605   1.010   3.521  12.592  0.0800 -0.0638  0.4854
  577TMC3    C2 8606   0.928   3.410  12.569 -0.3462 -0.5727  0.8660
  577TMC3    C3 8607   0.873   3.397  12.441 -0.0739 -0.6551  0.5050
  577TMC3    C4 8608   1.029   3.619  12.504 -0.0761  0.3105 -0.6717
  577TMC3    C5 8609   0.968   3.600  12.382 -0.2871 -0.1953  0.4039
  577TMC3    C6 8610   0.893   3.494  12.344  0.2867 -0.4530  0.0706
  577TMC3     C 8611   1.034   3.542  12.730 -0.0317  0.0830 -0.0517
  577TMC3     O 8612   1.052   3.438  12.796 -0.4927  0.1903  0.5422
  577TMC3     H 8613   0.931   3.334  12.646  0.9145 -1.6599 -0.2491
  577TMC3    H1 8614   1.091   3.704  12.529 -1.0022  0.3626  1.4199
  577TMC3    H2 8615   0.852   3.485  12.244 -0.5475  0.7850  0.2940
  577TMC3    C7 8616   1.006   3.713  12.294 -0.6205  0.0818 -0.4573
  577TMC3    C8 8617   0.873   3.261  12.397  0.0349 -0.0314  0.2585
  577TMC3    O1 8618   1.060   3.814  12.344  0.1152  0.0356  0.2501
  577TMC3    O2 8619   0.857   3.178  12.484 -0.1295  0.3911  1.4315
  578MPD2     C 8620   3.402   4.411   1.707 -0.1120 -0.4725 -0.6045
  578MPD2    C1 8621   3.429   4.359   1.584  0.2005 -0.2934  0.3278
  578MPD2    C2 8622   3.563   4.327   1.560 -0.1128 -0.1935 -0.0663
  578MPD2    C3 8623   3.666   4.333   1.656 -0.5900  0.0816  0.5470
  578MPD2    C4 8624   3.635   4.387   1.781  0.0374  0.4192  0.1634
  578MPD2    C5 8625   3.505   4.428   1.801 -0.6612 -0.0727 -0.2050
  578MPD2     H 8626   3.593   4.299   1.459  0.6509 -0.2685  0.1842
  578MPD2    H1 8627   3.703   4.385   1.865 -1.6728 -1.6908  1.5014
  578MPD2    H2 8628   3.298   4.416   1.736  0.1599 -0.2469  0.3202
  578MPD2    H3 8629   3.485   4.467   1.900 -0.1609  1.7510 -0.8137
  578MPD2     N 8630   3.799   4.300   1.615 -0.2516 -0.6035  0.3798
  578MPD2    H5 8631   3.818   4.242   1.534  2.1935 -1.0806  1.2648
  578MPD2    N1 8632   3.324   4.346   1.493 -0.1759  0.1689  0.8520
  578MPD2    H7 8633   3.231   4.366   1.528 -0.0378 -0.4293  1.5590
  579TMC3    C1 8634   4.024   4.277   1.618  0.2713 -0.5858 -0.0559
  579TMC3    C2 8635   4.144   4.341   1.638 -0.8219  0.5787  0.0182
  579TMC3    C3 8636   4.251   4.304   1.561  0.4053  0.3093  0.8476
  579TMC3    C4 8637   4.009   4.166   1.528  0.3049  0.2608 -0.0031
  579TMC3    C5 8638   4.120   4.128   1.461  0.0386  0.1753 -0.2638
  579TMC3    C6 8639   4.248   4.186   1.479 -0.0780 -0.3151  0.8376
  579TMC3     C 8640   3.905   4.329   1.685  0.3168 -0.5764  0.3175
  579TMC3     O 8641   3.922   4.379   1.799 -0.6600 -0.5183  0.0495
  579TMC3     H 8642   4.144   4.429   1.702 -0.4514  1.1858 -0.8235
  579TMC3    H1 8643   3.914   4.115   1.528 -1.0709  2.8737 -0.5577
  579TMC3    H2 8644   4.325   4.140   1.417  0.6106 -1.3831  2.4862
  579TMC3    C7 8645   4.117   4.022   1.369  0.3997  0.1712  0.4900
  579TMC3    C8 8646   4.349   4.411   1.538 -0.3221 -0.0906 -0.0852
  579TMC3    O1 8647   4.225   3.967   1.349 -0.7279 -0.0386 -0.0802
  579TMC3    O2 8648   4.341   4.509   1.612 -0.1104 -0.8234 -0.0760
  580TMC3    C1 8649   3.930   2.700  12.713 -0.5331 -0.0723  0.4662
  580TMC3    C2 8650   4.028   2.791  12.699  0.1371  0.4331  0.0454
  580TMC3    C3 8651   4.120   2.761  12.602  0.2968 -0.4154 -0.3641
  580TMC3    C4 8652   3.923   2.576  12.654 -0.1739  0.4973  0.1398
  580TMC3    C5 8653   4.031   2.550  12.573 -0.5027 -0.4430  0.6335
  580TMC3    C6 8654   4.128   2.641  12.540  0.4801  0.1571  0.6316
  580TMC3     C 8655   3.805   2.778  12.729 -0.3741  0.6233  0.5362
  580TMC3     O 8656   3.805   2.866  12.814 -0.2478 -1.0286  0.0910
  580TMC3     H 8657   4.009   2.897  12.714  0.3939  0.7015 -1.4743
  580TMC3    H1 8658   3.843   2.505  12.674  0.6096 -0.5747 -0.4703
  580TMC3    H2 8659   4.211   2.629  12.471 -0.9856 -0.2563 -1.0296
  580TMC3    C7 8660   4.052   2.413  12.534  0.2773 -0.2681 -0.2028
  580TMC3    C8 8661   4.179   2.877  12.531  0.0054  0.6803  0.1791
  580TMC3    O1 8662   3.993   2.336  12.611 -0.1915 -0.1872 -0.0185
  580TMC3    O2 8663   4.176   2.985  12.593  0.2426 -0.3434 -0.4607
  581MPD2     C 8664   1.287   2.411  14.515 -0.0374 -0.1259  0.1642
  581MPD2    C1 8665   1.312   2.493  14.622  0.0179  0.1288  0.3882
  581MPD2    C2 8666   1.219   2.576  14.668  0.0295  0.0734  0.5283
  581MPD2    C3 8667   1.090   2.563  14.626 -0.5660  0.4635  0.0269
  581MPD2    C4 8668   1.061   2.483  14.513  0.5063  0.1105  0.4036
  581MPD2    C5 8669   1.163   2.409  14.457  0.0310  0.4345 -0.1537
  581MPD2     H 8670   1.237   2.631  14.760  2.0992  0.8065 -0.3114
  581MPD2    H1 8671   0.966   2.486  14.463 -0.9887  2.1666  3.3717
  581MPD2    H2 8672   1.368   2.348  14.480  0.5481  1.2907 -1.0074
  581MPD2    H3 8673   1.143   2.355  14.365  0.9743  0.3901 -0.3274
  581MPD2     N 8674   0.996   2.646  14.694 -0.1130  0.1283 -0.1487
  581MPD2    H5 8675   1.027   2.701  14.774  1.0188 -1.3450  0.4183
  581MPD2    N1 8676   1.435   2.473  14.692 -0.0662 -0.2210  0.2834
  581MPD2    H7 8677   1.494   2.399  14.653 -0.7478 -0.8312  0.4111
  582TMC3    C1 8678   1.461   2.396  14.912 -0.2284 -0.3408  0.3742
  582TMC3    C2 8679   1.522   2.416  15.036 -0.2356  0.6428 -0.8157
  582TMC3    C3 8680   1.458   2.358  15.144  0.1895 -1.1409 -0.0676
  582TMC3    C4 8681   1.344   2.321  14.910  0.1829 -0.7878  0.7046
  582TMC3    C5 8682   1.293   2.258  15.014 -0.0595 -0.4537 -0.7653
  582TMC3    C6 8683   1.353   2.269  15.135 -0.1202  0.4314  0.4584
  582TMC3     C 8684   1.460   2.509  14.823 -0.3248 -0.3462  0.0512
  582TMC3     O 8685   1.437   2.615  14.876  0.0702  0.1360 -0.5209
  582TMC3     H 8686   1.586   2.502  15.052 -0.6559  0.5153  1.5494
  582TMC3    H1 8687   1.295   2.326  14.814  0.7694 -0.1533  0.4309
  582TMC3    H2 8688   1.304   2.238  15.227 -3.1271  2.2947 -0.5194
  582TMC3    C7 8689   1.156   2.304  15.031 -0.4768  0.0076 -0.4774
  582TMC3    C8 8690   1.501   2.399  15.278 -0.2508  0.1514  0.1679
  582TMC3    O1 8691   1.085   2.250  14.953 -0.1531  0.6321  0.6989
  582TMC3    O2 8692   1.417   2.384  15.372  0.1417 -0.2046  0.0494
  583MPD2     C 8693   1.664   4.514  16.779  0.4524  0.4128  0.3130
  583MPD2    C1 8694   1.667   4.641  16.723  0.1529  0.6004 -0.0036
  583MPD2    C2 8695   1.602   0.005  16.793  0.1581  0.8335  0.2193
  583MPD2    C3 8696   1.527   4.725  16.905  0.0638 -0.3779 -0.2015
  583MPD2    C4 8697   1.527   4.597  16.961 -0.1584  0.8217 -0.3371
  583MPD2    C5 8698   1.588   4.500  16.889 -0.2849  0.0795 -0.7535
  583MPD2     H 8699   1.602   0.102  16.746  0.5500  0.5123 -0.4409
  583MPD2    H1 8700   1.473   4.571  17.052  2.4070  1.6938  1.4412
  583MPD2    H2 8701   1.699   4.423  16.731 -2.6507 -1.1830  1.1552
  583MPD2    H3 8702   1.579   4.397  16.922 -0.5540 -0.0299 -1.1724
  583MPD2     N 8703   1.469   0.098  16.959 -0.1904  0.3248  0.1759
  583MPD2    H5 8704   1.463   0.181  16.902 -1.9171  0.1947  0.1684
  583MPD2    N1 8705   1.723   4.665  16.594 -0.1938  0.0158  0.1431
  583MPD2    H7 8706   1.724   0.025  16.566 -2.1918  0.5930  2.1071
  584TMC3    C1 8707   1.352   0.238  17.109 -0.1572 -0.0306  0.0659
  584TMC3    C2 8708   1.371   0.345  17.031 -0.0834  0.7455 -0.0501
  584TMC3    C3 8709   1.339   0.471  17.085 -0.9955  0.0063  0.5818
  584TMC3    C4 8710   1.283   0.253  17.227  0.3029  0.0962 -0.1281
  584TMC3    C5 8711   1.260   0.374  17.281 -0.2836 -0.8869 -0.2540
  584TMC3    C6 8712   1.280   0.487  17.210 -0.1081 -0.2388  0.1292
  584TMC3     C 8713   1.404   0.104  17.077 -0.6932 -0.6328  0.1967
  584TMC3     O 8714   1.410   0.025  17.171  0.1818  0.5191 -0.1754
  584TMC3     H 8715   1.440   0.344  16.947 -0.3969 -0.2408 -0.2907
  584TMC3    H1 8716   1.268   0.167  17.290 -1.7275  0.1330 -0.5593
  584TMC3    H2 8717   1.270   0.588  17.247 -1.7459  0.4271 -2.1460
  584TMC3    C7 8718   1.200   0.378  17.416  0.3055  0.5639  0.3928
  584TMC3    C8 8719   1.366   0.579  16.994 -0.0582  0.7382  0.0176
  584TMC3    O1 8720   1.163   0.269  17.463  0.2385 -0.1156  0.7420
  584TMC3    O2 8721   1.375   0.557  16.874  0.0205  0.1780 -0.9075
  585MPD2     C 8722   0.418   3.982   0.063 -0.8169 -0.0452 -0.1873
  585MPD2    C1 8723   0.418   4.017  17.677 -0.1341  0.7079  0.2251
  585MPD2    C2 8724   0.459   3.917  17.591  0.6773 -0.0276  0.0279
  585MPD2    C3 8725   0.487   3.791  17.633  0.9040 -0.4269 -0.0082
  585MPD2    C4 8726   0.483   3.762   0.017  0.2372  0.4438  0.1263
  585MPD2    C5 8727   0.445   3.856   0.111 -0.1143 -1.1781 -0.9948
  585MPD2     H 8728   0.462   3.942  17.485  1.4316  2.1012  0.5364
  585MPD2    H1 8729   0.511   3.669   0.064  0.1665  0.7215  0.7214
  585MPD2    H2 8730   0.380   4.057   0.132  1.6002  1.4696 -0.5009
  585MPD2    H3 8731   0.430   3.839   0.216  0.8243  0.8203 -0.5256
  585MPD2     N 8732   0.534   3.694  17.543  0.0714 -0.4905  0.3934
  585MPD2    H5 8733   0.543   3.604  17.589 -0.2156 -0.0877  1.2219
  585MPD2    N1 8734   0.368   4.149  17.649  0.0712 -0.0738 -0.3059
  585MPD2    H7 8735   0.330   4.200  17.728 -1.9816  2.2019 -2.7578
  586TMC3    C1 8736   0.635   3.570  17.378 -0.5495 -0.6679 -0.5890
  586TMC3    C2 8737   0.756   3.550  17.308 -0.1158  0.0748 -1.1646
  586TMC3    C3 8738   0.780   3.417  17.275 -0.2418  0.5190 -0.7686
  586TMC3    C4 8739   0.541   3.472  17.391 -0.2762 -0.5923 -0.8016
  586TMC3    C5 8740   0.571   3.349  17.344  0.4051  0.2900  0.4843
  586TMC3    C6 8741   0.692   3.320  17.297 -0.2094 -1.1871  0.8534
  586TMC3     C 8742   0.582   3.701  17.415  0.7039 -0.7469 -0.5863
  586TMC3     O 8743   0.608   3.797  17.350 -0.1353  0.1918 -0.1432
  586TMC3     H 8744   0.831   3.626  17.292 -2.1362  2.1286 -0.8066
  586TMC3    H1 8745   0.437   3.490  17.414 -0.4186 -0.9708 -1.1582
  586TMC3    H2 8746   0.710   3.226  17.245  1.0768 -0.1197 -0.6288
  586TMC3    C7 8747   0.496   3.240  17.402  0.2748  0.3294 -0.5961
  586TMC3    C8 8748   0.886   3.389  17.182 -0.2323 -0.1790  0.1732
  586TMC3    O1 8749   0.415   3.261  17.494  0.1057  0.0988  0.2678
  586TMC3    O2 8750   0.923   3.482  17.113  0.1144  0.3183 -0.2987
  587TMC3    C1 8751   2.984   2.468  16.426 -0.3319  0.1961  0.1816
  587TMC3    C2 8752   2.989   2.532  16.543 -0.4509  0.6651  0.1690
  587TMC3    C3 8753   3.102   2.517  16.622 -0.4984 -0.1327  0.0732
  587TMC3    C4 8754   3.087   2.394  16.377 -0.7139 -0.4717  0.1655
  587TMC3    C5 8755   3.199   2.372  16.457 -0.5383 -0.4533  0.2537
  587TMC3    C6 8756   3.205   2.432  16.583  0.5966 -0.6347 -0.0866
  587TMC3     C 8757   2.848   2.463  16.370  0.5129  0.2992 -0.6141
  587TMC3     O 8758   2.758   2.544  16.400  0.1951  0.6613  0.4684
  587TMC3     H 8759   2.902   2.579  16.588  1.5900  1.2959  3.4128
  587TMC3    H1 8760   3.093   2.364  16.273  1.4643  0.8515 -0.0850
  587TMC3    H2 8761   3.271   2.402  16.664 -0.2870 -1.5713  0.2829
  587TMC3    C7 8762   3.323   2.305  16.411  0.2667  0.0777  0.0188
  587TMC3    C8 8763   3.102   2.576  16.752 -0.0060  0.5167 -0.3598
  587TMC3    O1 8764   3.428   2.331  16.474  0.4452  0.1984  0.1729
  587TMC3    O2 8765   3.189   2.546  16.832 -0.5594  0.0239 -0.0565
  588TMC3    C1 8766   0.719   4.296   9.900  0.0931 -0.3419  0.5824
  588TMC3    C2 8767   0.669   4.170   9.903 -0.2273 -0.2976  0.0573
  588TMC3    C3 8768   0.750   4.066   9.954 -0.4317  0.3147 -0.2893
  588TMC3    C4 8769   0.840   4.321   9.951  0.0498  0.5323 -0.1697
  588TMC3    C5 8770   0.923   4.228  10.010  0.3327  0.1474  0.4054
  588TMC3    C6 8771   0.881   4.092  10.000  0.3992 -0.0992  0.1306
  588TMC3     C 8772   0.620   4.398   9.864  0.8272  0.1641 -0.2720
  588TMC3     O 8773   0.566   4.399   9.754 -0.2756  0.2011  0.2717
  588TMC3     H 8774   0.579   4.149   9.847 -0.3915 -2.7419  1.2433
  588TMC3    H1 8775   0.875   4.423   9.935 -1.5336  1.0008 -0.7536
  588TMC3    H2 8776   0.948   4.014  10.033  1.5542  0.0417 -1.8478
  588TMC3    C7 8777   1.014   4.263  10.112  0.1176  0.2056  0.0324
  588TMC3    C8 8778   0.693   3.933   9.935 -0.5947  0.1088  0.1547
  588TMC3    O1 8779   1.098   4.181  10.150 -0.2980  0.0209 -0.2450
  588TMC3    O2 8780   0.597   3.925   9.858 -0.8257 -0.2681  0.0977
  589TMC3    C1 8781   4.494   2.598   1.779  0.5355 -0.6025 -0.3694
  589TMC3    C2 8782   4.618   2.546   1.776 -0.7720 -0.0878 -0.3386
  589TMC3    C3 8783   4.639   2.462   1.669 -0.3196 -0.7392  0.2733
  589TMC3    C4 8784   4.398   2.591   1.682 -0.0391  0.5962  0.3853
  589TMC3    C5 8785   4.426   2.503   1.583  0.0651  0.6180  0.0360
  589TMC3    C6 8786   4.544   2.436   1.573  0.2025  0.9291  0.6183
  589TMC3     C 8787   4.480   2.700   1.886  0.6531  0.9933  0.2473
  589TMC3     O 8788   4.566   2.700   1.973  0.2042 -0.5412 -0.4174
  589TMC3     H 8789   4.695   2.563   1.850  0.3699  0.0552 -1.5697
  589TMC3    H1 8790   4.299   2.625   1.712  0.0611  1.3719 -0.1608
  589TMC3    H2 8791   4.557   2.366   1.491 -0.5275  1.8516 -0.2943
  589TMC3    C7 8792   4.332   2.486   1.469  0.2337  0.2558 -0.0122
  589TMC3    C8 8793   0.003   2.369   1.690  0.0720 -0.4310 -0.0692
  589TMC3    O1 8794   4.364   2.402   1.386 -0.3138 -0.4120 -0.1188
  589TMC3    O2 8795   0.045   2.352   1.802 -0.0106  0.0264  0.0533
  590MPD2     C 8796   4.187   0.593  16.961  0.6616 -0.1308 -0.6245
  590MPD2    C1 8797   4.128   0.709  16.929  0.0073  0.8742  0.2256
  590MPD2    C2 8798   4.196   0.813  16.861 -0.4082  0.5724 -0.0755
  590MPD2    C3 8799   4.327   0.792  16.823  0.1037  0.0703 -0.7146
  590MPD2    C4 8800   4.391   0.674  16.855  0.1955  0.1097 -0.3381
  590MPD2    C5 8801   4.316   0.575  16.917  0.6548  1.1026 -0.2075
  590MPD2     H 8802   4.142   0.900  16.828 -0.1757  0.7923  0.1211
  590MPD2    H1 8803   4.496   0.654  16.839 -0.1723 -1.5099 -0.6909
  590MPD2    H2 8804   4.140   0.518  17.022  0.1947  2.4340  2.1571
  590MPD2    H3 8805   4.368   0.482  16.938 -1.2582 -0.3011 -1.6680
  590MPD2     N 8806   4.381   0.894  16.737 -0.2691  0.4456  0.1552
  590MPD2    H5 8807   4.315   0.960  16.697  0.7367  0.4160 -1.5475
  590MPD2    N1 8808   3.991   0.713  16.966 -0.5616 -0.2031 -0.3381
  590MPD2    H7 8809   3.940   0.625  16.978 -0.8984  0.3434  2.1365
  591TMC3    C1 8810   4.523   0.990  16.579 -0.5057 -0.1152  0.1187
  591TMC3    C2 8811   4.545   0.924  16.463  0.7642 -0.4301 -0.5158
  591TMC3    C3 8812   4.521   0.983  16.346 -0.1177  0.4996 -0.4296
  591TMC3    C4 8813   4.459   1.113  16.577  0.5400  0.9314  0.4806
  591TMC3    C5 8814   4.439   1.174  16.456  0.2106  0.6684  0.1149
  591TMC3    C6 8815   4.473   1.113  16.335 -0.4477 -0.0181 -0.7276
  591TMC3     C 8816   4.509   0.900  16.694  0.1365 -0.2608 -0.1992
  591TMC3     O 8817   4.595   0.816  16.714 -0.6124  0.4240  0.3402
  591TMC3     H 8818   4.595   0.827  16.462  0.9180 -0.3460 -0.8440
  591TMC3    H1 8819   4.418   1.160  16.666 -1.8253 -1.6374  0.7637
  591TMC3    H2 8820   4.448   1.155  16.239 -1.2845 -0.2349 -0.6057
  591TMC3    C7 8821   4.362   1.291  16.444  0.2925 -0.2752 -0.1947
  591TMC3    C8 8822   4.545   0.906  16.226 -0.4353 -0.5186 -0.7925
  591TMC3    O1 8823   4.275   1.308  16.526 -0.0952  0.2097 -0.5932
  591TMC3    O2 8824   4.511   0.787  16.232  0.5686  0.0335 -0.1382
  592MPD2     C 8825   4.522   1.958  11.682 -0.0809  0.0809  0.7490
  592MPD2    C1 8826   4.548   2.033  11.799  0.1407 -0.8135  0.2908
  592MPD2    C2 8827   4.562   1.954  11.921 -0.6581 -0.6817 -0.5990
  592MPD2    C3 8828   4.558   1.817  11.913 -0.0689 -0.0010 -0.3556
  592MPD2    C4 8829   4.533   1.749  11.792 -0.7494  0.1282 -0.4755
  592MPD2    C5 8830   4.526   1.821  11.675  0.7934  0.0849  0.3078
  592MPD2     H 8831   4.571   1.993  12.022  1.1937 -0.7479 -0.7371
  592MPD2    H1 8832   4.533   1.641  11.784  2.1183  0.2876 -2.2316
  592MPD2    H2 8833   4.514   2.008  11.587  0.5901  0.6436  0.9903
  592MPD2    H3 8834   4.514   1.773  11.579 -1.4260  1.1003  0.0666
  592MPD2     N 8835   4.573   1.749  12.035 -0.3178  1.2306  0.4353
  592MPD2    H5 8836   4.595   1.807  12.115 -1.1040  1.7444  0.2796
  592MPD2    N1 8837   4.544   2.173  11.792 -0.2890 -0.5639  0.6382
  592MPD2    H7 8838   4.521   2.216  11.703  0.4797 -0.2311  0.6041
  593TMC3    C1 8839   4.537   2.388  11.878  0.9785 -0.2298  0.3549
  593TMC3    C2 8840   4.497   2.459  11.995  0.1731 -0.2268  0.3102
  593TMC3    C3 8841   4.536   2.587  12.011 -1.3785  0.4208  0.2305
  593TMC3    C4 8842   4.613   2.455  11.785 -0.0856 -0.0274 -0.1178
  593TMC3    C5 8843   4.644   2.581  11.808  0.1231 -0.2580 -0.4918
  593TMC3    C6 8844   4.619   2.652  11.924  0.3459 -0.8977  0.4765
  593TMC3     C 8845   4.562   2.252  11.906 -0.2304 -0.3189  0.4343
  593TMC3     O 8846   4.552   2.216  12.024 -0.0827  0.4876 -0.1824
  593TMC3     H 8847   4.440   2.410  12.073  0.9729 -5.9635 -2.6891
  593TMC3    H1 8848   4.675   2.395  11.719  2.1836  1.4170  0.7039
  593TMC3    H2 8849   4.637   2.759  11.922  0.8531 -0.9903 -0.0149
  593TMC3    C7 8850   4.703   2.654  11.698 -0.4562 -0.5423  0.1241
  593TMC3    C8 8851   4.510   2.652  12.138 -0.1166 -0.0466  0.0514
  593TMC3    O1 8852   0.002   2.766  11.711 -0.1422 -0.5249  0.4784
  593TMC3    O2 8853   4.423   2.608  12.210  0.5986  0.2103  0.7980
  594MPD2     C 8854   3.099   1.350  13.889 -0.5912 -0.2199  0.4311
  594MPD2    C1 8855   3.116   1.374  14.023 -0.1187  0.1567 -0.2114
  594MPD2    C2 8856   3.212   1.461  14.069  0.0026  0.4275 -0.1839
  594MPD2    C3 8857   3.285   1.530  13.974 -0.8159  0.7714 -0.5118
  594MPD2    C4 8858   3.268   1.500  13.844 -0.0779 -0.4649 -0.4977
  594MPD2    C5 8859   3.182   1.404  13.797 -0.4925  0.7412 -0.7197
  594MPD2     H 8860   3.223   1.479  14.176 -2.5283  0.2973  0.0981
  594MPD2    H1 8861   3.327   1.546  13.766  0.4803 -2.4066 -1.2202
  594MPD2    H2 8862   3.032   1.271  13.859  1.4576 -1.4009 -1.0387
  594MPD2    H3 8863   3.183   1.386  13.690  0.5044 -3.7315  0.0410
  594MPD2     N 8864   3.360   1.641  14.018  0.0501  0.0637 -0.2946
  594MPD2    H5 8865   3.339   1.680  14.110  2.1741  2.1692 -0.6920
  594MPD2    N1 8866   3.023   1.307  14.100  0.1518  0.1664 -0.4536
  594MPD2    H7 8867   2.959   1.245  14.051 -0.5244  0.5640 -0.0804
  595TMC3    C1 8868   3.684   1.975  14.052  0.2631 -0.0133 -0.3101
  595TMC3    C2 8869   3.646   1.844  14.005  0.0110  0.1167  0.7651
  595TMC3    C3 8870   3.509   1.817  14.009  0.2895 -0.1383 -1.0635
  595TMC3    C4 8871   3.593   2.059  14.107  0.1266  0.1503  0.3278
  595TMC3    C5 8872   3.464   2.020  14.123 -0.1659  0.5781 -0.1032
  595TMC3    C6 8873   3.417   1.904  14.068 -0.0526 -0.3375 -0.1170
  595TMC3     C 8874   3.813   1.988  14.123  0.1243  0.1116  0.0897
  595TMC3     O 8875   3.821   2.061  14.223 -0.0875 -0.1611  0.2827
  595TMC3     H 8876   3.713   1.772  13.959  0.8907  0.7301  1.0870
  595TMC3    H1 8877   3.630   2.154  14.145  1.1467 -1.0878  2.4269
  595TMC3    H2 8878   3.311   1.884  14.073 -0.3910  1.3876 -0.6068
  595TMC3    C7 8879   3.411   2.051  14.258  1.1881  0.2684  0.1079
  595TMC3    C8 8880   3.467   1.694  13.948 -0.6743  0.2844  0.0243
  595TMC3    O1 8881   3.290   2.034  14.281 -0.2553 -0.2208 -0.2468
  595TMC3    O2 8882   3.532   1.658  13.851  0.5084  0.4661 -0.1274
  596MPD2     C 8883   2.405   4.553  17.034 -0.2874  0.2748  0.0263
  596MPD2    C1 8884   2.394   4.652  16.933  0.7286 -0.5803  0.1265
  596MPD2    C2 8885   2.428   4.618  16.804  0.6086 -0.1182 -0.8807
  596MPD2    C3 8886   2.469   4.488  16.771 -0.0685  0.1145 -0.6138
  596MPD2    C4 8887   2.470   4.394  16.871  0.2086 -0.2084 -0.6716
  596MPD2    C5 8888   2.436   4.424  16.998 -0.4823 -0.4051 -0.1657
  596MPD2     H 8889   2.425   4.693  16.726  0.4541  0.9721  0.1668
  596MPD2    H1 8890   2.497   4.295  16.834  0.1002  0.7140 -3.1798
  596MPD2    H2 8891   2.366   4.574  17.133  3.0724  1.2613  1.1442
  596MPD2    H3 8892   2.429   4.347  17.073  0.1431 -1.3864 -1.1167
  596MPD2     N 8893   2.495   4.452  16.637 -0.4265  0.0634 -0.8448
  596MPD2    H5 8894   2.533   4.361  16.613  2.9006  0.7460  1.7336
  596MPD2    N1 8895   2.352   0.048  16.949 -0.4727 -0.4257  0.5722
  596MPD2    H7 8896   2.372   0.123  16.884  1.5052  0.6686  2.4211
  597TMC3    C1 8897   2.245   0.228  17.057 -0.1651  0.0857  0.2084
  597TMC3    C2 8898   2.281   0.293  16.947  0.1215 -0.0292  0.8301
  597TMC3    C3 8899   2.204   0.391  16.900 -0.1035 -0.2498 -0.5124
  597TMC3    C4 8900   2.125   0.244  17.122 -0.0919  0.1891 -0.2664
  597TMC3    C5 8901   2.056   0.358  17.078 -0.2490 -0.8554 -0.3916
  597TMC3    C6 8902   2.092   0.429  16.966  0.9235  0.2108  0.1353
  597TMC3     C 8903   2.312   0.100  17.074 -0.7071  0.5934  0.1826
  597TMC3     O 8904   2.291   0.040  17.186 -0.4343  0.5600  0.1883
  597TMC3     H 8905   2.387   0.289  16.923  0.0010  0.3652  0.2314
  597TMC3    H1 8906   2.091   0.183  17.205  1.1163 -0.2561 -0.1038
  597TMC3    H2 8907   2.028   0.508  16.930  0.6964 -1.4690 -3.1449
  597TMC3    C7 8908   1.950   0.403  17.157 -1.1665 -0.2378 -0.5121
  597TMC3    C8 8909   2.248   0.480  16.793 -0.0072 -0.1565 -0.3710
  597TMC3    O1 8910   1.898   0.309  17.220 -0.5317  0.0380 -0.3940
  597TMC3    O2 8911   2.180   0.574  16.755  0.5062  0.8003 -0.4709
  598TMC3    C1 8912   0.447   0.991  15.203 -0.3057  0.8949 -0.0869
  598TMC3    C2 8913   0.387   0.866  15.183 -0.5804  0.1259 -0.2096
  598TMC3    C3 8914   0.349   0.825  15.059 -0.8063  0.2359  0.2313
  598TMC3    C4 8915   0.448   1.085  15.099  0.3977 -0.7936 -0.0576
  598TMC3    C5 8916   0.403   1.036  14.977  0.1702 -0.0999  0.4286
  598TMC3    C6 8917   0.351   0.915  14.953 -0.0182  0.8033 -0.9113
  598TMC3     C 8918   0.514   1.032  15.324 -0.2663 -0.3769  0.3396
  598TMC3     O 8919   0.549   1.149  15.332  0.8868  0.1363 -0.5667
  598TMC3     H 8920   0.379   0.801  15.270  0.4755 -0.8558 -0.8593
  598TMC3    H1 8921   0.490   1.184  15.116 -4.0034  0.4825  3.4847
  598TMC3    H2 8922   0.334   0.884  14.850 -0.0779 -0.1758 -0.5959
  598TMC3    C7 8923   0.432   1.119  14.857  0.5393  0.5574  0.5699
  598TMC3    C8 8924   0.315   0.695  15.019 -0.0579 -0.1718  0.1792
  598TMC3    O1 8925   0.374   1.087  14.755 -0.1578 -0.3505  0.3651
  598TMC3    O2 8926   0.365   0.654  14.914 -0.1201  0.4359 -0.0388
  599MPD2     C 8927   0.864   3.530  16.112  0.7862 -0.2386  0.0740
  599MPD2    C1 8928   0.784   3.421  16.082  0.0524  0.4389  0.7776
  599MPD2    C2 8929   0.655   3.418  16.135  0.1180  0.5933  0.0177
  599MPD2    C3 8930   0.601   3.528  16.203  0.7638  0.3061  0.4829
  599MPD2    C4 8931   0.687   3.640  16.224 -1.1236  0.3549  0.0028
  599MPD2    C5 8932   0.816   3.641  16.175 -0.5694 -0.2875 -0.1647
  599MPD2     H 8933   0.602   3.326  16.115  1.8199 -0.0869 -1.3309
  599MPD2    H1 8934   0.651   3.724  16.281  0.1922  1.7147 -1.1625
  599MPD2    H2 8935   0.967   3.543  16.081  0.2860  1.9835 -0.6788
  599MPD2    H3 8936   0.878   3.728  16.190 -1.0300 -0.1539  0.9673
  599MPD2     N 8937   0.473   3.530  16.260 -0.0273  0.0474 -0.0260
  599MPD2    H5 8938   0.456   3.611  16.317  1.0199 -0.8036  1.5032
  599MPD2    N1 8939   0.850   3.318  16.013 -0.6635 -0.0097 -0.4616
  599MPD2    H7 8940   0.945   3.334  15.982 -1.5471  3.5926 -1.3007
  600TMC3    C1 8941   0.250   3.456  16.298 -0.2385 -0.5961 -0.1680
  600TMC3    C2 8942   0.180   3.349  16.346 -0.4638  0.2866  0.4628
  600TMC3    C3 8943   0.067   3.364  16.427 -0.6047 -0.5223  0.6407
  600TMC3    C4 8944   0.210   3.584  16.331  0.3393 -0.3128 -0.7482
  600TMC3    C5 8945   0.091   3.599  16.402 -0.7637  0.3797  0.8387
  600TMC3    C6 8946   0.018   3.493  16.456  0.2134 -0.6609  0.8962
  600TMC3     C 8947   0.377   3.433  16.233  0.2210 -0.0622 -1.1113
  600TMC3     O 8948   0.390   3.328  16.173 -0.0971 -1.0673  0.0094
  600TMC3     H 8949   0.215   3.248  16.325 -0.4531  0.9916 -2.9400
  600TMC3    H1 8950   0.266   3.659  16.276 -2.1692  1.4002 -0.9076
  600TMC3    H2 8951   4.664   3.512  16.511 -0.4547 -2.9130  0.5535
  600TMC3    C7 8952   0.047   3.730  16.433  0.7124  0.3785  0.1084
  600TMC3    C8 8953   4.719   3.253  16.458  0.4334  0.0880  0.0136
  600TMC3    O1 8954   4.690   3.753  16.510 -0.4290  0.7109 -0.4401
  600TMC3    O2 8955   0.035   3.144  16.484  0.2140 -0.4966 -0.6705
  601MPD2     C 8956   2.715   2.252   0.344  0.9213  0.2695 -0.8870
  601MPD2    C1 8957   2.584   2.204   0.369 -0.2199 -1.1237 -0.1438
  601MPD2    C2 8958   2.560   2.069   0.377 -0.4419 -0.0535 -0.3509
  601MPD2    C3 8959   2.663   1.980   0.352  0.2249 -0.3361  0.6389
  601MPD2    C4 8960   2.785   2.025   0.305 -0.6537  0.5002 -0.3983
  601MPD2    C5 8961   2.816   2.164   0.310  0.2228  0.9619  0.6717
  601MPD2     H 8962   2.458   2.035   0.396 -1.3480  3.2400  0.7608
  601MPD2    H1 8963   2.863   1.957   0.274  0.0560  1.0839  0.0953
  601MPD2    H2 8964   2.741   2.357   0.351  2.0223 -0.1269  1.2707
  601MPD2    H3 8965   2.908   2.192   0.260  1.8028 -0.7947  2.6012
  601MPD2     N 8966   2.648   1.845   0.369  0.0819  0.4011 -0.5917
  601MPD2    H5 8967   2.732   1.792   0.346  0.8239  0.4836  2.0007
  601MPD2    N1 8968   2.482   2.296   0.392  0.0045  0.4905  0.2638
  601MPD2    H7 8969   2.391   2.252   0.399  0.2970 -0.3726 -1.4357
  602TMC3    C1 8970   2.343   2.479   0.384 -0.7585 -0.1645 -0.4167
  602TMC3    C2 8971   2.331   2.598   0.313 -0.3890  0.8969  0.3087
  602TMC3    C3 8972   2.205   2.623   0.264 -0.0280  0.5334  0.3506
  602TMC3    C4 8973   2.233   2.404   0.415  0.2918  0.0754 -0.1562
  602TMC3    C5 8974   2.109   2.436   0.366  1.2532 -0.3752  0.0333
  602TMC3    C6 8975   2.092   2.545   0.289  0.5310 -0.2116  0.5809
  602TMC3     C 8976   2.480   2.429   0.386 -0.3788 -0.2416 -0.2569
  602TMC3     O 8977   2.567   2.508   0.351 -0.2691 -0.0084 -0.1596
  602TMC3     H 8978   2.410   2.661   0.275 -1.3195  1.0972 -1.3123
  602TMC3    H1 8979   2.246   2.323   0.486  0.0394 -0.7936 -1.1110
  602TMC3    H2 8980   1.993   2.575   0.256  0.0615 -3.4979 -1.0796
  602TMC3    C7 8981   2.012   2.327   0.372  0.0477 -0.1563  0.0978
  602TMC3    C8 8982   2.184   2.717   0.155 -0.2755  0.7440  0.0526
  602TMC3    O1 8983   2.011   2.248   0.466 -0.1823 -0.0481 -0.1274
  602TMC3    O2 8984   2.259   2.810   0.148 -0.0724 -0.0981  0.1544
  603TMC3    C1 8985   0.681   1.642  10.989 -1.0209  0.2687  0.0785
  603TMC3    C2 8986   0.771   1.574  11.074 -0.2100 -0.0760 -0.3327
  603TMC3    C3 8987   0.824   1.648  11.171  0.4542  0.0084  0.0145
  603TMC3    C4 8988   0.657   1.770  10.994  0.2433 -0.1476 -0.5889
  603TMC3    C5 8989   0.712   1.841  11.095 -0.3007 -0.2289 -0.4197
  603TMC3    C6 8990   0.785   1.776  11.196  0.4848 -0.6453 -0.3708
  603TMC3     C 8991   0.649   1.564  10.875 -0.1900 -0.6739 -0.2077
  603TMC3     O 8992   0.737   1.495  10.824  0.5978  0.3616  0.3146
  603TMC3     H 8993   0.817   1.481  11.042  0.1600  0.5732 -1.7104
  603TMC3    H1 8994   0.572   1.801  10.933  0.1332 -1.1869 -0.9520
  603TMC3    H2 8995   0.828   1.838  11.274  2.1180 -0.8676 -1.0888
  603TMC3    C7 8996   0.715   1.989  11.096  1.0411 -0.3444 -0.1050
  603TMC3    C8 8997   0.917   1.581  11.262  0.0202 -0.4495 -0.1071
  603TMC3    O1 8998   0.759   2.043  11.195 -0.0942 -0.3869  0.2075
  603TMC3    O2 8999   0.934   1.459  11.246  0.0740 -0.2388  0.1713
  604MPD2     C 9000   1.879   1.277  16.192  0.3995  0.0440 -0.2509
  604MPD2    C1 9001   1.801   1.162  16.206 -0.0991  0.4293  0.0878
  604MPD2    C2 9002   1.828   1.046  16.140 -0.1845 -0.0911 -0.9285
  604MPD2    C3 9003   1.935   1.045  16.045 -0.3828 -0.1923  0.1729
  604MPD2    C4 9004   2.013   1.160  16.028  0.5924 -0.2169 -0.8165
  604MPD2    C5 9005   1.987   1.271  16.105 -0.3406  0.3228  0.1175
  604MPD2     H 9006   1.768   0.957  16.151 -2.6711  1.5769 -1.0581
  604MPD2    H1 9007   2.088   1.168  15.950  0.3571  2.2702 -0.7711
  604MPD2    H2 9008   1.864   1.375  16.236 -3.8948 -0.5821 -0.3873
  604MPD2    H3 9009   2.051   1.357  16.087 -0.5437  0.7147  1.2958
  604MPD2     N 9010   1.961   0.928  15.970  0.2203  0.7919  0.0962
  604MPD2    H5 9011   1.887   0.860  15.982  0.8657  0.4743  2.2021
  604MPD2    N1 9012   1.689   1.170  16.289  0.4144 -0.2909  0.1046
  604MPD2    H7 9013   1.674   1.254  16.344 -0.3539  0.8682 -1.8643
  605TMC3    C1 9014   1.476   1.130  16.375 -0.2466  0.8004  0.7081
  605TMC3    C2 9015   1.516   1.182  16.497 -0.9153  0.9304  0.5389
  605TMC3    C3 9016   1.414   1.232  16.575  0.0714 -0.4500  0.0165
  605TMC3    C4 9017   1.354   1.142  16.328 -0.7726  0.1082 -0.5505
  605TMC3    C5 9018   1.260   1.199  16.412 -0.0575 -0.0584 -0.1093
  605TMC3    C6 9019   1.287   1.244  16.532 -0.1300  0.1809 -0.0065
  605TMC3     C 9020   1.580   1.091  16.282  0.5593  0.4413 -0.8081
  605TMC3     O 9021   1.537   1.028  16.185 -0.2501 -0.5415 -0.2920
  605TMC3     H 9022   1.621   1.188  16.521 -0.6333 -2.7064  0.1442
  605TMC3    H1 9023   1.323   1.103  16.232  0.0321 -1.7843 -0.0307
  605TMC3    H2 9024   1.213   1.302  16.585 -1.4049 -0.2720 -1.2790
  605TMC3    C7 9025   1.131   1.221  16.354 -0.0281 -0.0985 -0.9643
  605TMC3    C8 9026   1.453   1.324  16.678  0.2098  0.3066 -0.5319
  605TMC3    O1 9027   1.067   1.319  16.385 -0.8460  0.1299  0.3558
  605TMC3    O2 9028   1.373   1.332  16.770  0.3950  0.6077 -0.5381
  606TMC3    C1 9029   2.135   0.001  17.655  0.9824  0.2622 -0.2513
  606TMC3    C2 9030   2.110   4.674   0.028 -0.4167  0.2314 -0.5518
  606TMC3    C3 9031   2.063   4.548   0.030 -0.0474 -0.2258  0.0159
  606TMC3    C4 9032   2.105   4.666  17.536  0.2054 -0.1529 -0.1872
  606TMC3    C5 9033   2.050   4.540  17.540 -0.0438 -0.0042  0.1823
  606TMC3    C6 9034   2.034   4.478  17.661 -0.2504  0.5143  0.2226
  606TMC3     C 9035   2.186   0.138  17.649 -0.0016 -0.6797  0.1527
  606TMC3     O 9036   2.206   0.179  17.541 -0.7931  0.1370 -0.1774
  606TMC3     H 9037   2.142   4.726   0.117  0.9715  1.4185 -1.7362
  606TMC3    H1 9038   2.125   4.714  17.441  0.6716 -2.4102 -1.2240
  606TMC3    H2 9039   2.018   4.373  17.680 -1.0390  0.5820 -0.0912
  606TMC3    C7 9040   2.084   4.450  17.436  0.5675 -0.2658  0.0031
  606TMC3    C8 9041   2.110   4.469   0.140  0.0107 -0.0695  1.0455
  606TMC3    O1 9042   2.188   4.482  17.374  0.5017 -0.0472  0.8263
  606TMC3    O2 9043   2.208   4.510   0.202 -0.5742  0.1466  0.4872
  607MPD2     C 9044   4.725   1.215  11.853  0.1082  0.2378 -0.4842
  607MPD2    C1 9045   0.072   1.288  11.930  0.4965 -0.4456  0.5899
  607MPD2    C2 9046   0.113   1.228  12.054  0.0190 -0.0356 -0.0551
  607MPD2    C3 9047   0.099   1.096  12.074 -0.4121  0.2335  0.0809
  607MPD2    C4 9048   0.017   1.021  11.991  0.0350 -0.1912 -0.3442
  607MPD2    C5 9049   4.692   1.082  11.886 -0.1092 -0.1788 -0.1466
  607MPD2     H 9050   0.171   1.287  12.123 -2.0309  3.5466 -1.3578
  607MPD2    H1 9051   4.736   0.915  12.000 -1.1133  0.0022 -0.3959
  607MPD2    H2 9052   4.691   1.258  11.759  1.7054 -1.9693 -2.0937
  607MPD2    H3 9053   4.622   1.033  11.821 -1.0216  0.2999  0.4737
  607MPD2     N 9054   0.170   1.040  12.189  0.2153 -0.0202  0.6419
  607MPD2    H5 9055   0.216   1.113  12.242  1.3425 -0.2021 -0.0892
  607MPD2    N1 9056   0.111   1.417  11.903 -0.5766 -0.5892  1.3134
  607MPD2    H7 9057   0.156   1.464  11.981 -0.9913  2.3862 -0.2198
  608TMC3    C1 9058   0.179   1.615  11.808  0.2145 -0.3095 -0.2195
  608TMC3    C2 9059   0.284   1.608  11.890 -0.3556  0.3604 -0.1599
  608TMC3    C3 9060   0.356   1.720  11.915 -0.5239  0.1063  1.0860
  608TMC3    C4 9061   0.139   1.734  11.740 -0.3096 -0.3675  0.1347
  608TMC3    C5 9062   0.192   1.849  11.790 -0.1345  0.2223  0.0569
  608TMC3    C6 9063   0.305   1.845  11.868 -0.8390 -0.0536  0.1473
  608TMC3     C 9064   0.093   1.497  11.793  0.2102  0.3523 -0.4291
  608TMC3     O 9065   0.035   1.467  11.688  0.6805  0.5052 -0.1255
  608TMC3     H 9066   0.329   1.515  11.925  1.3129  1.7371  1.3448
  608TMC3    H1 9067   0.053   1.733  11.673 -2.0084 -2.9077  2.3083
  608TMC3    H2 9068   0.355   1.935  11.902 -0.4867 -0.1179 -0.2129
  608TMC3    C7 9069   0.157   1.974  11.721 -0.1584  0.1542  0.5054
  608TMC3    C8 9070   0.454   1.720  12.020  0.5668 -0.7713  0.3288
  608TMC3    O1 9071   0.129   1.975  11.603 -0.2460  0.0695  0.1416
  608TMC3    O2 9072   0.528   1.822  12.024 -0.2621  0.4310 -0.3298
  609TMC3    C1 9073   3.147   0.652   9.375 -0.7763  0.6684  0.5356
  609TMC3    C2 9074   3.037   0.589   9.317 -0.3592  0.1953  0.2291
  609TMC3    C3 9075   3.058   0.501   9.219 -0.3161  0.0777 -0.4810
  609TMC3    C4 9076   3.273   0.620   9.345  0.6073  0.3944  0.4222
  609TMC3    C5 9077   3.281   0.521   9.251 -0.2312 -0.0756  0.0429
  609TMC3    C6 9078   3.181   0.466   9.178 -0.6313 -0.0732  0.0592
  609TMC3     C 9079   3.140   0.759   9.471 -0.2129  0.4164 -0.2029
  609TMC3     O 9080   3.225   0.769   9.555 -0.1756  0.4134  0.3103
  609TMC3     H 9081   2.936   0.613   9.350 -0.6565 -2.7662  1.4947
  609TMC3    H1 9082   3.357   0.672   9.391  1.1990  1.4494 -1.8415
  609TMC3    H2 9083   3.194   0.377   9.118 -0.1544 -0.0055  0.0617
  609TMC3    C7 9084   3.418   0.464   9.250  0.6569 -0.8269  0.5418
  609TMC3    C8 9085   2.950   0.425   9.151  0.1593  0.4688 -0.1707
  609TMC3    O1 9086   3.488   0.497   9.342  0.3820  0.2180  0.0742
  609TMC3    O2 9087   2.984   0.338   9.071 -0.5970  0.5606  0.1024
  610TMC3    C1 9088   0.325   1.543  12.532 -0.0329 -0.3281 -0.4731
  610TMC3    C2 9089   0.329   1.652  12.451 -0.8003 -1.2644 -0.0742
  610TMC3    C3 9090   0.438   1.729  12.474  0.0168 -0.3180 -0.0397
  610TMC3    C4 9091   0.431   1.500  12.612  0.0711 -0.0696  0.7620
  610TMC3    C5 9092   0.536   1.593  12.627 -0.3574 -0.0445  0.6134
  610TMC3    C6 9093   0.541   1.712  12.564  0.1144 -0.5969 -0.2008
  610TMC3     C 9094   0.202   1.465  12.516  0.1599 -0.6678 -0.0218
  610TMC3     O 9095   0.113   1.500  12.443  0.3254  0.1441 -0.0203
  610TMC3     H 9096   0.249   1.679  12.383 -0.3794  0.1664  0.0025
  610TMC3    H1 9097   0.428   1.401  12.656  1.6382 -0.3651  0.2253
  610TMC3    H2 9098   0.628   1.776  12.566  0.0426 -0.4288 -2.1664
  610TMC3    C7 9099   0.636   1.572  12.735 -0.1850 -0.0664  0.1969
  610TMC3    C8 9100   0.421   1.859  12.416  0.1027 -0.8304  0.7131
  610TMC3    O1 9101   0.656   1.456  12.764 -0.3968  0.0973  0.2326
  610TMC3    O2 9102   0.320   1.885  12.350 -0.1985 -0.4511 -0.2633
  611MPD2     C 9103   0.221   1.804  10.243 -1.1692  0.1724  0.0440
  611MPD2    C1 9104   0.126   1.907  10.244 -0.2210  0.5031 -0.7525
  611MPD2    C2 9105   0.159   2.045  10.267  0.6644  0.4420  0.2945
  611MPD2    C3 9106   0.295   2.075  10.290  0.3629  0.2349 -1.2088
  611MPD2    C4 9107   0.391   1.975  10.292 -0.1592 -0.0039  0.1278
  611MPD2    C5 9108   0.350   1.846  10.270  0.0449 -0.0415  0.0254
  611MPD2     H 9109   0.093   2.130  10.266  1.5828  1.1554  0.3599
  611MPD2    H1 9110   0.497   1.988  10.313 -0.2533 -0.2022  0.7385
  611MPD2    H2 9111   0.194   1.702  10.219 -1.5217  0.9458 -2.9479
  611MPD2    H3 9112   0.422   1.766  10.283 -0.9373 -0.9291 -0.0066
  611MPD2     N 9113   0.341   2.206  10.321 -0.5367  0.4645 -0.4245
  611MPD2    H5 9114   0.438   2.204  10.349 -0.5102 -3.0710 -0.7414
  611MPD2    N1 9115   4.733   1.872  10.205  0.2765  0.4605  0.2496
  611MPD2    H7 9116   4.721   1.775  10.175 -0.0958  0.6712 -0.2843
  612TMC3    C1 9117   0.339   2.433  10.338 -0.3254  0.2198 -0.6769
  612TMC3    C2 9118   0.424   2.417  10.450  0.2030  0.1934  0.4901
  612TMC3    C3 9119   0.509   2.521  10.479 -0.1122  0.7115 -0.8599
  612TMC3    C4 9120   0.328   2.545  10.269 -0.0592 -0.3886 -0.0997
  612TMC3    C5 9121   0.417   2.646  10.301  0.7343 -0.4339 -0.3622
  612TMC3    C6 9122   0.509   2.636  10.406 -0.3100  0.4309  0.3689
  612TMC3     C 9123   0.268   2.318  10.295  0.0990  0.3207 -0.1050
  612TMC3     O 9124   0.177   2.332  10.211  0.4047 -0.2921 -0.6699
  612TMC3     H 9125   0.432   2.324  10.505 -1.0825  0.0172  0.3905
  612TMC3    H1 9126   0.268   2.545  10.178 -0.7687 -1.5328  0.3804
  612TMC3    H2 9127   0.588   2.708  10.420  3.1714 -3.3618  0.2455
  612TMC3    C7 9128   0.413   2.768  10.229 -0.3722 -0.0444 -0.4067
  612TMC3    C8 9129   0.588   2.519  10.600 -0.5715  0.4592 -0.4551
  612TMC3    O1 9130   0.518   2.827  10.229  0.3307  0.0701 -0.5754
  612TMC3    O2 9131   0.620   2.628  10.645  0.1273  0.3181 -0.2117
  613MPD2     C 9132   3.380   4.487  16.858  0.0036 -0.3016  0.1191
  613MPD2    C1 9133   3.458   4.372  16.852  0.9818  0.1004 -0.6042
  613MPD2    C2 9134   3.403   4.245  16.857 -0.0543  0.1263 -0.7374
  613MPD2    C3 9135   3.269   4.236  16.842 -0.8735 -0.0335  0.3727
  613MPD2    C4 9136   3.188   4.349  16.832  0.1202  0.0986 -0.0336
  613MPD2    C5 9137   3.245   4.471  16.834  0.2826  0.3779 -0.2640
  613MPD2     H 9138   3.465   4.156  16.859  3.1184  2.3897  0.3917
  613MPD2    H1 9139   3.080   4.351  16.833  0.1641  0.8812  2.4217
  613MPD2    H2 9140   3.434   4.581  16.858  1.0796 -0.9113 -0.4458
  613MPD2    H3 9141   3.183   4.559  16.848 -0.8891 -0.4359 -0.3087
  613MPD2     N 9142   3.223   4.108  16.808 -0.2761 -0.0745 -0.1474
  613MPD2    H5 9143   3.138   4.101  16.753 -1.3847 -0.0979  1.5504
  613MPD2    N1 9144   3.599   4.402  16.838 -0.2002 -0.0549  0.5319
  613MPD2    H7 9145   3.619   4.500  16.818  3.0627 -0.5163  1.5311
  614TMC3    C1 9146   3.808   4.341  16.757 -0.3452 -0.2653 -0.6531
  614TMC3    C2 9147   3.865   4.230  16.691 -0.3509  0.1945  0.2691
  614TMC3    C3 9148   3.896   4.239  16.556  0.7356  0.7280  0.0041
  614TMC3    C4 9149   3.796   4.462  16.692 -0.0433  1.0552  0.8153
  614TMC3    C5 9150   3.822   4.464  16.557 -0.0728 -0.1065  0.2374
  614TMC3    C6 9151   3.864   4.354  16.489 -0.2434 -0.7380 -0.1263
  614TMC3     C 9152   3.698   4.305  16.850 -0.3897  0.0174  1.0852
  614TMC3     O 9153   3.691   4.193  16.889  0.3320  0.2250  0.5448
  614TMC3     H 9154   3.872   4.136  16.746 -1.9118 -0.5881 -0.8707
  614TMC3    H1 9155   3.759   4.553  16.737  2.6965  2.1118  0.9207
  614TMC3    H2 9156   3.898   4.363  16.387  1.1061  2.4096  0.6151
  614TMC3    C7 9157   3.762   4.580  16.486  0.1278 -0.4358 -0.9684
  614TMC3    C8 9158   3.855   4.121  16.479  0.4618  0.2494 -0.1113
  614TMC3    O1 9159   3.729   4.682  16.542  0.3179 -1.1434 -0.4512
  614TMC3    O2 9160   3.754   4.132  16.412 -0.5127  0.0846  0.3333
  615MPD2     C 9161   3.157   1.102  16.533 -0.3565 -0.0160  0.2781
  615MPD2    C1 9162   3.099   1.204  16.462  0.3438  0.3727  0.2064
  615MPD2    C2 9163   3.039   1.182  16.340 -0.3002  0.0168  0.9026
  615MPD2    C3 9164   3.035   1.053  16.291  0.2053 -0.1167 -0.1308
  615MPD2    C4 9165   3.089   0.948  16.365 -0.0362  0.5537 -0.3719
  615MPD2    C5 9166   3.144   0.979  16.484 -0.4017  0.1418 -0.4391
  615MPD2     H 9167   3.014   1.273  16.285 -1.3571 -1.4740 -1.0899
  615MPD2    H1 9168   3.088   0.843  16.340  0.0432  0.3819  0.3516
  615MPD2    H2 9169   3.196   1.124  16.632  0.5602  0.7759 -0.2663
  615MPD2    H3 9170   3.172   0.905  16.558 -0.2418  0.8209  0.1778
  615MPD2     N 9171   2.972   1.019  16.168  0.0194 -0.1701 -0.0354
  615MPD2    H5 9172   2.974   0.922  16.136 -0.6693 -0.0520 -0.4380
  615MPD2    N1 9173   3.111   1.335  16.507  0.1620  0.1680  0.0982
  615MPD2    H7 9174   3.065   1.406  16.452  0.7247 -0.2100 -0.8558
  616TMC3    C1 9175   3.147   1.524  16.646 -0.4298 -0.6113  0.2254
  616TMC3    C2 9176   3.236   1.591  16.728 -0.3511  0.1170 -0.4958
  616TMC3    C3 9177   3.187   1.701  16.784  0.5279  0.0102 -0.2099
  616TMC3    C4 9178   3.020   1.577  16.613 -0.4359  0.6178  0.2660
  616TMC3    C5 9179   2.980   1.683  16.676  0.2846 -0.4623  0.4303
  616TMC3    C6 9180   3.061   1.752  16.759  0.3198 -0.2084  0.1823
  616TMC3     C 9181   3.164   1.383  16.629 -0.4340  0.5546  0.0782
  616TMC3     O 9182   3.236   1.324  16.711 -0.2386 -0.0627 -0.2185
  616TMC3     H 9183   3.336   1.553  16.745 -0.7435 -0.6535  0.0903
  616TMC3    H1 9184   2.948   1.511  16.567  0.2036 -1.1451  1.8158
  616TMC3    H2 9185   3.035   1.850  16.797 -1.2738 -0.6383  0.1924
  616TMC3    C7 9186   2.870   1.758  16.624 -0.2681  0.1731  0.0701
  616TMC3    C8 9187   3.259   1.758  16.892 -0.1899 -0.2841  0.6362
  616TMC3    O1 9188   2.817   1.832  16.706  0.1693 -0.4094 -0.4676
  616TMC3    O2 9189   3.174   1.801  16.976 -0.4327  0.1748 -0.6040
  617MPD2     C 9190   1.131   3.736  14.119  0.6071 -0.0716  0.3296
  617MPD2    C1 9191   1.117   3.721  14.248  0.6120 -0.6599 -0.0247
  617MPD2    C2 9192   0.993   3.709  14.304 -0.2735  0.0215 -0.2847
  617MPD2    C3 9193   0.878   3.719  14.232  0.1040 -0.0730 -0.5948
  617MPD2    C4 9194   0.900   3.725  14.094 -0.0365 -0.0397  0.0781
  617MPD2    C5 9195   1.026   3.729  14.036  0.5855 -0.5296 -0.1781
  617MPD2     H 9196   0.989   3.700  14.412 -1.5883  2.6780 -0.1109
  617MPD2    H1 9197   0.814   3.733  14.028  0.7311  0.5454 -0.8516
  617MPD2    H2 9198   1.230   3.738  14.076  0.9046 -0.1790  1.0062
  617MPD2    H3 9199   1.045   3.742  13.930 -0.4123 -0.3220 -0.3253
  617MPD2     N 9200   0.743   3.722  14.282  0.4036  0.4486  0.3513
  617MPD2    H5 9201   0.667   3.741  14.218  0.0890  3.3483  1.5819
  617MPD2    N1 9202   1.233   3.718  14.324  0.0014 -0.4085 -0.1203
  617MPD2    H7 9203   1.320   3.732  14.273 -1.2644 -1.3732 -2.5119
  618TMC3    C1 9204   1.391   3.691  14.495 -0.5346 -0.2977  0.1195
  618TMC3    C2 9205   1.445   3.565  14.505  0.5820  0.1251  0.2438
  618TMC3    C3 9206   1.579   3.544  14.469  0.1100 -0.3478  0.1369
  618TMC3    C4 9207   1.457   3.791  14.428 -0.4360  0.7040  0.9408
  618TMC3    C5 9208   1.586   3.763  14.384  0.1568  0.3708 -0.3650
  618TMC3    C6 9209   1.655   3.648  14.424 -0.1265  0.3058 -0.3922
  618TMC3     C 9210   1.248   3.691  14.460 -0.3891  0.5069 -0.0676
  618TMC3     O 9211   1.172   3.625  14.536 -0.4912  0.2723  0.0963
  618TMC3     H 9212   1.383   3.480  14.531  0.5642 -0.4089 -1.5089
  618TMC3    H1 9213   1.411   3.887  14.407  0.6426  0.7224 -1.3674
  618TMC3    H2 9214   1.754   3.641  14.382 -0.1319 -0.6807 -0.2234
  618TMC3    C7 9215   1.588   3.785  14.240 -0.7969 -0.1313  0.4650
  618TMC3    C8 9216   1.592   3.431  14.370 -0.4001  1.1955  0.0153
  618TMC3    O1 9217   1.477   3.804  14.190 -0.0971  0.0647 -0.2754
  618TMC3    O2 9218   1.484   3.374  14.359  0.0151  0.0120  0.2894
  619MPD2     C 9219   2.238   0.476  13.594 -0.1868  0.0458  0.0253
  619MPD2    C1 9220   2.124   0.511  13.524 -0.1147  0.8800  0.1942
  619MPD2    C2 9221   2.008   0.445  13.553  0.3967 -0.3162 -0.0504
  619MPD2    C3 9222   2.005   0.369  13.667  0.2673 -1.1288 -0.2866
  619MPD2    C4 9223   2.113   0.343  13.740 -0.3192  0.4737  0.5900
  619MPD2    C5 9224   2.235   0.385  13.693  0.4383  0.2397  0.7108
  619MPD2     H 9225   1.920   0.460  13.491 -1.1613 -4.2825  1.1628
  619MPD2    H1 9226   2.114   0.283  13.831  0.5530 -0.8904 -0.3300
  619MPD2    H2 9227   2.342   0.485  13.565 -0.7200 -0.9391 -2.1539
  619MPD2    H3 9228   2.329   0.340  13.723  1.0868  0.8142 -0.4715
  619MPD2     N 9229   1.878   0.324  13.717 -1.4111  0.6231 -0.1906
  619MPD2    H5 9230   1.894   0.301  13.815  1.9165 -1.3463 -1.1887
  619MPD2    N1 9231   2.119   0.608  13.424 -0.1988  0.3648 -0.7319
  619MPD2    H7 9232   2.030   0.625  13.380  0.7386 -1.4636 -3.3076
  620TMC3    C1 9233   2.186   0.810  13.315 -0.3494 -0.5869  0.8412
  620TMC3    C2 9234   2.084   0.792  13.230 -0.1859 -0.1239 -0.0129
  620TMC3    C3 9235   2.022   0.898  13.170  0.8986 -0.2285 -0.2037
  620TMC3    C4 9236   2.233   0.937  13.350 -0.8265  0.7084  0.1233
  620TMC3    C5 9237   2.180   1.043  13.280 -0.1657  0.6996  0.0294
  620TMC3    C6 9238   2.073   1.025  13.186 -0.9159  0.4262 -0.2178
  620TMC3     C 9239   2.219   0.701  13.400 -0.0705  0.0144  0.4758
  620TMC3     O 9240   2.333   0.697  13.442  0.4926  0.4028 -0.1687
  620TMC3     H 9241   2.047   0.694  13.201 -0.4227  0.0119 -0.1657
  620TMC3    H1 9242   2.296   0.943  13.438  0.1158  0.4848 -0.5254
  620TMC3    H2 9243   2.031   1.106  13.127  1.3559  2.4957  0.9869
  620TMC3    C7 9244   2.184   1.170  13.345  0.2401 -0.2027  0.2710
  620TMC3    C8 9245   1.930   0.879  13.058 -0.2071  0.6013  0.8998
  620TMC3    O1 9246   2.126   1.259  13.280 -0.3490 -0.1747 -0.2535
  620TMC3    O2 9247   1.962   0.943  12.958  0.8064  0.3924  0.0107
  621MPD2     C 9248   3.109   0.095  10.284 -0.0602 -0.0500  0.1878
  621MPD2    C1 9249   3.221   0.061  10.360  0.9776  0.5508  0.4149
  621MPD2    C2 9250   3.343   0.086  10.298 -0.1604 -0.8894  0.9228
  621MPD2    C3 9251   3.347   0.156  10.178 -0.0567 -0.6131 -0.2792
  621MPD2    C4 9252   3.232   0.190  10.109  0.3816 -0.3232  0.5331
  621MPD2    C5 9253   3.114   0.156  10.165  0.1983 -0.0877 -0.1770
  621MPD2     H 9254   3.431   0.057  10.355  1.5574 -2.5182 -2.5271
  621MPD2    H1 9255   3.220   0.221  10.006  0.9247  0.1369  0.6042
  621MPD2    H2 9256   3.009   0.072  10.319  0.2329 -2.5804 -0.5837
  621MPD2    H3 9257   3.022   0.183  10.114 -0.3608 -0.5420  0.5941
  621MPD2     N 9258   3.481   0.192  10.128 -0.0716 -0.2690 -0.4219
  621MPD2    H5 9259   3.551   0.170  10.198 -0.4947 -1.8371 -0.4804
  621MPD2    N1 9260   3.210   0.000  10.485  1.1126  0.3480 -0.2042
  621MPD2    H7 9261   3.291   4.686  10.519 -1.9178 -2.3896  2.9600
  622TMC3    C1 9262   3.096   4.669  10.691  0.0201 -0.0217 -0.1701
  622TMC3    C2 9263   2.988   4.689  10.777  0.1617  0.3870  0.1825
  622TMC3    C3 9264   2.911   4.577  10.812  0.1430  0.4226 -0.0609
  622TMC3    C4 9265   3.137   4.539  10.657  0.0134 -0.2429  0.3291
  622TMC3    C5 9266   3.057   4.432  10.694  0.1010  0.1301 -0.1007
  622TMC3    C6 9267   2.951   4.450  10.777 -0.0581 -0.5170  0.2970
  622TMC3     C 9268   3.099   0.019  10.571 -0.3132 -0.0703  0.5512
  622TMC3     O 9269   3.007   0.098  10.563  0.1886 -0.2341  0.2402
  622TMC3     H 9270   2.944   0.051  10.781 -0.1612  0.3144 -1.5077
  622TMC3    H1 9271   3.224   4.531  10.592  0.2189  0.7665  0.4714
  622TMC3    H2 9272   2.887   4.367  10.807 -2.5672  1.4486  0.4151
  622TMC3    C7 9273   3.034   4.350  10.578 -0.7872 -0.3767 -0.0387
  622TMC3    C8 9274   2.769   4.585  10.791 -0.3198  0.5268  0.1393
  622TMC3    O1 9275   3.130   4.311  10.517 -0.3574 -0.1607  0.5816
  622TMC3    O2 9276   2.717   4.490  10.731 -0.2637 -0.8035 -0.5537
  623MPD2     C 9277   1.987   1.637  15.691 -0.9449  0.3047  0.3486
  623MPD2    C1 9278   1.912   1.575  15.790 -0.3280  0.4317 -0.6160
  623MPD2    C2 9279   1.939   1.614  15.920 -0.0555 -0.4394 -0.3450
  623MPD2    C3 9280   2.020   1.715  15.957 -0.5852 -0.4074  0.4925
  623MPD2    C4 9281   2.079   1.791  15.853  0.0915  0.1321 -0.1984
  623MPD2    C5 9282   2.057   1.751  15.718 -0.2645 -0.3815 -0.1321
  623MPD2     H 9283   1.891   1.569  16.006 -1.0970  0.1689 -0.6039
  623MPD2    H1 9284   2.140   1.879  15.872 -1.9361  1.8951 -1.7854
  623MPD2    H2 9285   1.981   1.615  15.585 -0.1724  0.6003  0.2458
  623MPD2    H3 9286   2.105   1.803  15.636  0.5857  0.7214  1.0668
  623MPD2     N 9287   2.031   1.752  16.090  0.3633  0.4795  0.1305
  623MPD2    H5 9288   1.972   1.707  16.160 -2.0593 -1.0155 -2.8617
  623MPD2    N1 9289   1.836   1.461  15.754 -1.2568  0.0173 -0.2447
  623MPD2    H7 9290   1.835   1.425  15.659  3.4122 -0.5187 -0.0989
  624TMC3    C1 9291   2.252   1.773  16.481  0.4845 -0.2096 -0.2934
  624TMC3    C2 9292   2.130   1.763  16.552 -0.8125 -0.5419 -0.1529
  624TMC3    C3 9293   2.012   1.800  16.482  0.7386 -0.1194  0.0687
  624TMC3    C4 9294   2.250   1.806  16.344 -0.8762 -0.1495 -0.2272
  624TMC3    C5 9295   2.133   1.844  16.288 -0.7620 -0.6343 -0.1905
  624TMC3    C6 9296   2.013   1.843  16.347  0.1927  0.2796  0.3729
  624TMC3     C 9297   2.378   1.737  16.536  0.2485  0.3797  0.1974
  624TMC3     O 9298   2.383   1.749  16.659 -0.3205  0.5938 -0.4959
  624TMC3     H 9299   2.138   1.734  16.656  2.8700  1.3689  0.1129
  624TMC3    H1 9300   2.342   1.807  16.288 -0.5359 -0.2526  0.3339
  624TMC3    H2 9301   1.925   1.873  16.292 -0.3332 -0.6118  0.7271
  624TMC3    C7 9302   2.135   1.833  16.143  0.2549  0.1872 -0.2524
  624TMC3    C8 9303   1.880   1.767  16.535 -0.2849 -0.0066  0.0512
  624TMC3    O1 9304   2.239   1.871  16.085  0.0830 -0.2602  0.5486
  624TMC3    O2 9305   1.781   1.777  16.465 -0.3822  1.2341 -0.4873
  625MPD2     C 9306   1.841   2.969   0.913 -0.5438  0.9241  0.3256
  625MPD2    C1 9307   1.918   3.083   0.874 -0.5516 -0.7141  0.4807
  625MPD2    C2 9308   2.041   3.113   0.935 -0.8564  0.3273  0.9619
  625MPD2    C3 9309   2.091   3.022   1.030 -0.7103  0.1686  0.4502
  625MPD2    C4 9310   2.011   2.915   1.071  0.5588 -0.4698 -0.9127
  625MPD2    C5 9311   1.893   2.887   1.008  0.5026 -0.4929 -0.0675
  625MPD2     H 9312   2.105   3.199   0.920  0.7535 -0.6950  1.9969
  625MPD2    H1 9313   2.031   2.859   1.162 -1.9586  2.5960  1.5601
  625MPD2    H2 9314   1.740   2.955   0.876 -0.3046  0.9614 -0.3375
  625MPD2    H3 9315   1.838   2.800   1.041 -1.2415  0.7712  0.4203
  625MPD2     N 9316   2.216   3.050   1.084 -0.4151  0.3626 -0.5812
  625MPD2    H5 9317   2.268   3.123   1.038 -0.1013  0.9573  0.7369
  625MPD2    N1 9318   1.865   3.175   0.784  0.5083  0.1470 -0.5920
  625MPD2    H7 9319   1.900   3.270   0.787  1.9324 -0.2767 -3.8537
  626TMC3    C1 9320   1.711   3.268   0.636  0.4861 -0.9323 -1.0981
  626TMC3    C2 9321   1.646   3.246   0.518 -0.0052 -0.1713 -0.6190
  626TMC3    C3 9322   1.558   3.335   0.474 -0.0945  0.5149 -0.0874
  626TMC3    C4 9323   1.666   3.369   0.721 -0.4167  0.5852  0.3299
  626TMC3    C5 9324   1.560   3.449   0.677  0.1215  0.0192  1.2698
  626TMC3    C6 9325   1.517   3.443   0.549 -0.1625 -0.6522  0.0947
  626TMC3     C 9326   1.765   3.148   0.695  0.1787 -0.0866 -0.1450
  626TMC3     O 9327   1.725   3.038   0.652 -0.4133  0.5433  0.0528
  626TMC3     H 9328   1.675   3.159   0.458 -0.2444 -0.1799 -0.7243
  626TMC3    H1 9329   1.696   3.369   0.826  1.6528 -1.5328 -0.2733
  626TMC3    H2 9330   1.466   3.525   0.499  1.3550  0.3260  0.1273
  626TMC3    C7 9331   1.487   3.541   0.770  0.1250 -0.2306  1.5306
  626TMC3    C8 9332   1.502   3.318   0.341  0.9309  0.3488 -0.9503
  626TMC3    O1 9333   1.548   3.576   0.870  0.3666  1.2910 -0.2055
  626TMC3    O2 9334   1.562   3.244   0.261  0.2300 -0.3980 -0.2632
  627MPD2     C 9335   0.158   2.629  14.910 -0.2588  0.8706 -0.5539
  627MPD2    C1 9336   0.260   2.545  14.856 -0.4650  1.0366 -0.8094
  627MPD2    C2 9337   0.234   2.412  14.821  0.0949  0.2061  0.3883
  627MPD2    C3 9338   0.101   2.375  14.818  0.7804 -0.3128 -0.2606
  627MPD2    C4 9339   0.004   2.465  14.859 -1.0033  0.1535 -0.3669
  627MPD2    C5 9340   0.030   2.586  14.904  0.0933 -0.5821  0.2931
  627MPD2     H 9341   0.312   2.345  14.785  0.2976  0.0768  1.0796
  627MPD2    H1 9342   4.636   2.438  14.858 -0.8151 -0.5640 -0.5882
  627MPD2    H2 9343   0.180   2.723  14.958 -0.4258  2.1135 -2.9017
  627MPD2    H3 9344   4.683   2.641  14.946  0.3702 -0.9611  1.3587
  627MPD2     N 9345   0.072   2.242  14.792  0.2223 -0.0194  0.2079
  627MPD2    H5 9346   0.152   2.184  14.769  0.1217 -0.5315  1.1503
  627MPD2    N1 9347   0.396   2.589  14.849 -0.2043  1.1298  0.5379
  627MPD2    H7 9348   0.462   2.514  14.834 -1.3221 -0.0828  1.6892
  628TMC3    C1 9349   0.588   2.720  14.904  0.1535 -0.1173  0.6735
  628TMC3    C2 9350   0.658   2.653  14.805  0.3180  0.1235 -0.1826
  628TMC3    C3 9351   0.787   2.696  14.785  0.1934  0.2377  0.8379
  628TMC3    C4 9352   0.639   2.832  14.967 -0.2498 -0.2455  0.5152
  628TMC3    C5 9353   0.765   2.863  14.944  0.4519  0.3037 -0.0900
  628TMC3    C6 9354   0.841   2.798  14.856 -0.2277 -0.8591  0.8529
  628TMC3     C 9355   0.442   2.707  14.912  0.3288  0.2084 -0.2157
  628TMC3     O 9356   0.392   2.804  14.972  0.0507  0.0047  0.5153
  628TMC3     H 9357   0.614   2.568  14.756  2.0399  0.1775 -1.8333
  628TMC3    H1 9358   0.583   2.875  15.049 -1.6837  0.3088 -0.7701
  628TMC3    H2 9359   0.937   2.841  14.829 -1.2266 -0.5274 -2.0629
  628TMC3    C7 9360   0.800   3.004  14.968 -0.4768  1.0506  0.4320
  628TMC3    C8 9361   0.860   2.632  14.680 -0.5751 -0.4123  0.0753
  628TMC3    O1 9362   0.916   3.037  14.965 -0.5096 -0.5839 -0.3148
  628TMC3    O2 9363   0.792   2.562  14.608 -0.0299 -0.0347 -0.6124
  629MPD2     C 9364   3.676   1.927  17.145 -0.1919 -0.7377 -0.2427
  629MPD2    C1 9365   3.710   1.925  17.011 -0.1948  0.8409  0.9607
  629MPD2    C2 9366   3.619   1.876  16.923 -0.3603  0.3128 -0.4020
  629MPD2    C3 9367   3.490   1.838  16.961 -0.1544 -0.4949 -0.4752
  629MPD2    C4 9368   3.465   1.841  17.092  0.1905  0.4652  0.8796
  629MPD2    C5 9369   3.554   1.878  17.187 -0.1735  0.2246 -0.3303
  629MPD2     H 9370   3.648   1.873  16.819 -0.5302  0.8395 -0.4650
  629MPD2    H1 9371   3.370   1.809  17.135  0.3777 -0.1731  0.8254
  629MPD2    H2 9372   3.742   1.956  17.226  1.6232 -0.5236 -1.7920
  629MPD2    H3 9373   3.529   1.885  17.292  2.6621 -0.9026  0.4268
  629MPD2     N 9374   3.399   1.790  16.864 -0.4127  0.6163  0.7817
  629MPD2    H5 9375   3.428   1.763  16.770 -1.8879 -0.3424  0.6002
  629MPD2    N1 9376   3.841   1.971  16.973  0.1691  0.0799  0.2856
  629MPD2    H7 9377   3.904   1.973  17.052  0.8084  1.0566 -0.2476
  630TMC3    C1 9378   4.023   2.024  16.844  0.4192 -0.2027 -0.0909
  630TMC3    C2 9379   4.075   2.109  16.754 -0.1039  0.6315  0.0331
  630TMC3    C3 9380   4.205   2.085  16.716 -0.2450  0.1169 -0.4748
  630TMC3    C4 9381   4.095   1.928  16.911  0.2630  0.5689  0.4267
  630TMC3    C5 9382   4.219   1.905  16.860 -0.0925 -0.2554 -0.5155
  630TMC3    C6 9383   4.278   1.985  16.768 -0.3363  0.4372  0.2708
  630TMC3     C 9384   3.883   2.022  16.852 -0.0733  0.3398  0.1356
  630TMC3     O 9385   3.812   2.053  16.755  0.2565 -0.3850  0.1513
  630TMC3     H 9386   4.019   2.197  16.725 -1.3523  0.8296  2.9926
  630TMC3    H1 9387   4.042   1.854  16.970 -2.2780  1.2162 -1.0124
  630TMC3    H2 9388   4.366   1.954  16.712 -0.6388 -2.1040  1.1875
  630TMC3    C7 9389   4.288   1.799  16.912 -1.2561 -0.2538  0.2895
  630TMC3    C8 9390   4.273   2.164  16.620  0.5218  0.3693 -0.6283
  630TMC3    O1 9391   4.224   1.714  16.975  0.6185  0.1304  0.3321
  630TMC3    O2 9392   4.395   2.169  16.634  0.3831 -0.4395  0.2174
  631MPD2     C 9393   2.279   1.510  15.501 -0.3272  0.2387  0.5760
  631MPD2    C1 9394   2.402   1.501  15.441 -0.2349  0.4490  0.2454
  631MPD2    C2 9395   2.506   1.420  15.504  0.0174 -0.1786 -0.3399
  631MPD2    C3 9396   2.488   1.359  15.627  0.1376 -0.3276 -0.0783
  631MPD2    C4 9397   2.360   1.367  15.684 -0.2283  0.3560  0.2623
  631MPD2    C5 9398   2.265   1.438  15.618  0.1727  0.9042 -1.1780
  631MPD2     H 9399   2.599   1.402  15.453  0.6110  1.5885  0.1264
  631MPD2    H1 9400   2.333   1.321  15.779 -3.0539  1.3042 -0.0804
  631MPD2    H2 9401   2.198   1.567  15.459 -1.0870 -0.0322  1.6559
  631MPD2    H3 9402   2.160   1.425  15.642  0.7169 -0.7329  0.3115
  631MPD2     N 9403   2.585   1.274  15.684 -0.0751 -0.3388  0.3484
  631MPD2    H5 9404   2.677   1.273  15.640 -0.4830 -0.5060 -0.5018
  631MPD2    N1 9405   2.402   1.560  15.315  0.0293 -0.1354 -0.2598
  631MPD2    H7 9406   2.318   1.607  15.284 -0.1396 -1.4773 -1.8222
  632TMC3    C1 9407   2.485   1.693  15.144 -0.4033 -0.1861 -0.5470
  632TMC3    C2 9408   2.406   1.792  15.184  0.0768  0.2682  0.7226
  632TMC3    C3 9409   2.359   1.879  15.086 -0.1790  0.2096  0.5883
  632TMC3    C4 9410   2.538   1.681  15.017  0.6117 -0.1838  0.0392
  632TMC3    C5 9411   2.486   1.766  14.919 -0.7360 -0.9124 -0.3384
  632TMC3    C6 9412   2.395   1.864  14.956  0.7343 -0.1423 -0.4267
  632TMC3     C 9413   2.517   1.591  15.240 -0.2112  0.1265 -0.4702
  632TMC3     O 9414   2.631   1.546  15.250 -0.1112  0.4078  0.0781
  632TMC3     H 9415   2.398   1.808  15.290  0.7784 -0.7202  0.9195
  632TMC3    H1 9416   2.617   1.611  14.992 -0.8038 -1.4075 -1.0950
  632TMC3    H2 9417   2.378   1.954  14.899 -0.0406  0.3915  0.6300
  632TMC3    C7 9418   2.490   1.724  14.783  0.1158  0.1344  0.4377
  632TMC3    C8 9419   2.254   1.982  15.119  0.4396  0.6012  0.0083
  632TMC3    O1 9420   2.389   1.750  14.719 -0.3016  0.2193 -0.3944
  632TMC3    O2 9421   2.163   2.014  15.046  0.1296  0.6419  0.7438
  633MPD2     C 9422   1.714   4.419  17.313  0.4244  0.0902 -0.1049
  633MPD2    C1 9423   1.756   4.354  17.199  0.2847 -0.3885 -0.1079
  633MPD2    C2 9424   1.718   4.217  17.183 -0.2839  0.3680 -0.4859
  633MPD2    C3 9425   1.654   4.154  17.281  0.1932 -0.4492  0.1985
  633MPD2    C4 9426   1.628   4.218  17.400 -0.2574 -0.7059  0.0546
  633MPD2    C5 9427   1.648   4.355  17.414  0.1737 -0.4451 -0.3373
  633MPD2     H 9428   1.733   4.166  17.088  0.4504 -1.9195  0.8468
  633MPD2    H1 9429   1.581   4.176  17.489 -1.2389 -0.4677 -0.3636
  633MPD2    H2 9430   1.741   4.524  17.327 -2.2271  0.8410 -0.6919
  633MPD2    H3 9431   1.620   4.409  17.503 -0.3068 -0.7707 -0.2934
  633MPD2     N 9432   1.627   4.016  17.280  0.4186 -0.1330  0.7293
  633MPD2    H5 9433   1.589   3.971  17.363 -2.5197  1.2778  0.1573
  633MPD2    N1 9434   1.849   4.414  17.109 -0.5215  0.3968  0.1458
  633MPD2    H7 9435   1.870   4.362  17.024  2.7046  0.7372  0.7120
  634TMC3    C1 9436   1.984   4.569  16.999  0.1075 -1.0515 -0.0718
  634TMC3    C2 9437   2.029   4.464  16.913 -0.0531  1.1505 -0.4311
  634TMC3    C3 9438   2.090   4.503  16.803 -0.2662  0.3963 -0.0025
  634TMC3    C4 9439   1.990   4.706  16.970  0.1643 -0.0940  0.0378
  634TMC3    C5 9440   2.046   4.731  16.846  0.1110  0.1205 -0.2103
  634TMC3    C6 9441   2.102   4.633  16.766  0.0257 -0.0385 -0.1896
  634TMC3     C 9442   1.904   4.539  17.117  0.7056  0.9945 -0.4406
  634TMC3     O 9443   1.881   4.623  17.203 -0.1594 -0.0776  0.6726
  634TMC3     H 9444   2.056   4.369  16.957  0.1419  1.3597 -0.1026
  634TMC3    H1 9445   1.954   0.037  17.046  0.6332 -1.7788  1.7971
  634TMC3    H2 9446   2.146   4.655  16.669  2.4599 -0.6546  0.7636
  634TMC3    C7 9447   2.012   0.114  16.773  0.6508  0.1121  0.3805
  634TMC3    C8 9448   2.126   4.399  16.713 -0.1226 -0.7126 -0.9957
  634TMC3    O1 9449   2.064   0.128  16.663 -0.3556 -0.1534  0.8745
  634TMC3    O2 9450   2.134   4.290  16.766  0.6523  0.5808 -0.1918
  635TMC3    C1 9451   1.998   0.780   0.186  0.6939 -0.8080  0.1977
  635TMC3    C2 9452   1.991   0.676   0.097  0.0129 -0.4948  0.0641
  635TMC3    C3 9453   1.904   0.575   0.120  0.9628  0.3244  0.6221
  635TMC3    C4 9454   1.916   0.776   0.298 -0.2952 -0.2760  0.3290
  635TMC3    C5 9455   1.839   0.669   0.313  1.2706  0.0331 -0.4900
  635TMC3    C6 9456   1.820   0.572   0.222  0.4201 -0.2029  0.3067
  635TMC3     C 9457   2.089   0.895   0.181  0.4928 -0.9152  0.0410
  635TMC3     O 9458   2.090   0.966   0.280  0.1545  0.0260  0.4758
  635TMC3     H 9459   2.059   0.660   0.014  1.2898 -1.5008  1.3259
  635TMC3    H1 9460   1.911   0.858   0.369  1.6634  0.0060  0.1303
  635TMC3    H2 9461   1.746   0.495   0.236  0.4099 -0.0744  0.9430
  635TMC3    C7 9462   1.726   0.692   0.396  0.6889 -0.1938 -0.2241
  635TMC3    C8 9463   1.902   0.462   0.023 -0.5850 -0.2540  0.4466
  635TMC3    O1 9464   1.629   0.747   0.345  0.4026  0.2553  0.3054
  635TMC3    O2 9465   1.951   0.475  17.664  0.3621 -0.2023 -0.1398
  636MPD2     C 9466   3.374   4.292  16.001  0.2307 -0.4262 -0.2296
  636MPD2    C1 9467   3.320   4.359  16.111 -0.2582  0.2835 -0.0971
  636MPD2    C2 9468   3.305   4.284  16.232  0.6331  0.1734 -0.1200
  636MPD2    C3 9469   3.335   4.142  16.227  0.4226  0.2449 -0.2738
  636MPD2    C4 9470   3.402   4.079  16.126 -0.1749  0.5568  0.9255
  636MPD2    C5 9471   3.422   4.163  16.011  0.5620  0.3870 -0.5025
  636MPD2     H 9472   3.265   4.328  16.323  1.2413 -0.2041  0.3272
  636MPD2    H1 9473   3.416   3.972  16.117 -2.0223  0.3689  0.1613
  636MPD2    H2 9474   3.376   4.330  15.900  0.0514 -1.9034 -0.7910
  636MPD2    H3 9475   3.460   4.107  15.926  0.6290  1.5910 -1.2611
  636MPD2     N 9476   3.297   4.066  16.341 -0.0933  0.1952 -0.2414
  636MPD2    H5 9477   3.236   4.117  16.404 -0.0831  0.4635 -0.4473
  636MPD2    N1 9478   3.281   4.494  16.111 -0.3645 -0.0896 -0.0328
  636MPD2    H7 9479   3.258   4.542  16.198 -0.7550 -2.0949  0.9795
  637TMC3    C1 9480   3.264   3.874  16.478  0.2377  0.0679 -0.4123
  637TMC3    C2 9481   3.242   3.952  16.590  0.1529 -0.3739 -0.2166
  637TMC3    C3 9482   3.269   3.904  16.715  0.5428  0.2683 -0.2005
  637TMC3    C4 9483   3.316   3.746  16.485  0.0144 -0.3203 -0.1626
  637TMC3    C5 9484   3.354   3.709  16.610  0.3246  0.5002 -0.2167
  637TMC3    C6 9485   3.333   3.788  16.720  0.2452  0.3202  0.4846
  637TMC3     C 9486   3.332   3.931  16.366 -0.2180 -0.2863 -0.0000
  637TMC3     O 9487   3.427   3.864  16.324 -0.4781  0.2855 -0.1204
  637TMC3     H 9488   3.204   4.053  16.583  0.5311 -0.1876  0.4914
  637TMC3    H1 9489   3.331   3.689  16.394 -0.7864 -0.6726 -0.0793
  637TMC3    H2 9490   3.365   3.751  16.817  1.5988 -2.5837 -1.0720
  637TMC3    C7 9491   3.483   3.645  16.614 -0.0504 -0.5214 -0.8225
  637TMC3    C8 9492   3.289   3.995  16.821 -0.3949  0.1160 -0.5241
  637TMC3    O1 9493   3.533   3.614  16.718 -0.1231  0.1879  0.3315
  637TMC3    O2 9494   3.376   3.963  16.906 -0.4614 -0.0788 -0.2985
  638MPD2     C 9495   2.969   3.315  15.199  0.5304  0.2885 -0.1406
  638MPD2    C1 9496   2.920   3.212  15.116  0.3385 -0.1689  0.0327
  638MPD2    C2 9497   2.861   3.101  15.172 -0.2947  0.3400 -0.3617
  638MPD2    C3 9498   2.869   3.075  15.307 -0.4542  0.4941  0.3836
  638MPD2    C4 9499   2.923   3.167  15.389  0.0738  0.5193 -0.6926
  638MPD2    C5 9500   2.970   3.281  15.333 -0.2812  0.2463  0.9024
  638MPD2     H 9501   2.849   3.020  15.101  0.1737  0.7416 -0.8980
  638MPD2    H1 9502   2.948   3.158  15.495  0.0714 -1.1123 -0.8325
  638MPD2    H2 9503   3.012   3.409  15.164  2.0269 -0.4026 -0.1858
  638MPD2    H3 9504   3.028   3.350  15.393 -0.4794 -1.1528  2.7053
  638MPD2     N 9505   2.854   2.939  15.343  0.0551  0.8178 -0.0458
  638MPD2    H5 9506   2.812   2.880  15.272  1.5694 -1.3083  0.8265
  638MPD2    N1 9507   2.934   3.211  14.975  0.3305 -0.1469  0.8171
  638MPD2    H7 9508   3.000   3.281  14.942 -0.5237 -0.4586 -1.4891
  639TMC3    C1 9509   2.901   2.730  15.449  0.1675 -0.7364 -0.3377
  639TMC3    C2 9510   2.815   2.677  15.357  0.1098 -0.2953 -0.3422
  639TMC3    C3 9511   2.858   2.584  15.271 -0.2492  0.0033 -0.1711
  639TMC3    C4 9512   3.029   2.681  15.460 -0.6552 -1.0412 -0.4578
  639TMC3    C5 9513   3.076   2.594  15.364 -0.1089 -0.0271  0.5592
  639TMC3    C6 9514   2.999   2.552  15.264  0.6911  0.2105  1.2271
  639TMC3     C 9515   2.897   2.874  15.459 -0.2522 -0.3089  0.6631
  639TMC3     O 9516   2.966   2.921  15.547  0.0659  0.4552 -0.5915
  639TMC3     H 9517   2.716   2.722  15.360  0.3770  0.2428  0.2292
  639TMC3    H1 9518   3.086   2.732  15.537  2.7452 -1.0829 -2.9463
  639TMC3    H2 9519   3.026   2.475  15.192 -1.9762 -0.4320  0.9181
  639TMC3    C7 9520   3.216   2.561  15.373 -0.2837  0.3406 -0.7007
  639TMC3    C8 9521   2.763   2.520  15.190 -0.1158 -0.0116  0.6495
  639TMC3    O1 9522   3.285   2.641  15.437  0.3429 -0.3309  0.1823
  639TMC3    O2 9523   2.806   2.465  15.089  0.1746 -0.7896 -0.1297
  640MPD2     C 9524   3.656   1.603  10.045  0.5113 -0.1705 -0.6892
  640MPD2    C1 9525   3.536   1.543  10.015 -0.2365 -0.5265 -0.2825
  640MPD2    C2 9526   3.432   1.550  10.106 -0.1931  0.4431 -0.0333
  640MPD2    C3 9527   3.444   1.622  10.225 -0.4020 -0.4007  0.7426
  640MPD2    C4 9528   3.565   1.689  10.250 -0.4527 -0.3837  0.7024
  640MPD2    C5 9529   3.666   1.670  10.160 -0.1481 -0.6273 -0.3084
  640MPD2     H 9530   3.347   1.483  10.094 -1.1064  1.2455  1.9764
  640MPD2    H1 9531   3.582   1.750  10.339 -1.0647  0.7484  0.0411
  640MPD2    H2 9532   3.731   1.601   9.967  2.3363  0.7712  1.0498
  640MPD2    H3 9533   3.763   1.712  10.184  0.8606 -1.5821 -2.7922
  640MPD2     N 9534   3.341   1.636  10.317  0.0940  0.3659  0.2642
  640MPD2    H5 9535   3.354   1.706  10.389  0.0585 -0.7644  1.3485
  640MPD2    N1 9536   3.529   1.461   9.902  0.2884  0.3671 -0.6698
  640MPD2    H7 9537   3.619   1.431   9.866  0.3486 -3.3602  2.6269
  641TMC3    C1 9538   3.432   1.302   9.745 -0.4592 -0.0779 -0.4526
  641TMC3    C2 9539   3.557   1.259   9.717 -0.0694 -0.6516  0.2431
  641TMC3    C3 9540   3.578   1.183   9.611  0.8864  0.3601  0.2842
  641TMC3    C4 9541   3.332   1.272   9.667 -0.2962  0.0041  0.1075
  641TMC3    C5 9542   3.355   1.195   9.559 -0.6852  0.8809  0.7774
  641TMC3    C6 9543   3.476   1.147   9.528  0.5215 -0.2873 -0.1552
  641TMC3     C 9544   3.410   1.403   9.854  0.1894 -0.4327 -0.6276
  641TMC3     O 9545   3.292   1.425   9.879  0.3647 -0.3857  0.4942
  641TMC3     H 9546   3.632   1.282   9.791 -1.1877  3.8156 -0.0271
  641TMC3    H1 9547   3.231   1.302   9.692 -0.9400 -1.6052 -0.5326
  641TMC3    H2 9548   3.499   1.102   9.433 -0.7632 -1.0641 -0.0835
  641TMC3    C7 9549   3.247   1.182   9.467  1.0534 -0.0453 -0.0155
  641TMC3    C8 9550   3.709   1.110   9.589  0.5811 -0.3465  0.8794
  641TMC3    O1 9551   3.155   1.264   9.489 -0.3923  0.5208  0.4808
  641TMC3    O2 9552   3.703   1.009   9.527 -0.1759  0.2506  0.2904
  642TMC3    C1 9553   4.590   2.622  12.726  0.7559  0.4343  0.2841
  642TMC3    C2 9554   4.688   2.674  12.648 -0.4842  0.2438 -0.8716
  642TMC3    C3 9555   4.723   2.605  12.539 -0.4546  0.0845  0.1437
  642TMC3    C4 9556   4.546   2.490  12.717  1.9870  0.3151 -0.1434
  642TMC3    C5 9557   4.569   2.429  12.594  0.1382 -0.5515 -0.3956
  642TMC3    C6 9558   4.656   2.492  12.500 -0.0821  0.4350 -0.1657
  642TMC3     C 9559   4.531   2.710  12.827 -0.5604 -0.1547 -0.1761
  642TMC3     O 9560   4.587   2.819  12.844  0.4848 -0.4441 -0.1636
  642TMC3     H 9561   4.715   2.778  12.659  0.3740 -0.3643  2.7575
  642TMC3    H1 9562   4.496   2.436  12.796  1.7593  0.6457 -0.0620
  642TMC3    H2 9563   4.681   2.443  12.406 -1.5506 -0.1207 -0.2728
  642TMC3    C7 9564   4.524   2.292  12.554  0.4155 -0.2708  0.4924
  642TMC3    C8 9565   0.108   2.641  12.471 -0.2989 -0.2320 -0.6654
  642TMC3    O1 9566   4.579   2.239  12.457 -0.5938  0.0463  0.4103
  642TMC3    O2 9567   0.139   2.562  12.379  0.3324  0.0398 -0.3035
  643TMC3    C1 9568   3.701   2.722   0.769 -0.0330 -0.0162 -0.1548
  643TMC3    C2 9569   3.615   2.745   0.660 -0.2502  0.0792  0.1719
  643TMC3    C3 9570   3.617   2.646   0.563 -0.6165  0.0243 -0.5556
  643TMC3    C4 9571   3.793   2.618   0.769 -0.1164 -0.0401  0.2182
  643TMC3    C5 9572   3.795   2.525   0.667  0.0741 -0.3552 -0.0119
  643TMC3    C6 9573   3.695   2.530   0.573 -0.4863  0.2526 -0.1038
  643TMC3     C 9574   3.715   2.821   0.875 -0.4073 -0.9613  0.7405
  643TMC3     O 9575   3.613   2.870   0.917  0.5766  0.2377 -0.7687
  643TMC3     H 9576   3.539   2.823   0.658  0.5753  0.8908  0.2316
  643TMC3    H1 9577   3.847   2.588   0.858  0.7792  0.9918  0.0238
  643TMC3    H2 9578   3.683   2.460   0.490  0.5114  0.8142 -0.7166
  643TMC3    C7 9579   3.927   2.498   0.625 -0.1436  0.1940  0.3501
  643TMC3    C8 9580   3.577   2.689   0.426 -0.0775 -0.6970 -0.5704
  643TMC3    O1 9581   4.016   2.506   0.712  0.2963  0.1442  0.2750
  643TMC3    O2 9582   3.557   2.602   0.340  0.1502 -0.4655 -0.1309
  644MPD2     C 9583   3.322   1.622   9.289 -0.2445 -0.2115  0.4324
  644MPD2    C1 9584   3.409   1.646   9.390 -0.4136  1.1705  0.9155
  644MPD2    C2 9585   3.378   1.738   9.490  0.8687  0.2849 -0.5852
  644MPD2    C3 9586   3.257   1.807   9.491 -0.1602  0.4988 -0.0463
  644MPD2    C4 9587   3.167   1.775   9.394 -0.3178  0.9049  0.2726
  644MPD2    C5 9588   3.201   1.683   9.293 -0.5179 -0.1612 -0.2689
  644MPD2     H 9589   3.450   1.744   9.571 -0.5542  0.6359  0.6590
  644MPD2    H1 9590   3.070   1.822   9.379 -0.6723 -0.7071 -2.4458
  644MPD2    H2 9591   3.351   1.550   9.214 -0.5568  0.8477 -0.7118
  644MPD2    H3 9592   3.138   1.662   9.208  0.2655  0.2150 -0.9361
  644MPD2     N 9593   3.221   1.904   9.597 -0.5937 -0.4301 -0.1239
  644MPD2    H5 9594   3.291   1.909   9.670 -2.0192  0.6811  1.1949
  644MPD2    N1 9595   3.531   1.576   9.379  0.3968  0.0651  0.3176
  644MPD2    H7 9596   3.552   1.518   9.298  3.1919 -0.6681  1.5720
  645TMC3    C1 9597   3.103   2.061   9.721 -0.3434 -0.0555 -0.3497
  645TMC3    C2 9598   3.215   2.134   9.752 -0.1897  0.4093  0.0177
  645TMC3    C3 9599   3.187   2.221   9.854 -0.2599 -0.0085 -0.3667
  645TMC3    C4 9600   2.973   2.087   9.771 -0.2206  0.1336  0.7056
  645TMC3    C5 9601   2.959   2.166   9.877 -0.4858  0.4010  1.0203
  645TMC3    C6 9602   3.069   2.239   9.919  0.0963 -1.0096 -0.1668
  645TMC3     C 9603   3.111   1.987   9.603  0.1946 -0.2060 -0.0112
  645TMC3     O 9604   3.032   2.016   9.517  0.2629 -0.2113  0.0638
  645TMC3     H 9605   3.310   2.113   9.706 -0.2423  0.7844 -0.2644
  645TMC3    H1 9606   2.889   2.030   9.734 -0.7098  0.1202  1.8490
  645TMC3    H2 9607   3.071   2.274  10.021 -0.9824 -1.4551  0.0073
  645TMC3    C7 9608   2.850   2.156   9.968  0.4271  0.1349 -0.4855
  645TMC3    C8 9609   3.296   2.296   9.910 -0.6462  0.3219 -0.2849
  645TMC3    O1 9610   2.840   2.251  10.045 -0.6852  0.4807 -0.0287
  645TMC3    O2 9611   3.407   2.248   9.905 -0.1941 -0.4698  0.0154
  646MPD2     C 9612   3.049   1.824  14.624 -0.6018 -0.4952  0.6703
  646MPD2    C1 9613   2.977   1.842  14.739  0.1907  0.6665  0.6706
  646MPD2    C2 9614   2.855   1.907  14.725  0.2249  0.6221 -0.4161
  646MPD2    C3 9615   2.819   1.959  14.605  0.4788 -0.6252 -0.1132
  646MPD2    C4 9616   2.890   1.944  14.487  0.1399 -0.0752  0.2079
  646MPD2    C5 9617   3.010   1.873  14.499 -0.6135 -0.1877  0.2466
  646MPD2     H 9618   2.796   1.931  14.813 -1.1597 -1.0828 -0.8930
  646MPD2    H1 9619   2.849   1.979  14.393  1.4475  0.3197 -0.2144
  646MPD2    H2 9620   3.144   1.772  14.626  0.1848  0.9218 -0.0426
  646MPD2    H3 9621   3.073   1.848  14.415  0.7355 -1.2861  1.5916
  646MPD2     N 9622   2.689   2.019  14.603  0.2230  0.0707 -0.4502
  646MPD2    H5 9623   2.647   2.053  14.689 -0.0233 -0.1049 -0.5035
  646MPD2    N1 9624   3.022   1.778  14.861 -0.4910 -0.3009  0.3476
  646MPD2    H7 9625   3.122   1.764  14.869 -0.5244 -0.5719  0.3025
  647TMC3    C1 9626   3.022   1.726  15.093  0.1172  0.1118  0.0927
  647TMC3    C2 9627   2.963   1.791  15.205  0.4087  0.1041  0.1239
  647TMC3    C3 9628   3.024   1.762  15.327  0.5796  0.4079 -0.0679
  647TMC3    C4 9629   3.114   1.634  15.092  0.7960 -0.7064  0.2101
  647TMC3    C5 9630   3.160   1.605  15.221 -0.7486  0.0076 -0.3436
  647TMC3    C6 9631   3.126   1.671  15.338 -0.1614  0.2340 -0.3216
  647TMC3     C 9632   2.942   1.760  14.975  0.3032 -0.2341 -0.3072
  647TMC3     O 9633   2.824   1.793  14.995  0.1317  0.6491 -0.7739
  647TMC3     H 9634   2.889   1.870  15.198  1.7358  1.5568  2.7619
  647TMC3    H1 9635   3.140   1.574  15.005 -2.6736  1.1585 -2.1062
  647TMC3    H2 9636   3.155   1.628  15.434 -0.6246 -1.1743 -0.8146
  647TMC3    C7 9637   3.292   1.545  15.229 -0.3102  0.8052 -0.4680
  647TMC3    C8 9638   2.970   1.831  15.446 -0.0978 -0.4703  0.0359
  647TMC3    O1 9639   3.328   1.525  15.347  0.0728 -0.2001 -0.7265
  647TMC3    O2 9640   2.863   1.889  15.432  0.2065  0.5043  0.2137
  648TMC3    C1 9641   2.507   4.458  16.403  0.1949  0.4041  0.9508
  648TMC3    C2 9642   2.584   4.341  16.396  0.6377  0.3055 -0.6928
  648TMC3    C3 9643   2.620   4.301  16.268  0.5342  0.8738 -0.3101
  648TMC3    C4 9644   2.475   4.530  16.292 -0.6077 -0.2011 -0.6757
  648TMC3    C5 9645   2.520   4.488  16.169  0.5732 -0.5496 -0.3989
  648TMC3    C6 9646   2.596   4.373  16.151 -0.3502  0.4111  0.2563
  648TMC3     C 9647   2.471   4.531  16.527 -0.5673 -0.8381  0.7386
  648TMC3     O 9648   2.403   4.634  16.520  0.0694 -0.0748 -0.0189
  648TMC3     H 9649   2.619   4.282  16.480 -0.2063  0.6646 -0.0953
  648TMC3    H1 9650   2.425   4.626  16.299  0.4488  0.2470  0.7437
  648TMC3    H2 9651   2.656   4.352  16.064 -0.6551  1.2861 -0.1593
  648TMC3    C7 9652   2.509   4.578  16.054  0.3472 -0.1551 -0.1554
  648TMC3    C8 9653   2.728   4.205  16.270  0.2996 -0.0083  0.5587
  648TMC3    O1 9654   2.566   4.543  15.952  0.1358  0.6920  0.5292
  648TMC3    O2 9655   2.795   4.213  16.369 -0.0160  0.0351 -0.4385
  649TMC3    C1 9656   1.717   0.292  12.925  0.2264 -0.3154  0.0819
  649TMC3    C2 9657   1.841   0.325  12.974 -0.0972  0.2568  0.4035
  649TMC3    C3 9658   1.868   0.310  13.111  0.3660 -0.4186 -0.1390
  649TMC3    C4 9659   1.614   0.265  13.014 -0.0103 -0.6420  0.0520
  649TMC3    C5 9660   1.650   0.247  13.145  0.5555  0.6234  0.3268
  649TMC3    C6 9661   1.775   0.271  13.197  0.5440  0.8863 -0.2326
  649TMC3     C 9662   1.686   0.319  12.784 -0.2960  0.7948  0.6089
  649TMC3     O 9663   1.571   0.300  12.749  0.4717 -0.1224 -0.5900
  649TMC3     H 9664   1.920   0.361  12.908 -1.3791 -1.4744 -2.0848
  649TMC3    H1 9665   1.511   0.247  12.984  0.7912 -1.1208 -2.4348
  649TMC3    H2 9666   1.804   0.276  13.301 -0.8078  1.0427  0.1447
  649TMC3    C7 9667   1.545   0.205  13.238 -0.3953  0.1754  0.7361
  649TMC3    C8 9668   1.989   0.371  13.161 -0.3420 -0.3125 -0.3435
  649TMC3    O1 9669   1.428   0.227  13.211 -0.3642 -0.2912  0.1289
  649TMC3    O2 9670   2.017   0.472  13.093  0.2628  0.3843 -0.0992
  650TMC3    C1 9671   3.942   1.502  12.638  0.1793 -0.1332 -0.7793
  650TMC3    C2 9672   3.815   1.546  12.670 -0.0559  0.4586  0.8010
  650TMC3    C3 9673   3.773   1.671  12.626 -0.1769 -0.2722 -0.3902
  650TMC3    C4 9674   4.032   1.582  12.569  0.0491  0.5199  0.0416
  650TMC3    C5 9675   3.992   1.705  12.526 -0.5589  0.0984  0.5845
  650TMC3    C6 9676   3.858   1.747  12.547  0.8307 -0.0259 -0.5842
  650TMC3     C 9677   3.992   1.399  12.733  0.3649  0.3204 -0.5485
  650TMC3     O 9678   3.905   1.355  12.808  0.4183  0.1200 -0.0526
  650TMC3     H 9679   3.747   1.484  12.727 -0.8406  0.7861  0.2235
  650TMC3    H1 9680   4.135   1.550  12.552  0.5625  2.5514 -0.6926
  650TMC3    H2 9681   3.831   1.840  12.500 -0.7071  0.3454  1.0153
  650TMC3    C7 9682   4.075   1.773  12.429 -0.2948  0.3841 -0.0369
  650TMC3    C8 9683   3.651   1.724  12.691  0.1623 -0.2566 -0.1036
  650TMC3    O1 9684   4.136   1.707  12.348  0.5572 -0.3043 -0.0375
  650TMC3    O2 9685   3.554   1.647  12.704  0.4127 -0.8072  0.3105
  651MPD2     C 9686   2.844   3.579  11.376 -0.9523  0.0368  0.3338
  651MPD2    C1 9687   2.773   3.624  11.267  0.1489  1.0480 -0.1754
  651MPD2    C2 9688   2.849   3.653  11.151 -0.2797 -0.0572 -0.2170
  651MPD2    C3 9689   2.986   3.675  11.160 -0.2930  0.0136 -0.1311
  651MPD2    C4 9690   3.049   3.646  11.282 -0.5558  0.0396  0.2313
  651MPD2    C5 9691   2.980   3.596  11.392  0.2126 -0.0524  0.6318
  651MPD2     H 9692   2.795   3.666  11.058  2.1147 -1.3567 -1.7975
  651MPD2    H1 9693   3.153   3.659  11.308 -0.0384 -1.0244 -1.3346
  651MPD2    H2 9694   2.793   3.539  11.463  0.1908  1.6470  1.7441
  651MPD2    H3 9695   3.034   3.574  11.483 -0.8257 -0.3009  1.1899
  651MPD2     N 9696   3.056   3.738  11.050  0.5434  1.1918 -0.4068
  651MPD2    H5 9697   2.999   3.762  10.970  0.0597 -3.9437 -1.6191
  651MPD2    N1 9698   2.629   3.626  11.266  0.2435  0.1300  0.4950
  651MPD2    H7 9699   2.577   3.642  11.180  3.4185 -0.2106 -1.4900
  652TMC3    C1 9700   3.450   3.894  10.826 -0.7278 -0.6739  0.7160
  652TMC3    C2 9701   3.388   3.819  10.920 -0.8520 -0.0715  0.3343
  652TMC3    C3 9702   3.257   3.844  10.945  0.5637 -0.7663  0.2124
  652TMC3    C4 9703   3.390   4.011  10.783 -0.5906  0.1533  0.1700
  652TMC3    C5 9704   3.268   4.042  10.819  0.6739  0.3958  0.1642
  652TMC3    C6 9705   3.191   3.957  10.896  0.7332 -0.8538 -0.8580
  652TMC3     C 9706   3.591   3.887  10.836  0.3234  0.1257 -0.8048
  652TMC3     O 9707   3.631   3.833  10.942 -0.1131 -0.7069  0.0238
  652TMC3     H 9708   3.438   3.732  10.962  0.3128  0.7781  0.6735
  652TMC3    H1 9709   3.439   4.076  10.712  0.7985  1.0552  1.9896
  652TMC3    H2 9710   3.089   3.974  10.930  0.7703 -1.1273 -0.6123
  652TMC3    C7 9711   3.237   4.180  10.852 -0.5174 -0.8569  1.1206
  652TMC3    C8 9712   3.196   3.757  11.049 -0.1209 -0.0148 -0.2113
  652TMC3    O1 9713   3.126   4.197  10.905 -0.1750 -0.4689 -0.0711
  652TMC3    O2 9714   3.278   3.724  11.134  0.2713 -0.2277  0.3133
  653MPD2     C 9715   1.384   4.650   0.060 -0.5958 -0.3815  0.1967
  653MPD2    C1 9716   1.382   0.007  17.707  0.5498  0.3379  0.7545
  653MPD2    C2 9717   1.362   4.702  17.582 -0.2169  0.1725  0.7627
  653MPD2    C3 9718   1.350   4.571  17.544  0.8314  0.2961 -0.2227
  653MPD2    C4 9719   1.365   4.471  17.643 -0.3888  0.2831 -0.2055
  653MPD2    C5 9720   1.373   4.517   0.025 -0.4122  0.7517 -0.4019
  653MPD2     H 9721   1.358   0.042  17.505  0.7238 -2.2254 -1.6877
  653MPD2    H1 9722   1.376   4.365  17.624 -3.4000 -0.0483 -0.0046
  653MPD2    H2 9723   1.396   4.666   0.166  0.6500 -0.5886  0.0886
  653MPD2    H3 9724   1.392   4.445   0.103  2.4876  0.5957 -1.2192
  653MPD2     N 9725   1.333   4.546  17.408  0.3108  0.5317 -0.2553
  653MPD2    H5 9726   1.348   4.622  17.342 -0.0110  0.5324 -0.3291
  653MPD2    N1 9727   1.400   0.144  17.724 -0.6205  0.0585  0.1981
  653MPD2    H7 9728   1.399   0.195  17.636  3.2174 -0.8586 -0.3407
  654TMC3    C1 9729   1.302   4.442  17.215 -0.8784 -0.6798  0.6425
  654TMC3    C2 9730   1.209   4.536  17.171 -0.4459  1.2121 -0.5042
  654TMC3    C3 9731   1.137   4.507  17.056  0.5422 -0.0822 -0.7030
  654TMC3    C4 9732   1.333   4.329  17.141  1.6384  0.7262  0.3094
  654TMC3    C5 9733   1.254   4.305  17.029 -0.5832 -0.3917  0.3298
  654TMC3    C6 9734   1.163   4.395  16.987 -0.0962  0.0332 -0.3515
  654TMC3     C 9735   1.289   4.424  17.356 -0.2286 -0.3679  0.4287
  654TMC3     O 9736   1.295   4.316  17.405  0.4510  0.1445 -0.1683
  654TMC3     H 9737   1.181   4.624  17.228 -4.0411  0.7758 -1.6356
  654TMC3    H1 9738   1.409   4.264  17.181  1.9948  0.4870 -0.7660
  654TMC3    H2 9739   1.108   4.383  16.894  0.1322 -2.2897 -0.1887
  654TMC3    C7 9740   1.287   4.201  16.937  0.0243  0.3541  0.3032
  654TMC3    C8 9741   0.997   4.528  17.078 -0.6424 -0.0436 -0.0320
  654TMC3    O1 9742   1.271   4.238  16.820  0.5205 -0.3289 -0.1425
  654TMC3    O2 9743   0.949   4.632  17.126  1.2574  0.1275 -0.1646
  655MPD2     C 9744   3.005   4.306  16.002 -0.4812  0.2124 -0.5575
  655MPD2    C1 9745   2.994   4.398  15.900  0.0104 -0.0565  0.2526
  655MPD2    C2 9746   3.022   4.362  15.770  0.2476  0.4984 -0.0699
  655MPD2    C3 9747   3.077   4.243  15.737 -0.0343 -0.0414  1.1308
  655MPD2    C4 9748   3.097   4.147  15.842 -0.3493  0.2468  0.0223
  655MPD2    C5 9749   3.062   4.184  15.971 -0.7625 -0.3230 -0.2911
  655MPD2     H 9750   3.021   4.448  15.703 -0.1526  0.6812  0.1723
  655MPD2    H1 9751   3.154   4.055  15.842  1.2540  1.2446 -0.9773
  655MPD2    H2 9752   2.964   4.311  16.102 -1.7519 -1.1145 -1.0197
  655MPD2    H3 9753   3.064   4.117  16.056 -0.7480 -2.1945 -1.7671
  655MPD2     N 9754   3.118   4.215  15.607 -0.1748 -0.1370  0.1587
  655MPD2    H5 9755   3.151   4.122  15.586  1.0996  0.3912 -0.1515
  655MPD2    N1 9756   2.939   4.529  15.922 -0.4045  0.7301 -0.5678
  655MPD2    H7 9757   2.919   4.583  15.838 -0.1802  0.1751 -0.9789
  656TMC3    C1 9758   2.865   4.720  16.045 -0.2132 -0.4182  0.1856
  656TMC3    C2 9759   2.818   0.031  16.167  0.0178  0.5380 -0.1872
  656TMC3    C3 9760   2.753   0.155  16.167 -0.1430 -0.7931 -0.1810
  656TMC3    C4 9761   2.861   0.063  15.931  0.3069  0.8548 -0.0207
  656TMC3    C5 9762   2.800   0.184  15.940 -1.1211 -0.2073 -0.2879
  656TMC3    C6 9763   2.742   0.234  16.053  0.5833  0.1029 -0.1567
  656TMC3     C 9764   2.925   4.592  16.047 -0.0471 -0.6711  0.1930
  656TMC3     O 9765   2.952   4.559  16.162 -0.2741  0.6100 -0.2924
  656TMC3     H 9766   2.806   4.710  16.257 -1.5342 -0.6076 -1.1457
  656TMC3    H1 9767   2.913   0.039  15.839  0.1042  0.8294 -0.1286
  656TMC3    H2 9768   2.706   0.336  16.056  0.6952  0.1630 -0.8961
  656TMC3    C7 9769   2.792   0.262  15.809  0.4259  0.3984 -0.1668
  656TMC3    C8 9770   2.641   0.166  16.257  0.3096 -0.3722  0.7592
  656TMC3    O1 9771   2.841   0.209  15.704 -0.4263  0.2082  0.1655
  656TMC3    O2 9772   2.604   0.063  16.308  0.1790 -0.0117 -0.0324
  657TMC3    C1 9773   1.774   3.574  15.208 -0.3546 -0.6453  0.7613
  657TMC3    C2 9774   1.842   3.607  15.315  0.0879 -0.3246 -0.3905
  657TMC3    C3 9775   1.822   3.727  15.373 -0.9555 -0.2513 -0.3077
  657TMC3    C4 9776   1.684   3.658  15.144  0.0354 -0.4186  0.0395
  657TMC3    C5 9777   1.685   3.794  15.198  0.2348 -0.0712 -0.6449
  657TMC3    C6 9778   1.749   3.824  15.315  0.4033 -0.2421 -0.3252
  657TMC3     C 9779   1.786   3.440  15.152 -0.3387 -0.1831 -0.6285
  657TMC3     O 9780   1.690   3.389  15.096 -0.4847 -0.0149  0.1360
  657TMC3     H 9781   1.894   3.531  15.371 -0.9346  0.0431  1.0542
  657TMC3    H1 9782   1.637   3.637  15.048 -0.1920  0.9257 -0.1395
  657TMC3    H2 9783   1.717   3.909  15.375 -0.5152 -0.3784 -0.6140
  657TMC3    C7 9784   1.636   3.911  15.122  0.3965  0.2910 -0.0230
  657TMC3    C8 9785   1.806   3.714  15.518  0.3352  0.2734 -0.2861
  657TMC3    O1 9786   1.670   4.020  15.160 -0.3055 -0.2080 -0.2539
  657TMC3    O2 9787   1.776   3.597  15.549  0.5436 -0.0752 -0.2084
  658MPD2     C 9788   3.441   4.534  14.890  0.3586  0.6962 -0.3751
  658MPD2    C1 9789   3.344   4.436  14.896 -0.2342 -0.3846 -0.0054
  658MPD2    C2 9790   3.285   4.413  14.773  0.3536  0.0485  0.1665
  658MPD2    C3 9791   3.313   4.481  14.660 -0.1196 -0.4801  0.8417
  658MPD2    C4 9792   3.411   4.581  14.662 -0.2735 -0.7016 -0.0229
  658MPD2    C5 9793   3.476   4.610  14.781  0.3390  0.5000 -0.5618
  658MPD2     H 9794   3.191   4.359  14.767 -0.5952  1.7226  0.0748
  658MPD2    H1 9795   3.440   4.635  14.572 -0.2727  0.6910  0.8217
  658MPD2    H2 9796   3.498   4.564  14.977  3.0964 -1.6684 -1.3443
  658MPD2    H3 9797   3.566   4.670  14.784  0.8303 -0.3414  1.6354
  658MPD2     N 9798   3.224   4.459  14.550  0.5673  0.1726  0.1057
  658MPD2    H5 9799   3.161   4.380  14.557 -0.6616  1.0078 -1.5354
  658MPD2    N1 9800   3.303   4.379  15.023 -0.5793  0.5463 -0.3561
  658MPD2    H7 9801   3.341   4.424  15.106  0.8974  0.3012 -0.8954
  659TMC3    C1 9802   3.225   4.211  15.161  0.3934 -0.0964  0.0464
  659TMC3    C2 9803   3.197   4.284  15.268  0.7352  0.5771  0.1616
  659TMC3    C3 9804   3.148   4.223  15.385  0.8031  0.4147  0.1468
  659TMC3    C4 9805   3.202   4.074  15.164  0.3555 -0.4050 -0.0931
  659TMC3    C5 9806   3.135   4.019  15.271  0.1913  0.1909  0.2532
  659TMC3    C6 9807   3.104   4.088  15.381  0.4904 -0.7088 -0.3237
  659TMC3     C 9808   3.223   4.272  15.030  0.2635  0.2879 -0.4434
  659TMC3     O 9809   3.179   4.203  14.942  0.2368 -0.1057  0.2090
  659TMC3     H 9810   3.218   4.390  15.269 -0.3698  0.8115 -2.2566
  659TMC3    H1 9811   3.233   4.011  15.082 -0.9345  2.8367 -3.0722
  659TMC3    H2 9812   3.041   4.053  15.462  0.5110  1.1261  0.4920
  659TMC3    C7 9813   3.048   3.912  15.221  0.6204  0.4151  0.7498
  659TMC3    C8 9814   3.117   4.300  15.500  0.5352  0.2584 -0.0064
  659TMC3    O1 9815   3.081   3.839  15.132  0.5742 -0.1654  0.0017
  659TMC3    O2 9816   3.138   4.420  15.489  0.0998 -0.2027  0.6371
  660MPD2     C 9817   0.667   3.453  12.960  0.0136  0.0551 -0.3850
  660MPD2    C1 9818   0.588   3.347  12.919 -0.0429  0.2118  0.4952
  660MPD2    C2 9819   0.522   3.267  13.012 -1.0828 -0.2711 -0.7150
  660MPD2    C3 9820   0.533   3.300  13.145  0.0220 -0.6938  0.0815
  660MPD2    C4 9821   0.624   3.401  13.184  0.1242  0.2207  0.6099
  660MPD2    C5 9822   0.681   3.479  13.093 -0.5390 -0.0921  0.0495
  660MPD2     H 9823   0.461   3.183  12.981 -1.2457 -0.4156 -0.0056
  660MPD2    H1 9824   0.651   3.426  13.286  0.6329  1.1227  0.2559
  660MPD2    H2 9825   0.708   3.525  12.890 -2.0893  1.6180 -0.0303
  660MPD2    H3 9826   0.733   3.571  13.118 -1.1717 -0.0230  1.0742
  660MPD2     N 9827   0.474   3.228  13.253  0.2046 -0.3613 -0.1560
  660MPD2    H5 9828   0.490   3.262  13.347 -0.9224 -4.1143  1.4126
  660MPD2    N1 9829   0.557   3.337  12.779 -0.3916  0.7153 -0.1275
  660MPD2    H7 9830   0.595   3.406  12.715  1.5105  0.1184  0.3720
  661TMC3    C1 9831   0.399   3.302  12.597 -0.8551 -0.5343 -0.2567
  661TMC3    C2 9832   0.483   3.326  12.494 -0.7945  0.1081 -0.1648
  661TMC3    C3 9833   0.436   3.340  12.366 -1.2507 -0.2964 -0.7639
  661TMC3    C4 9834   0.262   3.297  12.574  0.1152  0.5923 -0.0838
  661TMC3    C5 9835   0.218   3.297  12.447  0.4203  0.1383  0.4184
  661TMC3    C6 9836   0.301   3.324  12.343 -0.7232 -0.7585 -0.3950
  661TMC3     C 9837   0.434   3.288  12.740  0.1258 -0.1486  0.0552
  661TMC3     O 9838   0.345   3.223  12.797  0.1628  0.5653 -0.7210
  661TMC3     H 9839   0.592   3.321  12.498 -0.6187  1.2307 -3.3988
  661TMC3    H1 9840   0.193   3.282  12.656 -1.1504 -0.6574 -1.3928
  661TMC3    H2 9841   0.261   3.316  12.243 -1.6920 -0.0470 -0.0700
  661TMC3    C7 9842   0.078   3.266  12.431  0.3352 -0.1498 -0.4626
  661TMC3    C8 9843   0.535   3.328  12.264  0.7068  0.3455  0.2173
  661TMC3    O1 9844   4.734   3.310  12.518 -0.3685 -0.4707 -0.1141
  661TMC3    O2 9845   0.609   3.428  12.250 -0.3464 -0.5368  0.2932
  662MPD2     C 9846   1.234   3.070  16.979  0.3101 -0.8252 -0.8017
  662MPD2    C1 9847   1.199   3.025  17.101 -0.3141 -0.0011 -0.2923
  662MPD2    C2 9848   1.094   3.089  17.161  0.1789  0.1168  0.0744
  662MPD2    C3 9849   1.041   3.210  17.115  0.6786  0.5407 -0.0466
  662MPD2    C4 9850   1.082   3.259  16.995  0.0579 -0.0860  0.5287
  662MPD2    C5 9851   1.176   3.185  16.932  0.1370  0.1549  0.2641
  662MPD2     H 9852   1.057   3.044  17.253 -2.2841 -0.8187 -1.3833
  662MPD2    H1 9853   1.040   3.347  16.948 -1.9568 -0.2137  2.0828
  662MPD2    H2 9854   1.298   3.010  16.915  0.3952 -0.1535 -1.3382
  662MPD2    H3 9855   1.203   3.219  16.833  3.2523 -1.2712  0.6357
  662MPD2     N 9856   0.948   3.267  17.202 -0.8043  0.3209  0.4410
  662MPD2    H5 9857   0.916   3.216  17.284 -0.7984 -0.0625  0.2060
  662MPD2    N1 9858   1.248   2.907  17.161  0.4106 -0.0948  0.0349
  662MPD2    H7 9859   1.206   2.873  17.247 -1.1438  1.2287 -0.2045
  663TMC3    C1 9860   1.370   2.710  17.203 -0.1467 -0.2226 -0.5902
  663TMC3    C2 9861   1.289   2.696  17.309 -0.0080  0.5800 -0.1068
  663TMC3    C3 9862   1.256   2.576  17.363  0.7744 -0.1820 -0.7621
  663TMC3    C4 9863   1.414   2.600  17.140  0.0526 -0.1299  0.5000
  663TMC3    C5 9864   1.388   2.472  17.193  0.0108  0.9300  0.6853
  663TMC3    C6 9865   1.305   2.463  17.305  0.6684  1.0263  0.5457
  663TMC3     C 9866   1.357   2.834  17.123  0.3266  0.4253 -0.5326
  663TMC3     O 9867   1.431   2.844  17.027  0.3349  0.5406  0.6318
  663TMC3     H 9868   1.272   2.783  17.371  3.6477  1.9489 -0.9766
  663TMC3    H1 9869   1.466   2.598  17.044  1.1534 -1.0533  1.1196
  663TMC3    H2 9870   1.297   2.382  17.377 -0.4939  0.4861 -0.1926
  663TMC3    C7 9871   1.403   2.351  17.108 -0.2556 -0.3095  0.2350
  663TMC3    C8 9872   1.275   2.581  17.512 -0.1747 -0.0245  0.4935
  663TMC3    O1 9873   1.488   2.368  17.021 -0.9072 -0.2285 -0.0681
  663TMC3    O2 9874   1.389   2.586  17.553 -0.4326 -0.1970 -0.0457
  664MPD2     C 9875   4.622   1.693   0.176  0.5596  0.1928  0.3233
  664MPD2    C1 9876   4.509   1.640   0.120  0.4771  0.3858  0.1201
  664MPD2    C2 9877   4.387   1.691   0.161  0.1147 -0.3690  0.0163
  664MPD2    C3 9878   4.387   1.766   0.276  0.4480  0.6975  0.4648
  664MPD2    C4 9879   4.501   1.814   0.337  0.3705  0.4944  0.0054
  664MPD2    C5 9880   4.623   1.782   0.278  0.0686 -1.0318  0.7065
  664MPD2     H 9881   4.290   1.653   0.129  0.9089 -0.9665 -1.6576
  664MPD2    H1 9882   4.497   1.886   0.419  3.8891  1.2948 -0.5104
  664MPD2    H2 9883   4.720   1.661   0.140  0.9274  1.5777  0.1158
  664MPD2    H3 9884   4.713   1.822   0.324 -0.1980  1.2363 -0.7384
  664MPD2     N 9885   4.257   1.805   0.323 -0.2494  0.3466  0.3019
  664MPD2    H5 9886   4.179   1.746   0.292 -1.4945  1.8905  0.5073
  664MPD2    N1 9887   4.505   1.545   0.017 -0.2025  0.3228  0.2740
  664MPD2    H7 9888   4.415   1.513  17.728 -0.3798  0.7121  0.3707
  665TMC3    C1 9889   4.091   1.895   0.451  0.5841 -0.1370  0.8870
  665TMC3    C2 9890   4.048   1.765   0.476 -0.3127  0.3221  0.2834
  665TMC3    C3 9891   3.925   1.756   0.537  0.3896 -0.5335  0.1315
  665TMC3    C4 9892   4.014   2.001   0.503  0.3138  0.4748  0.7428
  665TMC3    C5 9893   3.891   1.978   0.557  0.2153 -0.3030  0.4596
  665TMC3    C6 9894   3.847   1.852   0.580  0.3771 -0.3990 -0.4192
  665TMC3     C 9895   4.228   1.910   0.409 -0.4467  0.1772  0.3732
  665TMC3     O 9896   4.302   1.997   0.444 -0.3452 -0.7099  0.3619
  665TMC3     H 9897   4.110   1.678   0.458 -1.4109 -0.3211 -0.3650
  665TMC3    H1 9898   4.042   2.105   0.495 -2.6744  1.2623  0.5533
  665TMC3    H2 9899   3.748   1.825   0.617  0.2574  0.3064 -0.2238
  665TMC3    C7 9900   3.835   2.084   0.638 -0.1840 -0.9842 -0.0377
  665TMC3    C8 9901   3.865   1.620   0.540  0.6799  0.0909 -0.5595
  665TMC3    O1 9902   3.843   2.200   0.604  0.5084 -0.5511 -0.0092
  665TMC3    O2 9903   3.788   1.599   0.635  0.0789 -0.2239 -0.6832
  666TMC3    C1 9904   3.647   0.298  10.013  0.1815  0.2344  0.3135
  666TMC3    C2 9905   3.734   0.215  10.081  0.0405 -0.1955  0.2518
  666TMC3    C3 9906   3.846   0.270  10.135 -0.2085 -0.6083  0.0092
  666TMC3    C4 9907   3.671   0.433  10.001 -0.6099  0.7588 -0.0826
  666TMC3    C5 9908   3.785   0.485  10.052 -0.4119  1.1317  0.5725
  666TMC3    C6 9909   3.879   0.406  10.113  0.4162  0.8097 -0.2054
  666TMC3     C 9910   3.509   0.252  10.005  0.3643 -0.3072  0.1464
  666TMC3     O 9911   3.431   0.272   9.916 -0.1977  0.7049 -0.2465
  666TMC3     H 9912   3.712   0.109  10.086 -1.1375  0.1173  1.8118
  666TMC3    H1 9913   3.597   0.503   9.965 -0.5060  0.8621 -0.0930
  666TMC3    H2 9914   3.952   0.455  10.177 -2.3844 -1.0834  4.4686
  666TMC3    C7 9915   3.780   0.624  10.082  0.2146 -0.1734 -0.0904
  666TMC3    C8 9916   3.911   0.194  10.242 -0.4389  0.5447 -0.7413
  666TMC3    O1 9917   3.671   0.665  10.115 -0.0861 -0.0154  0.0368
  666TMC3    O2 9918   3.838   0.113  10.302 -0.2024 -0.0947  0.3695
  667MPD2     C 9919   4.735   0.790  14.865  0.2238 -0.2608  0.7460
  667MPD2    C1 9920   4.626   0.834  14.936 -0.4617 -0.2179  0.2348
  667MPD2    C2 9921   4.508   0.757  14.919 -0.4443  0.1920 -0.1488
  667MPD2    C3 9922   4.499   0.646  14.840  0.5219 -0.3720  0.2862
  667MPD2    C4 9923   4.620   0.598  14.784  0.1737  0.2991  0.4020
  667MPD2    C5 9924   4.736   0.671  14.793 -0.1256  0.3982 -0.1071
  667MPD2     H 9925   4.421   0.791  14.975 -0.6320 -1.8218  0.8087
  667MPD2    H1 9926   4.629   0.514  14.716  0.0536  1.0664 -0.5740
  667MPD2    H2 9927   0.092   0.843  14.866  0.5035 -0.7466 -0.0246
  667MPD2    H3 9928   0.086   0.631  14.745 -1.2479  2.3098 -3.7625
  667MPD2     N 9929   4.375   0.575  14.821  0.1121  0.0680  0.0723
  667MPD2    H5 9930   4.393   0.487  14.774 -0.2954 -2.0386  3.8127
  667MPD2    N1 9931   4.623   0.955  15.006 -0.5124 -0.0927 -0.3101
  667MPD2    H7 9932   4.550   0.971  15.075 -1.7919 -2.2772 -1.1674
  668TMC3    C1 9933   4.718   1.152  15.098  0.8859 -0.3329 -0.0729
  668TMC3    C2 9934   0.083   1.244  15.094  0.1322  0.4825 -0.2549
  668TMC3    C3 9935   0.103   1.330  15.199 -0.3084  0.0407  0.4551
  668TMC3    C4 9936   4.635   1.145  15.204 -0.1400 -1.0133 -0.5601
  668TMC3    C5 9937   4.652   1.239  15.306 -0.2425  0.5588  0.1046
  668TMC3    C6 9938   0.017   1.326  15.306 -0.2968 -0.0643  0.8099
  668TMC3     C 9939   4.720   1.051  14.993  0.3667  0.3389 -0.3134
  668TMC3     O 9940   0.067   1.080  14.911  0.2949 -0.7228  0.0298
  668TMC3     H 9941   0.163   1.232  15.021  1.6006 -0.3952  1.4991
  668TMC3    H1 9942   4.557   1.069  15.205 -0.7610 -0.3788  0.5881
  668TMC3    H2 9943   0.025   1.395  15.389 -1.3790 -1.3901  2.0229
  668TMC3    C7 9944   4.573   1.208  15.425  0.9957  0.0806 -0.8427
  668TMC3    C8 9945   0.210   1.431  15.197 -0.8809  0.7680  0.1418
  668TMC3    O1 9946   4.618   1.251  15.528 -0.2754  0.5329 -0.2993
  668TMC3    O2 9947   0.222   1.497  15.297  0.2323  0.4434  0.1031
  669TMC3    C1 9948   2.843   1.147  14.515  0.0634  0.3183 -0.4743
  669TMC3    C2 9949   2.732   1.103  14.451 -0.2420 -0.3618  0.1900
  669TMC3    C3 9950   2.719   1.114  14.317 -0.5568 -0.5688 -0.4291
  669TMC3    C4 9951   2.941   1.220  14.444 -0.0389  1.1085  0.2628
  669TMC3    C5 9952   2.928   1.216  14.305 -0.2503  0.7664  0.7657
  669TMC3    C6 9953   2.816   1.162  14.243 -0.1751 -0.4442  0.6899
  669TMC3     C 9954   2.870   1.096  14.652 -0.0452  0.2944  0.9053
  669TMC3     O 9955   2.775   1.054  14.719 -0.5776 -0.1334 -0.4668
  669TMC3     H 9956   2.654   1.055  14.509  0.6215  1.2578  2.6886
  669TMC3    H1 9957   3.008   1.284  14.500  0.9302  1.3767 -1.2103
  669TMC3    H2 9958   2.813   1.163  14.135 -0.0888  2.5425  0.7248
  669TMC3    C7 9959   3.030   1.296  14.238  0.4802 -0.3761  0.0037
  669TMC3    C8 9960   2.594   1.107  14.254  0.2444 -0.4628  0.5776
  669TMC3    O1 9961   3.126   1.321  14.306 -0.3295 -0.5145 -0.2247
  669TMC3    O2 9962   2.592   1.080  14.135 -0.4850 -0.2277 -0.8173
  670MPD2     C 9963   0.761   3.482  13.761 -0.1427 -0.1492  0.0983
  670MPD2    C1 9964   0.869   3.424  13.826  0.1018 -0.1380  0.1522
  670MPD2    C2 9965   0.863   3.394  13.955  0.5677  0.1466 -0.4663
  670MPD2    C3 9966   0.750   3.418  14.030 -0.6825  0.0860 -0.0410
  670MPD2    C4 9967   0.638   3.465  13.964 -0.2900 -0.0177  0.3785
  670MPD2    C5 9968   0.641   3.496  13.827  0.2580 -0.5761 -0.3323
  670MPD2     H 9969   0.952   3.352  14.002 -0.2920 -1.7164 -0.4910
  670MPD2    H1 9970   0.542   3.479  14.012 -0.4499  2.2737 -0.5983
  670MPD2    H2 9971   0.766   3.511  13.657 -0.1411  0.7710  0.3581
  670MPD2    H3 9972   0.556   3.517  13.764 -0.6663 -2.7231  0.1784
  670MPD2     N 9973   0.748   3.390  14.170 -0.6315  0.3635  0.3360
  670MPD2    H5 9974   0.835   3.372  14.219  0.5020 -0.4551 -1.9802
  670MPD2    N1 9975   0.992   3.413  13.759  0.0956  0.4645 -0.3341
  670MPD2    H7 9976   1.073   3.373  13.807 -0.6928 -0.5021  0.1795
  671TMC3    C1 9977   0.625   3.302  14.370 -0.2740 -0.0999  0.4438
  671TMC3    C2 9978   0.738   3.261  14.430 -0.4254 -0.0347 -0.4822
  671TMC3    C3 9979   0.728   3.152  14.514  0.0344 -0.2814 -0.0763
  671TMC3    C4 9980   0.501   3.251  14.400  0.2687  0.6478 -0.2848
  671TMC3    C5 9981   0.493   3.151  14.490  0.1745 -0.7202  0.5699
  671TMC3    C6 9982   0.606   3.098  14.546  0.9717  0.5351 -0.4099
  671TMC3     C 9983   0.631   3.370  14.241  0.2438 -0.3540 -0.3301
  671TMC3     O 9984   0.515   3.376  14.197 -0.4595 -0.6669  0.1763
  671TMC3     H 9985   0.834   3.301  14.397  0.2259 -1.1335  0.0724
  671TMC3    H1 9986   0.405   3.289  14.366 -1.7039  0.0822  4.5818
  671TMC3    H2 9987   0.603   3.015  14.615  1.0813 -0.4979 -1.6378
  671TMC3    C7 9988   0.381   3.057  14.472 -0.0720  0.6475  0.0438
  671TMC3    C8 9989   0.852   3.084  14.549  0.6108  0.4532  0.3010
  671TMC3    O1 9990   0.297   3.098  14.395  0.3095  0.5070 -0.1321
  671TMC3    O2 9991   0.842   2.962  14.560  0.6042  0.0533 -0.3914
  672MPD2     C 9992   1.056   4.483   0.612 -0.2211  0.2279  0.1992
  672MPD2    C1 9993   1.133   4.399   0.691  0.5304 -0.0479  0.0151
  672MPD2    C2 9994   1.206   4.456   0.797 -0.6856 -0.0983 -0.4361
  672MPD2    C3 9995   1.191   4.591   0.822  0.0013  0.4044 -0.1782
  672MPD2    C4 9996   1.103   4.667   0.749  0.2076 -0.1037  0.4332
  672MPD2    C5 9997   1.030   4.615   0.652 -0.7800 -0.4604 -0.5070
  672MPD2     H 9998   1.272   4.390   0.852 -0.2768  0.3406 -0.4052
  672MPD2    H1 9999   1.076   0.031   0.777 -1.5013  0.1669 -2.2173
  672MPD2    H210000   0.993   4.436   0.537 -0.9711  0.0234  0.9590
  672MPD2    H310001   0.962   4.675   0.593  0.8034  1.4278 -0.4132
  672MPD2     N10002   1.265   4.656   0.918 -0.1641  0.1472 -0.6125
  672MPD2    H510003   1.255   0.020   0.914  2.3975  0.5234  2.4855
  672MPD2    N110004   1.142   4.258   0.676  0.1831  0.0264 -0.6692
  672MPD2    H710005   1.215   4.210   0.727 -2.0976 -1.5529  1.1077
  673TMC3    C110006   1.077   4.045   0.579  0.1800  0.0163  0.5496
  673TMC3    C210007   1.201   3.990   0.556  0.2379 -0.1206  0.4120
  673TMC3    C310008   1.206   3.877   0.475 -0.1977 -0.1389  0.0220
  673TMC3    C410009   0.965   3.992   0.525 -0.8300 -0.3713  0.1022
  673TMC3    C510010   0.973   3.899   0.428 -0.6225 -0.5719  0.6193
  673TMC3    C610011   1.096   3.838   0.411  0.4836 -0.2588 -0.2027
  673TMC3     C10012   1.054   4.188   0.600 -0.2947 -0.0889 -0.7456
  673TMC3     O10013   0.952   4.222   0.542  0.2276 -0.0228 -0.6543
  673TMC3     H10014   1.294   4.032   0.592 -0.1415  0.2519  0.9699
  673TMC3    H110015   0.871   4.032   0.562 -1.0416  0.3472 -1.1971
  673TMC3    H210016   1.098   3.745   0.355 -1.9122 -0.1206 -0.5469
  673TMC3    C710017   0.912   3.940   0.303  0.3966  0.1058 -1.0674
  673TMC3    C810018   1.337   3.811   0.443  0.0107 -0.2668 -0.1686
  673TMC3    O110019   0.916   3.868   0.202  0.2133  0.3136 -0.3128
  673TMC3    O210020   1.325   3.711   0.375 -0.4969  0.4428  0.1192
  674MPD2     C10021   0.970   4.575  17.513  0.3082  0.0682  0.2710
  674MPD2    C110022   0.919   4.451  17.480 -0.0976  0.9882 -0.2818
  674MPD2    C210023   0.786   4.445  17.421 -1.3276  0.5262  0.4068
  674MPD2    C310024   0.710   4.562  17.420  0.4653 -1.1616  0.0512
  674MPD2    C410025   0.766   4.682  17.455 -0.6820 -0.5242 -0.0240
  674MPD2    C510026   0.893   4.686  17.503 -0.8523 -0.0650  0.2698
  674MPD2     H10027   0.750   4.353  17.376  1.2219 -1.4861  2.3908
  674MPD2    H110028   0.715   0.039  17.446 -2.1732 -1.2433  0.8987
  674MPD2    H210029   1.073   4.572  17.549  0.7736  1.5869 -0.9479
  674MPD2    H310030   0.934   0.041  17.541 -1.0820  0.4193 -0.6545
  674MPD2     N10031   0.574   4.539  17.391 -0.3057 -0.1402  0.2465
  674MPD2    H510032   0.536   4.445  17.384 -3.0889  1.1262 -1.5541
  674MPD2    N110033   0.986   4.337  17.524 -0.0777  0.1875  0.4333
  674MPD2    H710034   1.045   4.336  17.606  0.1376 -2.5888  0.2514
  675TMC3    C110035   1.036   4.115  17.544 -0.5946 -0.3850 -0.4209
  675TMC3    C210036   0.989   3.984  17.525  0.4614  0.6104 -0.6506
  675TMC3    C310037   1.021   3.892  17.616 -0.2448 -0.2842 -0.9184
  675TMC3    C410038   1.114   4.151  17.650  0.0221  0.2518 -0.4332
  675TMC3    C510039   1.134   4.051  17.745  0.1855 -0.3872  0.8082
  675TMC3    C610040   1.092   3.921  17.728 -0.2849 -0.4797  0.3170
  675TMC3     C10041   0.962   4.215  17.469  0.5971  0.1261 -0.7539
  675TMC3     O10042   0.883   4.175  17.385 -0.6065 -0.7369 -0.5721
  675TMC3     H10043   0.914   3.961  17.451  0.1996 -0.2618 -0.1180
  675TMC3    H110044   1.161   4.248  17.665 -0.9104  0.5478  0.5925
  675TMC3    H210045   1.109   3.841   0.053  1.5731  1.0305  1.5309
  675TMC3    C710046   1.235   4.078   0.095 -0.2351 -0.0165 -0.4869
  675TMC3    C810047   0.959   3.762  17.604  0.2986 -0.4155 -0.3851
  675TMC3    O110048   1.288   3.977   0.133  0.1824 -0.3882  0.2237
  675TMC3    O210049   0.915   3.735  17.494 -0.1236 -0.5883  0.1693
  676MPD2     C10050   4.237   1.713  10.982  0.6431 -0.0372  0.3088
  676MPD2    C110051   4.179   1.625  11.074  0.0421  0.0460  0.0684
  676MPD2    C210052   4.123   1.504  11.020 -0.1755 -0.1027 -0.2360
  676MPD2    C310053   4.134   1.468  10.888  0.0137 -0.2094  0.0419
  676MPD2    C410054   4.193   1.561  10.811 -0.3913 -0.4253  0.1032
  676MPD2    C510055   4.236   1.681  10.851  0.4446  0.2173 -0.1865
  676MPD2     H10056   4.083   1.435  11.093 -1.3527  2.3853  1.4810
  676MPD2    H110057   4.192   1.558  10.702  3.5582 -2.7369  0.1314
  676MPD2    H210058   4.288   1.802  11.015  1.7384 -0.0595 -1.3360
  676MPD2    H310059   4.264   1.752  10.774  2.2647  2.1587  2.2366
  676MPD2     N10060   4.112   1.345  10.829  0.2566 -0.2671 -0.4301
  676MPD2    H510061   4.129   1.343  10.729  0.7635  0.3597 -0.3543
  676MPD2    N110062   4.186   1.639  11.215  0.0912 -0.4399  0.3355
  676MPD2    H710063   4.142   1.559  11.258 -2.7786  1.0824  0.2252
  677TMC3    C110064   4.218   1.712  11.426 -0.5519 -0.3509  0.1165
  677TMC3    C210065   4.221   1.584  11.465 -0.1605  0.0336 -0.1072
  677TMC3    C310066   4.166   1.542  11.587  0.0394  0.8671 -0.2812
  677TMC3    C410067   4.171   1.805  11.509 -0.4241 -0.5301 -0.2360
  677TMC3    C510068   4.125   1.764  11.630 -0.3235  0.0761  0.3683
  677TMC3    C610069   4.110   1.635  11.668  0.4759  0.0551 -0.4435
  677TMC3     C10070   4.240   1.742  11.286  0.5380  0.1356  0.2155
  677TMC3     O10071   4.308   1.840  11.252  0.7343 -0.5885 -0.4809
  677TMC3     H10072   4.257   1.505  11.400  1.8184  0.7090  0.1686
  677TMC3    H110073   4.157   1.905  11.469 -1.1105 -0.5393 -0.0122
  677TMC3    H210074   4.098   1.606  11.772 -1.5603 -0.6162 -0.8646
  677TMC3    C710075   4.127   1.868  11.732 -0.0809 -0.1797 -0.3438
  677TMC3    C810076   4.224   1.424  11.641 -0.6535  0.0286 -0.2608
  677TMC3    O110077   4.102   1.819  11.839  0.3527 -0.4376 -0.1860
  677TMC3    O210078   4.340   1.405  11.631  0.1710  0.3621  0.5296
  678MPD2     C10079   0.298   1.996   1.508 -0.5809 -0.7503 -0.7683
  678MPD2    C110080   0.226   2.053   1.403 -0.2477  0.5775 -0.1766
  678MPD2    C210081   0.135   2.155   1.428  0.2498 -0.1653 -0.1130
  678MPD2    C310082   0.116   2.195   1.557  0.1293  0.1682 -0.5503
  678MPD2    C410083   0.188   2.140   1.659  0.0330  0.5536 -0.5985
  678MPD2    C510084   0.276   2.042   1.640 -0.5884 -0.0200 -0.5387
  678MPD2     H10085   0.078   2.198   1.346 -0.2434  1.1199  0.9176
  678MPD2    H110086   0.175   2.181   1.758 -2.1258 -0.1855 -0.5745
  678MPD2    H210087   0.374   1.918   1.506 -2.0945 -2.1471 -3.4870
  678MPD2    H310088   0.330   2.012   1.729 -0.1835  0.4877 -0.6108
  678MPD2     N10089   0.028   2.301   1.576  0.0439  0.0132 -0.5807
  678MPD2    H510090   4.713   2.331   1.493 -2.1578 -0.3673  0.6673
  678MPD2    N110091   0.245   2.018   1.272 -0.6302  0.6030  0.0993
  678MPD2    H710092   0.195   2.080   1.209 -0.4753  1.6269  0.9879
  679TMC3    C110093   0.384   1.842   0.889  0.0298 -0.6982  0.3702
  679TMC3    C210094   0.364   1.821   1.020  0.1923  0.4701 -0.4333
  679TMC3    C310095   0.351   1.939   1.092 -0.2465 -0.0763  0.2657
  679TMC3    C410096   0.385   1.965   0.831  0.1737 -0.1025 -0.3479
  679TMC3    C510097   0.363   2.072   0.903 -0.1540  0.7634  0.0593
  679TMC3    C610098   0.348   2.065   1.038 -0.2008 -0.5349 -0.3538
  679TMC3     C10099   0.408   1.732   0.797 -0.2852 -0.4398 -0.4090
  679TMC3     O10100   0.457   1.760   0.693  0.1323 -0.5050 -0.6561
  679TMC3     H10101   0.378   1.721   1.061 -0.8749 -0.1853 -1.6760
  679TMC3    H110102   0.384   1.966   0.722  2.7709  0.8995 -0.3606
  679TMC3    H210103   0.336   2.157   1.094 -0.5580  0.4437 -2.0400
  679TMC3    C710104   0.367   2.202   0.839 -0.1911  1.0142 -0.4288
  679TMC3    C810105   0.340   1.931   1.233  0.6685  0.6479 -0.5107
  679TMC3    O110106   0.404   2.203   0.721  0.4392  0.1054  0.0507
  679TMC3    O210107   0.394   1.840   1.289  0.0197  0.9271 -0.5531
  680MPD2     C10108   0.595   0.473  13.667  0.0766 -0.2832  0.4630
  680MPD2    C110109   0.688   0.398  13.736 -0.8406  0.3464  0.5243
  680MPD2    C210110   0.707   0.419  13.867  0.2806 -0.3231 -0.1376
  680MPD2    C310111   0.631   0.503  13.934  0.3184 -0.0346  0.5780
  680MPD2    C410112   0.530   0.573  13.874 -0.3178  0.5297 -0.0383
  680MPD2    C510113   0.519   0.563  13.731  0.1829 -0.4531 -0.0782
  680MPD2     H10114   0.796   0.376  13.911 -0.6811 -0.1067  2.0651
  680MPD2    H110115   0.461   0.636  13.928 -1.2380  0.3834 -1.0144
  680MPD2    H210116   0.573   0.461  13.561  0.4222  0.9176  0.2533
  680MPD2    H310117   0.435   0.613  13.683  0.4891 -0.6982 -0.8734
  680MPD2     N10118   0.636   0.537  14.072 -0.3058 -0.2726 -0.2452
  680MPD2    H510119   0.561   0.598  14.102 -0.6620  0.2876 -2.3341
  680MPD2    N110120   0.769   0.293  13.670 -0.0606  0.6914  0.4187
  680MPD2    H710121   0.831   0.247  13.736 -1.3809  0.9304  1.8311
  681TMC3    C110122   0.802   0.108  13.552 -0.1551  0.4155 -0.3515
  681TMC3    C210123   0.711   0.011  13.590  0.3449  0.0942  0.2316
  681TMC3    C310124   0.756   4.653  13.676 -0.1439  0.9347 -0.4925
  681TMC3    C410125   0.930   0.110  13.589 -0.2680  0.0093 -0.5679
  681TMC3    C510126   0.973   0.005  13.667 -0.2893  0.8835 -0.2448
  681TMC3    C610127   0.881   4.649  13.715  0.0218 -0.5580  0.0659
  681TMC3     C10128   0.746   0.239  13.549  0.5019  0.0530 -0.1067
  681TMC3     O10129   0.669   0.278  13.460  0.5016  0.4143  1.0002
  681TMC3     H10130   0.605   0.023  13.570 -0.0803 -0.0431  2.3186
  681TMC3    H110131   0.992   0.193  13.556 -2.0011  1.7370  0.4715
  681TMC3    H210132   0.918   4.575  13.785  0.7530  0.9807  1.3164
  681TMC3    C710133   1.110   4.708  13.670 -0.4294  0.1779  0.8565
  681TMC3    C810134   0.672   4.632  13.788  0.3232  1.0976 -0.1519
  681TMC3    O110135   1.134   4.616  13.743 -0.4583  0.2250 -0.5291
  681TMC3    O210136   0.561   4.584  13.764  0.3708  0.2691 -0.0255
  682MPD2     C10137   3.391   1.687  10.807 -0.1664 -0.3780  0.5992
  682MPD2    C110138   3.323   1.566  10.781  0.3241  0.0245 -0.2586
  682MPD2    C210139   3.201   1.539  10.841  0.1320  0.0319  0.0553
  682MPD2    C310140   3.142   1.632  10.931  0.2132  0.5559  0.7117
  682MPD2    C410141   3.200   1.761  10.931  0.0719 -0.2159 -0.4646
  682MPD2    C510142   3.322   1.780  10.879  0.2696 -0.1171 -0.5683
  682MPD2     H10143   3.148   1.447  10.819 -1.0478  0.7102  0.0841
  682MPD2    H110144   3.163   1.841  10.994 -2.4164 -0.9672 -0.9661
  682MPD2    H210145   3.484   1.712  10.758 -0.6207 -1.4520 -0.8042
  682MPD2    H310146   3.361   1.879  10.893 -0.8358  0.4732 -1.6701
  682MPD2     N10147   3.023   1.612  11.002  0.1375 -0.0183  0.0493
  682MPD2    H510148   2.994   1.693  11.056  1.8589  0.0531  0.8919
  682MPD2    N110149   3.375   1.464  10.703  0.3701  0.8369  0.6586
  682MPD2    H710150   3.330   1.374  10.694  1.0866  0.3195  2.3661
  683TMC3    C110151   2.812   1.520  11.336  0.2923  0.0745  0.0128
  683TMC3    C210152   2.727   1.408  11.339 -0.2819 -0.2956 -0.5291
  683TMC3    C310153   2.710   1.347  11.219  0.1338 -0.1462  0.1620
  683TMC3    C410154   2.866   1.569  11.222 -0.5899 -0.0150 -0.4974
  683TMC3    C510155   2.847   1.501  11.100  0.1110 -0.6034 -0.6745
  683TMC3    C610156   2.771   1.393  11.103  0.0318 -0.0040 -0.2938
  683TMC3     C10157   2.845   1.585  11.462 -0.4105  0.4586 -0.2805
  683TMC3     O10158   2.934   1.671  11.458 -0.2267  0.8729 -0.1540
  683TMC3     H10159   2.671   1.372  11.424  0.2052  1.3876  0.5170
  683TMC3    H110160   2.951   1.636  11.227 -0.1210 -0.4762 -2.3130
  683TMC3    H210161   2.754   1.341  11.010 -0.5375 -0.1005 -0.1335
  683TMC3    C710162   2.963   1.492  11.019 -0.3505 -0.1212  0.2944
  683TMC3    C810163   2.645   1.215  11.207 -0.4655 -0.4831  0.1003
  683TMC3    O110164   3.002   1.381  10.985  0.6873  0.1568  0.1716
  683TMC3    O210165   2.613   1.178  11.099 -0.0826 -0.0718  0.2951
  684MPD2     C10166   1.195   1.365  16.039 -0.4191  0.6294  0.4907
  684MPD2    C110167   1.328   1.390  16.054 -0.1316  0.2424 -0.5490
  684MPD2    C210168   1.377   1.516  16.083  0.4990 -0.6782 -0.0201
  684MPD2    C310169   1.280   1.616  16.097 -0.0634 -0.2147 -0.2389
  684MPD2    C410170   1.146   1.593  16.086 -0.1945  0.1029 -0.4192
  684MPD2    C510171   1.107   1.464  16.057 -0.4194  0.2009  0.3674
  684MPD2     H10172   1.483   1.535  16.091  0.6599 -0.5043 -2.4844
  684MPD2    H110173   1.066   1.666  16.096  0.6800  0.9526  0.3026
  684MPD2    H210174   1.157   1.270  16.002  2.0995  0.7365 -2.3975
  684MPD2    H310175   1.000   1.450  16.053 -0.2640 -0.7002 -0.8337
  684MPD2     N10176   1.315   1.751  16.123  0.0052  0.0065 -0.2812
  684MPD2    H510177   1.245   1.824  16.119  0.2686  0.3028  0.6267
  684MPD2    N110178   1.430   1.304  16.009 -0.1121 -0.1108 -0.7671
  684MPD2    H710179   1.520   1.349  15.998 -0.4344 -0.4776 -4.9731
  685TMC3    C110180   1.521   1.144  15.870  0.6553  0.4883 -0.5885
  685TMC3    C210181   1.459   1.136  15.751 -0.2970  0.4447 -0.2521
  685TMC3    C310182   1.516   1.206  15.646 -0.4084  0.8353  0.7624
  685TMC3    C410183   1.627   1.228  15.894  0.2823 -0.6186  0.1367
  685TMC3    C510184   1.676   1.293  15.785  0.5601 -0.1153 -0.2291
  685TMC3    C610185   1.633   1.281  15.656  0.2908  0.5558 -0.9851
  685TMC3     C10186   1.411   1.177  15.963 -0.9609  0.0022 -0.3048
  685TMC3     O10187   1.312   1.103  15.967 -0.6103  0.2333 -0.6495
  685TMC3     H10188   1.371   1.074  15.736 -0.5991  0.7680  0.1734
  685TMC3    H110189   1.665   1.234  15.996 -0.9456 -0.0402  0.5648
  685TMC3    H210190   1.652   1.351  15.575  1.8002  1.4814  0.1823
  685TMC3    C710191   1.738   1.412  15.832  0.8875 -0.7371 -0.1896
  685TMC3    C810192   1.423   1.239  15.539  0.2803  0.2275  0.0358
  685TMC3    O110193   1.701   1.442  15.944  0.4646  0.0828 -0.3818
  685TMC3    O210194   1.456   1.225  15.420 -0.4576  0.2251  0.0783
  686MPD2     C10195   2.864   1.472  15.457  0.1821 -0.6372 -0.2267
  686MPD2    C110196   2.867   1.442  15.592 -0.0036  0.0821 -0.2568
  686MPD2    C210197   2.930   1.325  15.627 -0.6424  0.3666 -0.4391
  686MPD2    C310198   2.980   1.240  15.527 -0.1108 -0.3858 -0.2991
  686MPD2    C410199   2.996   1.278  15.398 -0.6670  0.1786 -0.4916
  686MPD2    C510200   2.928   1.392  15.357 -0.5034 -0.0055  0.2061
  686MPD2     H10201   2.950   1.302  15.731  0.5745  0.9124 -0.5634
  686MPD2    H110202   3.048   1.215  15.327  1.1516 -0.2403  1.2573
  686MPD2    H210203   2.801   1.548  15.412  0.4679 -0.1180  0.2398
  686MPD2    H310204   2.923   1.403  15.250 -0.6074  3.5999  0.5557
  686MPD2     N10205   3.019   1.106  15.552 -0.0517 -0.1322  0.2866
  686MPD2    H510206   3.080   1.073  15.478 -1.3743 -1.5633 -0.1538
  686MPD2    N110207   2.786   1.526  15.673  0.2903 -0.1807  0.4326
  686MPD2    H710208   2.739   1.605  15.629  0.0866 -1.5927 -1.8744
  687TMC3    C110209   2.897   1.052  15.764  0.1541  0.3529  0.2684
  687TMC3    C210210   2.770   1.090  15.726  0.7606  0.4600 -0.1635
  687TMC3    C310211   2.678   1.116  15.829 -0.4931 -0.6795  0.4562
  687TMC3    C410212   2.919   1.004  15.888  0.2710  0.1237 -0.4073
  687TMC3    C510213   2.824   1.024  15.987  0.3949 -0.1340 -0.5971
  687TMC3    C610214   2.700   1.069  15.953 -0.3190  0.7962 -0.1318
  687TMC3     C10215   3.005   1.033  15.671  0.4242  0.6007  0.3137
  687TMC3     O10216   3.074   0.936  15.696 -0.1972  0.1771 -0.4998
  687TMC3     H10217   2.746   1.109  15.622 -0.7858 -0.2587  0.0698
  687TMC3    H110218   3.022   0.984  15.917  0.4161  0.6848 -0.5378
  687TMC3    H210219   2.633   1.098  16.033  1.1966 -0.1870  1.5006
  687TMC3    C710220   2.878   1.095  16.105  0.8619  0.1374 -0.4811
  687TMC3    C810221   2.567   1.196  15.798  0.0737  0.0917  0.3865
  687TMC3    O110222   2.829   1.201  16.140 -0.2476  0.5079  0.5230
  687TMC3    O210223   2.483   1.199  15.887 -0.2302 -0.4139 -0.3268
  688MPD2     C10224   1.661   0.751  17.387 -0.6306  0.1938  0.0523
  688MPD2    C110225   1.669   0.615  17.420 -0.7649 -0.1220  0.1062
  688MPD2    C210226   1.754   0.545  17.336  0.3249 -0.6504  0.1058
  688MPD2    C310227   1.832   0.602  17.237 -0.3258  0.8166 -0.0282
  688MPD2    C410228   1.822   0.738  17.214  0.3595  0.0619 -0.4493
  688MPD2    C510229   1.735   0.814  17.288 -0.2512  0.1760 -0.0003
  688MPD2     H10230   1.753   0.437  17.348  0.4698 -0.8183 -1.3960
  688MPD2    H110231   1.879   0.793  17.139  0.9346 -1.2284 -0.9485
  688MPD2    H210232   1.601   0.821  17.445 -0.3822 -0.8901  1.6198
  688MPD2    H310233   1.726   0.922  17.274  1.2043  0.1539 -1.1343
  688MPD2     N10234   1.924   0.537  17.154  0.0602  0.4551 -0.4448
  688MPD2    H510235   1.988   0.596  17.103  0.2953  1.3280  0.8734
  688MPD2    N110236   1.605   0.550  17.529 -0.0384 -0.2574  0.3979
  688MPD2    H710237   1.632   0.453  17.542  0.6499 -0.0985  0.1702
  689TMC3    C110238   1.503   0.543  17.745 -0.0425 -0.5391 -0.4084
  689TMC3    C210239   1.465   0.623   0.095 -0.1080 -0.0393 -0.5201
  689TMC3    C310240   1.389   0.561   0.195  1.0600  0.0329  0.0141
  689TMC3    C410241   1.494   0.411  17.740  0.1449  0.1476 -0.3600
  689TMC3    C510242   1.420   0.355   0.091 -0.0931 -0.0497 -0.1120
  689TMC3    C610243   1.374   0.428   0.195  0.3258 -0.3903  0.9487
  689TMC3     C10244   1.524   0.613  17.617  0.8883  0.2967  0.2253
  689TMC3     O10245   1.481   0.724  17.599 -0.7467 -1.1034  0.1858
  689TMC3     H10246   1.463   0.731   0.082  1.6751  0.0920  0.2942
  689TMC3    H110247   1.537   0.360  17.654 -0.7319 -0.7290 -0.2909
  689TMC3    H210248   1.336   0.367   0.276  1.0429 -1.3779  0.5436
  689TMC3    C710249   1.406   0.206   0.103  0.3136  0.5078 -0.0171
  689TMC3    C810250   1.318   0.636   0.300 -0.4106 -0.3412 -0.1201
  689TMC3    O110251   1.388   0.159   0.213  0.5624 -0.0900  0.3615
  689TMC3    O210252   1.262   0.577   0.391  0.6554 -0.4278 -0.0366
  690MPD2     C10253   0.117   2.060  15.955  1.2846 -0.3375  0.1191
  690MPD2    C110254   0.031   2.162  15.942 -0.3070 -0.1292  0.7453
  690MPD2    C210255   0.060   2.258  15.843 -0.5503  0.0141  0.3381
  690MPD2    C310256   0.164   2.246  15.759  0.4117  0.0659  0.0252
  690MPD2    C410257   0.246   2.135  15.772  0.1716 -0.3003 -0.2526
  690MPD2    C510258   0.222   2.046  15.868  0.2108  1.0317 -0.0946
  690MPD2     H10259   4.725   2.338  15.831 -0.7997 -0.1223  0.9378
  690MPD2    H110260   0.327   2.115  15.703 -1.2774 -2.4394 -1.3213
  690MPD2    H210261   0.108   1.975  16.022  2.0476  1.4670  2.5114
  690MPD2    H310262   0.281   1.955  15.860  0.4871  1.2318 -0.3489
  690MPD2     N10263   0.187   2.338  15.657  0.5560 -0.6305 -0.5765
  690MPD2    H510264   0.243   2.308  15.578 -0.5367 -1.0189 -1.2040
  690MPD2    N110265   4.649   2.173  16.018  0.9585 -0.1617  0.6659
  690MPD2    H710266   4.588   2.246  15.984 -1.8468 -3.2139 -0.9341
  691TMC3    C110267   4.456   2.073  16.109 -0.0026 -0.7683  0.2863
  691TMC3    C210268   4.393   2.167  16.035  0.1867  0.3974  0.4874
  691TMC3    C310269   4.258   2.173  16.054 -0.1904 -0.6088  0.0147
  691TMC3    C410270   4.398   1.984  16.192 -0.1066 -0.2014  0.4202
  691TMC3    C510271   4.265   1.992  16.203 -1.0239  0.0660 -0.0471
  691TMC3    C610272   4.196   2.081  16.135 -0.3793  0.4480  0.1880
  691TMC3     C10273   4.601   2.081  16.110 -0.0341 -0.1812  0.1615
  691TMC3     O10274   4.671   2.007  16.178 -0.1242  1.2656  0.0604
  691TMC3     H10275   4.436   2.221  15.951  0.0432 -1.5776 -0.8693
  691TMC3    H110276   4.457   1.921  16.258  0.5606  0.7845  0.7572
  691TMC3    H210277   4.088   2.075  16.143 -0.5664  2.2402 -1.1025
  691TMC3    C710278   4.204   1.936  16.322  0.6289 -0.8698  0.0762
  691TMC3    C810279   4.178   2.233  15.945  1.0445  0.2611  0.1775
  691TMC3    O110280   4.286   1.896  16.406 -0.3018 -0.5553  0.5593
  691TMC3    O210281   4.235   2.270  15.841  0.1718  0.6912  0.1244
  692TMC3    C110282   0.904   3.101  15.925  0.0886  0.3812 -0.5836
  692TMC3    C210283   1.039   3.130  15.950  0.3960 -0.0112  1.2421
  692TMC3    C310284   1.144   3.039  15.959 -0.1010 -0.4013 -0.0493
  692TMC3    C410285   0.871   2.973  15.891  0.7852  0.2490  0.5831
  692TMC3    C510286   0.980   2.890  15.868  0.3306 -0.5847  0.1212
  692TMC3    C610287   1.111   2.915  15.898  0.2506  0.3949  0.0365
  692TMC3     C10288   0.801   3.196  15.969  0.1601 -0.1691  0.0102
  692TMC3     O10289   0.687   3.154  15.981 -0.6795 -0.6083  0.0761
  692TMC3     H10290   1.070   3.233  15.964 -2.4241  0.9207  0.5655
  692TMC3    H110291   0.768   2.943  15.879  0.3180  2.0166  0.2213
  692TMC3    H210292   1.196   2.849  15.886  1.5073  2.3307 -1.8912
  692TMC3    C710293   0.955   2.766  15.802 -0.2290  0.4100 -0.1862
  692TMC3    C810294   1.187   2.999  16.092 -0.4489  0.8357  0.1431
  692TMC3    O110295   0.854   2.758  15.732 -0.0473 -0.0548 -0.1661
  692TMC3    O210296   1.210   2.879  16.101 -0.0622 -0.5720 -0.1011
  693MPD2     C10297   0.541   0.771  10.495 -0.1575 -0.8494  0.7357
  693MPD2    C110298   0.488   0.648  10.518 -0.2657  0.6571  0.4773
  693MPD2    C210299   0.567   0.549  10.563  0.2868 -0.2474  0.1681
  693MPD2    C310300   0.701   0.575  10.601  0.6049 -0.6040 -0.3067
  693MPD2    C410301   0.755   0.700  10.570 -0.5242  0.5905  0.0634
  693MPD2    C510302   0.675   0.791  10.514  0.4766 -0.1390 -0.4974
  693MPD2     H10303   0.521   0.454  10.586 -1.1515  0.4599  0.1963
  693MPD2    H110304   0.861   0.723  10.575 -0.9225  1.9058  2.7621
  693MPD2    H210305   0.482   0.848  10.448  0.8459 -0.8395 -0.5059
  693MPD2    H310306   0.716   0.889  10.491  3.8805 -1.6668 -0.9090
  693MPD2     N10307   0.775   0.467  10.657 -0.3301  0.4641 -0.1180
  693MPD2    H510308   0.728   0.378  10.657  1.3354 -0.4286  1.1279
  693MPD2    N110309   0.350   0.625  10.481  0.0028  0.0285 -0.3813
  693MPD2    H710310   0.290   0.707  10.482 -1.7485 -1.1734 -2.8961
  694TMC3    C110311   0.139   0.510  10.468  0.4071 -0.0835 -0.5385
  694TMC3    C210312   0.074   0.392  10.427 -0.6166 -0.1193  0.4700
  694TMC3    C310313   4.700   0.355  10.503 -0.0171  0.7433  0.4840
  694TMC3    C410314   0.089   0.581  10.579 -0.3472  1.0123 -0.3346
  694TMC3    C510315   4.709   0.545  10.642 -1.0537  0.0895 -0.0393
  694TMC3    C610316   4.640   0.432  10.602 -0.0170 -0.5360 -0.5771
  694TMC3     C10317   0.286   0.503  10.464 -0.2656  0.1004  0.8201
  694TMC3     O10318   0.328   0.394  10.425  0.3002  0.3557 -0.3925
  694TMC3     H10319   0.115   0.328  10.349  2.6747  0.4835  1.6886
  694TMC3    H110320   0.153   0.662  10.611  0.4642  1.2469 -2.5131
  694TMC3    H210321   4.553   0.394  10.654  1.6503 -2.4136  0.8538
  694TMC3    C710322   4.694   0.587  10.775  0.4849 -0.4361  0.0545
  694TMC3    C810323   4.624   0.239  10.460  0.6843  0.2058 -0.8844
  694TMC3    O110324   0.005   0.693  10.805  0.3453 -0.3953  0.0490
  694TMC3    O210325   4.584   0.172  10.552  0.0878 -0.1896  0.6428
  695MPD2     C10326   1.089   2.630  13.735  0.2478 -0.4938 -0.6153
  695MPD2    C110327   1.036   2.617  13.861 -0.2023  0.4011 -0.3798
  695MPD2    C210328   0.901   2.642  13.865  0.3210  0.3922  0.0062
  695MPD2    C310329   0.821   2.684  13.769  0.4774  0.4854  0.2121
  695MPD2    C410330   0.877   2.709  13.650  0.5574  0.3054  0.0053
  695MPD2    C510331   1.006   2.674  13.633  0.3453  0.1315 -0.0467
  695MPD2     H10332   0.857   2.626  13.963  0.1297  0.5067 -0.0602
  695MPD2    H110333   0.809   2.735  13.569 -0.2114 -0.2263  0.4763
  695MPD2    H210334   1.195   2.613  13.720  0.4123 -1.6528  1.7501
  695MPD2    H310335   1.050   2.691  13.535 -0.7153  0.4930 -0.4597
  695MPD2     N10336   0.682   2.706  13.797  0.1601 -0.0597  0.5502
  695MPD2    H510337   0.658   2.693  13.895  0.5585 -0.6083  0.5686
  695MPD2    N110338   1.108   2.567  13.979  0.2349 -0.1288  0.6414
  695MPD2    H710339   1.052   2.560  14.063  0.1139 -0.0764  0.5657
  696TMC3    C110340   0.467   2.817  13.789  0.3036 -0.2362  0.3566
  696TMC3    C210341   0.396   2.749  13.882  0.3143 -0.2375  0.0164
  696TMC3    C310342   0.290   2.821  13.937 -0.2449  0.7328  0.6037
  696TMC3    C410343   0.434   2.945  13.747 -0.0565  0.5356 -0.0768
  696TMC3    C510344   0.324   3.008  13.805  0.3945  0.7241 -0.1197
  696TMC3    C610345   0.243   2.943  13.889 -0.3269 -0.0586  0.2382
  696TMC3     C10346   0.592   2.779  13.719 -0.8011  0.1378  0.4213
  696TMC3     O10347   0.610   2.828  13.611 -0.4346  0.2537 -0.0793
  696TMC3     H10348   0.426   2.652  13.921 -0.7981  0.2187  2.0100
  696TMC3    H110349   0.498   3.010  13.688  0.3947  2.2390  2.2918
  696TMC3    H210350   0.168   2.997  13.945 -0.5371 -0.9643  0.8371
  696TMC3    C710351   0.305   3.155  13.794 -0.1688 -0.1374 -0.2432
  696TMC3    C810352   0.227   2.780  14.060  0.1038  0.5537 -0.0959
  696TMC3    O110353   0.341   3.198  13.684 -1.1463 -0.0185 -0.2324
  696TMC3    O210354   0.146   2.860  14.112 -0.0588  0.3372 -0.2365
  697MPD2     C10355   0.316   0.088  15.862 -0.1559 -0.3775 -0.4391
  697MPD2    C110356   0.381   0.018  15.762  0.3694  0.1391  0.8617
  697MPD2    C210357   0.459   0.094  15.681 -0.0047  0.4430  0.0418
  697MPD2    C310358   0.468   0.232  15.695 -0.4654  0.4749 -0.1141
  697MPD2    C410359   0.397   0.303  15.792  0.4525 -0.3379  0.1736
  697MPD2    C510360   0.317   0.225  15.869 -0.0580 -0.9143 -0.4021
  697MPD2     H10361   0.514   0.053  15.597  2.2730  2.0986  0.7067
  697MPD2    H110362   0.385   0.411  15.794 -1.5613 -0.5522 -0.7294
  697MPD2    H210363   0.247   0.027  15.919 -1.0809 -0.8368 -2.0460
  697MPD2    H310364   0.245   0.273  15.934  0.6405  0.0582 -0.3558
  697MPD2     N10365   0.557   0.305  15.618  0.0674 -0.2950  0.3776
  697MPD2    H510366   0.601   0.260  15.538 -0.7977 -1.0677  0.3377
  697MPD2    N110367   0.386   4.612  15.744  0.4390 -0.2026  0.2927
  697MPD2    H710368   0.432   4.576  15.661 -0.7930 -0.1566 -0.4121
  698TMC3    C110369   0.712   0.478  15.556  0.1281 -0.5006 -0.3022
  698TMC3    C210370   0.820   0.532  15.628  0.1590 -0.0279 -0.2237
  698TMC3    C310371   0.940   0.527  15.559  0.6868 -0.2855  0.7414
  698TMC3    C410372   0.713   0.423  15.430  0.9346 -0.5861  0.2288
  698TMC3    C510373   0.831   0.439  15.360  0.4970  0.0431  0.1529
  698TMC3    C610374   0.944   0.484  15.427 -0.1418  0.5998 -0.3022
  698TMC3     C10375   0.614   0.427  15.654 -0.2581  0.5138 -0.4081
  698TMC3     O10376   0.600   0.482  15.763 -0.3097 -0.2744  0.9479
  698TMC3     H10377   0.820   0.552  15.735  1.2185  2.3765 -0.6730
  698TMC3    H110378   0.627   0.371  15.389 -0.1361  0.7121  0.8255
  698TMC3    H210379   1.038   0.471  15.374 -0.1449  0.0597 -0.1732
  698TMC3    C710380   0.834   0.387  15.224  0.2225 -0.0356  0.7982
  698TMC3    C810381   1.055   0.577  15.624 -0.0617 -0.8885  0.5981
  698TMC3    O110382   0.741   0.314  15.198  0.1974  0.6498  0.5614
  698TMC3    O210383   1.051   0.601  15.746 -0.5977 -0.2479 -0.4789
  699TMC3    C110384   0.377   3.041  13.360 -0.2857  0.1647 -0.6582
  699TMC3    C210385   0.394   2.910  13.357 -0.1166 -0.3695 -0.2400
  699TMC3    C310386   0.290   2.830  13.408  0.0943  0.0855 -0.1552
  699TMC3    C410387   0.263   3.102  13.413 -0.4927 -0.1975 -0.5739
  699TMC3    C510388   0.168   3.015  13.460 -0.2562  0.1663 -0.5386
  699TMC3    C610389   0.175   2.886  13.455 -0.7373 -0.0486 -0.3140
  699TMC3     C10390   0.408   3.105  13.234 -0.5388  0.1081 -0.4344
  699TMC3     O10391   0.403   3.038  13.134  0.4673 -0.4257 -0.7241
  699TMC3     H10392   0.486   2.867  13.319 -0.3119 -2.4922  1.6450
  699TMC3    H110393   0.243   3.209  13.412  0.8726  0.0660  0.7827
  699TMC3    H210394   0.097   2.832  13.506  0.6080 -0.9655  0.7639
  699TMC3    C710395   0.071   3.059  13.559  0.1723  0.2261  0.1941
  699TMC3    C810396   0.311   2.693  13.441 -0.1889 -0.0902 -0.1926
  699TMC3    O110397   0.034   2.975  13.640  0.3069 -0.4686 -0.1663
  699TMC3    O210398   0.213   2.630  13.486  0.9494 -0.2682  0.2398
  700TMC3    C110399   4.260   0.951  17.278  0.4906  0.2168  0.0432
  700TMC3    C210400   4.334   0.837  17.252 -0.0045  0.1853  0.4870
  700TMC3    C310401   4.374   0.764  17.360 -0.1721  0.5751  0.3608
  700TMC3    C410402   4.233   0.985  17.415 -0.0519 -0.5262 -0.7625
  700TMC3    C510403   4.273   0.906  17.513  0.1051  0.2274  1.1381
  700TMC3    C610404   4.340   0.790  17.495 -0.2642 -0.4497 -1.4512
  700TMC3     C10405   4.254   1.063  17.189 -0.0428 -0.5249 -0.1105
  700TMC3     O10406   4.187   1.156  17.229  0.2173  0.1080 -0.1274
  700TMC3     H10407   4.351   0.815  17.147  0.2205  3.5115 -0.1693
  700TMC3    H110408   4.188   1.082  17.434  1.2461  0.0283 -0.5270
  700TMC3    H210409   4.376   0.732  17.579  0.6449  1.2504 -0.6765
  700TMC3    C710410   4.282   0.969  17.645 -0.9461 -0.8953  0.0635
  700TMC3    C810411   4.478   0.663  17.332  0.2058  0.3911 -0.2454
  700TMC3    O110412   4.320   1.086  17.652 -0.3786  0.5112  0.2467
  700TMC3    O210413   4.464   0.600  17.229 -0.4458 -0.1177  0.2766
  701TMC3    C110414   4.461   3.999  15.393 -0.0844  0.3841  0.2443
  701TMC3    C210415   4.455   4.002  15.259  0.0743 -0.1167  0.6828
  701TMC3    C310416   4.494   4.120  15.201 -0.0068  0.0985  0.0694
  701TMC3    C410417   4.496   4.113  15.472 -0.1306 -0.4477 -0.4185
  701TMC3    C510418   4.539   4.226  15.409 -0.0637 -0.3885 -0.5743
  701TMC3    C610419   4.548   4.222  15.272  0.6979 -0.4808  0.5027
  701TMC3     C10420   4.398   3.879  15.457  0.7826  0.5578 -0.0165
  701TMC3     O10421   4.309   3.812  15.407 -0.9900 -0.7041 -0.4624
  701TMC3     H10422   4.421   3.911  15.212  1.0757 -1.6780  2.9845
  701TMC3    H110423   4.504   4.098  15.579 -1.8371  1.3323 -0.0393
  701TMC3    H210424   4.552   4.315  15.215  0.1325 -0.4416  0.5211
  701TMC3    C710425   4.540   4.354  15.463  1.0173 -0.8344  0.0267
  701TMC3    C810426   4.441   4.134  15.067  0.1521 -0.0749  0.1799
  701TMC3    O110427   4.609   4.438  15.401 -0.2215  0.5346 -0.1247
  701TMC3    O210428   4.485   4.228  15.002  0.0358 -0.4310  0.0608
  702MPD2     C10429   4.377   1.089  10.263 -0.0951  0.4806  0.2161
  702MPD2    C110430   4.280   1.182  10.312 -0.3315  0.8214 -0.0840
  702MPD2    C210431   4.293   1.314  10.279 -0.5056 -0.3892  0.0854
  702MPD2    C310432   4.400   1.362  10.205  0.0602 -0.0707 -0.6112
  702MPD2    C410433   4.496   1.271  10.167 -0.0944 -0.6378 -0.2116
  702MPD2    C510434   4.487   1.141  10.197  0.2159 -0.1830  0.2884
  702MPD2     H10435   4.230   1.388  10.326  0.8475  1.5892 -1.2210
  702MPD2    H110436   4.585   1.301  10.114 -1.5347  0.6512 -1.9205
  702MPD2    H210437   4.375   0.981  10.274 -2.1724  0.2617 -2.2924
  702MPD2    H310438   4.560   1.069  10.161 -0.2119  0.5546 -2.0218
  702MPD2     N10439   4.412   1.494  10.156 -0.0384  0.7467  0.2458
  702MPD2    H510440   4.501   1.522  10.116  0.2362 -1.1881 -0.5282
  702MPD2    N110441   4.181   1.141  10.401  0.2982 -0.6041  0.3507
  702MPD2    H710442   4.123   1.216  10.438 -0.3067 -1.8054  1.8300
  703TMC3    C110443   4.352   1.719  10.120 -0.7282  0.2062 -0.0682
  703TMC3    C210444   4.245   1.802  10.112 -0.3445  0.0643  0.1359
  703TMC3    C310445   4.274   1.937  10.127 -0.1126  0.0691  0.3868
  703TMC3    C410446   4.479   1.756  10.147  0.7492 -0.5682 -0.2545
  703TMC3    C510447   4.499   1.891  10.143 -0.9520 -0.2315  0.4133
  703TMC3    C610448   4.400   1.980  10.124  0.0604 -0.1115 -0.0372
  703TMC3     C10449   4.311   1.583  10.160 -0.0279  0.0561  0.3426
  703TMC3     O10450   4.192   1.566  10.187 -0.2727  0.7674 -0.1572
  703TMC3     H10451   4.145   1.762  10.104 -0.5347  0.5058  0.3292
  703TMC3    H110452   4.547   1.702  10.211  0.2092  0.0368  0.8249
  703TMC3    H210453   4.418   2.084  10.148  0.4042  0.1678 -1.4999
  703TMC3    C710454   4.622   1.952  10.196 -0.1856 -0.0067  0.5063
  703TMC3    C810455   4.168   2.008  10.197 -0.1649  0.9400  0.3232
  703TMC3    O110456   4.621   2.071  10.224 -0.4801 -0.5255  0.2719
  703TMC3    O210457   4.176   2.130  10.194 -0.7057  0.1905 -0.4821
  704TMC3    C110458   2.119   4.393  12.457  0.8357  0.1386 -0.5213
  704TMC3    C210459   2.184   4.346  12.344 -0.2010  0.2586 -0.6261
  704TMC3    C310460   2.231   4.212  12.346 -0.5788  0.0051  0.5315
  704TMC3    C410461   2.123   4.325  12.579  0.8335 -0.2921  0.0654
  704TMC3    C510462   2.174   4.196  12.579  0.3283 -0.4902 -0.1149
  704TMC3    C610463   2.226   4.140  12.465  0.3677 -0.8397  0.4310
  704TMC3     C10464   1.979   4.421  12.440 -1.1973 -0.2136  0.5630
  704TMC3     O10465   1.896   4.413  12.528 -0.7942 -0.3098  0.0358
  704TMC3     H10466   2.214   4.406  12.259  1.1413  0.3557 -0.0846
  704TMC3    H110467   2.074   4.360  12.669  0.7921 -0.3019  0.0463
  704TMC3    H210468   2.257   4.037  12.474 -2.0636 -1.4440  1.7608
  704TMC3    C710469   2.103   4.103  12.666  0.2019  0.0199 -0.9526
  704TMC3    C810470   2.139   4.143  12.256 -0.2561  0.3743  0.0937
  704TMC3    O110471   1.992   4.136  12.708  0.3536  0.4436 -0.8080
  704TMC3    O210472   2.067   4.051  12.305 -0.3605 -0.2433 -0.2746
  705MPD2     C10473   1.456   2.537  16.632 -0.2358  1.2324 -0.2108
  705MPD2    C110474   1.373   2.548  16.528  0.5715  0.0558 -0.4113
  705MPD2    C210475   1.238   2.557  16.555  0.0931  0.3975  0.2483
  705MPD2    C310476   1.198   2.591  16.685 -0.4364  0.1406  0.7380
  705MPD2    C410477   1.289   2.598  16.785  0.5833  0.4595  0.3299
  705MPD2    C510478   1.415   2.550  16.762 -0.1865  0.1463  0.2430
  705MPD2     H10479   1.174   2.555  16.468  0.9437  4.4468 -0.5079
  705MPD2    H110480   1.258   2.629  16.885  0.4553 -2.2031  1.0955
  705MPD2    H210481   1.554   2.492  16.620 -1.1676 -0.1517 -2.5559
  705MPD2    H310482   1.485   2.541  16.845  1.9935  2.5825 -1.3120
  705MPD2     N10483   1.065   2.629  16.708 -0.7853 -0.5974 -0.4661
  705MPD2    H510484   1.046   2.686  16.790  1.1782  0.4108 -0.7196
  705MPD2    N110485   1.421   2.543  16.393  0.1717  0.3036 -1.4065
  705MPD2    H710486   1.352   2.558  16.320 -1.6891 -0.7937  0.1230
  706TMC3    C110487   1.617   2.576  15.985  0.5829  0.0117 -0.2503
  706TMC3    C210488   1.564   2.705  15.965  0.2918 -0.1626 -0.3711
  706TMC3    C310489   1.519   2.776  16.075  0.4226  0.4046  0.4966
  706TMC3    C410490   1.627   2.527  16.113 -0.3373 -0.6073  0.6682
  706TMC3    C510491   1.566   2.598  16.214 -0.6580 -0.6645 -0.3910
  706TMC3    C610492   1.503   2.721  16.194 -0.6649  0.5645  0.2643
  706TMC3     C10493   1.707   2.524  15.884  0.0350 -0.0883  0.2202
  706TMC3     O10494   1.795   2.450  15.929  0.4094  1.0880 -0.0660
  706TMC3     H10495   1.556   2.758  15.870 -1.9642  0.6408  0.2753
  706TMC3    H110496   1.673   2.431  16.135  2.3331  0.1627 -1.5684
  706TMC3    H210497   1.466   2.775  16.280  0.0025 -2.0991  2.2242
  706TMC3    C710498   1.552   2.538  16.350  0.2379 -0.1437  0.0632
  706TMC3    C810499   1.521   2.922  16.071  0.2857  0.2576 -0.5411
  706TMC3    O110500   1.654   2.506  16.405 -0.2566 -0.0578  0.1443
  706TMC3    O210501   1.515   2.965  15.958 -0.2707  0.1673 -0.2956
  707TMC3    C110502   3.072   1.898   0.661 -0.1787 -0.4914  0.2040
  707TMC3    C210503   3.112   1.816   0.763 -0.0912  0.3669  0.1630
  707TMC3    C310504   3.047   1.825   0.881  0.1717  0.0799  0.5309
  707TMC3    C410505   2.956   1.967   0.659 -0.9551  0.0568 -0.1674
  707TMC3    C510506   2.881   1.961   0.777  0.4088 -0.0264  0.5279
  707TMC3    C610507   2.928   1.893   0.890 -0.3731 -0.3321  0.1876
  707TMC3     C10508   3.135   1.867   0.534  0.2229 -0.2627 -0.8203
  707TMC3     O10509   3.155   1.751   0.503  0.2875  0.5047 -0.2341
  707TMC3     H10510   3.199   1.752   0.751 -2.3113 -2.7203  0.4518
  707TMC3    H110511   2.920   2.026   0.575 -1.0121  0.4929  0.1599
  707TMC3    H210512   2.865   1.875   0.976 -0.1949  1.4789  0.7023
  707TMC3    C710513   2.755   2.036   0.790 -0.7123 -0.3668 -0.3862
  707TMC3    C810514   3.089   1.747   0.993  0.0670  0.6459 -0.3507
  707TMC3    O110515   2.654   1.976   0.826  0.0363 -0.1370  0.3271
  707TMC3    O210516   3.069   1.806   1.100  0.5852 -0.1929 -0.2197
  708MPD2     C10517   4.350   0.860  14.401  0.3873  0.2357 -0.0278
  708MPD2    C110518   4.257   0.955  14.415 -0.0975 -0.1697 -0.2586
  708MPD2    C210519   4.130   0.903  14.438  0.1413 -0.3373 -0.2499
  708MPD2    C310520   4.105   0.766  14.447  0.2662 -0.1161 -0.1328
  708MPD2    C410521   4.209   0.675  14.444 -1.1078  0.6298 -0.4577
  708MPD2    C510522   4.335   0.728  14.439 -0.4803 -0.1830 -0.0214
  708MPD2     H10523   4.050   0.976  14.434 -0.0408 -0.6728 -2.7338
  708MPD2    H110524   4.190   0.571  14.470 -1.2593  0.1425 -2.5089
  708MPD2    H210525   4.454   0.887  14.389  0.2206  1.1673  0.6293
  708MPD2    H310526   4.421   0.664  14.431  0.2015  0.7212  0.0591
  708MPD2     N10527   3.977   0.713  14.444  0.2058  0.3352 -0.4569
  708MPD2    H510528   3.973   0.619  14.406  0.6175 -0.1781  0.7913
  708MPD2    N110529   4.280   1.085  14.372 -0.0282  1.1103 -0.2930
  708MPD2    H710530   4.372   1.112  14.340 -0.3021  1.2610 -0.9571
  709TMC3    C110531   4.235   1.313  14.328 -0.3552  0.5271  0.2684
  709TMC3    C210532   4.291   1.325  14.206  0.6837  0.0904  0.7908
  709TMC3    C310533   4.238   1.435  14.131 -0.0864 -0.1811  0.5921
  709TMC3    C410534   4.153   1.404  14.379 -0.1409 -0.2612  0.2863
  709TMC3    C510535   4.112   1.512  14.315 -0.5114 -0.0963  0.0804
  709TMC3    C610536   4.146   1.525  14.183 -0.3511  1.3889 -0.7491
  709TMC3     C10537   4.193   1.186  14.382 -0.3612  0.4391 -0.1587
  709TMC3     O10538   4.080   1.184  14.434  0.5091 -0.2430  0.1661
  709TMC3     H10539   4.350   1.244  14.164  0.8066  0.3178  0.5273
  709TMC3    H110540   4.120   1.388  14.481  0.9056 -1.5722  0.4118
  709TMC3    H210541   4.093   1.595  14.119 -0.6406  0.8380 -1.1138
  709TMC3    C710542   3.973   1.533  14.350 -0.3214  0.0902 -0.0118
  709TMC3    C810543   4.256   1.443  13.988 -0.4765  0.4869 -0.3484
  709TMC3    O110544   3.944   1.557  14.469  0.7201 -0.5268 -0.0389
  709TMC3    O210545   4.290   1.551  13.939 -0.4006 -0.0686  0.0411
  710TMC3    C110546   0.461   2.903   0.256 -0.8858  0.6203  0.7079
  710TMC3    C210547   0.568   2.872   0.179 -0.1059  0.0100 -0.8724
  710TMC3    C310548   0.646   2.765   0.205  0.8673 -0.6363  0.3182
  710TMC3    C410549   0.432   2.825   0.366  0.0012 -0.0581 -1.2042
  710TMC3    C510550   0.504   2.709   0.384 -0.3264  0.2183 -0.6912
  710TMC3    C610551   0.605   2.670   0.300 -0.3989 -0.1397  0.0819
  710TMC3     C10552   0.388   3.019   0.218  0.3986  0.6687  0.3790
  710TMC3     O10553   0.386   3.037   0.099 -0.1912  0.0051 -0.4512
  710TMC3     H10554   0.590   2.944   0.102 -0.6743  0.5721 -0.5006
  710TMC3    H110555   0.331   2.838   0.403  0.2137 -1.8576  0.0022
  710TMC3    H210556   0.659   2.577   0.313 -1.4208 -0.5325  1.4820
  710TMC3    C710557   0.464   2.620   0.489  0.0973  0.6913 -0.4199
  710TMC3    C810558   0.764   2.746   0.128 -0.5948  0.4718 -0.1924
  710TMC3    O110559   0.520   2.511   0.488  0.6003  0.4190  0.0017
  710TMC3    O210560   0.776   2.808   0.026  0.4300  0.5415  0.2065
  711TMC3    C110561   0.225   3.944  15.279 -0.0883 -0.6855 -0.2919
  711TMC3    C210562   0.293   3.977  15.391 -0.1773  0.3133  0.8353
  711TMC3    C310563   0.425   3.953  15.402 -0.9312  0.1348  0.3295
  711TMC3    C410564   0.295   3.881  15.176  0.1891  0.2298  0.7153
  711TMC3    C510565   0.424   3.862  15.185  0.2028  0.2659  0.2537
  711TMC3    C610566   0.497   3.910  15.291 -0.8556 -0.6570 -0.5282
  711TMC3     C10567   0.089   3.893  15.305 -0.6419  0.6654  0.2624
  711TMC3     O10568   0.008   3.890  15.213 -0.4643 -0.5100 -0.3910
  711TMC3     H10569   0.245   4.023  15.476 -1.9243  0.9184 -0.4953
  711TMC3    H110570   0.231   3.855  15.092 -0.4186  2.1645  0.5855
  711TMC3    H210571   0.604   3.895  15.299 -0.4289  1.2294 -2.6879
  711TMC3    C710572   0.463   3.724  15.182 -0.9554 -0.2223 -0.6396
  711TMC3    C810573   0.444   3.875  15.521  1.1558  0.0163  0.4092
  711TMC3    O110574   0.583   3.699  15.196 -0.5398 -0.0976  0.0422
  711TMC3    O210575   0.339   3.836  15.574 -0.0540 -0.0239 -0.3606
  712MPD2     C10576   1.971   4.505  14.175  0.8359 -0.2231  0.5996
  712MPD2    C110577   1.855   4.475  14.104  0.3382 -0.0278 -0.0035
  712MPD2    C210578   1.766   4.577  14.077  0.2189 -0.1933  0.4094
  712MPD2    C310579   1.788   4.704  14.128  0.1895  0.6041  0.6749
  712MPD2    C410580   1.899   4.729  14.199  0.0565  0.4457  0.5128
  712MPD2    C510581   1.983   4.628  14.229  0.1492  0.7278 -0.7344
  712MPD2     H10582   1.689   4.558  14.003 -0.9432  0.2755  1.4991
  712MPD2    H110583   1.917   0.091  14.240  0.0347  0.1729  1.1647
  712MPD2    H210584   2.041   4.431  14.212 -0.9859 -1.3653  1.7784
  712MPD2    H310585   2.072   4.653  14.287  0.8121 -0.4417 -1.2467
  712MPD2     N10586   1.715   0.073  14.084 -0.1426  0.1692 -0.2614
  712MPD2    H510587   1.757   0.165  14.080  0.8219 -0.2570  0.1935
  712MPD2    N110588   1.843   4.349  14.045 -0.1232 -0.0833 -0.9124
  712MPD2    H710589   1.751   4.339  14.002 -0.5482  1.1157 -0.3121
  713TMC3    C110590   1.570   0.176  13.928 -0.6052 -0.5997  0.5088
  713TMC3    C210591   1.678   0.206  13.852  0.5487 -0.2181 -0.7661
  713TMC3    C310592   1.647   0.280  13.740 -0.2528 -0.2871  0.2850
  713TMC3    C410593   1.439   0.204  13.886  0.1172  0.4059 -0.1357
  713TMC3    C510594   1.419   0.281  13.774 -0.4335 -0.3409  0.5337
  713TMC3    C610595   1.519   0.317  13.696  0.3934 -0.3901  0.2132
  713TMC3     C10596   1.592   0.066  14.020  0.1873 -0.1752 -0.2822
  713TMC3     O10597   1.514   4.705  14.029 -0.0658 -0.2987  0.3232
  713TMC3     H10598   1.772   0.152  13.862  0.3832 -0.5202 -0.8287
  713TMC3    H110599   1.357   0.172  13.948  0.9598 -0.3899  0.5753
  713TMC3    H210600   1.515   0.393  13.619 -0.3898  0.8379  1.4661
  713TMC3    C710601   1.289   0.334  13.755  0.1254  0.1681  0.4014
  713TMC3    C810602   1.757   0.315  13.655  0.1950 -0.1850  0.6770
  713TMC3    O110603   1.210   0.333  13.846  0.2984 -0.3600 -0.0306
  713TMC3    O210604   1.742   0.327  13.537 -0.1995  0.6390  0.3404
  714MPD2     C10605   3.783   3.999   1.862  0.2843  0.0153 -0.2165
  714MPD2    C110606   3.785   3.931   1.743 -0.4083 -0.4713 -0.4656
  714MPD2    C210607   3.670   3.917   1.659  0.0785  0.1277 -0.2745
  714MPD2    C310608   3.550   3.972   1.699 -0.2382 -0.2227 -0.0821
  714MPD2    C410609   3.551   4.053   1.815  0.4385 -0.2209 -0.3783
  714MPD2    C510610   3.661   4.048   1.895 -0.5279  0.0605  0.4513
  714MPD2     H10611   3.686   3.858   1.569 -0.6446  0.5418 -0.6707
  714MPD2    H110612   3.469   4.113   1.852  1.8998  1.6994 -0.2837
  714MPD2    H210613   3.863   4.018   1.932 -0.4116 -0.1385  0.6163
  714MPD2    H310614   3.642   4.094   1.991 -1.2464  0.6143  0.0487
  714MPD2     N10615   3.441   3.942   1.621 -0.3510 -0.1919  0.2449
  714MPD2    H510616   3.449   3.900   1.529  1.2920  0.5709  0.0395
  714MPD2    N110617   3.917   3.888   1.712 -0.5026  0.2964  0.0504
  714MPD2    H710618   3.989   3.912   1.779 -2.5848  2.8588  1.3314
  715TMC3    C110619   4.103   3.785   1.601  0.2377 -0.2773 -0.6255
  715TMC3    C210620   4.155   3.661   1.567 -0.3229  0.5589  0.5586
  715TMC3    C310621   4.279   3.622   1.605  0.0884  0.3425 -0.4371
  715TMC3    C410622   4.176   3.867   1.674 -0.2114  0.1934 -0.6150
  715TMC3    C510623   4.297   3.829   1.716  0.4644  0.0419 -0.2337
  715TMC3    C610624   4.349   3.703   1.681  0.0282 -0.6019  0.0435
  715TMC3     C10625   3.955   3.798   1.612  0.0904 -0.2731 -0.3840
  715TMC3     O10626   3.882   3.710   1.565  0.2979  0.6629  0.6248
  715TMC3     H10627   4.097   3.595   1.503  0.6553  2.9576 -2.8421
  715TMC3    H110628   4.161   3.974   1.691 -0.3023  0.0358  0.2940
  715TMC3    H210629   4.451   3.680   1.712  0.5353  0.5961 -0.7171
  715TMC3    C710630   4.400   3.927   1.719 -0.6825 -0.0534  0.3913
  715TMC3    C810631   4.320   3.490   1.592  0.1827  0.6050  0.0645
  715TMC3    O110632   4.505   3.917   1.652 -0.0198 -0.5802 -0.2782
  715TMC3    O210633   4.285   3.433   1.488  0.0965 -0.1620 -0.0466
  716MPD2     C10634   4.044   1.149   9.764  0.5629 -0.3245 -0.6938
  716MPD2    C110635   3.945   1.091   9.684 -0.1762  0.7283 -0.3845
  716MPD2    C210636   3.971   0.970   9.627 -0.5566  0.1721  0.6557
  716MPD2    C310637   4.098   0.918   9.627  0.2259  0.6702 -0.0108
  716MPD2    C410638   4.200   0.975   9.699 -0.0719  0.2841 -0.0028
  716MPD2    C510639   4.171   1.090   9.768 -0.1281 -0.2232 -0.1782
  716MPD2     H10640   3.891   0.918   9.576 -0.4926  1.2248 -0.5075
  716MPD2    H110641   4.305   0.946   9.702  0.0843  0.8652  0.1003
  716MPD2    H210642   4.035   1.240   9.823  2.4983 -1.2134  0.9861
  716MPD2    H310643   4.251   1.141   9.820 -1.6095  0.2635  1.6181
  716MPD2     N10644   4.117   0.798   9.562 -0.2263  0.1615  0.1578
  716MPD2    H510645   4.034   0.763   9.515 -0.4078  0.6502  0.1179
  716MPD2    N110646   3.818   1.160   9.660  0.5258 -0.2939 -0.7954
  716MPD2    H710647   3.811   1.251   9.703 -1.3527 -0.6851 -0.2276
  717TMC3    C110648   4.223   0.599   9.480  0.3159 -0.5055 -0.7698
  717TMC3    C210649   4.113   0.587   9.405 -0.0735 -0.1734  0.0987
  717TMC3    C310650   4.069   0.458   9.373  0.5077  0.1371 -0.4226
  717TMC3    C410651   4.283   0.495   9.534 -0.4738  0.1262  0.4660
  717TMC3    C510652   4.251   0.370   9.493  0.5130  1.1615 -0.2547
  717TMC3    C610653   4.135   0.353   9.421  0.1252  0.5327 -0.3889
  717TMC3     C10654   4.230   0.718   9.568  0.2218  0.5809 -0.0667
  717TMC3     O10655   4.339   0.729   9.625 -0.0625  0.2290 -0.0618
  717TMC3     H10656   4.084   0.670   9.342  0.1190 -0.4390 -0.3377
  717TMC3    H110657   4.371   0.507   9.597  1.7811 -1.0930 -2.4697
  717TMC3    H210658   4.091   0.256   9.397  1.9050  0.2494 -2.4630
  717TMC3    C710659   4.328   0.263   9.542  0.4428  0.5130  0.2721
  717TMC3    C810660   3.942   0.443   9.321 -0.1433  0.2719  1.0184
  717TMC3    O110661   4.384   0.282   9.650 -0.1412 -0.2137 -0.3605
  717TMC3    O210662   3.872   0.544   9.324 -0.1730 -0.0620 -0.4992
  718MPD2     C10663   3.391   0.092  13.152 -0.4183  0.0482 -0.2499
  718MPD2    C110664   3.293   0.002  13.114  0.2660  0.2093  0.1571
  718MPD2    C210665   3.293   4.617  13.174 -0.5846 -0.3210  0.2984
  718MPD2    C310666   3.386   4.575  13.264  0.5035 -0.2403  0.2258
  718MPD2    C410667   3.479   4.667  13.310  0.3672 -0.2624 -0.1551
  718MPD2    C510668   3.479   0.053  13.250  0.9628  0.3757 -0.5346
  718MPD2     H10669   3.218   4.548  13.138 -3.0173  2.2692  0.3992
  718MPD2    H110670   3.550   4.646  13.390  0.5734  0.5962 -0.1158
  718MPD2    H210671   3.409   0.182  13.095 -0.1940 -0.9726 -1.8066
  718MPD2    H310672   3.558   0.122  13.279  1.4277 -0.2901 -0.2030
  718MPD2     N10673   3.381   4.440  13.297  0.5404 -0.9146  0.5878
  718MPD2    H510674   3.290   4.397  13.280  0.9890 -0.7092 -2.3418
  718MPD2    N110675   3.199   0.034  13.013 -0.0479 -0.1646 -0.0861
  718MPD2    H710676   3.120   4.708  13.008 -0.4671  0.5148 -1.9190
  719TMC3    C110677   3.108   0.110  12.812 -0.2217 -0.2524 -0.0377
  719TMC3    C210678   3.040   4.732  12.831 -0.2051 -0.2741 -0.1518
  719TMC3    C310679   3.057   4.636  12.730  0.1592 -0.2328  0.6837
  719TMC3    C410680   3.176   0.148  12.698  0.5872  0.0206 -0.4372
  719TMC3    C510681   3.172   0.054  12.596  0.5243  0.0161  0.2558
  719TMC3    C610682   3.128   4.668  12.612 -0.1515  0.6511  0.2680
  719TMC3     C10683   3.199   0.142  12.924  0.6645  0.0129 -0.4303
  719TMC3     O10684   3.280   0.233  12.910 -0.1648 -0.4407  0.4752
  719TMC3     H10685   2.979   4.718  12.920  0.2153  0.8045  0.3038
  719TMC3    H110686   3.223   0.246  12.688  2.1229 -0.9033 -2.3782
  719TMC3    H210687   3.144   4.600  12.529  1.5839  1.7031 -0.2639
  719TMC3    C710688   3.268   0.073  12.490  0.4953  0.0584 -0.7041
  719TMC3    C810689   3.093   4.512  12.793 -0.4641  0.5945 -0.5953
  719TMC3    O110690   3.319   4.710  12.448 -0.7788 -0.0098 -0.7161
  719TMC3    O210691   3.103   4.511  12.917  0.0630  0.1542 -0.4969
  720MPD2     C10692   1.627   1.873  13.889  0.3684  0.1494  0.1818
  720MPD2    C110693   1.696   1.832  13.774 -0.7032 -0.4148 -0.0292
  720MPD2    C210694   1.814   1.761  13.786 -0.2553  0.1786 -1.1503
  720MPD2    C310695   1.870   1.739  13.908 -0.4604  0.0310 -0.9432
  720MPD2    C410696   1.803   1.792  14.018  0.0318  0.0656  0.5836
  720MPD2    C510697   1.687   1.859  14.004 -0.3965 -0.4886  0.1428
  720MPD2     H10698   1.863   1.730  13.694  1.6934 -2.7440  0.9004
  720MPD2    H110699   1.837   1.790  14.121 -0.2496 -1.1587  0.6563
  720MPD2    H210700   1.533   1.928  13.883  0.8531  1.2530  2.6487
  720MPD2    H310701   1.632   1.906  14.084  1.5466  2.2074 -0.0814
  720MPD2     N10702   1.989   1.671  13.915  0.8246 -0.9477  0.1656
  720MPD2    H510703   2.029   1.628  13.832  0.8519  2.5160 -1.6409
  720MPD2    N110704   1.658   1.863  13.639 -0.1953  0.5279 -0.2374
  720MPD2    H710705   1.712   1.814  13.568  0.2351  0.9287 -0.1806
  721TMC3    C110706   2.197   1.621  14.005  0.4418  0.3485  0.5916
  721TMC3    C210707   2.271   1.577  14.113  0.5630 -0.5788  0.2504
  721TMC3    C310708   2.384   1.506  14.077 -0.0297  0.3898  0.0555
  721TMC3    C410709   2.235   1.615  13.876  0.4652  0.1769 -0.5212
  721TMC3    C510710   2.345   1.544  13.853  0.6332  0.3619  0.0233
  721TMC3    C610711   2.416   1.478  13.946  0.3331 -0.1773 -0.5948
  721TMC3     C10712   2.070   1.676  14.030  0.7630 -0.4635  0.1943
  721TMC3     O10713   2.042   1.709  14.146 -0.1018  0.3363 -0.0985
  721TMC3     H10714   2.225   1.601  14.209  2.2884 -0.9329  1.1561
  721TMC3    H110715   2.175   1.649  13.792  0.4547 -0.7894 -0.9023
  721TMC3    H210716   2.510   1.431  13.917  0.4171  0.5935 -1.5996
  721TMC3    C710717   2.416   1.571  13.723 -0.8704  0.0311 -0.3272
  721TMC3    C810718   2.506   1.500  14.159 -0.3637 -0.0866  0.4103
  721TMC3    O110719   2.488   1.484  13.678  0.1267  0.2056 -0.0261
  721TMC3    O210720   2.610   1.462  14.107 -0.0388  0.3970 -0.1801
  722MPD2     C10721   0.586   4.722  12.895 -0.3037 -0.4518  0.0438
  722MPD2    C110722   0.594   0.089  12.982  0.3765  0.2246  0.2059
  722MPD2    C210723   0.508   0.089  13.095  0.0656 -0.5143  0.6620
  722MPD2    C310724   0.403   4.733  13.109  0.3140 -0.4004 -0.6645
  722MPD2    C410725   0.384   4.642  13.005 -0.7390  0.2893 -0.0800
  722MPD2    C510726   0.481   4.640  12.909 -0.5902 -0.5239 -0.1899
  722MPD2     H10727   0.534   0.158  13.174  0.8644 -1.5603  1.3219
  722MPD2    H110728   0.303   4.574  12.986  1.3563 -1.9871 -0.9221
  722MPD2    H210729   0.640   4.711  12.802 -0.1759  2.8151 -0.2799
  722MPD2    H310730   0.462   4.566  12.832  1.3192  1.0475 -2.1662
  722MPD2     N10731   0.317   0.003  13.215 -0.4362  0.2591  0.0253
  722MPD2    H510732   0.337   0.078  13.281 -1.0863  0.4620 -0.0077
  722MPD2    N110733   0.689   0.195  12.969  0.3662 -0.0574  0.2046
  722MPD2    H710734   0.688   0.262  13.046  0.6103  1.1872 -0.8730
  723TMC3    C110735   0.133   4.696  13.348  0.0813 -0.7303  0.0897
  723TMC3    C210736   0.037   4.609  13.394  0.4080  0.3957  0.1974
  723TMC3    C310737   4.664   4.653  13.450  0.1837  0.0685 -0.4214
  723TMC3    C410738   0.120   0.095  13.378  0.3941 -0.1784 -0.1321
  723TMC3    C510739   4.734   0.135  13.432  0.4570 -0.1646  0.4843
  723TMC3    C610740   4.644   0.044  13.477 -0.3116 -0.4142  0.5240
  723TMC3     C10741   0.208   4.660  13.235  0.3531  0.4167  0.2556
  723TMC3     O10742   0.179   4.557  13.173  0.1492 -0.1408 -0.5646
  723TMC3     H10743   0.056   4.506  13.365 -1.1143  0.1818 -0.0379
  723TMC3    H110744   0.184   0.173  13.337  1.3160 -1.7914 -1.7671
  723TMC3    H210745   4.549   0.069  13.525 -1.6897 -1.5747 -1.6259
  723TMC3    C710746   4.690   0.281  13.427 -0.1486  0.4022  0.4675
  723TMC3    C810747   4.562   4.554  13.493 -0.4399 -0.2746 -0.4185
  723TMC3    O110748   0.033   0.363  13.378  0.2137  0.0941  0.1714
  723TMC3    O210749   4.487   4.582  13.587 -0.3173 -0.2937  0.3045
  724TMC3    C110750   1.441   3.082  10.717 -0.2365  0.5957 -0.6069
  724TMC3    C210751   1.465   3.075  10.584  0.1015 -0.3768  0.2842
  724TMC3    C310752   1.583   3.124  10.536 -0.6706  0.3272  0.7657
  724TMC3    C410753   1.527   3.150  10.803 -0.8069  0.0904 -0.2806
  724TMC3    C510754   1.634   3.198  10.745  0.1757  0.3039  0.4502
  724TMC3    C610755   1.668   3.188  10.616 -0.0829 -0.5144  0.2733
  724TMC3     C10756   1.354   2.989  10.787 -0.4760 -0.4356  0.2456
  724TMC3     O10757   1.360   2.986  10.909  0.4219  0.8929 -0.6371
  724TMC3     H10758   1.415   3.010  10.513 -0.7850  0.3433  0.2534
  724TMC3    H110759   1.514   3.155  10.910 -3.0870 -0.8610 -0.5055
  724TMC3    H210760   1.761   3.231  10.582 -1.5240  0.6469 -2.2137
  724TMC3    C710761   1.692   3.319  10.809  0.5448  0.4747  0.8465
  724TMC3    C810762   1.594   3.147  10.395  0.0097  0.3176  0.4970
  724TMC3    O110763   1.804   3.354  10.777  0.5821 -0.0819  0.0506
  724TMC3    O210764   1.512   3.084  10.329  0.2451 -0.8134  0.0224
  725TMC3    C110765   2.704   2.324  12.844 -0.1773 -0.8897 -1.0532
  725TMC3    C210766   2.716   2.362  12.717 -0.3677  0.1134  0.2147
  725TMC3    C310767   2.719   2.267  12.616  0.5444  0.0354  0.7307
  725TMC3    C410768   2.669   2.198  12.873 -0.0369  0.1029  0.1387
  725TMC3    C510769   2.676   2.107  12.771 -0.6109  0.0154 -0.5369
  725TMC3    C610770   2.702   2.138  12.644 -0.3835  0.1268 -0.2577
  725TMC3     C10771   2.758   2.409  12.953 -0.4312  0.8101  0.7638
  725TMC3     O10772   2.850   2.486  12.922 -0.6398 -0.1304 -0.0169
  725TMC3     H10773   2.731   2.467  12.696 -1.1524  1.0082  4.1014
  725TMC3    H110774   2.659   2.166  12.976  1.7476  1.4144  0.7086
  725TMC3    H210775   2.691   2.071  12.559  0.2898 -0.9565  0.5051
  725TMC3    C710776   2.606   1.981  12.784 -0.1338  0.2315 -0.9041
  725TMC3    C810777   2.722   2.318  12.481  0.2635  0.2442  0.5878
  725TMC3    O110778   2.633   1.898  12.699 -0.5544  0.3558  0.3274
  725TMC3    O210779   2.784   2.248  12.400 -0.7394 -0.0102 -0.0014
  726MPD2     C10780   0.175   3.148  10.374 -0.3834 -0.0997  0.1600
  726MPD2    C110781   0.119   3.248  10.314  0.5013  0.7033 -0.1167
  726MPD2    C210782   4.724   3.277  10.348 -0.5513 -1.1224  0.1023
  726MPD2    C310783   4.662   3.199  10.445  0.2745 -0.0173  0.3140
  726MPD2    C410784   4.729   3.095  10.504  0.2003  0.2044 -0.1252
  726MPD2    C510785   0.115   3.060  10.457 -0.3764  0.1878  0.4673
  726MPD2     H10786   4.676   3.363  10.303  0.0883 -0.7970  0.0314
  726MPD2    H110787   4.679   3.024  10.570  1.3373 -1.8214 -1.4512
  726MPD2    H210788   0.277   3.117  10.355 -0.6660 -1.0714  0.2238
  726MPD2    H310789   0.173   2.977  10.496 -0.6304  0.5163  1.5583
  726MPD2     N10790   4.528   3.217  10.494  0.2521 -0.7467 -0.5548
  726MPD2    H510791   4.505   3.153  10.570 -0.4220 -0.8085 -0.8186
  726MPD2    N110792   0.201   3.336  10.247  0.2018  0.1263  0.2755
  726MPD2    H710793   0.301   3.317  10.250 -0.2118 -1.9983  0.2300
  727TMC3    C110794   0.254   3.522  10.106 -0.1975  0.0752  0.1604
  727TMC3    C210795   0.350   3.562  10.195  0.1764 -0.0631  0.2583
  727TMC3    C310796   0.394   3.695  10.182  0.4418 -0.5526 -0.5312
  727TMC3    C410797   0.219   3.592   9.995  0.9778  0.0606  0.0153
  727TMC3    C510798   0.268   3.714   9.978 -0.5277  0.5373 -0.3186
  727TMC3    C610799   0.351   3.773  10.071 -0.0158  0.3310 -0.7180
  727TMC3     C10800   0.154   3.436  10.167 -0.3319  0.9225  0.0849
  727TMC3     O10801   0.045   3.461  10.128 -0.1220 -0.1765  0.8134
  727TMC3     H10802   0.394   3.501  10.274 -3.6516  0.0207  2.4177
  727TMC3    H110803   0.142   3.546   9.934 -0.0556 -0.8978  2.0410
  727TMC3    H210804   0.401   3.869  10.058 -0.7864  1.0128  1.3116
  727TMC3    C710805   0.199   3.800   9.884 -0.0893  0.2942 -0.2339
  727TMC3    C810806   0.444   3.747  10.311  0.0432  0.3226 -0.2522
  727TMC3    O110807   0.169   3.909   9.930  0.5830 -0.4301  0.1437
  727TMC3    O210808   0.456   3.672  10.406  0.1503  0.1673 -0.0048
  728TMC3    C110809   0.141   2.510  15.520 -0.4875  0.2932  0.3210
  728TMC3    C210810   0.203   2.437  15.430 -0.3025 -0.0653  0.4587
  728TMC3    C310811   0.153   2.447  15.299 -0.3069  0.4752  0.0571
  728TMC3    C410812   0.043   2.594  15.489 -0.0625 -0.0401  0.8689
  728TMC3    C510813   4.719   2.589  15.365  0.7290  0.7848 -0.2932
  728TMC3    C610814   0.039   2.514  15.270  0.7156  0.3681 -0.1005
  728TMC3     C10815   0.148   2.461  15.656 -0.1048  0.0040  0.2298
  728TMC3     O10816   0.121   2.535  15.746  0.1449  0.3845  0.4788
  728TMC3     H10817   0.296   2.385  15.449 -0.2936 -0.2374 -0.0777
  728TMC3    H110818   4.726   2.633  15.574 -1.7493  0.8857 -0.6255
  728TMC3    H210819   4.729   2.513  15.172  0.3863 -1.0410  0.0699
  728TMC3    C710820   4.594   2.658  15.344  0.6692  0.3026 -0.4914
  728TMC3    C810821   0.200   2.349  15.212 -0.2541  0.3072 -0.2369
  728TMC3    O110822   4.552   2.754  15.410  0.5059  0.6435 -0.1701
  728TMC3    O210823   0.109   2.277  15.167  0.3375 -0.2150  0.5383
  729MPD2     C10824   1.823   3.585  16.509 -0.5588  0.4587  0.2418
  729MPD2    C110825   1.923   3.574  16.598 -0.8094  0.7592  0.3500
  729MPD2    C210826   1.885   3.555  16.732  0.0220  0.0106 -0.0514
  729MPD2    C310827   1.750   3.552  16.770 -0.2949 -0.2028 -0.5458
  729MPD2    C410828   1.655   3.569  16.673  0.1738  0.6167  0.5501
  729MPD2    C510829   1.691   3.576  16.543 -0.3593  0.4688 -0.0378
  729MPD2     H10830   1.962   3.543  16.807  1.1904  1.5090 -1.0248
  729MPD2    H110831   1.554   3.563  16.714  0.2297  0.9395  0.7290
  729MPD2    H210832   1.838   3.606  16.404  0.2491 -1.0706  0.0470
  729MPD2    H310833   1.619   3.597  16.465 -2.3143 -0.9883  1.3753
  729MPD2     N10834   1.704   3.558  16.905  0.7753 -0.4869 -0.1568
  729MPD2    H510835   1.607   3.571  16.931  1.8003  1.0025  2.8698
  729MPD2    N110836   2.056   3.593  16.558 -0.1718 -0.1885  0.1014
  729MPD2    H710837   2.082   3.616  16.463  0.9487 -4.4107 -0.6155
  730TMC3    C110838   1.726   3.593  17.137 -0.7695 -0.1598  0.0530
  730TMC3    C210839   1.811   3.577  17.245  0.1447  0.1861  0.3422
  730TMC3    C310840   1.791   3.676  17.341  0.3778 -0.3175 -0.1853
  730TMC3    C410841   1.651   3.702  17.117  0.1885  0.6116 -0.6570
  730TMC3    C510842   1.626   3.780  17.223  0.5894 -0.1660  0.2213
  730TMC3    C610843   1.688   3.761  17.340 -0.5602 -0.4561 -0.2865
  730TMC3     C10844   1.784   3.535  17.015 -0.0209 -0.0374  0.0448
  730TMC3     O10845   1.893   3.481  17.013 -0.1301 -0.2609  0.0038
  730TMC3     H10846   1.890   3.505  17.259  0.2533  0.4088  0.8525
  730TMC3    H110847   1.602   3.731  17.024 -1.6236 -2.5113 -0.6657
  730TMC3    H210848   1.662   3.817  17.429  1.2233  1.1859 -0.8101
  730TMC3    C710849   1.639   3.923  17.176  0.0209 -0.3823  0.4448
  730TMC3    C810850   1.908   3.748  17.371  0.0863 -0.0402 -0.6997
  730TMC3    O110851   1.650   3.947  17.058  0.5731 -0.2522 -0.0651
  730TMC3    O210852   2.008   3.693  17.338 -0.3436 -0.1696 -0.1584
  731MPD2     C10853   1.977   1.827  12.423 -0.1281 -0.1958 -0.0376
  731MPD2    C110854   1.891   1.737  12.365  0.3610 -0.3576  0.2055
  731MPD2    C210855   1.769   1.719  12.423  0.1173  0.1012 -0.0426
  731MPD2    C310856   1.729   1.789  12.535  0.1923 -0.3557 -1.1054
  731MPD2    C410857   1.823   1.879  12.592 -0.0560 -0.1996  0.3994
  731MPD2    C510858   1.948   1.894  12.538  0.8548  0.5362 -0.0684
  731MPD2     H10859   1.695   1.645  12.395 -0.1018 -0.1381  1.1584
  731MPD2    H110860   1.793   1.948  12.671 -0.8187  0.0325 -0.0877
  731MPD2    H210861   2.074   1.833  12.374 -0.6554  0.0048 -1.0586
  731MPD2    H310862   2.012   1.962  12.593  0.9200  0.1394  0.3563
  731MPD2     N10863   1.608   1.751  12.597  0.1766 -0.0446  0.5165
  731MPD2    H510864   1.563   1.665  12.567 -0.7840  0.4460  0.5429
  731MPD2    N110865   1.924   1.678  12.244 -0.3932 -0.2321  0.0150
  731MPD2    H710866   2.011   1.704  12.198  0.8473 -0.2064  2.3897
  732TMC3    C110867   1.936   1.549  12.060  0.1458  0.6388 -0.1053
  732TMC3    C210868   1.878   1.526  11.939  0.4274 -0.4945  0.4226
  732TMC3    C310869   1.962   1.493  11.835  0.1440  0.4631 -0.0161
  732TMC3    C410870   2.073   1.531  12.081  0.3961 -0.0308 -0.5283
  732TMC3    C510871   2.152   1.513  11.969  0.2943 -0.0058 -0.4500
  732TMC3    C610872   2.096   1.483  11.849  0.1105  0.1817  0.6059
  732TMC3     C10873   1.856   1.585  12.168 -0.0699 -0.0146  0.2997
  732TMC3     O10874   1.744   1.547  12.172  0.1114 -0.0774 -0.3955
  732TMC3     H10875   1.776   1.555  11.918  1.3342  1.2110 -1.5895
  732TMC3    H110876   2.110   1.545  12.181 -0.1982 -1.4429 -0.1169
  732TMC3    H210877   2.155   1.446  11.766  1.5169 -0.3244  1.8266
  732TMC3    C710878   2.298   1.500  11.973 -0.2973 -0.2234 -0.3813
  732TMC3    C810879   1.911   1.377  11.755 -0.3721 -0.0045  0.4693
  732TMC3    O110880   2.356   1.516  11.869 -0.2752  0.1206  0.4211
  732TMC3    O210881   1.985   1.309  11.682  0.1222  0.3564 -0.2323
  733TMC3    C110882   3.310   4.059  13.416 -0.1210 -0.2339  0.2206
  733TMC3    C210883   3.348   4.186  13.450  0.0585  0.2366 -0.0307
  733TMC3    C310884   3.457   4.236  13.375 -0.3156  0.4439  0.4156
  733TMC3    C410885   3.363   3.990  13.311  0.0167  0.0137 -0.3023
  733TMC3    C510886   3.442   4.059  13.222  0.0896  0.0055 -0.0357
  733TMC3    C610887   3.497   4.182  13.254  0.0273 -0.0674  0.2475
  733TMC3     C10888   3.171   4.023  13.429  0.0053 -0.1277  0.2344
  733TMC3     O10889   3.117   3.993  13.322  0.0561  0.6163 -0.7302
  733TMC3     H10890   3.282   4.242  13.515 -0.5457 -0.0975 -0.3555
  733TMC3    H110891   3.317   3.896  13.282  2.9353 -1.3888 -0.3828
  733TMC3    H210892   3.565   4.232  13.186  0.0450  1.6786  1.5505
  733TMC3    C710893   3.398   4.034  13.088  0.0348  0.4153  0.2139
  733TMC3    C810894   3.475   4.381  13.374 -0.1784 -0.4605  0.5210
  733TMC3    O110895   3.396   3.916  13.051  0.5643 -0.0343  0.3932
  733TMC3    O210896   3.586   4.415  13.417 -0.0999  0.1694 -0.3703
  734MPD2     C10897   0.697   1.436  12.389  0.1613 -0.0053  0.9899
  734MPD2    C110898   0.570   1.383  12.363  0.2332 -0.0072  0.2868
  734MPD2    C210899   0.499   1.445  12.265 -0.0371 -0.3584 -0.5108
  734MPD2    C310900   0.533   1.569  12.206  0.6407 -0.4114 -0.3792
  734MPD2    C410901   0.649   1.631  12.242  0.5615  0.3069  0.0876
  734MPD2    C510902   0.735   1.550  12.321 -0.6221 -0.2831  0.2492
  734MPD2     H10903   0.405   1.400  12.234  0.0036  0.0968 -1.2908
  734MPD2    H110904   0.679   1.729  12.205 -0.1756  0.9151  1.1182
  734MPD2    H210905   0.763   1.397  12.465  0.4770 -0.7027  0.3513
  734MPD2    H310906   0.825   1.596  12.359 -1.3241  0.9880  0.3659
  734MPD2     N10907   0.440   1.617  12.111  0.5070 -0.1639 -1.0847
  734MPD2    H510908   0.356   1.560  12.108  0.8937 -0.7048 -1.4956
  734MPD2    N110909   0.533   1.265  12.416  0.0180 -0.2291 -0.0621
  734MPD2    H710910   0.599   1.216  12.475  1.5367  2.1242  0.1552
  735TMC3    C110911   0.424   1.052  12.440  0.5702  0.7527  0.5587
  735TMC3    C210912   0.300   1.008  12.418  0.1701  1.0233  0.8907
  735TMC3    C310913   0.286   0.903  12.325 -0.1336  0.0865 -0.5099
  735TMC3    C410914   0.530   0.995  12.379  1.0154  0.1249  0.1021
  735TMC3    C510915   0.516   0.887  12.295 -0.3371 -0.0828 -0.1056
  735TMC3    C610916   0.394   0.832  12.281 -0.1936  0.3765 -0.0925
  735TMC3     C10917   0.414   1.192  12.397  0.3557  0.2036  0.5432
  735TMC3     O10918   0.313   1.227  12.330 -0.1189  0.1118 -0.6414
  735TMC3     H10919   0.212   1.061  12.453 -1.1509 -1.9674  2.0693
  735TMC3    H110920   0.632   1.015  12.412  2.2188 -4.6881 -0.7306
  735TMC3    H210921   0.375   0.758  12.204 -0.2672  2.2825 -1.8849
  735TMC3    C710922   0.610   0.888  12.187  0.0858  0.1498  0.5001
  735TMC3    C810923   0.183   0.911  12.221  0.3946 -0.4035 -0.1465
  735TMC3    O110924   0.689   0.981  12.182 -0.1296  0.4133 -0.2052
  735TMC3    O210925   0.153   0.813  12.156 -0.4098  0.3196  0.8434
  736MPD2     C10926   0.736   0.587  12.026  0.2790 -0.3720  0.2553
  736MPD2    C110927   0.723   0.723  12.045 -0.7694  1.0759  0.2064
  736MPD2    C210928   0.818   0.805  11.985 -1.5273  0.8272 -0.0349
  736MPD2    C310929   0.913   0.752  11.897 -0.1679 -0.5033  0.0083
  736MPD2    C410930   0.908   0.623  11.867 -0.1600  0.6508  0.7830
  736MPD2    C510931   0.826   0.542  11.935  0.2113 -0.2850 -0.1115
  736MPD2     H10932   0.818   0.911  12.008  0.7527  0.7271  0.4469
  736MPD2    H110933   0.970   0.575  11.792  1.7089  1.8074  1.5931
  736MPD2    H210934   0.658   0.519  12.057  1.4599 -2.4425 -1.3044
  736MPD2    H310935   0.844   0.435  11.930  0.7446 -0.2415  0.8575
  736MPD2     N10936   1.022   0.820  11.841  0.0843  0.0866  0.2588
  736MPD2    H510937   1.070   0.758  11.776  3.5683  1.1279  1.8045
  736MPD2    N110938   0.621   0.764  12.133 -0.3487  0.0913  0.9081
  736MPD2    H710939   0.572   0.685  12.174  0.1881 -0.1950  1.0021
  737TMC3    C110940   1.175   0.979  11.775 -0.3015  0.5812  0.0869
  737TMC3    C210941   1.196   1.109  11.746 -0.3920  0.5322  0.0874
  737TMC3    C310942   1.307   1.132  11.672 -0.3085 -0.3297  0.2519
  737TMC3    C410943   1.246   0.874  11.728  0.0043 -0.8107  1.4185
  737TMC3    C510944   1.354   0.906  11.657 -0.1109  0.2226 -0.8406
  737TMC3    C610945   1.391   1.036  11.626 -0.1676  0.1250  0.5265
  737TMC3     C10946   1.054   0.954  11.849  0.3905 -0.0399  0.2923
  737TMC3     O10947   1.006   1.051  11.903 -0.1120  0.5398  0.4654
  737TMC3     H10948   1.129   1.189  11.773 -1.0464 -0.6673  2.0137
  737TMC3    H110949   1.228   0.769  11.750  0.2569 -0.9073  1.1757
  737TMC3    H210950   1.476   1.060  11.563 -1.5496  2.3090 -0.5004
  737TMC3    C710951   1.423   0.798  11.586  0.1571 -0.0290  0.3616
  737TMC3    C810952   1.334   1.267  11.633  0.1311 -0.3622 -0.1085
  737TMC3    O110953   1.367   0.688  11.590 -0.4351 -0.0855 -0.2468
  737TMC3    O210954   1.447   1.306  11.657  0.2888 -0.0970  0.0111
  738MPD2     C10955   1.305   0.735  15.675 -0.5312 -0.6424  0.2765
  738MPD2    C110956   1.249   0.714  15.550 -0.3563  0.3066 -0.2546
  738MPD2    C210957   1.313   0.770  15.442 -0.1889 -0.0877  0.2233
  738MPD2    C310958   1.428   0.844  15.453 -0.0873 -0.1883  0.3217
  738MPD2    C410959   1.485   0.868  15.579 -0.6100 -0.2401  0.1104
  738MPD2    C510960   1.428   0.802  15.687  0.0302  0.1749  0.2464
  738MPD2     H10961   1.254   0.771  15.352 -0.1440  0.1910  0.1963
  738MPD2    H110962   1.570   0.934  15.588 -0.2319 -0.9387  1.5241
  738MPD2    H210963   1.263   0.686  15.762  0.4330 -1.7807  0.0886
  738MPD2    H310964   1.464   0.806  15.789 -2.2911 -1.2760  1.1116
  738MPD2     N10965   1.482   0.901  15.337 -0.5769 -0.0897  1.0239
  738MPD2    H510966   1.552   0.971  15.359 -0.7620  0.3917  0.0685
  738MPD2    N110967   1.137   0.637  15.527  0.6517 -0.3797  0.7428
  738MPD2    H710968   1.101   0.629  15.433  1.3385 -1.0886  0.5445
  739TMC3    C110969   1.479   0.967  15.104 -0.2322 -0.0533 -0.1135
  739TMC3    C210970   1.435   0.937  14.977  0.4277 -0.6164  0.3477
  739TMC3    C310971   1.436   1.034  14.885 -0.2209  0.1959 -0.0414
  739TMC3    C410972   1.527   1.092  15.137 -0.0720  0.6165 -0.2652
  739TMC3    C510973   1.511   1.187  15.041  0.0084 -0.0631 -0.0388
  739TMC3    C610974   1.481   1.159  14.914 -0.4638 -0.1163  1.2327
  739TMC3     C10975   1.436   0.875  15.210 -0.1754 -0.5699 -0.2499
  739TMC3     O10976   1.376   0.776  15.165  0.4831 -0.2694 -0.1578
  739TMC3     H10977   1.380   0.844  14.965 -0.6042 -0.3218  2.7065
  739TMC3    H110978   1.561   1.118  15.237  0.9895  0.9731 -0.7196
  739TMC3    H210979   1.466   1.237  14.840  0.9904  0.0665  1.1400
  739TMC3    C710980   1.589   1.311  15.056 -0.0211 -0.4590  0.5811
  739TMC3    C810981   1.377   0.998  14.753  0.5434  1.0419 -0.3527
  739TMC3    O110982   1.660   1.352  14.961  0.1843 -0.2980 -0.1120
  739TMC3    O210983   1.268   0.947  14.766  0.1922  0.1530 -0.1100
  740TMC3    C110984   1.752   2.153  14.217 -0.0927  0.3062 -0.2319
  740TMC3    C210985   1.787   2.086  14.336 -0.5799  0.3083 -0.1054
  740TMC3    C310986   1.918   2.036  14.333 -0.0715 -0.2111  0.2773
  740TMC3    C410987   1.831   2.142  14.110 -0.0030  0.3716 -0.3149
  740TMC3    C510988   1.949   2.082  14.116  0.1472  0.4504 -0.6762
  740TMC3    C610989   1.996   2.023  14.227  0.3671  1.1142  0.5565
  740TMC3     C10990   1.611   2.177  14.187  0.5517  0.0880 -0.4009
  740TMC3     O10991   1.566   2.171  14.071 -0.1933 -0.0341 -0.3538
  740TMC3     H10992   1.737   2.112  14.428 -2.3376 -1.2238 -0.6330
  740TMC3    H110993   1.804   2.196  14.021  0.4497  0.6237 -0.2959
  740TMC3    H210994   2.092   1.974  14.231 -0.1526  0.2917  2.7438
  740TMC3    C710995   2.025   2.064  13.994 -0.3633 -0.5405 -0.1324
  740TMC3    C810996   1.975   1.964  14.456 -0.3157  0.7538  0.0306
  740TMC3    O110997   2.132   2.006  14.000 -0.7657 -0.0809  0.0759
  740TMC3    O210998   2.097   1.954  14.461 -0.8638  0.0411  0.3845
  741TMC3    C110999   1.005   1.441  13.973  0.6998  1.0841  0.1671
  741TMC3    C211000   0.926   1.433  14.088 -0.5398  0.0385  0.0866
  741TMC3    C311001   0.956   1.325  14.169  0.1812 -0.0396  0.0599
  741TMC3    C411002   1.124   1.369  13.953  0.1127 -0.3222  0.0815
  741TMC3    C511003   1.146   1.266  14.038 -0.1388  0.2364  0.2509
  741TMC3    C611004   1.065   1.246  14.151  0.0784 -0.4350  0.1059
  741TMC3     C11005   0.979   1.535  13.863  0.8242  0.0316  0.1932
  741TMC3     O11006   1.046   1.530  13.765 -0.3814  0.3278  0.6506
  741TMC3     H11007   0.836   1.490  14.107 -1.6099 -2.0914  1.3577
  741TMC3    H111008   1.171   1.366  13.856 -1.4186  0.1552 -0.6827
  741TMC3    H211009   1.076   1.148  14.195  0.8831 -0.6766 -0.6504
  741TMC3    C711010   1.173   1.147  13.957 -0.0654  0.1428  0.1150
  741TMC3    C811011   0.865   1.285  14.269  0.6156  0.3817 -0.2338
  741TMC3    O111012   1.097   1.049  13.972 -0.0073  0.1972 -0.3165
  741TMC3    O211013   0.748   1.317  14.257 -0.6062 -0.1589  0.2916
  742TMC3    C111014   1.814   0.139  15.250  0.4245  0.3267  0.3738
  742TMC3    C211015   1.722   0.095  15.150  0.2105 -0.0112 -0.4758
  742TMC3    C311016   1.691   4.697  15.146 -0.5804 -0.9388 -0.0218
  742TMC3    C411017   1.901   0.045  15.302  0.4999 -0.1994  0.6994
  742TMC3    C511018   1.887   4.649  15.271  0.3967  0.0232 -0.1300
  742TMC3    C611019   1.773   4.606  15.204 -0.3141  0.1559  0.5234
  742TMC3     C11020   1.858   0.277  15.255 -0.1303  0.3084 -0.3966
  742TMC3     O11021   1.955   0.295  15.324 -0.2447 -0.3158 -0.5237
  742TMC3     H11022   1.646   0.170  15.133  0.5336  0.9392  2.2987
  742TMC3    H111023   1.985   0.077  15.363  0.8809 -0.4990  0.3419
  742TMC3    H211024   1.754   4.502  15.181 -0.4596  1.2062 -4.2113
  742TMC3    C711025   1.930   4.543  15.369 -0.1508 -0.2216 -0.1297
  742TMC3    C811026   1.596   4.646  15.051 -0.2613 -0.3673 -0.1105
  742TMC3    O111027   1.888   4.434  15.347 -0.1432 -0.6825 -0.4366
  742TMC3    O211028   1.576   4.525  15.056 -1.0771 -0.0572  0.4341
  743MPD2     C11029   3.701   0.742   1.406  0.1417 -0.4229  0.0980
  743MPD2    C111030   3.747   0.814   1.303  0.6845 -0.6877  0.1658
  743MPD2    C211031   3.843   0.913   1.333  0.4249 -0.2845  0.8734
  743MPD2    C311032   3.902   0.910   1.454 -0.7627  0.3005 -0.0764
  743MPD2    C411033   3.850   0.845   1.565  0.2686 -0.5764 -1.0288
  743MPD2    C511034   3.749   0.757   1.531  0.3217 -0.0006 -0.5333
  743MPD2     H11035   3.888   0.971   1.254  1.1710 -2.9253 -0.6266
  743MPD2    H111036   3.878   0.853   1.670 -0.4761  0.4234 -0.9001
  743MPD2    H211037   3.622   0.671   1.387 -0.5004  1.1365 -3.0128
  743MPD2    H311038   3.688   0.695   1.596  0.3314  0.5909  0.0377
  743MPD2     N11039   4.012   0.996   1.466 -0.2078 -0.2622  0.1752
  743MPD2    H511040   4.047   1.041   1.382 -1.5061 -1.0627 -0.7932
  743MPD2    N111041   3.676   0.825   1.180 -0.9539 -0.2731  0.6516
  743MPD2    H711042   3.584   0.786   1.159 -0.8086 -0.1422 -0.2403
  744TMC3    C111043   3.635   0.892   0.951  0.0483 -0.8131 -0.0798
  744TMC3    C211044   3.537   0.980   0.990 -0.4189 -0.0375 -0.3220
  744TMC3    C311045   3.475   1.039   0.885 -0.3646 -0.3366  0.0767
  744TMC3    C411046   3.686   0.873   0.828  0.5824 -0.2292  0.3518
  744TMC3    C511047   3.624   0.947   0.732  0.4805 -0.6522  0.0057
  744TMC3    C611048   3.509   1.017   0.754  0.2408  0.8049  0.2981
  744TMC3     C11049   3.729   0.878   1.060  0.5489 -0.2047 -0.0179
  744TMC3     O11050   3.842   0.911   1.032 -0.2636 -0.2188 -1.0725
  744TMC3     H11051   3.512   0.999   1.094 -0.4937  0.7709 -0.4945
  744TMC3    H111052   3.772   0.811   0.807  0.2928 -0.6023  0.2752
  744TMC3    H211053   3.464   1.077   0.676  0.3547 -0.0850 -0.4544
  744TMC3    C711054   3.709   0.979   0.623 -0.4815  0.5365 -0.5662
  744TMC3    C811055   3.389   1.151   0.906 -0.1335 -0.3389 -0.2468
  744TMC3    O111056   3.795   0.897   0.601 -0.5101  0.1417  1.1689
  744TMC3    O211057   3.340   1.208   0.800  0.1871 -0.1373 -0.0758
  745TMC3    C111058   1.854   4.139  13.988  0.2440 -0.0849  0.7831
  745TMC3    C211059   1.753   4.114  14.069 -0.4585 -1.2100  0.1475
  745TMC3    C311060   1.629   4.064  14.027  0.3266  0.2701  0.4971
  745TMC3    C411061   1.839   4.110  13.852  0.9513  0.1406 -0.2623
  745TMC3    C511062   1.727   4.035  13.815 -0.1697  0.3649 -0.4215
  745TMC3    C611063   1.618   4.037  13.896  1.1265  0.3947 -0.1728
  745TMC3     C11064   1.938   4.255  14.029  0.9737 -0.2816 -1.0894
  745TMC3     O11065   2.053   4.242  14.062 -0.1475  0.7493  0.0674
  745TMC3     H11066   1.777   4.136  14.172  1.1348  1.7635 -0.8537
  745TMC3    H111067   1.907   4.128  13.769 -1.3356 -1.4798 -2.5034
  745TMC3    H211068   1.520   4.004  13.863  1.0681 -0.6941  1.0959
  745TMC3    C711069   1.707   3.991  13.678  0.0186  0.2544  0.0575
  745TMC3    C811070   1.516   4.128  14.083  0.3439  0.3229 -0.1089
  745TMC3    O111071   1.590   3.998  13.641  0.2790 -0.3362  0.0932
  745TMC3    O211072   1.422   4.137  14.006  0.0902 -0.0070 -0.5074
  746TMC3    C111073   4.080   1.118  10.802 -0.1263  0.1395  0.0226
  746TMC3    C211074   4.119   1.130  10.672 -0.1069 -0.4312 -0.3904
  746TMC3    C311075   4.086   1.027  10.585  0.6112 -0.3712  0.0495
  746TMC3    C411076   4.011   1.003  10.845  0.4504  0.5321  0.7224
  746TMC3    C511077   3.983   0.901  10.758  0.7236 -0.1104  0.6957
  746TMC3    C611078   4.013   0.920  10.622 -0.1645  0.0331  0.4002
  746TMC3     C11079   4.081   1.228  10.892  0.5326 -0.2390  0.4652
  746TMC3     O11080   4.051   1.214  11.007  0.1412 -0.4813 -0.2162
  746TMC3     H11081   4.170   1.216  10.632  2.3207 -1.2368  1.0212
  746TMC3    H111082   3.974   1.003  10.947  2.2309 -0.3228  1.3561
  746TMC3    H211083   3.995   0.847  10.544 -1.5723 -0.2224  0.9630
  746TMC3    C711084   3.898   0.795  10.802  0.2010  0.0567 -0.2087
  746TMC3    C811085   4.170   1.016  10.461  0.8063 -0.7560 -0.2708
  746TMC3    O111086   3.827   0.759  10.712  0.1591  0.0754  0.3149
  746TMC3    O211087   4.211   0.905  10.425  0.4234  0.1274  0.5610
  747TMC3    C111088   2.072   1.033  10.866 -0.3187  0.6586 -0.3959
  747TMC3    C211089   2.037   0.916  10.927 -0.1872  0.1400 -0.6410
  747TMC3    C311090   2.030   0.930  11.061 -0.3526  0.0852 -0.0078
  747TMC3    C411091   2.090   1.151  10.925  0.5574  0.7749 -0.1964
  747TMC3    C511092   2.080   1.149  11.066  0.6291  0.2359 -0.2232
  747TMC3    C611093   2.054   1.040  11.138 -0.4493  0.1281 -0.6778
  747TMC3     C11094   2.084   1.036  10.720  0.1722  0.1239  0.0744
  747TMC3     O11095   2.135   1.141  10.674  0.3246  0.0294 -0.5596
  747TMC3     H11096   2.032   0.821  10.874  1.4957 -0.1395 -0.2957
  747TMC3    H111097   2.082   1.243  10.868  1.6471  2.6054  2.6351
  747TMC3    H211098   2.064   1.039  11.246 -0.7512  1.1749 -0.6380
  747TMC3    C711099   2.147   1.259  11.136 -0.0966 -0.1048  0.3344
  747TMC3    C811100   1.979   0.810  11.120 -0.5509 -0.1282 -1.0299
  747TMC3    O111101   2.121   1.271  11.255  0.5024  0.4279  0.4553
  747TMC3    O211102   1.979   0.705  11.058  0.1761 -0.3004 -0.0556
  748MPD2     C11103   3.398   2.224   0.539  0.2969  0.1192 -0.3767
  748MPD2    C111104   3.391   2.208   0.674 -0.2619  0.1478  0.0798
  748MPD2    C211105   3.365   2.319   0.751  0.4380 -0.4037 -0.0807
  748MPD2    C311106   3.346   2.442   0.704  0.0774 -0.1892  0.8853
  748MPD2    C411107   3.349   2.457   0.567 -0.2662 -0.5603  0.1881
  748MPD2    C511108   3.360   2.343   0.486 -0.8873 -0.0453 -0.6453
  748MPD2     H11109   3.351   2.310   0.858  1.7683  1.1799  0.2335
  748MPD2    H111110   3.335   2.551   0.514 -1.3115  1.2485  3.6510
  748MPD2    H211111   3.403   2.140   0.470  0.4068 -0.2739  0.1156
  748MPD2    H311112   3.351   2.346   0.378 -0.3054  1.2959 -0.6586
  748MPD2     N11113   3.326   2.552   0.794 -0.6695  0.3685 -0.1673
  748MPD2    H511114   3.318   2.526   0.892 -0.9702 -0.7283 -0.4811
  748MPD2    N111115   3.427   2.080   0.723  0.6847  0.2507 -0.0483
  748MPD2    H711116   3.475   2.013   0.664  0.4103 -0.1397  0.1757
  749TMC3    C111117   3.262   2.766   0.865  0.0828  0.1193 -0.9229
  749TMC3    C211118   3.316   2.744   0.997 -0.0884  0.0748  0.1969
  749TMC3    C311119   3.294   2.850   1.079 -0.1527 -0.7422 -0.1258
  749TMC3    C411120   3.194   2.879   0.828 -0.5933 -0.2258 -0.1439
  749TMC3    C511121   3.184   2.980   0.921  0.3220  0.2148 -0.4365
  749TMC3    C611122   3.229   2.966   1.048  0.0349 -0.4243  0.0928
  749TMC3     C11123   3.305   2.681   0.757 -0.1431  1.1061 -0.1364
  749TMC3     O11124   3.308   2.732   0.644 -0.3834 -0.5564  0.0412
  749TMC3     H11125   3.364   2.649   1.020  1.3431  0.5206 -0.9552
  749TMC3    H111126   3.156   2.888   0.727 -1.5095 -0.7051  0.1564
  749TMC3    H211127   3.228   3.053   1.113 -1.4967  3.0725 -4.5816
  749TMC3    C711128   3.202   3.114   0.865  0.8102 -0.2077  0.2045
  749TMC3    C811129   3.360   2.848   1.213  0.6801  0.1621  0.2454
  749TMC3    O111130   3.180   3.209   0.940 -0.3259 -0.4688 -0.5499
  749TMC3    O211131   3.349   2.961   1.264 -0.2376  0.2602  0.1209
  750MPD2     C11132   3.854   3.034  11.718 -0.8967  0.4471 -0.4737
  750MPD2    C111133   3.749   2.937  11.734 -0.2493 -0.5624 -0.2405
  750MPD2    C211134   3.756   2.820  11.671 -0.5402  0.1190  0.3197
  750MPD2    C311135   3.865   2.786  11.591 -0.0256  0.3198  0.1254
  750MPD2    C411136   3.966   2.878  11.579  0.0212  0.6225 -0.5701
  750MPD2    C511137   3.954   2.999  11.638  0.9512  0.6414 -0.1629
  750MPD2     H11138   3.677   2.746  11.673  0.6098 -1.0480  3.3437
  750MPD2    H111139   4.049   2.853  11.514  0.5317  2.6576 -0.7088
  750MPD2    H211140   3.860   3.131  11.765  1.6267 -0.2418  0.6483
  750MPD2    H311141   4.032   3.073  11.626  0.3452  1.0217 -1.8446
  750MPD2     N11142   3.882   2.662  11.517 -0.4154  0.0330  0.0417
  750MPD2    H511143   3.943   2.660  11.436 -1.7586 -2.1488 -0.9197
  750MPD2    N111144   3.648   2.975  11.820  0.7142  0.3087 -0.0091
  750MPD2    H711145   3.641   3.071  11.853 -2.0624  0.9181 -2.2981
  751TMC3    C111146   3.854   2.439  11.463 -0.9691  0.0037 -0.1273
  751TMC3    C211147   3.863   2.314  11.523  0.0534  0.0689 -0.0619
  751TMC3    C311148   3.966   2.225  11.485  0.1936 -0.2157 -0.5005
  751TMC3    C411149   3.934   2.466  11.355 -0.0502  0.2585 -0.0636
  751TMC3    C511150   4.030   2.379  11.319  0.1776  0.3113  0.6049
  751TMC3    C611151   4.058   2.270  11.389  0.7725 -0.4227 -0.9808
  751TMC3     C11152   3.810   2.550  11.545 -0.9759  0.6236 -0.3089
  751TMC3     O11153   3.733   2.528  11.638 -0.1014 -0.0105 -0.2726
  751TMC3     H11154   3.786   2.289  11.594  0.9630  1.2818  1.3441
  751TMC3    H111155   3.926   2.557  11.296 -0.6128  1.0553  1.2303
  751TMC3    H211156   4.142   2.207  11.364  1.6512  0.8466 -1.2625
  751TMC3    C711157   4.047   2.355  11.175 -0.3716  0.4066 -0.5272
  751TMC3    C811158   3.922   2.091  11.451 -0.3248 -0.2696 -0.3793
  751TMC3    O111159   4.026   2.459  11.108 -0.0876 -0.1046  0.1970
  751TMC3    O211160   3.965   2.045  11.346 -0.6314 -0.3701 -0.0276
  752TMC3    C111161   2.347   3.826  17.557 -0.1761 -0.8614 -0.6760
  752TMC3    C211162   2.391   3.691  17.574 -0.2990  0.3256 -0.8389
  752TMC3    C311163   2.313   3.604  17.640  0.4033  0.7254  0.9521
  752TMC3    C411164   2.218   3.861  17.590  0.0551  0.5398  0.0012
  752TMC3    C511165   2.143   3.758  17.654  0.1891 -0.6433  0.4335
  752TMC3    C611166   2.186   3.637  17.687 -0.7306  0.4023  0.3118
  752TMC3     C11167   2.409   3.913  17.458  1.0193  0.6835  0.3439
  752TMC3     O11168   2.396   4.034  17.473  0.0708  0.1949  0.2416
  752TMC3     H11169   2.495   3.674  17.547  0.4095  2.0597  0.8098
  752TMC3    H111170   2.183   3.961  17.566  1.1213  1.0297  0.4843
  752TMC3    H211171   2.120   3.561  17.727  2.3432 -2.4518 -0.0126
  752TMC3    C711172   2.009   3.794  17.700 -0.3041  0.1733  0.6434
  752TMC3    C811173   2.346   3.461  17.663  0.1794  0.4483 -0.4586
  752TMC3    O111174   1.923   3.704  17.702  0.1883  0.1044 -0.0117
  752TMC3    O211175   2.279   3.396  17.742 -0.2772 -0.3536  0.2642
  753TMC3    C111176   0.265   4.387  13.665 -0.7892 -0.2633 -0.0841
  753TMC3    C211177   0.371   4.351  13.738 -0.8663  0.2442  0.6000
  753TMC3    C311178   0.464   4.265  13.694  0.5491 -0.7622  0.2261
  753TMC3    C411179   0.237   4.313  13.550 -0.9355 -0.4137  1.1649
  753TMC3    C511180   0.318   4.208  13.520  0.9156 -0.1640 -0.5873
  753TMC3    C611181   0.441   4.193  13.581  1.0006 -0.2699  0.2972
  753TMC3     C11182   0.201   4.515  13.686 -0.6628 -0.4233  0.2650
  753TMC3     O11183   0.075   4.522  13.695  0.2645  0.0301 -0.3026
  753TMC3     H11184   0.390   4.403  13.832 -0.3446 -1.7847  1.6077
  753TMC3    H111185   0.146   4.336  13.495 -1.6706 -0.6129  2.3052
  753TMC3    H211186   0.508   4.120  13.537  0.7640 -0.9057  0.9859
  753TMC3    C711187   0.289   4.115  13.406  1.1641 -0.1623 -0.9538
  753TMC3    C811188   0.591   4.245  13.759 -0.2241  0.3678  0.4866
  753TMC3    O111189   0.388   4.078  13.342  0.5866 -0.0675  0.0395
  753TMC3    O211190   0.678   4.187  13.697  0.2536  0.6170  0.5568
  754MPD2     C11191   3.850   3.077  13.713 -0.3832 -0.3359 -0.6816
  754MPD2    C111192   3.839   2.973  13.631  0.3069 -0.3911 -0.1768
  754MPD2    C211193   3.724   2.952  13.555 -0.1422 -0.6851  0.2780
  754MPD2    C311194   3.623   3.044  13.567 -0.2171  0.4392 -0.0075
  754MPD2    C411195   3.642   3.156  13.636  0.6363 -0.3220  0.1874
  754MPD2    C511196   3.755   3.170  13.713  0.2624 -0.5830  0.0240
  754MPD2     H11197   3.720   2.859  13.499  2.5903 -0.8672  0.3838
  754MPD2    H111198   3.561   3.229  13.646  1.4175  0.5660  0.0156
  754MPD2    H211199   3.931   3.089  13.783 -0.7627 -0.7949 -0.1619
  754MPD2    H311200   3.745   3.249  13.786  1.1346 -1.4839  1.1265
  754MPD2     N11201   3.504   3.026  13.507  0.0275  0.1884  0.7770
  754MPD2    H511202   3.437   3.102  13.498  0.5896  0.5555 -0.3088
  754MPD2    N111203   3.951   2.888  13.631 -0.0766 -0.2041 -0.1570
  754MPD2    H711204   4.031   2.932  13.675 -1.7923  1.9217  0.8713
  755MPD2     C11205   2.801   3.494  13.621 -0.3462  0.3408  0.6810
  755MPD2    C111206   2.751   3.363  13.646  0.2837  0.0952 -0.7260
  755MPD2    C211207   2.836   3.253  13.640  0.6349  0.5530  0.2049
  755MPD2    C311208   2.967   3.266  13.604 -0.0846  0.4158 -0.2847
  755MPD2    C411209   3.022   3.390  13.592  0.0433  0.6204 -0.0077
  755MPD2    C511210   2.937   3.501  13.609 -0.4671 -0.3571 -0.2717
  755MPD2     H11211   2.787   3.159  13.663 -1.1235  1.3952 -0.1084
  755MPD2    H111212   3.129   3.401  13.582  0.1294 -1.4541 -1.4494
  755MPD2    H211213   2.737   3.581  13.617  0.8562  1.1677 -0.2522
  755MPD2    H311214   2.973   3.603  13.600  0.8588 -0.7233  0.7014
  755MPD2     N11215   3.048   3.157  13.575  0.1572  0.0248 -0.1672
  755MPD2    H511216   3.139   3.172  13.532 -0.2625  1.7452 -0.4673
  755MPD2    N111217   2.612   3.331  13.666  0.1479  0.0327  0.4521
  755MPD2    H711218   2.579   3.235  13.668  1.7097 -0.5062  0.3466
  756MPD2     C11219   3.508   3.540   9.907  0.2459 -0.0201  0.1274
  756MPD2    C111220   3.440   3.489  10.015  0.3520  0.2527 -0.0929
  756MPD2    C211221   3.302   3.448  10.000 -0.6127 -0.5879 -0.5440
  756MPD2    C311222   3.233   3.479   9.882  0.2309  0.3454  0.4393
  756MPD2    C411223   3.306   3.538   9.783  0.1551  0.5575  0.0168
  756MPD2    C511224   3.441   3.567   9.793 -0.2107  0.1728  0.1646
  756MPD2     H11225   3.241   3.411  10.081 -0.9745 -0.5395 -0.7956
  756MPD2    H111226   3.258   3.545   9.686  3.0346 -1.2021 -1.5611
  756MPD2    H211227   3.613   3.562   9.898  0.3950 -0.1961  1.4079
  756MPD2    H311228   3.490   3.606   9.705 -3.4732  1.1374 -1.2397
  756MPD2     N11229   3.093   3.458   9.870  0.2284  0.2962 -0.4093
  756MPD2    H511230   3.052   3.408   9.949 -1.6818  3.4515  0.5855
  756MPD2    N111231   3.505   3.493  10.146 -0.2879 -0.3185  0.4111
  756MPD2    H711232   3.451   3.468  10.228 -0.9447  0.6349  0.2693
  757MPD2     C11233   2.765   2.774  10.192  0.5140 -0.6891 -0.6133
  757MPD2    C111234   2.876   2.855  10.213  0.4274  0.2148 -0.3481
  757MPD2    C211235   2.872   2.986  10.166  0.2220 -0.1676 -0.3087
  757MPD2    C311236   2.762   3.031  10.103  0.0376 -0.1811  0.2589
  757MPD2    C411237   2.656   2.957  10.078  0.4964  0.0335  0.0842
  757MPD2    C511238   2.661   2.830  10.126 -0.4857  0.1323  0.2863
  757MPD2     H11239   2.960   3.049  10.175  0.8921 -1.1981  0.3325
  757MPD2    H111240   2.566   2.998  10.033  0.6043  0.4385  0.2311
  757MPD2    H211241   2.740   2.678  10.234 -1.2107  0.4711  1.0001
  757MPD2    H311242   2.577   2.764  10.106 -1.2114  1.5587 -1.4440
  757MPD2     N11243   2.771   3.158  10.043  0.0850  0.0677 -0.2368
  757MPD2    H511244   2.862   3.203  10.049  0.7039 -1.1278 -0.4241
  757MPD2    N111245   2.976   2.797  10.293 -0.0471  0.3608 -0.0958
  757MPD2    H711246   2.958   2.699  10.313  1.4006 -0.0597 -0.8440
  758MPD2     C11247   3.619   3.052  16.191  0.2251 -1.0818 -0.4335
  758MPD2    C111248   3.647   2.968  16.300  0.4705  0.2960 -0.3647
  758MPD2    C211249   3.550   2.931  16.391 -0.3962 -0.2470  0.5396
  758MPD2    C311250   3.426   2.987  16.375 -0.3728 -0.0811  0.2509
  758MPD2    C411251   3.398   3.071  16.270  0.5276 -0.9945 -0.3351
  758MPD2    C511252   3.497   3.107  16.182  0.6163 -0.4735  0.5109
  758MPD2     H11253   3.575   2.861  16.470  1.1676 -1.6839 -1.2284
  758MPD2    H111254   3.296   3.106  16.260  0.5641 -0.2056  1.9989
  758MPD2    H211255   3.688   3.083  16.113 -1.4228  0.1829 -1.3775
  758MPD2    H311256   3.479   3.182  16.107 -1.1537 -0.4380  0.9682
  758MPD2     N11257   3.321   2.956  16.465  0.4209 -0.2122  0.0570
  758MPD2    H511258   3.248   3.026  16.474  1.3305  0.6016  1.0873
  758MPD2    N111259   3.779   2.922  16.305 -0.1695  0.3066  0.3989
  758MPD2    H711260   3.830   2.929  16.217 -1.5880  1.6555 -0.3213
  759MPD2     C11261   2.686   1.056  10.784  0.5094  0.0772  0.2952
  759MPD2    C111262   2.656   0.996  10.662 -0.6726  0.1841 -0.2909
  759MPD2    C211263   2.735   1.030  10.555  0.4664 -0.4713 -0.1829
  759MPD2    C311264   2.841   1.118  10.565 -0.4367 -0.7321 -0.3887
  759MPD2    C411265   2.863   1.175  10.692  0.7804  0.0786  0.1989
  759MPD2    C511266   2.786   1.145  10.799  0.5875 -0.0024  0.0604
  759MPD2     H11267   2.701   0.991  10.460  0.2377  0.7633 -0.6051
  759MPD2    H111268   2.934   1.256  10.704  0.6924  0.3529 -1.1784
  759MPD2    H211269   2.623   1.042  10.871 -0.0699  1.4544  0.0977
  759MPD2    H311270   2.802   1.202  10.889  1.5457 -0.5252  0.2266
  759MPD2     N11271   2.919   1.123  10.454  0.0909 -0.0302  0.7894
  759MPD2    H511272   2.878   1.085  10.368  1.3501  2.0346 -0.7270
  759MPD2    N111273   2.538   0.911  10.642 -0.4233 -0.0656 -0.7414
  759MPD2    H711274   2.534   0.861  10.554 -2.2100  2.3269 -2.0428
  760MPD2     C11275   1.480   2.962  12.464 -0.3435 -1.2179  0.3248
  760MPD2    C111276   1.609   2.995  12.500 -0.1321  0.6720  0.9715
  760MPD2    C211277   1.709   2.960  12.411  0.2542 -0.9706  0.5242
  760MPD2    C311278   1.694   2.896  12.290  0.5814 -0.7466  0.1700
  760MPD2    C411279   1.564   2.866  12.252 -0.1460 -0.0014 -0.7134
  760MPD2    C511280   1.464   2.908  12.338 -0.0935  0.0970 -0.6200
  760MPD2     H11281   1.804   3.002  12.442 -0.1926 -0.9816  1.9335
  760MPD2    H111282   1.539   2.812  12.161 -0.0517 -0.4765 -0.4580
  760MPD2    H211283   1.395   2.983  12.528 -0.0869 -0.4987  0.4363
  760MPD2    H311284   1.361   2.888  12.310 -1.4028  0.3496  3.9597
  760MPD2     N11285   1.806   2.859  12.208 -0.1446  0.4381  0.0092
  760MPD2    H511286   1.787   2.817  12.117  1.4694  0.1720 -0.2178
  760MPD2    N111287   1.629   3.052  12.628  0.1821  0.4956  0.5081
  760MPD2    H711288   1.551   3.101  12.670 -0.4171 -0.2167  0.2192
  761MPD2     C11289   3.698   1.645  11.505  0.0178 -0.8163 -0.3520
  761MPD2    C111290   3.756   1.697  11.393  0.2742  0.4189 -0.2570
  761MPD2    C211291   3.812   1.825  11.413 -0.3401  0.6330  0.0482
  761MPD2    C311292   3.809   1.898  11.536  0.5130 -0.3274  0.7020
  761MPD2    C411293   3.741   1.842  11.643 -0.6152 -0.1254  0.2126
  761MPD2    C511294   3.691   1.710  11.628 -0.8246 -0.0120 -0.1741
  761MPD2     H11295   3.878   1.857  11.333 -1.0630  0.8333 -0.4746
  761MPD2    H111296   3.741   1.891  11.740 -1.0058 -1.1050  0.7025
  761MPD2    H211297   3.645   1.551  11.496  1.8371 -1.7823 -1.0185
  761MPD2    H311298   3.628   1.663  11.702 -2.1407  0.5568 -0.9166
  761MPD2     N11299   3.864   2.027  11.552  0.9165 -0.2616  0.2888
  761MPD2    H511300   3.864   2.068  11.644 -1.1270  1.6744 -0.5746
  761MPD2    N111301   3.747   1.634  11.266 -0.4439  0.1941  0.4428
  761MPD2    H711302   3.704   1.541  11.266 -1.5591  0.7017  0.7190
  762MPD2     C11303   3.804   2.007  10.560  0.5865 -0.0889 -1.0042
  762MPD2    C111304   3.844   1.876  10.549  0.6559  0.4811 -0.0410
  762MPD2    C211305   3.941   1.853  10.452  0.1214 -0.4778  0.5857
  762MPD2    C311306   3.993   1.959  10.379 -0.6751  0.3552  0.3959
  762MPD2    C411307   3.960   2.087  10.405 -0.5408  0.0380 -0.5552
  762MPD2    C511308   3.855   2.111  10.484 -0.1370  0.1679  0.7184
  762MPD2     H11309   3.985   1.755  10.436  3.0772  1.2689 -1.7853
  762MPD2    H111310   4.003   2.168  10.348  1.8507 -1.9076 -1.4918
  762MPD2    H211311   3.730   2.046  10.629 -0.9754 -1.4884 -1.9036
  762MPD2    H311312   3.816   2.213  10.490  0.1682  0.3082  0.2678
  762MPD2     N11313   4.089   1.927  10.283 -0.0148 -0.2360  0.0571
  762MPD2    H511314   4.115   1.829  10.273 -0.5245 -0.2629 -0.9794
  762MPD2    N111315   3.798   1.784  10.644  0.1294 -0.3760 -0.5684
  762MPD2    H711316   3.723   1.804  10.709 -0.4669  2.1761 -2.0583
  763MPD2     C11317   0.870   2.593  16.127  1.0849  0.3073 -0.2324
  763MPD2    C111318   0.744   2.641  16.089 -0.1253 -0.2276 -0.3391
  763MPD2    C211319   0.703   2.761  16.142  0.6258  0.1232  0.0772
  763MPD2    C311320   0.778   2.822  16.240  0.0925 -0.3893  0.3538
  763MPD2    C411321   0.896   2.766  16.281  0.1263 -0.5381  0.8380
  763MPD2    C511322   0.944   2.650  16.228  0.1272 -0.7246 -0.0460
  763MPD2     H11323   0.613   2.812  16.111 -0.8684 -1.2131  2.2477
  763MPD2    H111324   0.960   2.807  16.357 -1.6185  0.4050  1.7911
  763MPD2    H211325   0.907   2.504  16.078  0.3674 -1.1528  1.8535
  763MPD2    H311326   1.041   2.612  16.257  0.1454  0.1234  1.0112
  763MPD2     N11327   0.744   2.948  16.309  0.7288 -0.0372  0.2995
  763MPD2    H511328   0.804   2.987  16.382  0.8611 -0.0054  0.1749
  763MPD2    N111329   0.679   2.577  15.986 -0.6778  0.4324  0.5024
  763MPD2    H711330   0.602   2.624  15.940 -0.0890  0.2125 -0.7156
  764MPD2     C11331   3.028   4.722   0.001 -0.3943  0.0758  0.3953
  764MPD2    C111332   2.905   4.675  17.715  0.3004  0.1221 -0.5700
  764MPD2    C211333   2.834   4.616   0.074  0.4806 -0.7204  0.6616
  764MPD2    C311334   2.888   4.600   0.200 -0.8991  0.1689  0.0307
  764MPD2    C411335   3.016   4.645   0.231  0.4247  0.1870 -0.1319
  764MPD2    C511336   3.078   4.711   0.128  0.5248 -0.6723  0.0028
  764MPD2     H11337   2.734   4.575   0.062 -0.8371  2.2603  1.6204
  764MPD2    H111338   3.067   4.638   0.326  0.8299  0.0422 -0.3594
  764MPD2    H211339   3.090   0.031  17.671  2.4412  0.2359  2.7896
  764MPD2    H311340   3.184   4.731   0.139  0.2726  0.7560 -0.1284
  764MPD2     N11341   2.810   4.533   0.296 -0.0526  0.2483  0.8136
  764MPD2    H511342   2.715   4.516   0.267  0.2270  3.2457 -1.7910
  764MPD2    N111343   2.850   4.684  17.584  0.0122 -0.3358  0.1047
  764MPD2    H711344   2.760   4.637  17.577 -0.6892  0.9815  0.1488
  765MPD2     C11345   3.743   2.270  15.678 -0.6449 -0.1829  0.3378
  765MPD2    C111346   3.708   2.287  15.809  0.4182  0.8471  0.7963
  765MPD2    C211347   3.801   2.273  15.911 -0.6815 -0.1381  0.5644
  765MPD2    C311348   3.934   2.244  15.872 -0.3707  1.1311 -0.4840
  765MPD2    C411349   3.969   2.235  15.733 -0.7130 -0.1796 -0.0991
  765MPD2    C511350   3.873   2.247  15.637 -0.4667  0.1436  0.1572
  765MPD2     H11351   3.772   2.281  16.015  0.6089  1.1733  0.8002
  765MPD2    H111352   4.070   2.207  15.704 -0.2974  0.7047  0.4950
  765MPD2    H211353   3.674   2.285  15.596 -0.5274 -0.7028  0.1395
  765MPD2    H311354   3.902   2.237  15.533  1.1677  3.7323  0.2631
  765MPD2     N11355   4.037   2.225  15.968  1.1788 -0.2667  0.0364
  765MPD2    H511356   4.007   2.208  16.063 -1.6579  2.0299 -0.4615
  765MPD2    N111357   3.576   2.327  15.832  0.1628  0.2555 -0.3454
  765MPD2    H711358   3.510   2.299  15.759  0.8023  0.4670 -1.0068
  766MPD2     C11359   2.738   2.324  15.678  0.2592  0.2358  0.1577
  766MPD2    C111360   2.870   2.318  15.633  0.2715  0.2754 -1.0063
  766MPD2    C211361   2.905   2.266  15.512 -0.4017  0.1571  0.0780
  766MPD2    C311362   2.803   2.223  15.428  0.4385 -0.1715  0.4997
  766MPD2    C411363   2.673   2.218  15.472  0.0013 -0.1204 -0.5951
  766MPD2    C511364   2.643   2.266  15.601 -0.1971  0.4625  0.0428
  766MPD2     H11365   3.008   2.259  15.479 -0.0162  0.1658  1.2617
  766MPD2    H111366   2.597   2.163  15.418  0.4273  0.4484 -1.7512
  766MPD2    H211367   2.724   2.364  15.778  0.7055  1.1044 -0.1316
  766MPD2    H311368   2.540   2.257  15.636  0.2533  0.7694  1.4377
  766MPD2     N11369   2.837   2.171  15.306 -0.8574 -0.0255  0.4129
  766MPD2    H511370   2.756   2.129  15.261  1.8887 -2.6064 -2.0633
  766MPD2    N111371   2.965   2.376  15.721 -0.1140 -0.2107  0.0916
  766MPD2    H711372   2.932   2.426  15.803  1.8843 -2.9983  2.6023
  767MPD2     C11373   2.430   2.429  15.286  0.2933  0.0038 -0.1899
  767MPD2    C111374   2.534   2.452  15.203  0.0545 -0.3392 -0.5026
  767MPD2    C211375   2.526   2.408  15.072 -0.1019 -0.1896  0.0584
  767MPD2    C311376   2.416   2.338  15.027 -0.3760 -0.1096  0.2589
  767MPD2    C411377   2.310   2.325  15.111 -0.7468 -0.5317  0.2125
  767MPD2    C511378   2.312   2.373  15.241  0.2150 -0.0867  0.0165
  767MPD2     H11379   2.608   2.413  15.001 -0.0062  0.6132  0.2248
  767MPD2    H111380   2.221   2.267  15.090 -0.2030 -0.9276 -1.0117
  767MPD2    H211381   2.435   2.454  15.392  2.3398 -1.1670 -0.0202
  767MPD2    H311382   2.222   2.367  15.302  1.5787 -0.7554  1.9465
  767MPD2     N11383   2.422   2.281  14.893  0.2432 -0.2372  0.4028
  767MPD2    H511384   2.512   2.288  14.846 -1.3275  0.1626 -2.5689
  767MPD2    N111385   2.645   2.517  15.254  0.4072  0.4242  0.1239
  767MPD2    H711386   2.636   2.542  15.352  1.3689 -0.0793  0.3306
  768MPD2     C11387   3.875   0.512  10.479 -0.7905  0.1867  0.5649
  768MPD2    C111388   3.859   0.423  10.580 -0.0814 -0.1140 -0.1716
  768MPD2    C211389   3.952   0.425  10.685 -0.2960  0.0222  0.3736
  768MPD2    C311390   4.055   0.509  10.688  0.0195 -0.1314 -0.4844
  768MPD2    C411391   4.068   0.592  10.582  0.2920 -0.0150 -0.8724
  768MPD2    C511392   3.986   0.592  10.473 -0.7860  0.3757 -0.2488
  768MPD2     H11393   3.926   0.369  10.775 -0.7822 -2.7680 -1.5006
  768MPD2    H111394   4.146   0.667  10.580  0.2957 -0.0288 -1.3643
  768MPD2    H211395   3.811   0.514  10.391  1.8068  0.6854 -1.3392
  768MPD2    H311396   4.004   0.650  10.383  2.7246  1.2360  1.0034
  768MPD2     N11397   4.147   0.522  10.794  0.3750 -0.2226 -0.2689
  768MPD2    H511398   4.209   0.602  10.790 -0.1426  0.1112 -1.4197
  768MPD2    N111399   3.749   0.340  10.601  0.8716  0.0602 -0.0609
  768MPD2    H711400   3.749   0.275  10.679 -0.9347 -0.8738 -0.8136
  769MPD2     C11401   4.039   4.108  14.750 -0.6479 -0.4033  0.1854
  769MPD2    C111402   4.014   4.029  14.860  0.4386  0.5292  0.1107
  769MPD2    C211403   4.116   4.012  14.951  1.0732 -0.0391  0.2934
  769MPD2    C311404   4.235   4.080  14.940  0.0790  0.1041 -0.1997
  769MPD2    C411405   4.254   4.161  14.835  0.0342 -0.3434  0.1807
  769MPD2    C511406   4.162   4.163  14.733 -0.4688  0.0528  0.1299
  769MPD2     H11407   4.095   3.940  15.029  0.7227  2.5527  2.5777
  769MPD2    H111408   4.345   4.220  14.829 -0.9170  1.1668  0.4611
  769MPD2    H211409   3.962   4.111  14.674 -1.0030  1.2855  0.5958
  769MPD2    H311410   4.173   4.225  14.645 -3.6884  1.9888  1.0924
  769MPD2     N11411   4.335   4.056  15.039  0.6476 -0.2113 -0.0148
  769MPD2    H511412   4.310   3.991  15.113 -0.0672  2.0583  1.7579
  769MPD2    N111413   3.885   3.965  14.872 -0.1433  0.3538  0.0312
  769MPD2    H711414   3.818   3.958  14.796 -0.9144  1.1724  0.6220
  770MPD2     C11415   4.228   3.240  15.434  0.8648 -0.1640  0.1544
  770MPD2    C111416   4.126   3.170  15.376 -0.0827  0.1253  0.3070
  770MPD2    C211417   4.029   3.238  15.303 -0.0501  0.6043  0.4814
  770MPD2    C311418   4.038   3.373  15.290 -0.7706 -0.1308 -0.4817
  770MPD2    C411419   4.140   3.448  15.346  0.3141  0.1912  0.4221
  770MPD2    C511420   4.231   3.378  15.425 -0.8034 -0.0408  0.7738
  770MPD2     H11421   3.952   3.178  15.256 -1.4804  1.8227  1.3034
  770MPD2    H111422   4.158   3.554  15.333 -0.9031 -0.0340 -3.3562
  770MPD2    H211423   4.298   3.196  15.504  0.0693 -0.8852  0.5014
  770MPD2    H311424   4.300   3.434  15.488 -0.6240  1.0467 -0.3876
  770MPD2     N11425   3.940   3.433  15.210  0.0102  0.2359 -0.3346
  770MPD2    H511426   3.881   3.365  15.165 -0.3883 -0.0092  0.5453
  770MPD2    N111427   4.127   3.029  15.387 -0.5978 -1.0773  0.7578
  770MPD2    H711428   4.207   3.001  15.444  0.0119  1.2638  1.0594
  771MPD2     C11429   0.281   1.400  13.936  0.1561  1.0552 -0.3514
  771MPD2    C111430   0.239   1.474  13.836 -0.0712  0.0620  0.2702
  771MPD2    C211431   0.168   1.415  13.738  0.3745 -0.3907 -0.2149
  771MPD2    C311432   0.160   1.276  13.734  0.5319  0.5846 -0.3648
  771MPD2    C411433   0.213   1.201  13.838  0.1932 -0.1909  0.2481
  771MPD2    C511434   0.266   1.262  13.949 -0.3025 -0.5081 -0.1034
  771MPD2     H11435   0.131   1.471  13.652  2.2629  2.1661  0.6667
  771MPD2    H111436   0.219   1.093  13.835  1.9837 -0.0846  0.2548
  771MPD2    H211437   0.324   1.462  14.014  1.6497 -2.7314  1.7929
  771MPD2    H311438   0.312   1.213  14.034 -1.5365 -0.1577  0.7596
  771MPD2     N11439   0.107   1.230  13.611  0.4310  0.7593 -0.2248
  771MPD2    H511440   0.068   1.302  13.551 -2.2737 -1.3964 -1.0328
  771MPD2    N111441   0.253   1.611  13.822 -0.2021 -0.0767  0.3515
  771MPD2    H711442   0.194   1.649  13.748  0.9054 -0.9615 -0.9708
  772MPD2     C11443   4.503   1.961  13.567 -0.1329  0.7327  0.0723
  772MPD2    C111444   4.511   1.896  13.685  0.4972  0.0088 -0.1505
  772MPD2    C211445   4.421   1.795  13.717 -0.1911 -0.5677 -0.1935
  772MPD2    C311446   4.337   1.750  13.616  0.6042 -0.2764 -0.3612
  772MPD2    C411447   4.345   1.801  13.486 -0.3634  0.9098  0.1759
  772MPD2    C511448   4.421   1.911  13.469 -0.2447 -0.1430  0.3538
  772MPD2     H11449   4.414   1.757  13.818 -0.4108 -0.2780 -0.0985
  772MPD2    H111450   4.288   1.768  13.399  1.7802  0.1420 -0.9375
  772MPD2    H211451   4.556   2.052  13.542  0.2975  0.5019  0.1426
  772MPD2    H311452   4.417   1.960  13.373  0.6760 -0.1086  0.3294
  772MPD2     N11453   4.244   1.655  13.647 -0.3132  0.2819 -0.1477
  772MPD2    H511454   4.236   1.621  13.743 -2.6221 -0.5856 -0.6323
  772MPD2    N111455   4.619   1.918  13.772  0.7671 -0.2017  0.0388
  772MPD2    H711456   4.651   1.849  13.840 -1.3910 -0.5328  0.7280
  773MPD2     C11457   3.851   3.780   0.614 -0.3661 -0.2863  0.0365
  773MPD2    C111458   3.896   3.660   0.557 -0.0124 -0.5250 -0.1194
  773MPD2    C211459   3.992   3.581   0.622  0.1431  0.2098 -0.3000
  773MPD2    C311460   4.074   3.631   0.726 -0.0311  0.0651  0.1622
  773MPD2    C411461   4.047   3.760   0.765  1.4855  0.6438 -0.1231
  773MPD2    C511462   3.934   3.828   0.712  0.2756 -0.7479  0.3582
  773MPD2     H11463   4.027   3.484   0.591 -1.0520 -1.5638  3.8103
  773MPD2    H111464   4.112   3.807   0.838 -1.8069  1.8163  2.0607
  773MPD2    H211465   3.765   3.833   0.574  0.3663  0.9095  0.0801
  773MPD2    H311466   3.910   3.928   0.746  2.1328 -0.5371  1.0556
  773MPD2     N11467   4.189   3.557   0.761 -0.3902  0.5088 -0.4865
  773MPD2    H511468   4.197   3.467   0.716 -1.3585  1.2089 -2.0495
  773MPD2    N111469   3.839   3.608   0.442 -0.9424  0.0196  0.2629
  773MPD2    H711470   3.873   3.514   0.425  1.8636  1.3554 -1.5981
  774MPD2     C11471   3.685   1.901  13.161  0.7482 -0.2056  0.1539
  774MPD2    C111472   3.565   1.951  13.218  0.1188  0.0168  0.2066
  774MPD2    C211473   3.565   2.079  13.280  0.8012 -0.5179  0.4805
  774MPD2    C311474   3.691   2.148  13.287 -0.3114  0.0970  0.4150
  774MPD2    C411475   3.799   2.096  13.230  0.6954  0.0471  0.4716
  774MPD2    C511476   3.798   1.973  13.172 -0.3146  0.9113 -0.3759
  774MPD2     H11477   3.474   2.124  13.319  0.5408 -0.9543  0.3769
  774MPD2    H111478   3.894   2.150  13.227  0.0097  1.2311  0.1186
  774MPD2    H211479   3.685   1.805  13.111 -0.9529  0.0610 -0.3668
  774MPD2    H311480   3.885   1.946  13.114 -0.8745 -0.5833 -0.5185
  774MPD2     N11481   3.691   2.271  13.360 -0.1230  0.6321 -0.3100
  774MPD2    H511482   3.601   2.295  13.402 -0.6022 -1.1998 -0.2708
  774MPD2    N111483   3.444   1.878  13.192  0.3208 -0.1996 -0.3256
  774MPD2    H711484   3.450   1.786  13.151 -0.5473 -0.2349 -0.3666
  775MPD2     C11485   0.078   3.575  16.010  0.0523  0.3465 -0.2271
  775MPD2    C111486   0.025   3.699  16.031  0.2532 -0.6805  1.1033
  775MPD2    C211487   0.097   3.812  15.986 -0.5685 -0.6330  0.1302
  775MPD2    C311488   0.218   3.801  15.918 -0.3840  0.0025 -0.2229
  775MPD2    C411489   0.268   3.671  15.911  0.5324  0.2852  0.3322
  775MPD2    C511490   0.199   3.566  15.947  0.6820 -0.3206 -0.3488
  775MPD2     H11491   0.056   3.910  16.009 -0.8545 -0.1263 -2.4821
  775MPD2    H111492   0.369   3.665  15.872 -0.0820 -0.4860 -1.1407
  775MPD2    H211493   0.024   3.490  16.049  1.6280 -1.1722 -1.4173
  775MPD2    H311494   0.239   3.466  15.931 -1.1224 -1.0393 -0.3097
  775MPD2     N11495   0.288   3.917  15.875  0.3031 -0.4848 -0.2297
  775MPD2    H511496   0.385   3.893  15.862  0.5456  0.4528 -0.1215
  775MPD2    N111497   4.644   3.716  16.108 -0.4191 -0.2222  0.1797
  775MPD2    H711498   4.593   3.641  16.154  0.7758 -0.0842  1.7362
  776MPD2     C11499   2.928   3.396  11.843  0.4377 -0.3234 -0.2159
  776MPD2    C111500   3.067   3.401  11.849 -0.4386 -0.8948 -0.0751
  776MPD2    C211501   3.129   3.517  11.815 -0.3147 -0.6884 -0.1465
  776MPD2    C311502   3.067   3.625  11.756  0.4227  0.9952  0.0763
  776MPD2    C411503   2.931   3.614  11.737 -0.8215  0.0654 -0.6143
  776MPD2    C511504   2.868   3.506  11.785  0.0260 -0.0484 -0.8140
  776MPD2     H11505   3.234   3.525  11.842 -0.1360  1.8977 -1.5427
  776MPD2    H111506   2.880   3.698  11.690 -0.3584 -1.5941 -3.9838
  776MPD2    H211507   2.869   3.310  11.873  0.7317 -0.7454 -0.8514
  776MPD2    H311508   2.763   3.496  11.764 -0.3475 -0.5925  1.3276
  776MPD2     N11509   3.133   3.743  11.715  0.0552  0.1323 -0.2454
  776MPD2    H511510   3.079   3.813  11.665  1.6121  2.7912  1.7577
  776MPD2    N111511   3.132   3.285  11.906 -0.6608 -0.2212  0.2299
  776MPD2    H711512   3.079   3.210  11.949 -0.8370  0.0930  0.5659
  777MPD2     C11513   3.637   2.271   1.072 -0.3987 -0.4028 -0.5376
  777MPD2    C111514   3.690   2.150   1.095 -0.2794 -0.4690  0.2377
  777MPD2    C211515   3.736   2.075   0.991  0.3103  0.4998 -0.5103
  777MPD2    C311516   3.740   2.125   0.866  0.0224  0.5971 -0.3986
  777MPD2    C411517   3.693   2.254   0.839 -0.8185  0.5194  0.6181
  777MPD2    C511518   3.641   2.327   0.945 -0.2495  0.7729  0.3401
  777MPD2     H11519   3.773   1.974   1.004  1.2466  0.9659  0.4554
  777MPD2    H111520   3.684   2.302   0.742  0.0902  0.6424  0.5955
  777MPD2    H211521   3.611   2.342   1.150 -0.0328  0.7899 -1.4908
  777MPD2    H311522   3.620   2.433   0.937  2.4250  1.2491 -0.3822
  777MPD2     N11523   3.789   2.038   0.763 -0.5683  0.4310  0.1579
  777MPD2    H511524   3.798   1.939   0.783 -0.4019  0.3503 -0.2920
  777MPD2    N111525   3.705   2.108   1.231  0.6219 -0.5314  0.1537
  777MPD2    H711526   3.663   2.169   1.301  0.5378 -1.5034  0.9603
  778MPD2     C11527   0.454   1.573  15.128  0.3501 -0.8039 -0.0935
  778MPD2    C111528   0.362   1.539  15.035 -0.1833  0.3374 -0.4155
  778MPD2    C211529   0.386   1.572  14.898  0.6006 -0.4213 -0.3730
  778MPD2    C311530   0.494   1.647  14.861  0.7322  0.1684 -0.3393
  778MPD2    C411531   0.579   1.684  14.956 -0.1886 -0.7436  0.2218
  778MPD2    C511532   0.565   1.651  15.090  0.4422 -0.7029 -0.2751
  778MPD2     H11533   0.312   1.541  14.824  0.6013 -0.9464 -0.1507
  778MPD2    H111534   0.676   1.725  14.932 -1.4899  1.4273 -1.2985
  778MPD2    H211535   0.444   1.541  15.231 -0.5072  0.5974  0.2570
  778MPD2    H311536   0.645   1.671  15.161  0.3515 -1.5570  0.0692
  778MPD2     N11537   0.503   1.690  14.729 -0.5354 -0.3520  0.0312
  778MPD2    H511538   0.445   1.653  14.655 -0.8261  0.3996 -0.1172
  778MPD2    N111539   0.250   1.459  15.065 -0.0586  0.3031 -0.4108
  778MPD2    H711540   0.201   1.423  14.984 -1.2983 -0.7464  0.8054
  779MPD2     C11541   0.086   0.211  14.533  0.5395 -0.1736  1.2980
  779MPD2    C111542   0.209   0.265  14.558  0.3684 -0.0770 -0.1043
  779MPD2    C211543   0.227   0.402  14.543  0.0435  0.6629  0.7786
  779MPD2    C311544   0.126   0.496  14.513  0.5997  0.0111 -0.3348
  779MPD2    C411545   0.002   0.431  14.489  0.2008 -0.1640  0.8028
  779MPD2    C511546   4.720   0.293  14.502  0.2363 -0.7094 -0.1949
  779MPD2     H11547   0.329   0.437  14.551  0.2733 -0.3045  2.0738
  779MPD2    H111548   4.650   0.488  14.468  0.9238  1.1152  1.1562
  779MPD2    H211549   0.062   0.106  14.535 -0.3068 -0.0238 -0.6987
  779MPD2    H311550   4.622   0.249  14.486 -1.1265  2.2530 -0.0618
  779MPD2     N11551   0.155   0.626  14.485 -0.2729 -0.2252 -0.0889
  779MPD2    H511552   0.248   0.657  14.511 -0.7601 -0.7508  2.2993
  779MPD2    N111553   0.324   0.182  14.569 -0.1740  0.3780 -0.0319
  779MPD2    H711554   0.414   0.228  14.554  0.2707 -0.3636  0.3767
  780MPD2     C11555   3.588   0.568   0.778  0.3537  0.1620  0.2467
  780MPD2    C111556   3.572   0.563   0.644 -0.0078  0.0231  1.0231
  780MPD2    C211557   3.686   0.549   0.563 -0.0354  0.8228 -0.1981
  780MPD2    C311558   3.813   0.531   0.620 -0.6318  0.1005 -0.6981
  780MPD2    C411559   3.829   0.555   0.754  0.6693  0.0422 -0.1357
  780MPD2    C511560   3.713   0.556   0.832 -0.2237  0.2001  0.9453
  780MPD2     H11561   3.682   0.530   0.456  0.6783 -3.4989  0.5269
  780MPD2    H111562   3.921   0.538   0.807  0.6651  0.0744 -0.1181
  780MPD2    H211563   3.505   0.563   0.847  0.0987 -1.7652 -0.1865
  780MPD2    H311564   3.721   0.538   0.938  0.0329  0.8549  1.0404
  780MPD2     N11565   3.922   0.498   0.532 -0.4563 -0.1982  0.2724
  780MPD2    H511566   3.901   0.467   0.438  1.8002 -0.8061 -0.0428
  780MPD2    N111567   3.443   0.570   0.590  0.1289  0.3862 -0.2867
  780MPD2    H711568   3.367   0.564   0.657  0.4244  0.1157  0.0249
  781MPD2     C11569   1.586   1.762  11.753 -0.9121 -0.6466  0.3582
  781MPD2    C111570   1.661   1.813  11.852 -0.0714 -0.0382 -0.3440
  781MPD2    C211571   1.792   1.834  11.827  1.0281  0.9807  0.5090
  781MPD2    C311572   1.853   1.802  11.708 -0.1114  0.1316  0.3891
  781MPD2    C411573   1.776   1.738  11.614 -0.2194 -0.0992 -0.3180
  781MPD2    C511574   1.643   1.728  11.636  0.3416 -0.7504 -0.1834
  781MPD2     H11575   1.850   1.888  11.901 -0.6402  2.9377  0.3819
  781MPD2    H111576   1.821   1.705  11.521 -1.1158  0.0752 -0.8110
  781MPD2    H211577   1.485   1.726  11.770 -1.1866  0.0873  0.2437
  781MPD2    H311578   1.586   1.671  11.563  0.8270 -2.7880  1.0098
  781MPD2     N11579   1.993   1.810  11.678  0.1636 -0.0840 -0.1238
  781MPD2    H511580   2.006   1.782  11.581  1.1672  0.8549 -0.2595
  781MPD2    N111581   1.607   1.862  11.981  0.7609  0.1966  0.0811
  781MPD2    H711582   1.661   1.896  12.060 -1.3313  0.1628  1.5299
  782MPD2     C11583   3.921   2.710  10.330  0.1971  0.4555 -0.2715
  782MPD2    C111584   4.056   2.722  10.357 -0.1774 -0.5601  0.0438
  782MPD2    C211585   4.108   2.841  10.394  0.3650 -0.7820 -0.3063
  782MPD2    C311586   4.030   2.952  10.417  0.0190 -0.4607 -0.2402
  782MPD2    C411587   3.898   2.938  10.400 -0.0178  0.9620  0.1436
  782MPD2    C511588   3.851   2.822  10.346 -0.6121  0.2517 -0.0559
  782MPD2     H11589   4.214   2.853  10.414  0.1583  0.1772  0.2088
  782MPD2    H111590   3.834   3.024  10.417 -0.3056  0.6556  0.6141
  782MPD2    H211591   3.877   2.617  10.297  1.2472 -0.0328 -0.2956
  782MPD2    H311592   3.746   2.809  10.322 -0.7036  0.1297  0.4202
  782MPD2     N11593   4.087   3.063  10.481  0.2566 -0.5356 -0.4748
  782MPD2    H511594   4.187   3.063  10.500 -0.0530  1.0757  1.1540
  782MPD2    N111595   4.132   2.604  10.349  0.1076 -0.0923 -0.1520
  782MPD2    H711596   4.070   2.525  10.337  1.3926 -1.1910  0.4434
  783MPD2     C11597   4.003   2.033  11.005  0.2828  0.0821  0.4976
  783MPD2    C111598   4.032   2.168  11.011  0.0005 -1.2849  0.0936
  783MPD2    C211599   4.076   2.234  10.901  0.0005  0.5057 -0.0724
  783MPD2    C311600   4.107   2.156  10.787  0.4049  0.4840 -0.4769
  783MPD2    C411601   4.082   2.024  10.781  0.4114 -0.0267  0.7680
  783MPD2    C511602   4.028   1.964  10.892 -1.4755  0.0106  0.2194
  783MPD2     H11603   4.099   2.340  10.902 -2.0327  0.9413 -0.3436
  783MPD2    H111604   4.102   1.968  10.690  1.1724  1.1052  0.2335
  783MPD2    H211605   3.965   1.984  11.094 -0.1086  4.0971  2.5468
  783MPD2    H311606   4.001   1.858  10.888  2.0325 -0.9062  1.2590
  783MPD2     N11607   4.159   2.225  10.675  0.4682 -0.3218 -0.6411
  783MPD2    H511608   4.148   2.326  10.670  2.3413 -0.0675  0.3850
  783MPD2    N111609   4.022   2.224  11.140 -0.1319 -0.0764  0.0616
  783MPD2    H711610   3.982   2.168  11.215 -1.2889 -1.6058 -1.7038
  784MPD2     C11611   1.836   3.679   0.503 -0.1507 -0.0253 -0.4590
  784MPD2    C111612   1.802   3.773   0.597 -0.1157 -0.6607 -0.5077
  784MPD2    C211613   1.680   3.848   0.593  0.0971 -0.5373  0.2326
  784MPD2    C311614   1.585   3.806   0.499  0.3177  0.5421 -0.2039
  784MPD2    C411615   1.620   3.711   0.404 -0.4256 -0.3955 -0.1001
  784MPD2    C511616   1.742   3.655   0.409 -0.3801 -0.6315  1.0484
  784MPD2     H11617   1.664   3.915   0.677 -2.0601  0.0336 -0.6342
  784MPD2    H111618   1.554   3.674   0.326 -0.2642  1.8703 -1.3220
  784MPD2    H211619   1.934   3.633   0.513 -0.9657 -1.2398  1.9659
  784MPD2    H311620   1.770   3.571   0.346 -2.9599  1.1705 -2.4966
  784MPD2     N11621   1.449   3.854   0.513 -0.4787  0.6368 -0.1407
  784MPD2    H511622   1.426   3.914   0.592  1.8900  0.1309  0.9475
  784MPD2    N111623   1.893   3.806   0.698 -0.2784  0.2618 -0.1564
  784MPD2    H711624   1.865   3.875   0.767 -2.5221 -0.6543 -0.1488
  785MPD2     C11625   1.722   1.195  11.066 -0.6609 -0.4184 -0.1247
  785MPD2    C111626   1.775   1.295  10.983 -0.3500 -0.3192 -0.3959
  785MPD2    C211627   1.766   1.277  10.846  0.8008 -0.5646 -0.0908
  785MPD2    C311628   1.707   1.165  10.805 -0.7889 -0.7408  0.5681
  785MPD2    C411629   1.664   1.063  10.883  0.3999  0.0884  0.0015
  785MPD2    C511630   1.667   1.081  11.017  0.1361 -0.4213 -0.2351
  785MPD2     H11631   1.806   1.354  10.781  0.0796 -0.6783 -0.6667
  785MPD2    H111632   1.611   0.971  10.859 -2.4863  1.0563  2.7000
  785MPD2    H211633   1.720   1.217  11.172  1.2506 -1.2011  0.0683
  785MPD2    H311634   1.619   0.997  11.065  0.3356 -1.0202 -1.0586
  785MPD2     N11635   1.695   1.158  10.665  0.7830 -0.3523 -0.5796
  785MPD2    H511636   1.694   1.247  10.616  0.1760  0.1121  0.2869
  785MPD2    N111637   1.830   1.408  11.046  0.1928 -0.4450 -0.2874
  785MPD2    H711638   1.823   1.420  11.147  1.7752  0.4818 -0.2785
  786MPD2     C11639   1.277   4.687  14.664  0.1927 -0.1029  0.1764
  786MPD2    C111640   1.309   4.575  14.734 -0.2017  0.1326  0.5036
  786MPD2    C211641   1.403   4.592  14.831 -0.3812  0.8151  0.5803
  786MPD2    C311642   1.465   4.721  14.856 -0.1452  0.3429 -0.3954
  786MPD2    C411643   1.433   0.090  14.777  0.2048  0.4798 -0.0506
  786MPD2    C511644   1.347   0.068  14.675 -0.5573  0.1726  0.1498
  786MPD2     H11645   1.414   4.507  14.897 -1.9302 -0.0468 -0.2648
  786MPD2    H111646   1.470   0.191  14.794  1.3245  0.0781 -0.1032
  786MPD2    H211647   1.192   4.693  14.597  0.1750 -0.0669  0.2022
  786MPD2    H311648   1.311   0.147  14.611 -0.2939  0.9479  0.9683
  786MPD2     N11649   1.564   0.003  14.957  0.2637 -0.0793 -0.0887
  786MPD2    H511650   1.611   0.093  14.967 -0.4383  0.2541  0.2139
  786MPD2    N111651   1.242   4.450  14.722 -0.5881 -0.4095 -0.5455
  786MPD2    H711652   1.272   4.370  14.777 -0.7307 -0.1244 -0.0555
  787MPD2     C11653   1.271   4.043  15.164  1.3250 -0.3523 -0.2706
  787MPD2    C111654   1.235   3.968  15.053  0.2229  0.1791  0.1283
  787MPD2    C211655   1.235   3.832  15.064  0.9456 -0.5098 -0.6864
  787MPD2    C311656   1.287   3.771  15.177  0.0806 -0.1643 -0.2592
  787MPD2    C411657   1.324   3.849  15.281 -0.8865  0.1866  0.0973
  787MPD2    C511658   1.310   3.988  15.281 -0.1905  0.1360  0.3985
  787MPD2     H11659   1.201   3.769  14.983 -2.6980 -0.5422  0.8537
  787MPD2    H111660   1.366   3.804  15.370  1.2889  0.5970 -0.6997
  787MPD2    H211661   1.234   4.145  15.172  0.4859 -0.6234 -0.7414
  787MPD2    H311662   1.333   4.046  15.369  3.8134  0.6431 -0.9694
  787MPD2     N11663   1.312   3.632  15.173  0.3135 -0.1463 -0.1024
  787MPD2    H511664   1.279   3.584  15.090  1.8821 -1.0973 -0.1929
  787MPD2    N111665   1.185   4.042  14.939 -0.1740  0.2576  0.0625
  787MPD2    H711666   1.193   4.141  14.959 -2.0029  0.3789  0.1709
  788MPD2     C11667   2.686   3.627   1.192 -0.3190 -0.0613 -0.0941
  788MPD2    C111668   2.722   3.536   1.097  0.4715 -0.2407  0.0215
  788MPD2    C211669   2.784   3.567   0.980  0.5545  0.4252 -0.6163
  788MPD2    C311670   2.803   3.700   0.952  0.2793  0.1007 -0.0833
  788MPD2    C411671   2.772   3.800   1.048  0.7276  0.1930  0.8193
  788MPD2    C511672   2.725   3.757   1.173  0.6968 -0.3538 -0.1015
  788MPD2     H11673   2.794   3.486   0.910  1.2062 -1.8571  2.1297
  788MPD2    H111674   2.797   3.905   1.036  2.1440 -0.2193  0.2190
  788MPD2    H211675   2.640   3.594   1.285  0.5657  0.2667  0.4577
  788MPD2    H311676   2.709   3.831   1.251  0.0196  0.6744 -1.2211
  788MPD2     N11677   2.819   3.748   0.821  0.6704 -0.2671  0.2846
  788MPD2    H511678   2.805   3.845   0.794 -0.8263 -0.1275  1.4990
  788MPD2    N111679   2.674   3.400   1.103  0.0577 -0.1576  0.3958
  788MPD2    H711680   2.706   3.338   1.030 -0.3611 -2.0042  1.7854
  789MPD2     C11681   3.034   2.728  17.010  0.1053 -0.0505  0.4732
  789MPD2    C111682   2.981   2.753  16.887 -0.8264 -0.5970 -0.0710
  789MPD2    C211683   2.885   2.853  16.874 -0.2173  0.6049  0.8495
  789MPD2    C311684   2.843   2.925  16.989 -0.0081 -0.9804  0.1939
  789MPD2    C411685   2.906   2.908  17.105  0.3000  0.1205 -0.5625
  789MPD2    C511686   3.000   2.811  17.118 -0.3797 -0.1667  0.2340
  789MPD2     H11687   2.843   2.871  16.775  0.3205  1.4273  0.7729
  789MPD2    H111688   2.873   2.965  17.191 -1.7145 -1.9434  0.0579
  789MPD2    H211689   3.102   2.645  17.025  0.1333 -0.3002 -1.0033
  789MPD2    H311690   3.058   2.804  17.209 -2.8315 -2.4971  1.5947
  789MPD2     N11691   2.739   3.019  16.981  0.7653  0.0109 -0.1908
  789MPD2    H511692   2.708   3.058  17.069  1.6031  1.2435 -0.4524
  789MPD2    N111693   3.005   2.674  16.771  0.2084  0.2454 -0.5301
  789MPD2    H711694   2.959   2.702  16.685  0.2867  1.6589 -0.1101
  790MPD2     C11695   3.903   4.190  13.538 -0.5097 -0.4725 -0.2467
  790MPD2    C111696   3.959   4.105  13.636  0.1273 -0.1771 -0.5235
  790MPD2    C211697   3.928   3.965  13.632  0.4474  0.0813 -0.0133
  790MPD2    C311698   3.839   3.924  13.537  1.0611 -0.1731 -0.4916
  790MPD2    C411699   3.786   4.007  13.446  0.3484  0.2236  0.9098
  790MPD2    C511700   3.826   4.138  13.437  0.2857  0.0382  1.3150
  790MPD2     H11701   3.966   3.898  13.708 -2.0565 -1.1857  0.1225
  790MPD2    H111702   3.716   3.977  13.369  0.3275  0.2787  0.9070
  790MPD2    H211703   3.926   4.296  13.543  0.3567 -0.6243 -0.9754
  790MPD2    H311704   3.779   4.204  13.365  0.7098 -2.0158 -0.8460
  790MPD2     N11705   3.791   3.791  13.543  0.6409 -0.2458 -0.1775
  790MPD2    H511706   3.849   3.729  13.599 -0.5303 -0.3586  0.9077
  790MPD2    N111707   4.046   4.166  13.735  0.1728 -0.2586  0.1370
  790MPD2    H711708   4.053   4.267  13.735 -1.1884 -0.1700 -0.4766
  791MPD2     C11709   3.142   3.646  13.316 -0.3389  0.3605  0.5052
  791MPD2    C111710   3.185   3.517  13.322 -0.3621  1.5181  0.1441
  791MPD2    C211711   3.103   3.413  13.297  0.6711 -0.5448  0.6289
  791MPD2    C311712   2.969   3.435  13.257  0.2016 -0.1442 -0.1291
  791MPD2    C411713   2.929   3.566  13.258 -0.0529 -0.4554 -0.4256
  791MPD2    C511714   3.013   3.669  13.284 -0.3300 -0.1685  0.2217
  791MPD2     H11715   3.138   3.310  13.299  1.5975 -0.1992  1.7955
  791MPD2    H111716   2.823   3.588  13.261 -0.1100 -1.0985  1.9916
  791MPD2    H211717   3.203   3.733  13.340 -0.8296  0.6956  0.5425
  791MPD2    H311718   2.972   3.768  13.299  1.5785  0.7296 -0.4721
  791MPD2     N11719   2.871   3.323  13.239 -0.4226 -0.2502 -0.2741
  791MPD2    H511720   2.904   3.229  13.259  0.5404 -0.4861 -3.0799
  791MPD2    N111721   3.324   3.503  13.359  0.1277  1.1244 -0.0124
  791MPD2    H711722   3.372   3.592  13.361 -3.0382  2.8100  0.7391
  792MPD2     C11723   4.141   3.553  11.694 -0.3143 -0.0077 -0.9164
  792MPD2    C111724   4.093   3.578  11.571 -0.1091 -0.0779  0.1474
  792MPD2    C211725   3.974   3.516  11.527  0.4318  0.0747 -0.8255
  792MPD2    C311726   3.901   3.431  11.608 -0.2405 -0.1228  0.0104
  792MPD2    C411727   3.951   3.413  11.734  0.0301  0.0715  0.8010
  792MPD2    C511728   4.069   3.468  11.776 -0.3993 -0.2192  0.5968
  792MPD2     H11729   3.917   3.542  11.439  0.6233 -0.8247 -1.2080
  792MPD2    H111730   3.901   3.356  11.811 -0.0314  0.2061  0.8590
  792MPD2    H211731   4.232   3.597  11.733 -1.4468 -0.0036  1.7352
  792MPD2    H311732   4.116   3.460  11.874 -0.9360  0.8502  0.9451
  792MPD2     N11733   3.779   3.361  11.578  0.1892 -0.1209 -0.2434
  792MPD2    H511734   3.738   3.297  11.645 -1.3430  0.2520 -0.8283
  792MPD2    N111735   4.164   3.663  11.482 -0.2738  0.4318 -0.4448
  792MPD2    H711736   4.234   3.718  11.531 -0.8942 -0.7537  1.7477
  793MPD2     C11737   3.245   3.362  10.829  0.3169  0.3841 -0.2995
  793MPD2    C111738   3.369   3.420  10.871  0.3505 -0.4516  0.3708
  793MPD2    C211739   3.391   3.440  11.011  0.9234 -0.3206 -0.5282
  793MPD2    C311740   3.293   3.401  11.104  1.1748 -0.2674 -0.1835
  793MPD2    C411741   3.173   3.347  11.062 -0.7963 -0.3542 -0.0037
  793MPD2    C511742   3.151   3.328  10.926  0.8925  0.6956  0.5782
  793MPD2     H11743   3.486   3.485  11.038  0.1176  1.2348 -0.2884
  793MPD2    H111744   3.083   3.331  11.120  0.6903  0.5016  2.5524
  793MPD2    H211745   3.214   3.346  10.727  1.7203 -0.0702 -0.6593
  793MPD2    H311746   3.050   3.306  10.894  1.2036 -1.2068  0.8866
  793MPD2     N11747   3.327   3.410  11.242 -0.1544 -0.2706  0.0877
  793MPD2    H511748   3.425   3.433  11.256 -0.5812 -0.3099  3.0861
  793MPD2    N111749   3.458   3.475  10.774  0.1315  0.4545  0.5850
  793MPD2    H711750   3.548   3.503  10.812  0.3270 -0.6405  0.9076
  794MPD2     C11751   3.657   3.937  17.385 -0.9178  0.5181  0.2283
  794MPD2    C111752   3.592   3.820  17.424 -0.1170  0.5049 -0.0605
  794MPD2    C211753   3.491   3.767  17.340 -0.5442 -0.1539 -0.2354
  794MPD2    C311754   3.460   3.837  17.224  0.1373  0.4879 -1.0739
  794MPD2    C411755   3.526   3.953  17.185  0.0876 -0.0891  0.6581
  794MPD2    C511756   3.618   4.008  17.270  0.0105  0.2320  0.1402
  794MPD2     H11757   3.438   3.682  17.381  0.1587 -0.1304  0.7338
  794MPD2    H111758   3.502   4.010  17.096 -0.4778 -4.2119 -1.8472
  794MPD2    H211759   3.738   3.975  17.446  2.2849 -2.4795 -2.1719
  794MPD2    H311760   3.666   4.101  17.241 -0.1703 -0.2242 -1.6052
  794MPD2     N11761   3.344   3.809  17.149 -0.3491 -0.2495 -0.5969
  794MPD2    H511762   3.316   3.881  17.083 -0.1089 -0.4517 -0.9179
  794MPD2    N111763   3.624   3.749  17.550  0.2047  0.3065  0.4885
  794MPD2    H711764   3.559   3.675  17.574 -0.2506  0.3495 -0.5782
  795MPD2     C11765   0.931   0.539  13.455 -0.4458 -0.4843  0.2389
  795MPD2    C111766   1.023   0.475  13.379  0.3358 -0.3790 -0.7549
  795MPD2    C211767   1.132   0.412  13.433 -0.0148 -0.5625 -0.7450
  795MPD2    C311768   1.155   0.411  13.569 -0.1878 -0.2682  0.5995
  795MPD2    C411769   1.061   0.483  13.648  0.4914 -0.6633  0.7674
  795MPD2    C511770   0.949   0.543  13.593 -0.9124 -0.1744 -0.2465
  795MPD2     H11771   1.198   0.365  13.362  1.1035  1.7406 -1.2491
  795MPD2    H111772   1.087   0.500  13.752 -1.9800 -2.4891  1.6849
  795MPD2    H211773   0.842   0.586  13.416 -0.1319 -0.4489 -0.4378
  795MPD2    H311774   0.870   0.592  13.648 -0.0822  0.6228  0.2238
  795MPD2     N11775   1.270   0.358  13.626  0.0748  0.1515  0.6071
  795MPD2    H511776   1.336   0.338  13.552  0.2098 -1.1746  1.0953
  795MPD2    N111777   1.006   0.460  13.241  0.2627  0.3699 -0.2651
  795MPD2    H711778   1.076   0.405  13.192  2.0277  1.7716  0.6950
  796MPD2     C11779   1.048   2.259  15.762 -0.2093  0.4683  0.2018
  796MPD2    C111780   1.114   2.309  15.875  0.1544 -0.1169 -1.1012
  796MPD2    C211781   1.116   2.445  15.898 -0.2651 -0.3098 -0.7132
  796MPD2    C311782   1.041   2.530  15.823  0.1551 -0.0953  0.0825
  796MPD2    C411783   0.977   2.480  15.713  0.1428  0.3850  0.3274
  796MPD2    C511784   0.980   2.345  15.682  0.5933 -0.3857 -0.3084
  796MPD2     H11785   1.163   2.490  15.984  2.8109 -0.5613 -2.2660
  796MPD2    H111786   0.904   2.544  15.665 -0.2405 -0.5858 -0.3731
  796MPD2    H211787   1.066   2.159  15.724  2.5004  1.1363 -0.3183
  796MPD2    H311788   0.921   2.298  15.605 -1.5194  1.2664  0.3004
  796MPD2     N11789   1.031   2.664  15.860 -0.5525 -0.4077 -0.6573
  796MPD2    H511790   1.078   2.699  15.943 -0.8371  0.4341 -0.8561
  796MPD2    N111791   1.196   2.217  15.957 -0.0186  0.3707  0.4125
  796MPD2    H711792   1.170   2.120  15.945 -0.1698 -0.0065  3.6979
  797MPD2     C11793   1.826   2.110   0.274  0.1040 -0.3546 -0.9266
  797MPD2    C111794   1.868   2.215   0.199  0.3313 -0.7634 -0.0941
  797MPD2    C211795   1.821   2.238   0.069 -0.2588  0.0826  0.8491
  797MPD2    C311796   1.736   2.153   0.008  0.1188  0.1349  0.8613
  797MPD2    C411797   1.678   2.050   0.083 -0.0437 -0.2020  0.1821
  797MPD2    C511798   1.735   2.025   0.209  0.0107 -0.2464  0.6500
  797MPD2     H11799   1.875   2.320   0.023  1.1611  0.3540  2.9763
  797MPD2    H111800   1.615   1.978   0.034  0.6698 -0.6196 -0.1231
  797MPD2    H211801   1.861   2.087   0.373 -1.1646 -1.9144 -0.8350
  797MPD2    H311802   1.686   1.947   0.265  2.3227 -1.9516  0.3064
  797MPD2     N11803   1.690   2.178  17.618  0.6355 -0.0042  0.4967
  797MPD2    H511804   1.646   2.101  17.570 -0.2081  0.5105  0.4474
  797MPD2    N111805   1.960   2.310   0.244  0.2864  0.3994 -0.4612
  797MPD2    H711806   1.987   2.375   0.170  2.5240 -2.4283 -2.1395
  798MPD2     C11807   2.005   2.791  17.414  0.0890  0.0075  0.0925
  798MPD2    C111808   1.964   2.667  17.461  0.1046 -0.6484  0.5519
  798MPD2    C211809   2.008   2.623  17.585 -0.3760  0.4080  0.5436
  798MPD2    C311810   2.084   2.700  17.672  0.1693  0.1941 -0.0162
  798MPD2    C411811   2.132   2.822  17.619 -0.3711 -1.0608  0.3790
  798MPD2    C511812   2.087   2.865  17.496  0.0356  0.4093 -1.1691
  798MPD2     H11813   1.974   2.526  17.620 -1.4091  0.9009  0.8978
  798MPD2    H111814   2.190   2.890  17.681  0.5598  0.8869 -2.6428
  798MPD2    H211815   1.993   2.820  17.310 -3.4335  0.9192  0.7807
  798MPD2    H311816   2.137   2.951  17.453  1.2878 -1.0905 -2.6906
  798MPD2     N11817   2.106   2.658   0.058 -0.0203  0.0649  0.1879
  798MPD2    H511818   2.088   2.558   0.067  1.5076 -0.3506 -1.1599
  798MPD2    N111819   1.883   2.577  17.394  0.1175  0.6534 -0.3895
  798MPD2    H711820   1.850   2.497  17.448  2.5494  0.7367  1.2260
  799MPD2     C11821   0.763   3.264  15.049 -0.2453 -0.0745  0.2358
  799MPD2    C111822   0.690   3.215  14.947 -0.1797 -0.0848 -0.0841
  799MPD2    C211823   0.610   3.290  14.874  0.3692  0.6098 -0.5684
  799MPD2    C311824   0.604   3.425  14.894  0.8855  0.2976 -0.4653
  799MPD2    C411825   0.682   3.479  14.992 -0.4307  0.0024  0.7506
  799MPD2    C511826   0.756   3.396  15.071  0.0189  0.4936  0.1615
  799MPD2     H11827   0.565   3.244  14.787  0.4543  1.1377 -0.8901
  799MPD2    H111828   0.677   3.584  15.016  2.0314  0.8095 -2.2471
  799MPD2    H211829   0.815   3.197  15.117  1.0611  0.9688  0.2815
  799MPD2    H311830   0.820   3.436  15.149  1.8147 -1.7622 -0.1484
  799MPD2     N11831   0.530   3.512  14.809 -0.2351  0.5079 -0.3689
  799MPD2    H511832   0.566   3.606  14.817 -1.0578  0.7819  0.0852
  799MPD2    N111833   0.689   3.073  14.927 -0.3094  0.6616 -0.2027
  799MPD2    H711834   0.613   3.026  14.878 -1.8804  1.4224  1.5221
  800MPD2     C11835   1.416   4.560  14.317  0.6065 -0.6921 -0.1196
  800MPD2    C111836   1.522   4.502  14.378 -0.0724  0.8264  0.3241
  800MPD2    C211837   1.560   4.375  14.343  0.6756 -0.0857 -0.3352
  800MPD2    C311838   1.493   4.311  14.244 -0.3032 -0.4437  0.3616
  800MPD2    C411839   1.380   4.362  14.187 -0.0941  0.6824  0.4482
  800MPD2    C511840   1.340   4.487  14.231  0.3924  0.7544 -0.0256
  800MPD2     H11841   1.655   4.340  14.381 -0.1252 -0.3015  1.4624
  800MPD2    H111842   1.316   4.314  14.114  0.3528  0.9984 -0.1437
  800MPD2    H211843   1.369   4.650  14.353  0.0362 -0.6502 -0.9668
  800MPD2    H311844   1.252   4.537  14.191  0.2740  1.5864  1.2846
  800MPD2     N11845   1.550   4.199  14.198 -0.1075 -1.0264 -0.1475
  800MPD2    H511846   1.635   4.178  14.250  0.6865  3.2851  0.2901
  800MPD2    N111847   1.597   4.585  14.474 -0.7117  0.1364 -0.4104
  800MPD2    H711848   1.567   4.681  14.487 -1.0375  0.0047 -0.1948
  801MPD2     C11849   1.601   0.529  14.573 -0.2635 -0.4883 -1.3637
  801MPD2    C111850   1.557   0.410  14.527 -0.7961  0.9174  0.2533
  801MPD2    C211851   1.423   0.396  14.506  0.5799  0.1022  0.3753
  801MPD2    C311852   1.338   0.506  14.517  0.4828  0.8957  0.1338
  801MPD2    C411853   1.386   0.628  14.551  0.4027 -0.4366 -0.7263
  801MPD2    C511854   1.521   0.644  14.577 -0.0191 -0.1933  0.0408
  801MPD2     H11855   1.376   0.302  14.479  1.6613 -0.3213 -0.0639
  801MPD2    H111856   1.317   0.711  14.567  0.7262 -0.5266  1.2074
  801MPD2    H211857   1.698   0.540  14.619 -0.6783  0.5391 -0.7288
  801MPD2    H311858   1.561   0.741  14.604  1.3466  0.1282 -3.1083
  801MPD2     N11859   1.201   0.505  14.509  0.0072 -0.1770 -0.7185
  801MPD2    H511860   1.151   0.589  14.535  2.2964  0.3716  1.9220
  801MPD2    N111861   1.635   0.292  14.515  0.2704 -0.4044  0.1377
  801MPD2    H711862   1.600   0.209  14.468  0.3340 -0.7478  0.6843
  802MPD2     C11863   0.059   0.752  16.957  0.0350  0.0969 -0.0759
  802MPD2    C111864   0.160   0.775  17.050  0.7257  0.3823 -0.2871
  802MPD2    C211865   0.281   0.707  17.050  0.5296 -0.0447 -0.0677
  802MPD2    C311866   0.306   0.606  16.963 -0.3385 -0.1912 -0.3991
  802MPD2    C411867   0.206   0.572  16.875  0.3806 -0.4070 -0.6035
  802MPD2    C511868   0.083   0.647  16.874  0.0892 -0.3866 -0.2095
  802MPD2     H11869   0.357   0.728  17.125  2.0925  1.0451 -1.9476
  802MPD2    H111870   0.208   0.485  16.811  3.3884 -0.8757  0.1253
  802MPD2    H211871   4.694   0.786  16.969  0.0727  0.4295 -0.7050
  802MPD2    H311872   0.006   0.610  16.807  1.7626  0.3292 -2.5194
  802MPD2     N11873   0.431   0.543  16.961  0.2499  0.1242 -0.1682
  802MPD2    H511874   0.492   0.564  17.039  0.7126 -0.0379 -0.4847
  802MPD2    N111875   0.151   0.874  17.148  0.0740 -0.4510 -0.1998
  802MPD2    H711876   0.231   0.891  17.208  0.7022 -3.0495 -0.3169
  803MPD2     C11877   1.312   3.410  12.334  0.5098  0.4530 -0.4674
  803MPD2    C111878   1.346   3.537  12.379 -0.3987 -0.0479 -0.2015
  803MPD2    C211879   1.371   3.549  12.516  0.1710  0.0678 -0.3645
  803MPD2    C311880   1.360   3.440  12.606 -0.0005  0.7331  0.4065
  803MPD2    C411881   1.324   3.318  12.550  0.3591 -0.6475  0.0095
  803MPD2    C511882   1.302   3.302  12.417 -0.1724 -0.5673  0.0271
  803MPD2     H11883   1.385   3.646  12.563 -3.0860  0.2757  0.2025
  803MPD2    H111884   1.317   3.224  12.604  0.4143 -2.1322 -2.5615
  803MPD2    H211885   1.286   3.399  12.229 -0.6423 -1.9199  0.0806
  803MPD2    H311886   1.271   3.205  12.381  1.1461 -0.5977 -1.0336
  803MPD2     N11887   1.395   3.448  12.745  0.7742 -0.5819  0.0699
  803MPD2    H511888   1.363   3.376  12.809  1.9267 -0.7504  0.4563
  803MPD2    N111889   1.362   3.651  12.301  0.3900  0.0269  0.3691
  803MPD2    H711890   1.385   3.739  12.347  1.3700 -0.0395  0.0269
  804MPD2     C11891   1.407   0.844  16.871 -0.7412 -0.0809 -0.9121
  804MPD2    C111892   1.437   0.818  17.002  0.0039  0.0587  0.0409
  804MPD2    C211893   1.516   0.908  17.077  0.0027  0.4297  0.2645
  804MPD2    C311894   1.581   1.013  17.023 -0.1515 -0.2476 -0.2708
  804MPD2    C411895   1.563   1.025  16.888 -0.0784  1.2323 -0.3792
  804MPD2    C511896   1.476   0.944  16.813 -0.3125 -0.3960  0.4090
  804MPD2     H11897   1.530   0.894  17.184 -2.0006 -3.3246  0.0487
  804MPD2    H111898   1.613   1.102  16.832 -1.4332  1.5332 -1.1723
  804MPD2    H211899   1.349   0.776  16.810  1.2898 -2.0927 -0.6139
  804MPD2    H311900   1.468   0.977  16.710  2.0816 -3.5454 -0.7600
  804MPD2     N11901   1.646   1.108  17.102 -0.2336 -0.8960  0.4946
  804MPD2    H511902   1.638   1.095  17.203 -0.4934 -3.1024  0.1862
  804MPD2    N111903   1.399   0.698  17.065 -0.7643 -0.2716  0.0192
  804MPD2    H711904   1.418   0.690  17.164 -0.5641 -0.6570 -0.0515
  805MPD2     C11905   0.562   3.650  15.689  0.4177 -0.2681  0.7039
  805MPD2    C111906   0.631   3.748  15.631 -0.0597 -0.0601 -0.5260
  805MPD2    C211907   0.764   3.748  15.654  0.3175 -0.1930 -0.5284
  805MPD2    C311908   0.831   3.647  15.711 -0.7260 -0.5142  0.6136
  805MPD2    C411909   0.758   3.535  15.757  0.2112  0.6193 -0.6383
  805MPD2    C511910   0.616   3.541  15.750  0.3101  0.2699  0.2975
  805MPD2     H11911   0.825   3.827  15.613  2.2776 -0.6607  1.4579
  805MPD2    H111912   0.800   3.441  15.790  0.0049  0.5033 -0.7114
  805MPD2    H211913   0.454   3.658  15.678  0.5721  0.9067  0.0317
  805MPD2    H311914   0.548   3.473  15.798 -0.6265  1.7100  1.0148
  805MPD2     N11915   0.973   3.655  15.719  0.1256  0.0050  0.0781
  805MPD2    H511916   1.019   3.727  15.665 -2.1769  1.7485  0.4071
  805MPD2    N111917   0.576   3.841  15.543 -0.1825  0.7657 -0.0217
  805MPD2    H711918   0.650   3.882  15.486  1.0400 -1.0350  0.2426
  806MPD2     C11919   0.670   3.402   0.084  0.2892 -0.1549 -0.6591
  806MPD2    C111920   0.680   3.508   0.168 -0.3919  0.5979  0.4922
  806MPD2    C211921   0.759   3.619   0.120 -0.0670  0.0857  0.0324
  806MPD2    C311922   0.830   3.606   0.006 -0.1835 -0.0005  0.0142
  806MPD2    C411923   0.812   3.500  17.669 -0.2379  0.1924 -0.0667
  806MPD2    C511924   0.743   3.393  17.713 -0.3958 -0.2218  0.1456
  806MPD2     H11925   0.767   3.717   0.164  1.8074  0.0357 -0.1874
  806MPD2    H111926   0.857   3.502  17.570  1.5207  1.3642  0.7676
  806MPD2    H211927   0.617   3.312   0.114 -0.4747  0.9005  1.2001
  806MPD2    H311928   0.730   3.303  17.655  0.8828  0.4525 -1.1822
  806MPD2     N11929   0.917   3.715  17.725  0.3812  0.0618  0.3090
  806MPD2    H511930   0.926   3.788   0.049 -2.7298  1.1996 -0.4566
  806MPD2    N111931   0.621   3.509   0.298  0.5967  0.1188  0.0577
  806MPD2    H711932   0.580   3.426   0.341 -2.0752  1.6000  0.3507
  807MPD2     C11933   0.679   2.957   0.643  0.0506  0.7274  0.1588
  807MPD2    C111934   0.632   3.034   0.747 -0.2452  0.3287 -0.6321
  807MPD2    C211935   0.615   2.971   0.872  0.4771 -0.1297 -0.2487
  807MPD2    C311936   0.641   2.832   0.886  0.9650 -0.2968 -0.3751
  807MPD2    C411937   0.683   2.757   0.778 -0.3156 -0.1887  0.6735
  807MPD2    C511938   0.706   2.821   0.657  0.0157 -0.6782  0.2673
  807MPD2     H11939   0.576   3.025   0.958  1.4034  2.0314 -1.1938
  807MPD2    H111940   0.693   2.650   0.790 -0.4420  0.0182  2.5832
  807MPD2    H211941   0.698   3.016   0.555  2.2148  1.8811  1.3886
  807MPD2    H311942   0.740   2.762   0.573 -0.7548 -0.8347  0.0677
  807MPD2     N11943   0.633   2.756   1.011  0.3883  0.5354  0.5877
  807MPD2    H511944   0.647   2.655   1.003 -0.2976  0.4829  0.0476
  807MPD2    N111945   0.595   3.171   0.741  0.4409  0.5259  0.0378
  807MPD2    H711946   0.580   3.213   0.832 -1.1427 -0.2581  0.1433
  808MPD2     C11947   2.045   4.161   9.618 -0.6177  0.0480 -0.1647
  808MPD2    C111948   2.027   4.228   9.737 -0.9252  0.9553  0.5356
  808MPD2    C211949   2.041   4.366   9.744 -0.5223 -0.7609  0.6062
  808MPD2    C311950   2.075   4.435   9.631  0.2013  0.1809 -0.5015
  808MPD2    C411951   2.083   4.372   9.509 -0.1080 -0.5328 -0.7580
  808MPD2    C511952   2.061   4.240   9.508  0.7340 -0.5994 -0.2597
  808MPD2     H11953   2.028   4.418   9.838  0.4302  0.7870 -0.1051
  808MPD2    H111954   2.112   4.420   9.416  0.7587  0.7613  0.1789
  808MPD2    H211955   2.060   4.054   9.613  0.9536  0.3765 -2.6308
  808MPD2    H311956   2.063   4.195   9.409  2.0141 -0.4077 -0.3234
  808MPD2     N11957   2.110   4.567   9.627 -0.6194 -0.0384  0.5968
  808MPD2    H511958   2.133   4.602   9.534 -1.9289 -0.9138 -0.0522
  808MPD2    N111959   2.013   4.166   9.862 -0.4255  0.0823  0.3958
  808MPD2    H711960   1.986   4.222   9.942 -0.2172  1.3923 -0.4483
  809MPD2     C11961   2.921   0.068   9.423  0.5913  0.4033 -0.0108
  809MPD2    C111962   2.897   0.062   9.558 -0.2329  1.2305  0.1322
  809MPD2    C211963   2.784   0.115   9.605  0.6281 -0.6662  0.1105
  809MPD2    C311964   2.682   0.168   9.526 -0.0297 -0.4839 -0.4364
  809MPD2    C411965   2.704   0.156   9.394 -0.5338  0.4890  0.5541
  809MPD2    C511966   2.825   0.108   9.344  0.1746  0.0207 -0.4638
  809MPD2     H11967   2.764   0.121   9.711 -2.1921 -1.4215 -0.3772
  809MPD2    H111968   2.619   0.166   9.327  0.6821  2.0072 -0.7540
  809MPD2    H211969   3.013   0.033   9.376  1.4366  1.5274  0.7979
  809MPD2    H311970   2.844   0.096   9.238  0.6035  1.4699 -0.5486
  809MPD2     N11971   2.554   0.187   9.578  0.2683 -0.2614  0.3486
  809MPD2    H511972   2.546   0.183   9.679 -0.0876  0.5460  0.3534
  809MPD2    N111973   2.991   0.016   9.655  0.4822 -0.2104 -0.0798
  809MPD2    H711974   2.959   0.008   9.750  1.4346 -2.1807  0.0962
  810MPD2     C11975   1.283   3.630  10.735  0.0983 -0.3204 -0.4698
  810MPD2    C111976   1.175   3.547  10.759  0.2706 -0.7867  0.5209
  810MPD2    C211977   1.070   3.586  10.839 -0.2171  0.1393  0.2304
  810MPD2    C311978   1.080   3.709  10.896 -0.4932 -0.4099 -0.3818
  810MPD2    C411979   1.189   3.792  10.875 -0.1318  0.0752  0.4959
  810MPD2    C511980   1.286   3.755  10.783 -0.1342  0.4298 -1.1833
  810MPD2     H11981   0.982   3.524  10.852  0.2153 -0.2344  1.4597
  810MPD2    H111982   1.196   3.882  10.935  0.8212 -0.7548  1.6219
  810MPD2    H211983   1.358   3.614  10.658 -1.9156 -0.2772 -2.4403
  810MPD2    H311984   1.368   3.824  10.769  0.5438  0.2127  1.8652
  810MPD2     N11985   0.977   3.770  10.964  0.0381  0.3329  0.5156
  810MPD2    H511986   0.982   3.871  10.973  0.3297  0.5401 -2.0703
  810MPD2    N111987   1.166   3.425  10.683 -0.1888 -0.5257  0.1472
  810MPD2    H711988   1.222   3.414  10.599  1.6594 -1.5148  1.5247
  811MPD2     C11989   0.666   3.438  10.043 -0.3727  0.6565 -0.2818
  811MPD2    C111990   0.708   3.496  10.157  0.4638 -0.3156 -0.1928
  811MPD2    C211991   0.725   3.637  10.151  0.3674 -0.1720 -0.0111
  811MPD2    C311992   0.697   3.713  10.038  0.1021 -0.6096 -0.2133
  811MPD2    C411993   0.657   3.639   9.919  0.5116 -0.7485  0.2018
  811MPD2    C511994   0.648   3.507   9.930  0.5227 -0.4280  0.3719
  811MPD2     H11995   0.776   3.686  10.233  0.2056  1.0421 -0.6362
  811MPD2    H111996   0.653   3.692   9.824 -0.1934 -0.3451  0.4523
  811MPD2    H211997   0.675   3.330  10.032  1.4669  0.7523  0.2128
  811MPD2    H311998   0.635   3.451   9.837  0.3166  0.8979 -0.3941
  811MPD2     N11999   0.731   3.849  10.034  0.8591 -0.0306  0.2699
  811MPD2    H512000   0.777   3.874  10.121  0.1932 -1.0037  0.8934
  811MPD2    N112001   0.731   3.421  10.269 -0.1362 -0.2447  0.4734
  811MPD2    H712002   0.716   3.321  10.256 -0.0654 -0.5245  2.5143
  812MPD2     C12003   4.146   3.450  12.525  0.0509 -0.2661  1.4318
  812MPD2    C112004   4.259   3.507  12.476 -0.6360 -0.1964 -0.8040
  812MPD2    C212005   4.376   3.466  12.535 -0.2270  0.7411 -0.0532
  812MPD2    C312006   4.373   3.366  12.630 -0.3472 -0.7876  0.7354
  812MPD2    C412007   4.257   3.303  12.673  0.2663 -0.8324  0.2807
  812MPD2    C512008   4.139   3.352  12.619 -0.2402 -0.1013 -0.1232
  812MPD2     H12009   4.471   3.505  12.501 -0.8479  2.1515 -0.1701
  812MPD2    H112010   4.251   3.225  12.748 -2.0124 -0.0312  0.9251
  812MPD2    H212011   4.055   3.496  12.487  1.5451  1.0794 -0.5585
  812MPD2    H312012   4.043   3.310  12.646  1.2779 -3.0707  0.5927
  812MPD2     N12013   4.500   3.334  12.693  0.3692 -0.1084  0.2125
  812MPD2    H512014   4.581   3.384  12.657  0.3389  0.2399  0.6287
  812MPD2    N112015   4.237   3.612  12.380  0.0609 -0.1169  0.2186
  812MPD2    H712016   4.139   3.629  12.358  0.7857 -0.1718 -3.0355
  813MPD2     C12017   3.543   0.702  13.015 -1.2185 -0.7293 -0.5818
  813MPD2    C112018   3.573   0.759  13.139  0.5763  0.8923 -0.5113
  813MPD2    C212019   3.471   0.835  13.205  0.1459 -0.1117  0.3556
  813MPD2    C312020   3.344   0.852  13.150 -0.2201  1.1069  0.0474
  813MPD2    C412021   3.319   0.793  13.025 -0.6710 -0.8880 -0.0786
  813MPD2    C512022   3.409   0.713  12.963  0.1267 -0.2508 -0.6251
  813MPD2     H12023   3.487   0.875  13.304 -3.1566  1.1146  0.4009
  813MPD2    H112024   3.220   0.799  12.980 -0.0720 -0.4637 -1.3359
  813MPD2    H212025   3.615   0.641  12.962  1.0279 -0.1615  1.8469
  813MPD2    H312026   3.374   0.660  12.875 -0.1369 -0.8776 -0.1368
  813MPD2     N12027   3.266   0.949  13.218 -0.2603  0.2508  0.7669
  813MPD2    H512028   3.298   0.986  13.307  2.4139  0.9375 -0.4814
  813MPD2    N112029   3.699   0.747  13.191  0.2784 -0.5985  0.2649
  813MPD2    H712030   3.763   0.691  13.135  0.2112 -2.7760  2.4101
  814MPD2     C12031   4.333   1.838  12.719  0.2523 -0.1917  0.4945
  814MPD2    C112032   4.403   1.873  12.607  1.0304 -0.1233 -0.0713
  814MPD2    C212033   4.451   2.002  12.585 -0.0836 -0.1430 -0.4350
  814MPD2    C312034   4.417   2.105  12.672 -0.3115 -0.6060 -0.1839
  814MPD2    C412035   4.330   2.071  12.776 -0.0777  0.8085 -0.0330
  814MPD2    C512036   4.290   1.944  12.790  0.2582 -0.9212  0.3631
  814MPD2     H12037   4.503   2.026  12.493 -0.0281  1.8093  0.1117
  814MPD2    H112038   4.297   2.150  12.843 -1.0636 -1.7563  2.4786
  814MPD2    H212039   4.276   1.749  12.744 -0.1445 -0.9992 -3.3357
  814MPD2    H312040   4.226   1.925  12.875  0.0467  1.2714  0.7026
  814MPD2     N12041   4.439   2.243  12.649  0.1899 -0.1801  0.2619
  814MPD2    H512042   4.387   2.306  12.709  1.7179  0.4568  0.9138
  814MPD2    N112043   4.421   1.775  12.507 -0.2500  0.3812  0.2099
  814MPD2    H712044   4.482   1.805  12.432 -1.4229 -1.5482 -1.5349
  815MPD2     C12045   4.610   0.011  12.349  0.4043  0.4226  0.6302
  815MPD2    C112046   4.604   0.035  12.215 -0.6850 -0.0174 -0.0242
  815MPD2    C212047   4.484   0.009  12.144 -0.7845  0.8234  0.4365
  815MPD2    C312048   4.364   4.715  12.215  0.2468  0.0045 -0.0741
  815MPD2    C412049   4.370   4.702  12.353  0.7140  0.3706  0.5968
  815MPD2    C512050   4.492   4.714  12.413 -0.2671  0.0959  0.7071
  815MPD2     H12051   4.487   0.030  12.038  1.3720 -2.3533 -0.1346
  815MPD2    H112052   4.283   4.691  12.416 -0.7583  2.2700 -1.0895
  815MPD2    H212053   4.705   0.017  12.401  0.9259 -1.5403 -0.0784
  815MPD2    H312054   4.494   4.712  12.522 -4.7190  0.5927  0.7990
  815MPD2     N12055   4.244   4.706  12.144  0.1555  0.2454 -0.0631
  815MPD2    H512056   4.246   4.713  12.043  1.2442 -0.0234 -0.0631
  815MPD2    N112057   4.729   0.060  12.158 -0.5011  0.1530 -0.3038
  815MPD2    H712058   0.074   0.052  12.217  1.1786 -1.7908 -2.8668
  816MPD2     C12059   0.087   0.683  17.460  0.2714  0.0294  0.1330
  816MPD2    C112060   4.722   0.622  17.389  0.0875 -0.1896 -0.6703
  816MPD2    C212061   0.006   0.530  17.293  0.6025  0.1835 -0.0500
  816MPD2    C312062   0.133   0.480  17.279  0.5125  0.1007  0.1617
  816MPD2    C412063   0.240   0.535  17.350  0.0192 -0.5773 -0.1185
  816MPD2    C512064   0.216   0.648  17.427 -0.0259  0.2091  0.1137
  816MPD2     H12065   4.662   0.496  17.229  0.1766 -0.4570  0.8242
  816MPD2    H112066   0.345   0.507  17.340  0.3559  0.2454  1.0193
  816MPD2    H212067   0.069   0.757  17.536 -0.3131  0.2486 -0.2205
  816MPD2    H312068   0.302   0.688  17.478  0.5400  1.5363 -1.8818
  816MPD2     N12069   0.153   0.366  17.201  0.3051  0.3823 -0.7689
  816MPD2    H512070   0.072   0.331  17.150  0.1330  1.0495 -0.9529
  816MPD2    N112071   4.595   0.681  17.410  0.4270  0.0796 -0.4641
  816MPD2    H712072   4.595   0.760  17.473 -1.1629 -0.9854  0.8749
  817MPD2     C12073   4.578   1.248   9.594  0.5656  0.0830  0.1883
  817MPD2    C112074   4.496   1.154   9.535  0.7689  0.1599 -0.7171
  817MPD2    C212075   4.363   1.187   9.512  0.0444  0.7843  0.7258
  817MPD2    C312076   4.310   1.314   9.537  0.6604 -0.0362  0.7815
  817MPD2    C412077   4.397   1.410   9.592  0.0656  0.1176 -0.3313
  817MPD2    C512078   4.527   1.371   9.612  0.2004 -0.2099  1.1893
  817MPD2     H12079   4.300   1.109   9.469  2.1268 -0.1151 -0.6603
  817MPD2    H112080   4.380   1.516   9.607 -0.7519  0.1414 -1.4519
  817MPD2    H212081   4.680   1.222   9.618  0.8563 -0.5963 -1.8412
  817MPD2    H312082   4.584   1.442   9.671  2.7552  1.0059 -2.7899
  817MPD2     N12083   4.176   1.331   9.497  0.6624  0.0602 -0.0264
  817MPD2    H512084   4.135   1.254   9.444 -0.7892  0.7947  0.0457
  817MPD2    N112085   4.536   1.025   9.492 -0.4434  0.5616 -0.7610
  817MPD2    H712086   4.471   0.968   9.439  1.7428 -0.6059 -2.1754
  818MPD2     C12087   3.967   1.079  10.174  0.7310 -0.4849 -0.5658
  818MPD2    C112088   3.858   1.011  10.228 -0.1533  0.0002  0.1995
  818MPD2    C212089   3.843   0.878  10.204 -1.0103  0.0829 -0.9120
  818MPD2    C312090   3.929   0.810  10.117 -0.1053  0.4119 -0.2752
  818MPD2    C412091   4.048   0.868  10.084  0.0372  0.4921 -1.3845
  818MPD2    C512092   4.060   0.997  10.108  0.9909  0.1952 -0.4321
  818MPD2     H12093   3.758   0.833  10.254 -0.6284 -0.6344 -0.9211
  818MPD2    H112094   4.120   0.808  10.030 -0.4166 -0.6633 -0.7168
  818MPD2    H212095   3.992   1.184  10.184  1.6066 -0.6127 -1.3587
  818MPD2    H312096   4.143   1.051  10.064 -0.6877  2.4821 -0.8321
  818MPD2     N12097   3.908   0.674  10.077  0.9011  0.2942  0.0157
  818MPD2    H512098   3.976   0.616  10.028 -2.3498 -1.0030 -2.9512
  818MPD2    N112099   3.770   1.073  10.322 -0.3911  0.4684 -0.8004
  818MPD2    H712100   3.698   1.021  10.371  2.1207 -1.8605  0.3621
  819MPD2     C12101   1.344   3.421  15.591 -0.1570  0.4065  0.2986
  819MPD2    C112102   1.319   3.289  15.606 -0.5184  0.5360  0.2732
  819MPD2    C212103   1.411   3.208  15.672 -0.1848 -0.3400 -0.3412
  819MPD2    C312104   1.517   3.269  15.725  0.1213 -0.3263 -0.0428
  819MPD2    C412105   1.542   3.403  15.714  0.7159 -0.1518 -0.3862
  819MPD2    C512106   1.456   3.481  15.639 -0.2126 -1.1442 -0.7345
  819MPD2     H12107   1.391   3.103  15.684 -0.1652 -0.2342  0.5683
  819MPD2    H112108   1.617   3.458  15.771 -0.1762 -1.5276  2.0849
  819MPD2    H212109   1.278   3.488  15.537 -0.6190  0.1694  0.5599
  819MPD2    H312110   1.471   3.587  15.623  1.6704 -1.4796 -1.1778
  819MPD2     N12111   1.603   3.189  15.804 -0.3298 -0.1602  0.4563
  819MPD2    H512112   1.573   3.093  15.816 -0.9360 -0.1240 -0.7926
  819MPD2    N112113   1.187   3.245  15.566  0.1014 -0.1661 -0.0049
  819MPD2    H712114   1.128   3.321  15.533  0.5666 -0.1246 -0.7447
  820MPD2     C12115   0.237   3.477  15.321  0.1267 -0.8444  0.3124
  820MPD2    C112116   0.357   3.536  15.297 -0.0519  0.6303  0.1309
  820MPD2    C212117   0.474   3.473  15.339  0.1092 -0.5360  0.2899
  820MPD2    C312118   0.471   3.361  15.418  0.1073 -0.3491  0.1645
  820MPD2    C412119   0.348   3.307  15.449 -0.4985  0.1540  0.1317
  820MPD2    C512120   0.236   3.369  15.399 -0.5213  0.0026  0.5376
  820MPD2     H12121   0.569   3.523  15.321  0.2409 -0.7767  0.3171
  820MPD2    H112122   0.331   3.227  15.520  2.0063 -0.2614  0.2684
  820MPD2    H212123   0.143   3.515  15.283  1.0258  1.1744  0.1482
  820MPD2    H312124   0.138   3.331  15.426 -0.2763  0.1891  1.6761
  820MPD2     N12125   0.581   3.288  15.462 -0.2611  0.3267  0.5280
  820MPD2    H512126   0.557   3.200  15.507 -0.9717  0.9111  1.3030
  820MPD2    N112127   0.355   3.649  15.213 -0.5466  0.1104  0.3984
  820MPD2    H712128   0.260   3.677  15.189 -0.6686 -0.5340  0.1431
  821MPD2     C12129   1.708   3.964  13.389 -0.6649 -0.4989 -0.1438
  821MPD2    C112130   1.820   3.938  13.471 -1.1483 -0.4730  0.2572
  821MPD2    C212131   1.944   3.913  13.419 -0.0276 -0.5781 -0.3348
  821MPD2    C312132   1.962   3.918  13.286  0.0563 -0.3287 -0.0018
  821MPD2    C412133   1.855   3.946  13.200  0.5726  0.0115  0.4127
  821MPD2    C512134   1.735   3.970  13.257  0.0380 -0.4578 -0.2689
  821MPD2     H12135   2.024   3.892  13.488 -1.1906  0.7209  1.4411
  821MPD2    H112136   1.858   3.965  13.093  1.4929  0.9627  0.6106
  821MPD2    H212137   1.606   3.986  13.419 -0.5028  2.8307 -2.0268
  821MPD2    H312138   1.651   4.000  13.195  0.7591  0.9416 -0.5806
  821MPD2     N12139   2.091   3.924  13.221  0.2936  0.2281 -0.5860
  821MPD2    H512140   2.086   3.964  13.128 -1.7459  1.8000  0.1910
  821MPD2    N112141   1.817   3.950  13.611 -0.1408 -0.0616  0.6716
  821MPD2    H712142   1.908   3.928  13.651 -0.5009  0.4110  1.7663
  822MPD2     C12143   2.451   0.079  15.864  0.0262  0.3575  0.3572
  822MPD2    C112144   2.391   0.053  15.980  0.3082 -0.4486 -0.8611
  822MPD2    C212145   2.302   0.147  16.027  0.0286 -0.2626 -0.5066
  822MPD2    C312146   2.261   0.256  15.948 -0.0655  0.5483 -0.5634
  822MPD2    C412147   2.308   0.271  15.821  1.0511  0.1805 -0.2034
  822MPD2    C512148   2.397   0.179  15.776  0.0195  0.2956 -0.4435
  822MPD2     H12149   2.262   0.141  16.127  0.3063  0.0875 -0.3725
  822MPD2    H112150   2.282   0.354  15.757 -0.3150  2.0485  2.7718
  822MPD2    H212151   2.528   0.011  15.827  1.4970  2.3385 -0.1895
  822MPD2    H312152   2.449   0.197  15.682 -1.1769  3.2685 -0.5272
  822MPD2     N12153   2.176   0.353  16.013 -0.2141 -0.6872 -0.6470
  822MPD2    H512154   2.126   0.309  16.089  0.3842 -2.0013 -1.0257
  822MPD2    N112155   2.432   4.691  16.077 -0.9149 -0.7908  0.2175
  822MPD2    H712156   2.393   4.703  16.170  0.4661  1.1020  0.5570
  823MPD2     C12157   1.741   0.535  16.696  0.7936  0.9817 -0.1975
  823MPD2    C112158   1.818   0.460  16.607  0.4451 -0.5105 -0.6916
  823MPD2    C212159   1.877   0.341  16.648  0.2617  0.1576 -0.3324
  823MPD2    C312160   1.852   0.302  16.780 -0.0569  0.5855 -0.6232
  823MPD2    C412161   1.772   0.377  16.866 -0.5412  0.1769  0.0898
  823MPD2    C512162   1.720   0.491  16.822 -0.0434  0.4380 -0.1031
  823MPD2     H12163   1.930   0.283  16.574 -0.8212  1.2196 -1.9488
  823MPD2    H112164   1.748   0.349  16.968  2.9934  1.2538  1.2365
  823MPD2    H212165   1.698   0.630  16.667  0.5794  0.7855 -0.5131
  823MPD2    H312166   1.662   0.552  16.891  1.8692  1.2301  0.8369
  823MPD2     N12167   1.910   0.182  16.832  0.7323  0.5060 -0.6119
  823MPD2    H512168   1.884   0.155  16.926  1.0495 -0.6424 -0.8527
  823MPD2    N112169   1.832   0.517  16.479  0.6698 -0.9692  0.2452
  823MPD2    H712170   1.811   0.617  16.472 -0.2600 -1.1231  0.7132
  824MPD2     C12171   2.878   3.954  16.282  0.2646 -0.1669 -0.0700
  824MPD2    C112172   2.804   3.990  16.170 -0.1701 -0.1656 -0.0669
  824MPD2    C212173   2.806   3.902  16.062 -0.1569  0.1149  0.3193
  824MPD2    C312174   2.895   3.792  16.055 -0.4492  0.3234 -0.3739
  824MPD2    C412175   2.973   3.761  16.163 -0.8511 -0.0938  1.1023
  824MPD2    C512176   2.959   3.848  16.268  0.4058 -0.3135 -0.2995
  824MPD2     H12177   2.739   3.921  15.980 -1.0085 -0.9165  0.7699
  824MPD2    H112178   3.043   3.679  16.168  0.4009  0.8700 -0.6584
  824MPD2    H212179   2.893   4.007  16.376 -1.6025  1.1399 -0.5046
  824MPD2    H312180   3.015   3.819  16.357 -1.0454  1.0653  1.0714
  824MPD2     N12181   2.888   3.711  15.934  0.6529 -0.4456 -0.0376
  824MPD2    H512182   2.837   3.752  15.857  0.0135  2.2514  1.8259
  824MPD2    N112183   2.722   4.109  16.168 -0.4653  0.3720  0.0778
  824MPD2    H712184   2.651   4.117  16.095  0.7336  1.2049 -1.0055
  825MPD2     C12185   3.590   3.802  15.700  0.5020  0.2011  0.2241
  825MPD2    C112186   3.475   3.860  15.644 -0.8876  0.5491 -0.4306
  825MPD2    C212187   3.468   3.999  15.625 -0.4795 -0.4133 -0.3423
  825MPD2    C312188   3.575   4.079  15.671 -0.8005 -0.2406  0.2092
  825MPD2    C412189   3.672   4.022  15.747  0.3832 -0.1536  0.2466
  825MPD2    C512190   3.684   3.887  15.745 -0.4277 -0.3560  0.2613
  825MPD2     H12191   3.390   4.055  15.575  0.1311 -0.8104 -1.7105
  825MPD2    H112192   3.753   4.080  15.789 -0.3434  0.2308  1.1230
  825MPD2    H212193   3.593   3.694  15.705  1.0728  0.2929  1.8843
  825MPD2    H312194   3.767   3.844  15.800 -0.9196  0.0522  1.3193
  825MPD2     N12195   3.572   4.220  15.668  0.1833 -0.3292  0.1667
  825MPD2    H512196   3.628   4.277  15.729 -0.7578 -1.4268  2.0802
  825MPD2    N112197   3.365   3.775  15.621 -0.3537 -0.2268 -0.3248
  825MPD2    H712198   3.385   3.676  15.628  3.3734  0.7402  2.0583
  826MPD2     C12199   2.634   3.209  14.035  0.5464 -0.0939  0.2593
  826MPD2    C112200   2.687   3.333  14.055 -0.3184  0.1064 -0.2380
  826MPD2    C212201   2.600   3.433  14.083 -0.9125 -0.1663  0.0476
  826MPD2    C312202   2.465   3.407  14.091 -0.1840 -0.7620 -0.2242
  826MPD2    C412203   2.412   3.280  14.070 -0.4713 -0.4847 -0.2582
  826MPD2    C512204   2.500   3.181  14.045 -0.0136  0.2089 -0.4285
  826MPD2     H12205   2.644   3.530  14.104  0.0070 -0.5381 -0.1219
  826MPD2    H112206   2.306   3.257  14.072 -0.1708 -2.0776 -2.6102
  826MPD2    H212207   2.707   3.132  14.013 -0.3119 -0.8073 -0.0799
  826MPD2    H312208   2.460   3.081  14.046  0.5290 -0.0308 -2.3606
  826MPD2     N12209   2.369   3.505  14.116 -0.4907  0.5083 -0.4445
  826MPD2    H512210   2.272   3.481  14.100  0.2088 -3.6612  1.5097
  826MPD2    N112211   2.823   3.351  14.042 -0.4380  0.3252 -0.7455
  826MPD2    H712212   2.876   3.267  14.019  0.3573  0.3120  1.1280
  827MPD2     C12213   3.769   4.375   9.973 -0.1223  0.6470  0.2338
  827MPD2    C112214   3.719   4.392  10.104  0.4985 -0.0784 -0.0543
  827MPD2    C212215   3.593   4.345  10.127 -0.7691  0.1424  0.8943
  827MPD2    C312216   3.515   4.301  10.024  0.0478  0.6539  0.7364
  827MPD2    C412217   3.566   4.266   9.900 -0.0914 -0.2488 -0.2369
  827MPD2    C512218   3.693   4.306   9.878  0.8339  0.9104  0.0026
  827MPD2     H12219   3.544   4.366  10.222 -0.2710 -0.4587  1.2785
  827MPD2    H112220   3.507   4.217   9.823 -2.4114  3.2605 -0.6654
  827MPD2    H212221   3.869   4.400   9.940  0.2053 -1.5069 -0.4134
  827MPD2    H312222   3.734   4.292   9.779  1.9384  1.9501  0.3157
  827MPD2     N12223   3.382   4.268  10.057 -0.2622  0.3874  0.4402
  827MPD2    H512224   3.352   4.300  10.149 -0.0891 -0.4238  0.7731
  827MPD2    N112225   3.805   4.461  10.199 -0.2127  0.0590 -0.0022
  827MPD2    H712226   3.899   4.480  10.167 -0.9171 -0.0636 -2.1587
  828MPD2     C12227   2.434   0.230  12.347 -1.2289  0.4487 -1.1306
  828MPD2    C112228   2.359   0.123  12.292  0.1890 -0.0274 -0.5479
  828MPD2    C212229   2.414   0.053  12.178  0.3352 -0.4402  0.6864
  828MPD2    C312230   2.539   0.092  12.126  0.1348 -0.1787  0.4446
  828MPD2    C412231   2.604   0.201  12.178 -0.1374  0.3117  0.0086
  828MPD2    C512232   2.551   0.267  12.284 -0.4211  0.1695  0.3142
  828MPD2     H12233   2.357   4.712  12.129  0.9261 -0.3256 -0.1833
  828MPD2    H112234   2.686   0.247  12.123  0.2822 -0.4052  0.0399
  828MPD2    H212235   2.400   0.304  12.418  0.6986  0.2259  0.0186
  828MPD2    H312236   2.607   0.359  12.302 -1.0638  0.5270  0.4857
  828MPD2     N12237   2.598   0.033  12.012  0.1282  0.0915  0.6060
  828MPD2    H512238   2.686   0.074  11.983 -0.1382  1.0539  1.1657
  828MPD2    N112239   2.235   0.088  12.344 -0.2398  0.2498  0.4228
  828MPD2    H712240   2.189   0.013  12.293 -0.3238  0.1882  0.5891
  829MPD2     C12241   1.645   0.042  11.752 -0.3266  0.2474 -0.0604
  829MPD2    C112242   1.561   0.035  11.860 -0.5147  0.0704  0.9684
  829MPD2    C212243   1.623   0.044  11.978 -0.1007  0.5523  0.1926
  829MPD2    C312244   1.755   0.070  11.995 -0.4009  0.5216 -0.4343
  829MPD2    C412245   1.843   0.082  11.885 -0.7508 -0.4896  0.1293
  829MPD2    C512246   1.781   0.073  11.767  0.6727  0.0877 -0.8631
  829MPD2     H12247   1.565   0.021  12.066 -1.8231 -1.9101 -1.6088
  829MPD2    H112248   1.948   0.107  11.893 -1.5137  3.3409 -1.9455
  829MPD2    H212249   1.597   0.055  11.655  0.1178 -3.5981 -0.7807
  829MPD2    H312250   1.836   0.073  11.674  1.2854 -0.3297 -0.5047
  829MPD2     N12251   1.820   0.063  12.127 -0.0001  0.5388  0.3909
  829MPD2    H512252   1.921   0.069  12.120  0.1654 -0.6660  1.9210
  829MPD2    N112253   1.421   0.009  11.837  0.3300 -0.1364  0.1882
  829MPD2    H712254   1.392   4.719  11.744 -2.5285  0.4157  0.9224
  830MPD2     C12255   2.165   2.527  15.905 -0.0467 -0.0126  0.3870
  830MPD2    C112256   2.107   2.632  15.834 -0.2111 -0.2386 -0.3206
  830MPD2    C212257   2.160   2.681  15.717 -0.6900  0.5890 -0.0030
  830MPD2    C312258   2.278   2.624  15.670  0.0791 -1.2289 -0.2434
  830MPD2    C412259   2.336   2.520  15.745 -0.2626  0.9032  0.0248
  830MPD2    C512260   2.281   2.475  15.859 -0.0855  0.3674 -0.5385
  830MPD2     H12261   2.116   2.768  15.670  1.5258  1.1409 -1.0672
  830MPD2    H112262   2.421   2.466  15.706 -0.2487 -0.2184  1.5982
  830MPD2    H212263   2.130   2.492  16.001 -0.0644 -1.5439 -0.1886
  830MPD2    H312264   2.319   2.396  15.923  1.7320  0.6312 -1.2956
  830MPD2     N12265   2.352   2.675  15.561  0.6730 -0.7797  0.2160
  830MPD2    H512266   2.450   2.650  15.555  1.0082  0.1618  1.9677
  830MPD2    N112267   2.005   2.700  15.904 -0.0571 -0.4440  0.2067
  830MPD2    H712268   1.991   2.658  15.995  1.3553 -0.5508  0.3765
  831MPD2     C12269   2.445   0.468  16.334 -0.4156 -0.0984  0.4581
  831MPD2    C112270   2.469   0.331  16.326  0.6118 -0.3842 -0.1154
  831MPD2    C212271   2.366   0.239  16.344  0.5698  0.4923 -0.1873
  831MPD2    C312272   2.243   0.284  16.373 -0.3090 -0.0516 -0.0975
  831MPD2    C412273   2.220   0.419  16.396 -0.0318  1.7656 -0.1597
  831MPD2    C512274   2.322   0.512  16.374  0.5281 -0.5208 -0.3642
  831MPD2     H12275   2.389   0.133  16.348  0.1047  0.3126 -2.0313
  831MPD2    H112276   2.126   0.453  16.440  0.2502 -0.4756  2.1861
  831MPD2    H212277   2.526   0.534  16.308 -1.1160  0.2217 -0.8659
  831MPD2    H312278   2.312   0.618  16.393  5.2507  0.0301 -0.8560
  831MPD2     N12279   2.135   0.189  16.365  0.0208  0.3389 -0.8561
  831MPD2    H512280   2.042   0.227  16.378 -0.2174 -0.7473  0.6246
  831MPD2    N112281   2.599   0.294  16.275  0.1656 -0.1619 -0.2623
  831MPD2    H712282   2.656   0.373  16.245 -1.9154  1.4514  0.0086
  832MPD2     C12283   0.780   1.007  17.146 -0.3554 -0.1991  0.4057
  832MPD2    C112284   0.803   1.133  17.110  0.1558  0.1658  0.5346
  832MPD2    C212285   0.734   1.188  17.005  0.0746 -0.2144  0.0835
  832MPD2    C312286   0.626   1.119  16.944 -0.4321 -0.0773 -0.0284
  832MPD2    C412287   0.618   0.986  16.970  0.3846 -0.0473  0.7248
  832MPD2    C512288   0.697   0.933  17.071  0.2694 -0.3170 -0.0632
  832MPD2     H12289   0.752   1.292  16.981  3.7110 -0.4634  1.6483
  832MPD2    H112290   0.540   0.924  16.927 -0.2702  0.2596  1.4764
  832MPD2    H212291   0.836   0.965  17.229  1.9565  0.8076 -0.6204
  832MPD2    H312292   0.683   0.830  17.100 -0.7614 -0.3079 -0.5510
  832MPD2     N12293   0.531   1.181  16.849  0.1865 -0.4955  0.1097
  832MPD2    H512294   0.459   1.122  16.808 -0.2000 -0.0463  0.1515
  832MPD2    N112295   0.898   1.209  17.184 -0.1949 -0.0812 -0.5683
  832MPD2    H712296   0.919   1.172  17.276 -0.0430 -1.1575 -1.0452
  833MPD2     C12297   3.042   2.296  12.768  0.0453 -0.0280  0.5657
  833MPD2    C112298   3.045   2.362  12.651 -0.1924  0.0194  0.6924
  833MPD2    C212299   3.083   2.300  12.532  0.1354  0.0747  0.0439
  833MPD2    C312300   3.122   2.166  12.536  0.0244  0.1332 -0.4043
  833MPD2    C412301   3.127   2.097  12.658  0.5747  0.7698 -0.6759
  833MPD2    C512302   3.081   2.165  12.772  0.1879 -0.5338 -0.3909
  833MPD2     H12303   3.085   2.342  12.432  0.1855 -0.1212 -0.0391
  833MPD2    H112304   3.153   1.992  12.657 -1.4174  0.2480  3.3656
  833MPD2    H212305   3.011   2.347  12.859  0.9443  2.1104 -0.3157
  833MPD2    H312306   3.051   2.112  12.862  0.7409 -0.0989  0.0448
  833MPD2     N12307   3.182   2.103  12.424  0.3256  0.1888 -0.7822
  833MPD2    H512308   3.215   2.008  12.434  0.4082  0.7048  3.6146
  833MPD2    N112309   3.003   2.498  12.659 -0.2527 -0.6124 -0.3967
  833MPD2    H712310   2.966   2.534  12.746  2.3983  0.0505  0.4506
  834MPD2     C12311   2.665   1.618  11.783 -0.3065  0.0068  0.5625
  834MPD2    C112312   2.774   1.620  11.705 -0.1685 -0.1567  0.4966
  834MPD2    C212313   2.879   1.702  11.755  0.2642 -0.3265  0.3873
  834MPD2    C312314   2.883   1.761  11.877  0.6282 -0.1374  0.0723
  834MPD2    C412315   2.764   1.763  11.949  0.6870 -0.2117 -0.0878
  834MPD2    C512316   2.657   1.691  11.901 -0.2977 -0.0557 -0.7434
  834MPD2     H12317   2.968   1.705  11.692 -0.0261 -0.4432 -0.0278
  834MPD2    H112318   2.759   1.809  12.047 -1.8631  1.1703 -0.8467
  834MPD2    H212319   2.575   1.570  11.749  0.5595 -2.0508  1.1674
  834MPD2    H312320   2.569   1.673  11.961 -0.8525 -0.4919 -1.7040
  834MPD2     N12321   2.999   1.839  11.914  0.0395 -0.1599 -0.1391
  834MPD2    H512322   3.068   1.856  11.842 -0.3376  0.2408 -0.4076
  834MPD2    N112323   2.758   1.565  11.570 -0.5397 -0.2460  0.4999
  834MPD2    H712324   2.677   1.505  11.557  0.3642 -1.5954  1.0526
  835MPD2     C12325   2.885   4.387  11.168  0.1737  0.0809  0.0728
  835MPD2    C112326   2.839   4.498  11.239 -0.7968 -0.0115 -0.0794
  835MPD2    C212327   2.928   4.561  11.325  0.2450 -0.5336  0.2359
  835MPD2    C312328   3.056   4.518  11.351  0.1984 -0.2592 -0.7225
  835MPD2    C412329   3.087   4.391  11.296 -0.3378 -0.0820 -0.3241
  835MPD2    C512330   3.008   4.330  11.195 -0.2942 -0.2221 -0.2694
  835MPD2     H12331   2.887   4.651  11.370 -0.1346 -0.2525 -0.6838
  835MPD2    H112332   3.181   4.340  11.309  0.8758  2.2906  0.1393
  835MPD2    H212333   2.815   4.333  11.106 -0.3771 -0.4039  1.1051
  835MPD2    H312334   3.041   4.238  11.148  1.7163 -0.4516  1.5943
  835MPD2     N12335   3.145   4.572  11.448 -0.3632 -0.2613  0.0049
  835MPD2    H512336   3.226   4.513  11.468  0.0829  0.0879 -0.7604
  835MPD2    N112337   2.707   4.556  11.229  0.3522  0.0098  0.4784
  835MPD2    H712338   2.686   4.636  11.287 -2.5248 -0.0548 -0.4812
  836MPD2     C12339   3.031   0.386  12.075 -0.3749  0.2678  0.0818
  836MPD2    C112340   3.063   0.249  12.092 -1.1884  0.5755  0.2464
  836MPD2    C212341   3.016   0.177  12.200 -0.7827  0.3542 -0.3953
  836MPD2    C312342   2.925   0.235  12.286 -0.3654 -0.1671 -0.1830
  836MPD2    C412343   2.897   0.369  12.271  0.0061  0.3610 -1.1341
  836MPD2    C512344   2.955   0.447  12.172  0.9547  0.2472  0.8456
  836MPD2     H12345   3.036   0.071  12.206  0.3879  0.4596 -2.3485
  836MPD2    H112346   2.824   0.417  12.336  0.0754 -2.2979  0.8699
  836MPD2    H212347   3.065   0.453  11.996 -0.4442 -1.0151 -1.0415
  836MPD2    H312348   2.940   0.554  12.165 -0.0332 -0.0741 -2.0534
  836MPD2     N12349   2.860   0.172  12.397  0.2378  0.1612  0.1372
  836MPD2    H512350   2.824   0.233  12.470  0.6555 -0.2711  0.7098
  836MPD2    N112351   3.154   0.180  12.004 -0.2137  0.4247 -0.5603
  836MPD2    H712352   3.158   0.079  12.016 -0.1912  0.6371  1.1847
  837MPD2     C12353   1.179   4.457  10.270 -0.2243  0.2022 -0.1011
  837MPD2    C112354   1.059   4.482  10.211  0.0920 -0.1592  0.7031
  837MPD2    C212355   1.003   4.603  10.233 -0.2137  0.6157 -0.0614
  837MPD2    C312356   1.059   4.703  10.314  0.4485 -0.5214  0.6791
  837MPD2    C412357   1.186   4.682  10.362  0.1159 -0.3052 -0.4975
  837MPD2    C512358   1.228   4.551  10.353  0.1451  0.6985 -0.8685
  837MPD2     H12359   0.905   4.618  10.188  0.1192 -0.2381 -1.0607
  837MPD2    H112360   1.233   0.004  10.439  1.9213 -1.0345 -1.0169
  837MPD2    H212361   1.218   4.356  10.267 -3.4076 -1.0881  1.3505
  837MPD2    H312362   1.298   4.515  10.428  0.2634  3.2103  0.2218
  837MPD2     N12363   0.985   0.089  10.314  0.4217  0.4796 -0.0433
  837MPD2    H512364   0.887   0.092  10.289 -0.0134 -2.1065  1.3294
  837MPD2    N112365   0.991   4.392  10.139  0.2913 -0.4471 -0.4502
  837MPD2    H712366   0.904   4.431  10.105  0.6974  1.1500  0.3260
  838MPD2     C12367   4.255   3.106  12.070  0.0382  0.0246  0.3331
  838MPD2    C112368   4.245   2.969  12.056 -0.3223 -0.3404  0.2136
  838MPD2    C212369   4.218   2.899  12.168  0.7703  0.6129  0.2906
  838MPD2    C312370   4.205   2.953  12.290  0.3137 -0.2994 -0.5297
  838MPD2    C412371   4.234   3.089  12.301  0.0257  0.5298  0.4743
  838MPD2    C512372   4.246   3.165  12.190 -0.2125 -0.5003 -0.3466
  838MPD2     H12373   4.186   2.795  12.164 -0.6065  1.1606 -3.0131
  838MPD2    H112374   4.241   3.139  12.397 -0.4015 -0.1878  0.8734
  838MPD2    H212375   4.271   3.161  11.978  0.2726  0.9379  0.9296
  838MPD2    H312376   4.241   3.273  12.196 -0.1508 -0.3220 -3.6750
  838MPD2     N12377   4.188   2.859  12.392  0.3378  0.0759  0.1652
  838MPD2    H512378   4.165   2.766  12.359  0.4587  0.0707  0.0978
  838MPD2    N112379   4.260   2.901  11.936 -0.0266  0.2532  0.3516
  838MPD2    H712380   4.249   2.800  11.933 -1.1428  0.4109 -0.9493
  839MPD2     C12381   4.124   2.095  11.910 -0.0368  0.5008  0.0028
  839MPD2    C112382   4.170   2.105  11.778  0.0658 -1.0852  0.2450
  839MPD2    C212383   4.192   2.230  11.728  0.6749 -0.8294  0.1155
  839MPD2    C312384   4.165   2.343  11.801  0.1320 -0.1316 -0.3490
  839MPD2    C412385   4.112   2.329  11.926 -0.6414 -0.3391  0.6549
  839MPD2    C512386   4.092   2.203  11.984 -0.0074  1.1500  0.7673
  839MPD2     H12387   4.218   2.235  11.623 -1.3497 -0.8460 -0.3753
  839MPD2    H112388   4.081   2.415  11.983  0.5706  1.2183 -1.0566
  839MPD2    H212389   4.106   2.001  11.962 -0.0734  0.6356  0.2311
  839MPD2    H312390   4.060   2.205  12.087 -1.9684  0.0669  0.1833
  839MPD2     N12391   4.184   2.470  11.752  0.0823 -0.1251 -0.2159
  839MPD2    H512392   4.166   2.549  11.813  0.6538 -0.5471  0.4984
  839MPD2    N112393   4.177   1.990  11.693  0.0687 -0.1406  0.3481
  839MPD2    H712394   4.204   2.007  11.597 -1.4203 -1.3492 -0.2801
  840MPD2     C12395   4.356   0.020  10.093  0.2250  1.0678  0.0596
  840MPD2    C112396   4.358   4.731  10.229  0.4897  0.0936  0.2992
  840MPD2    C212397   4.444   0.060  10.310  0.5787 -0.1992  0.4340
  840MPD2    C312398   4.523   0.155  10.250  0.2862 -0.4440 -0.5209
  840MPD2    C412399   4.513   0.193  10.118 -0.1266  0.5915 -0.0475
  840MPD2    C512400   4.433   0.120  10.040  0.4015  0.0543 -0.4127
  840MPD2     H12401   4.457   0.027  10.413 -0.5662 -1.8909  0.0451
  840MPD2    H112402   4.578   0.270  10.078  0.7856 -0.2353 -0.1460
  840MPD2    H212403   4.305   4.699  10.017  2.1567 -0.6437  0.0659
  840MPD2    H312404   4.429   0.145   9.934  1.0230 -0.8357 -0.6407
  840MPD2     N12405   4.607   0.238  10.322 -0.0410  0.1572 -0.3668
  840MPD2    H512406   4.650   0.314  10.270  0.7030 -1.0686 -1.5767
  840MPD2    N112407   4.255   4.651  10.273  0.3291 -0.0938 -0.5107
  840MPD2    H712408   4.189   4.615  10.205 -1.6070  0.9088  0.8492
  841MPD2     C12409   3.316   0.550  14.613 -0.1170 -0.1501  0.7073
  841MPD2    C112410   3.367   0.422  14.602 -0.2516 -0.1118 -0.2260
  841MPD2    C212411   3.498   0.394  14.636 -0.2683 -0.5561 -0.4264
  841MPD2    C312412   3.573   0.490  14.701  0.4288  0.5024 -0.1513
  841MPD2    C412413   3.523   0.615  14.717 -0.2481  0.7142  0.5917
  841MPD2    C512414   3.397   0.647  14.661  0.6034  0.2416  0.8419
  841MPD2     H12415   3.531   0.292  14.617 -0.5290 -0.7712  0.3023
  841MPD2    H112416   3.580   0.690  14.771  0.7940 -0.1014  0.6168
  841MPD2    H212417   3.222   0.583  14.570 -0.3448 -2.6997 -0.7479
  841MPD2    H312418   3.361   0.749  14.648 -0.8905 -0.4835 -0.7839
  841MPD2     N12419   3.695   0.444  14.754  0.3904  0.2573 -0.1929
  841MPD2    H512420   3.718   0.345  14.745  1.9881  0.6358 -0.1848
  841MPD2    N112421   3.301   0.322  14.535 -0.0399 -0.1255  0.3911
  841MPD2    H712422   3.359   0.246  14.500  0.4914  0.8444 -0.8210
  842MPD2     C12423   4.647   1.762  16.905  0.2638 -0.3787 -0.1654
  842MPD2    C112424   4.521   1.746  16.956 -0.7046 -0.3083  1.0640
  842MPD2    C212425   4.507   1.643  17.046  0.2394  0.7130  0.0307
  842MPD2    C312426   4.613   1.567  17.087  0.2187  0.2855 -0.8004
  842MPD2    C412427   0.005   1.583  17.027 -0.4445  0.5925 -0.1781
  842MPD2    C512428   0.014   1.681  16.936  0.1009 -0.1111  0.1298
  842MPD2     H12429   4.413   1.631  17.097  0.6066 -1.6661  0.1492
  842MPD2    H112430   0.088   1.521  17.060 -0.0865  0.4881 -1.2546
  842MPD2    H212431   4.669   1.838  16.830 -3.9051 -1.7714 -2.7766
  842MPD2    H312432   0.104   1.701  16.879 -0.2037  2.3719  0.5059
  842MPD2     N12433   4.587   1.490  17.201 -0.8039 -0.2405 -0.5661
  842MPD2    H512434   4.491   1.478  17.232 -0.3502  1.9491  1.6039
  842MPD2    N112435   4.424   1.824  16.899  0.4890 -0.1846 -0.2394
  842MPD2    H712436   4.457   1.902  16.843 -3.4309  1.4446 -0.3255
  843MPD2     C12437   1.640   2.799  17.617 -0.0340 -0.2056 -0.5631
  843MPD2    C112438   1.672   2.730  17.731  0.0458  0.2163 -0.5296
  843MPD2    C212439   1.769   2.783   0.071  0.5468 -0.6318 -0.2706
  843MPD2    C312440   1.827   2.904   0.039  0.3193  0.3159 -0.2148
  843MPD2    C412441   1.799   2.967  17.668  0.0004  0.1631  0.1442
  843MPD2    C512442   1.697   2.920  17.590  0.2452 -0.4758 -0.0268
  843MPD2     H12443   1.813   2.730   0.155  1.9922 -1.2250 -1.3938
  843MPD2    H112444   1.826   3.069  17.644 -1.3334  0.5216  0.2022
  843MPD2    H212445   1.554   2.774  17.555  0.4932 -2.0392 -0.5509
  843MPD2    H312446   1.674   2.972  17.498  1.6173 -0.6973 -0.4964
  843MPD2     N12447   1.927   2.959   0.131 -0.1808 -0.0313 -0.1298
  843MPD2    H512448   1.972   3.045   0.102  1.4419 -1.0303 -0.5654
  843MPD2    N112449   1.603   2.606   0.011  0.7690 -1.0291 -0.6236
  843MPD2    H712450   1.523   2.576  17.703  1.0734 -1.2386 -0.9494
  844MPD2     C12451   0.176   1.056  16.393 -0.2358 -0.3363  0.2989
  844MPD2    C112452   0.279   0.995  16.326  0.7347  0.4212  0.0900
  844MPD2    C212453   0.406   1.053  16.331  0.1665  0.9917  0.4989
  844MPD2    C312454   0.433   1.177  16.387  0.3771 -0.8575 -0.0381
  844MPD2    C412455   0.326   1.237  16.441 -0.5052 -0.6666 -0.6301
  844MPD2    C512456   0.201   1.181  16.444  0.2090  0.1371  0.2639
  844MPD2     H12457   0.488   0.995  16.289 -0.0651  0.2264  1.0924
  844MPD2    H112458   0.336   1.338  16.481  0.2174 -0.3930 -1.5042
  844MPD2    H212459   0.078   1.012  16.403  0.1030 -1.1936 -0.1821
  844MPD2    H312460   0.118   1.230  16.494  0.4262 -0.2052  0.9660
  844MPD2     N12461   0.570   1.205  16.417 -0.2987  0.0644  0.1934
  844MPD2    H512462   0.641   1.137  16.391 -0.3802  1.0149 -2.4885
  844MPD2    N112463   0.266   0.875  16.256 -0.0513  0.0827  0.0610
  844MPD2    H712464   0.336   0.837  16.193  1.2002 -0.2432  1.6636
  845MPD2     C12465   0.764   1.914  17.120  0.7953 -0.2420  1.1348
  845MPD2    C112466   0.658   1.826  17.089  0.3154 -0.0970 -0.1078
  845MPD2    C212467   0.673   1.729  16.994  0.6486  0.6888  0.0795
  845MPD2    C312468   0.793   1.711  16.937  0.4115  0.0836 -0.0359
  845MPD2    C412469   0.897   1.801  16.964 -0.2182  0.3151  0.5715
  845MPD2    C512470   0.878   1.901  17.056  0.6482 -0.4568 -0.2101
  845MPD2     H12471   0.594   1.656  16.978  0.4521  0.9549 -0.1631
  845MPD2    H112472   0.997   1.783  16.927  0.6070  2.0528  1.9552
  845MPD2    H212473   0.760   1.993  17.194  0.3070  0.5131  0.3055
  845MPD2    H312474   0.964   1.966  17.063  0.4392 -0.3063  0.8856
  845MPD2     N12475   0.796   1.607  16.840 -0.0858 -0.0046  0.2662
  845MPD2    H512476   0.709   1.561  16.815 -0.3279 -0.2162  1.5033
  845MPD2    N112477   0.539   1.831  17.171 -0.5429  0.5373 -0.0218
  845MPD2    H712478   0.546   1.885  17.256 -0.1860 -2.2487  1.7230
  846MPD2     C12479   2.032   1.967  13.486  0.2273 -0.4602  0.2824
  846MPD2    C112480   1.943   2.070  13.514 -0.4630  0.3808  0.1479
  846MPD2    C212481   1.913   2.108  13.642 -0.2017 -0.1418 -0.4106
  846MPD2    C312482   1.991   2.052  13.749 -0.0425 -0.1511 -0.4720
  846MPD2    C412483   2.074   1.945  13.721  0.2603  0.2183 -0.2572
  846MPD2    C512484   2.091   1.896  13.593  0.5678 -0.7957 -0.1685
  846MPD2     H12485   1.847   2.190  13.665  0.2769  0.1421 -0.0544
  846MPD2    H112486   2.138   1.910  13.801  2.9470  1.3553 -1.9071
  846MPD2    H212487   2.045   1.927  13.386  0.8516  0.5895 -0.0571
  846MPD2    H312488   2.150   1.808  13.572  1.3396 -0.0435 -1.1729
  846MPD2     N12489   1.966   2.104  13.878  0.0054  0.0522  0.6582
  846MPD2    H512490   1.881   2.159  13.890 -0.1470  0.1340 -0.8068
  846MPD2    N112491   1.882   2.149  13.413  0.0373 -0.0375  0.3265
  846MPD2    H712492   1.831   2.230  13.448 -2.5815 -1.4642 -0.1816
  847MPD2     C12493   1.872   2.852  14.475 -0.2458 -0.3772  0.1340
  847MPD2    C112494   1.957   2.958  14.524  0.2056  0.7549 -0.1849
  847MPD2    C212495   2.090   2.917  14.535 -0.1511  0.2073 -0.2938
  847MPD2    C312496   2.136   2.792  14.512  0.6964  0.0366 -0.5194
  847MPD2    C412497   2.046   2.693  14.478  0.3014 -0.0664 -0.1943
  847MPD2    C512498   1.918   2.725  14.454  0.5369 -0.2271  0.6803
  847MPD2     H12499   2.160   2.999  14.546 -0.8379  1.0614 -2.3623
  847MPD2    H112500   2.073   2.592  14.449 -0.4265 -0.3501  0.1118
  847MPD2    H212501   1.765   2.866  14.463 -0.3140  0.8308  2.2224
  847MPD2    H312502   1.843   2.651  14.430  1.5492 -0.3809 -2.0055
  847MPD2     N12503   2.277   2.776  14.528  0.0018  0.6231  0.6516
  847MPD2    H512504   2.341   2.854  14.534  0.2529  0.5227 -0.6316
  847MPD2    N112505   1.916   3.087  14.563 -0.3605  0.3132 -0.4945
  847MPD2    H712506   1.997   3.147  14.577 -1.6585  2.0709 -0.5321
  848MPD2     C12507   0.439   1.734  16.285  0.4504  1.1461 -0.6447
  848MPD2    C112508   0.372   1.769  16.400 -0.6314 -0.0449 -0.1999
  848MPD2    C212509   0.305   1.887  16.416  0.5280 -0.3768 -0.4041
  848MPD2    C312510   0.314   1.980  16.322 -0.2903 -0.1037  0.4465
  848MPD2    C412511   0.388   1.953  16.207 -0.0023  0.4324 -0.2938
  848MPD2    C512512   0.439   1.830  16.192 -0.2092 -0.6802  0.6082
  848MPD2     H12513   0.240   1.899  16.502  0.4926 -2.2415 -0.1794
  848MPD2    H112514   0.386   2.019  16.120 -3.0325 -0.9879 -1.3233
  848MPD2    H212515   0.490   1.640  16.268  1.5830  1.8830 -1.4207
  848MPD2    H312516   0.491   1.820  16.098  0.3857 -2.6905  1.1389
  848MPD2     N12517   0.258   2.110  16.337 -0.2172 -0.0473 -0.2030
  848MPD2    H512518   0.254   2.168  16.254  0.7488 -1.6025 -1.3484
  848MPD2    N112519   0.374   1.670  16.501  0.1233  1.0072  0.1027
  848MPD2    H712520   0.432   1.590  16.478 -0.2371  0.7296  0.1524
  849MPD2     C12521   3.659   1.466  14.185 -0.7265  0.6412 -0.7581
  849MPD2    C112522   3.761   1.443  14.270  0.7302 -0.0162  0.0666
  849MPD2    C212523   3.749   1.365  14.379 -0.3858 -0.1913 -0.0977
  849MPD2    C312524   3.634   1.300  14.410  0.5599  0.6184  0.1248
  849MPD2    C412525   3.526   1.319  14.327 -0.1762  0.1970 -0.0566
  849MPD2    C512526   3.540   1.411  14.224 -0.6221  0.2250  0.2779
  849MPD2     H12527   3.833   1.352  14.447  0.1221  1.9592 -0.2948
  849MPD2    H112528   3.443   1.252  14.340  0.1418  0.0237  1.1158
  849MPD2    H212529   3.677   1.525  14.096 -0.2753 -1.3467 -1.9890
  849MPD2    H312530   3.453   1.421  14.159  0.9197 -1.0199 -1.9971
  849MPD2     N12531   3.629   1.199  14.511  0.0789  0.0454  0.1239
  849MPD2    H512532   3.554   1.131  14.510 -0.0193  0.1422  0.6884
  849MPD2    N112533   3.888   1.509  14.247 -0.5378  0.1198 -0.3298
  849MPD2    H712534   3.923   1.524  14.153 -0.6556  2.4771 -0.0147
  850MPD2     C12535   2.613   3.626  15.244 -0.0639  0.1690  0.1384
  850MPD2    C112536   2.591   3.742  15.304 -0.2387  0.7351  0.0846
  850MPD2    C212537   2.693   3.839  15.322 -0.1992  0.3475 -0.8168
  850MPD2    C312538   2.817   3.815  15.264 -0.2285  0.4343 -0.3486
  850MPD2    C412539   2.836   3.694  15.200 -0.4106 -0.6184  0.6963
  850MPD2    C512540   2.736   3.604  15.185  0.5739 -0.6372 -0.2650
  850MPD2     H12541   2.679   3.917  15.396 -1.7368 -1.9632  1.3085
  850MPD2    H112542   2.937   3.673  15.166 -0.4748  2.5672 -1.5145
  850MPD2    H212543   2.542   3.544  15.243  0.3361 -0.1749 -0.1247
  850MPD2    H312544   2.770   3.508  15.148  2.5442 -0.3523  0.8041
  850MPD2     N12545   2.924   3.911  15.286  0.8263 -0.1986 -0.5762
  850MPD2    H512546   2.903   3.992  15.343  2.7537 -0.3753  0.4235
  850MPD2    N112547   2.475   3.744  15.371  0.4930 -0.4695 -0.2550
  850MPD2    H712548   2.415   3.663  15.366  0.6705 -0.6421  0.3318
  851MPD2     C12549   2.597   3.513  15.883  0.4980  0.4386 -0.6912
  851MPD2    C112550   2.485   3.515  15.811 -0.1060  0.0897 -0.2639
  851MPD2    C212551   2.476   3.401  15.734  0.0718  0.4202 -0.0803
  851MPD2    C312552   2.566   3.296  15.729 -0.4672  0.4256  0.3153
  851MPD2    C412553   2.683   3.302  15.802  0.2517 -0.7513  0.8181
  851MPD2    C512554   2.691   3.411  15.882 -0.3783 -0.6741 -0.3674
  851MPD2     H12555   2.386   3.388  15.675  0.4766 -0.6391 -0.4617
  851MPD2    H112556   2.767   3.235  15.786  1.6364  1.1312  0.1751
  851MPD2    H212557   2.627   3.593  15.949 -0.2070  0.0105  0.1338
  851MPD2    H312558   2.781   3.413  15.943 -1.0626 -0.1479  0.6152
  851MPD2     N12559   2.545   3.194  15.633  0.2514 -0.0060 -0.3326
  851MPD2    H512560   2.460   3.191  15.578  0.6934  0.3098 -1.0333
  851MPD2    N112561   2.390   3.613  15.834  0.4115 -0.2350 -0.1094
  851MPD2    H712562   2.412   3.698  15.886  1.5510 -2.0469  2.3666
  852MPD2     C12563   2.097   1.222  10.032  0.0800 -0.5754  0.1094
  852MPD2    C112564   2.066   1.290  10.151  0.5908 -0.3607  0.7346
  852MPD2    C212565   2.171   1.362  10.219 -0.0679  0.1819  0.1825
  852MPD2    C312566   2.278   1.403  10.147  0.1196  0.5127  0.3662
  852MPD2    C412567   2.306   1.335  10.027  0.3003 -0.4686 -0.1414
  852MPD2    C512568   2.219   1.240   9.974 -1.0502  0.0768 -0.1388
  852MPD2     H12569   2.152   1.402  10.318  0.1957  1.7861 -0.4036
  852MPD2    H112570   2.397   1.362   9.974  0.4906 -0.1745  0.3408
  852MPD2    H212571   2.029   1.153   9.983  1.5509 -1.1723 -1.0675
  852MPD2    H312572   2.244   1.193   9.880 -1.7166 -1.2361  0.3317
  852MPD2     N12573   2.351   1.509  10.205  0.2596 -0.0823  0.3241
  852MPD2    H512574   2.303   1.553  10.282 -0.8695 -0.9059  0.0806
  852MPD2    N112575   1.951   1.261  10.220  0.0159 -0.6099  0.6356
  852MPD2    H712576   1.934   1.306  10.309 -0.9400 -0.4928  0.3938
  853MPD2     C12577   3.175   0.968  12.305  0.3004  0.2538 -0.5169
  853MPD2    C112578   3.183   1.076  12.223 -0.3596  0.8412 -0.2447
  853MPD2    C212579   3.215   1.057  12.093 -0.6525 -0.6653  0.1095
  853MPD2    C312580   3.262   0.937  12.046 -0.6252 -0.8970  0.5179
  853MPD2    C412581   3.246   0.822  12.123  0.0103 -0.6347 -0.8027
  853MPD2    C512582   3.207   0.835  12.260  0.0951  0.2682 -0.5596
  853MPD2     H12583   3.217   1.134  12.016  0.8765 -1.0023 -0.1782
  853MPD2    H112584   3.290   0.729  12.087  3.8080  0.5986  0.7100
  853MPD2    H212585   3.143   0.985  12.407  0.2274 -2.5534 -0.0832
  853MPD2    H312586   3.190   0.748  12.322  4.0351  1.2656  1.8960
  853MPD2     N12587   3.318   0.925  11.916 -0.1521  0.1530 -0.0040
  853MPD2    H512588   3.367   0.837  11.907  0.1260  0.3271 -0.1747
  853MPD2    N112589   3.140   1.202  12.276 -0.4590  0.4344  0.4572
  853MPD2    H712590   3.107   1.198  12.371  1.3128  0.1508  1.0512
  854MPD2     C12591   0.774   1.805  12.985  0.3473 -1.2049  0.3966
  854MPD2    C112592   0.761   1.683  12.917 -0.0457 -0.5324  0.0992
  854MPD2    C212593   0.818   1.570  12.985  0.0097  0.0870 -0.3372
  854MPD2    C312594   0.883   1.582  13.104 -0.4812 -0.5675  0.3513
  854MPD2    C412595   0.878   1.700  13.167 -0.1767 -0.4175 -0.8257
  854MPD2    C512596   0.827   1.806  13.107 -0.0981 -0.0912 -0.6794
  854MPD2     H12597   0.807   1.468  12.950  1.7444 -0.6016  1.1107
  854MPD2    H112598   0.924   1.715  13.264 -1.1293 -2.2169 -0.1085
  854MPD2    H212599   0.748   1.898  12.936 -1.3381 -2.6616 -1.5155
  854MPD2    H312600   0.839   1.902  13.157  0.9286 -0.4089 -0.3164
  854MPD2     N12601   0.957   1.480  13.174 -0.2150  0.2582 -0.1470
  854MPD2    H512602   0.989   1.497  13.269 -2.0102  0.8786  0.3380
  854MPD2    N112603   0.689   1.683  12.798  0.1614  0.0370  0.4372
  854MPD2    H712604   0.654   1.774  12.771 -0.4208 -0.3743 -0.2070
  855MPD2     C12605   0.652   1.228  13.955  0.0985  1.1662 -0.9982
  855MPD2    C112606   0.748   1.126  13.934  0.7885 -0.1784  0.8722
  855MPD2    C212607   0.827   1.130  13.824 -0.3278 -0.0128  0.2691
  855MPD2    C312608   0.807   1.227  13.727  0.3838  0.7655 -0.7833
  855MPD2    C412609   0.711   1.325  13.751  0.8626 -0.5374  0.0134
  855MPD2    C512610   0.636   1.327  13.866  0.2971  0.0268 -0.2689
  855MPD2     H12611   0.901   1.052  13.813 -0.9677 -0.4057 -1.2436
  855MPD2    H112612   0.688   1.393  13.669  0.8928 -0.1936  0.2921
  855MPD2    H212613   0.587   1.217  14.041 -0.9430  5.2507 -1.2605
  855MPD2    H312614   0.550   1.392  13.879  0.5648  0.1498  0.8633
  855MPD2     N12615   0.870   1.230  13.597 -0.4853 -0.3419 -0.0258
  855MPD2    H512616   0.854   1.318  13.549 -2.6568 -1.3503 -1.1382
  855MPD2    N112617   0.775   1.024  14.019  0.3789  1.0208  0.0206
  855MPD2    H712618   0.863   0.975  14.013 -0.0436  0.3039 -0.3810
  856MPD2     C12619   3.223   2.233  13.926 -0.2628  0.2255  0.4341
  856MPD2    C112620   3.185   2.340  14.005  0.2840  0.0766 -0.1195
  856MPD2    C212621   3.049   2.377  14.022  0.4792 -0.5937  0.3605
  856MPD2    C312622   2.957   2.309  13.945 -0.0089  0.0982  0.2773
  856MPD2    C412623   3.001   2.213  13.849  0.1575 -0.4475 -0.0207
  856MPD2    C512624   3.133   2.175  13.847 -0.1436 -0.1082  0.5476
  856MPD2     H12625   3.015   2.460  14.083  2.2637  0.1882  0.2746
  856MPD2    H112626   2.921   2.173  13.787 -0.3555  2.7569 -1.4089
  856MPD2    H212627   3.321   2.188  13.917 -1.4188 -2.4282  1.1386
  856MPD2    H312628   3.158   2.101  13.773 -1.1763 -0.8502  0.9318
  856MPD2     N12629   2.819   2.338  13.948  0.0759 -0.3544 -0.4077
  856MPD2    H512630   2.765   2.281  13.885 -1.9013 -0.4963  1.4200
  856MPD2    N112631   3.274   2.401  14.097  0.4474 -0.5180  0.0909
  856MPD2    H712632   3.224   2.459  14.163  1.9494  2.5190 -1.4676
  857MPD2     C12633   4.387   4.075  13.411  0.4679 -0.3640 -0.8462
  857MPD2    C112634   4.452   4.123  13.302  0.1508 -0.6479  0.2501
  857MPD2    C212635   4.520   4.243  13.308  0.4573 -0.1043 -1.0805
  857MPD2    C312636   4.491   4.329  13.410 -0.6097 -0.2636 -0.1179
  857MPD2    C412637   4.413   4.289  13.517 -0.5803 -0.4213 -1.1185
  857MPD2    C512638   4.372   4.153  13.523  0.0935 -0.0154  0.2119
  857MPD2     H12639   4.602   4.271  13.242  0.5008  0.0367 -0.9660
  857MPD2    H112640   4.406   4.364  13.595  0.0173 -0.5812 -0.9020
  857MPD2    H212641   4.362   3.970  13.413  0.5036 -0.3576 -0.0730
  857MPD2    H312642   4.334   4.118  13.618  0.5230 -2.0751 -0.3587
  857MPD2     N12643   4.566   4.446  13.410 -0.0083 -0.7686  0.7244
  857MPD2    H512644   4.634   4.441  13.335 -1.8733  0.6660 -1.0500
  857MPD2    N112645   4.474   4.035  13.192 -0.1310  0.2458  0.3745
  857MPD2    H712646   4.447   3.938  13.206 -0.2800  0.1241 -0.7819
  858MPD2     C12647   0.130   3.310  16.763  0.9908 -0.5401 -0.2377
  858MPD2    C112648   0.236   3.398  16.748  0.8504 -0.2763  0.0128
  858MPD2    C212649   0.226   3.524  16.804  0.4525  0.4275  0.8190
  858MPD2    C312650   0.109   3.571  16.860 -0.8514 -0.8939 -0.3134
  858MPD2    C412651   0.002   3.480  16.868  0.1491 -0.0877 -0.0943
  858MPD2    C512652   0.018   3.353  16.822  0.8215 -0.6783 -0.7645
  858MPD2     H12653   0.308   3.595  16.808  0.3003  0.6120  0.6606
  858MPD2    H112654   4.643   3.520  16.900 -0.2787  1.7004 -3.6466
  858MPD2    H212655   0.128   3.210  16.721 -0.9828 -1.6747  2.5638
  858MPD2    H312656   4.670   3.286  16.828 -2.9511  3.9524 -2.3328
  858MPD2     N12657   0.091   3.696  16.921  0.6558  0.4746 -0.6366
  858MPD2    H512658   0.008   3.711  16.978  2.3633  0.5125  1.8602
  858MPD2    N112659   0.364   3.364  16.691  0.3965 -0.3578 -0.2822
  858MPD2    H712660   0.434   3.435  16.672  0.2002 -0.1015 -0.0400
  859MPD2     C12661   4.087   1.114  16.108 -0.8846  0.0258  0.2486
  859MPD2    C112662   4.037   1.071  15.991 -0.5477  0.2688  0.6887
  859MPD2    C212663   4.035   0.936  15.964 -0.2207 -0.6190  0.8091
  859MPD2    C312664   4.069   0.846  16.062  0.9712 -0.3530  0.0770
  859MPD2    C412665   4.117   0.888  16.185 -0.7236 -0.1478  0.2584
  859MPD2    C512666   4.137   1.021  16.202  0.1690 -0.0847 -0.2103
  859MPD2     H12667   3.994   0.893  15.873  0.7962 -1.9343  0.9719
  859MPD2    H112668   4.131   0.816  16.265  0.0687  0.9500  1.1071
  859MPD2    H212669   4.085   1.218  16.140 -1.2078  0.5467 -1.4620
  859MPD2    H312670   4.169   1.053  16.300 -0.0947  1.0799 -0.4956
  859MPD2     N12671   4.050   0.705  16.050  0.5689 -0.4326  0.3600
  859MPD2    H512672   4.070   0.642  16.128  2.1420  0.4698  0.6921
  859MPD2    N112673   4.016   1.155  15.884 -0.3866  0.1015 -0.6362
  859MPD2    H712674   4.055   1.248  15.898  0.2036 -0.3783  0.9229
  860MPD2     C12675   1.819   1.082  11.753 -0.4611  0.0358 -0.4680
  860MPD2    C112676   1.756   1.189  11.816 -0.5027  0.4889 -0.1331
  860MPD2    C212677   1.645   1.159  11.889  0.2173 -0.0564  0.3294
  860MPD2    C312678   1.603   1.024  11.897  0.2593  0.1649  0.1737
  860MPD2    C412679   1.675   0.918  11.841  0.0028  1.0157  0.5211
  860MPD2    C512680   1.784   0.954  11.762 -0.1187  0.1592 -0.0607
  860MPD2     H12681   1.596   1.245  11.933 -1.0181 -0.8965  0.6014
  860MPD2    H112682   1.645   0.813  11.843 -0.7012  1.2267  0.9765
  860MPD2    H212683   1.914   1.092  11.702  0.8330  1.5594  2.2390
  860MPD2    H312684   1.839   0.877  11.710  0.3064  0.2857  0.2016
  860MPD2     N12685   1.501   0.994  11.985 -0.1195 -0.7105 -0.0826
  860MPD2    H512686   1.446   1.073  12.018  0.6020 -1.0225  1.8768
  860MPD2    N112687   1.796   1.326  11.814  0.1448  0.4921 -0.3283
  860MPD2    H712688   1.741   1.382  11.879  2.7798  1.0266  1.4350
  861MPD2     C12689   0.305   3.614  11.095  0.8863  0.1011  0.9608
  861MPD2    C112690   0.316   3.720  11.178  0.4100  0.2480 -0.2223
  861MPD2    C212691   0.302   3.850  11.125  0.5088  0.2455 -0.2004
  861MPD2    C312692   0.254   3.875  10.999  0.6599  0.0847  0.4697
  861MPD2    C412693   0.230   3.763  10.918  0.2511  0.1284  0.1104
  861MPD2    C512694   0.262   3.638  10.963 -0.1619 -0.4457  0.2322
  861MPD2     H12695   0.324   3.928  11.195  2.1254 -1.4034  1.1292
  861MPD2    H112696   0.188   3.768  10.818  1.3091  0.4881 -0.3051
  861MPD2    H212697   0.334   3.517  11.133 -2.5203 -1.7234 -1.0945
  861MPD2    H312698   0.237   3.557  10.895  1.5145 -1.2988  0.6410
  861MPD2     N12699   0.220   4.002  10.945  0.2521 -0.3371  0.0507
  861MPD2    H512700   0.166   3.997  10.860 -1.6611 -1.5473  1.3522
  861MPD2    N112701   0.355   3.713  11.315 -0.8017 -0.2940 -0.3486
  861MPD2    H712702   0.351   3.801  11.367 -1.2030  0.3238 -1.4145
  862MPD2     C12703   0.074   4.305  10.397  0.6598  0.2661  0.2353
  862MPD2    C112704   0.059   4.255  10.521  0.0918 -0.2354  0.4201
  862MPD2    C212705   0.007   4.127  10.536 -0.1623 -0.4787 -0.2498
  862MPD2    C312706   4.735   4.044  10.430 -0.7610  0.0546  0.5843
  862MPD2    C412707   0.034   4.086  10.301 -0.0293  0.2784 -0.4005
  862MPD2    C512708   0.061   4.222  10.286 -0.1297  0.4430 -0.1911
  862MPD2     H12709   4.721   4.083  10.632 -0.3181  0.5854  0.1983
  862MPD2    H112710   0.040   4.022  10.214 -1.4721 -1.5686  0.8402
  862MPD2    H212711   0.097   4.409  10.382 -0.6542  0.6851  1.1265
  862MPD2    H312712   0.087   4.253  10.185  2.7375 -0.9586  0.1104
  862MPD2     N12713   4.721   3.910  10.461 -0.3780 -0.5833 -0.3337
  862MPD2    H512714   4.691   3.882  10.554 -0.0516 -0.0814 -0.0779
  862MPD2    N112715   0.086   4.330  10.637 -0.5582  0.2716  0.5028
  862MPD2    H712716   0.051   4.290  10.724  1.8690 -1.1576  0.7935
  863MPD2     C12717   3.343   2.815  17.388  0.0998  0.4059 -0.5603
  863MPD2    C112718   3.418   2.811  17.274 -0.1301 -0.3748 -0.3785
  863MPD2    C212719   3.553   2.773  17.286  0.0488 -0.1442 -0.0678
  863MPD2    C312720   3.594   2.721  17.409  0.0798  0.2051  0.2415
  863MPD2    C412721   3.508   2.721  17.521 -0.6811  0.2718 -0.9746
  863MPD2    C512722   3.386   2.774  17.506 -0.2416 -0.2690  0.0312
  863MPD2     H12723   3.615   2.770  17.197 -0.4940  2.6209 -0.5441
  863MPD2    H112724   3.538   2.672  17.613 -3.7114 -1.6048 -0.9732
  863MPD2    H212725   3.245   2.861  17.381 -0.0888 -0.2429 -2.1579
  863MPD2    H312726   3.317   2.765  17.590  2.2938 -0.3857  2.0881
  863MPD2     N12727   3.724   2.664  17.426  0.5369  0.5454  0.1596
  863MPD2    H512728   3.751   2.650  17.523  0.9289  0.3620  0.0244
  863MPD2    N112729   3.353   2.847  17.150 -0.1774  0.6355 -0.0171
  863MPD2    H712730   3.261   2.887  17.162 -0.5792  0.3414 -2.1174
  864MPD2     C12731   3.879   4.285  17.200 -0.6593 -0.2714 -0.3584
  864MPD2    C112732   3.979   4.195  17.168 -0.1143 -0.1927  0.3165
  864MPD2    C212733   4.065   4.216  17.059 -0.2247 -0.2771 -0.3638
  864MPD2    C312734   4.055   4.338  16.997  0.9018  0.2082 -0.3748
  864MPD2    C412735   3.954   4.427  17.032 -0.2220  0.3861  0.4355
  864MPD2    C512736   3.874   4.406  17.136 -0.8201  0.4310 -0.0893
  864MPD2     H12737   4.155   4.160  17.036 -1.0576 -0.0797 -4.1514
  864MPD2    H112738   3.951   4.523  16.981 -0.7299  0.1607  0.0358
  864MPD2    H212739   3.812   4.263  17.282 -0.2224  0.5214  0.2165
  864MPD2    H312740   3.799   4.482  17.154 -1.4008 -0.7452  2.4120
  864MPD2     N12741   4.132   4.386  16.883  0.6589 -0.2146  0.4045
  864MPD2    H512742   4.117   4.485  16.864 -0.7440 -0.2055  1.5707
  864MPD2    N112743   3.990   4.084  17.249  0.2755 -0.0534  0.0108
  864MPD2    H712744   3.939   4.090  17.336 -0.0097  0.2617 -0.1743
  865MPD2     C12745   4.127   4.293  16.034  0.2762  0.2788 -0.4829
  865MPD2    C112746   4.147   4.264  16.172  0.2768 -0.5913  0.1910
  865MPD2    C212747   4.131   4.361  16.269 -0.0768  0.2967 -0.3314
  865MPD2    C312748   4.099   4.489  16.236  0.0633  0.3508  0.2385
  865MPD2    C412749   4.085   4.520  16.103 -0.4103 -0.5410 -0.6065
  865MPD2    C512750   4.103   4.424  16.006 -0.3731  0.3013  0.8345
  865MPD2     H12751   4.110   4.335  16.372 -1.4617 -0.3441 -0.7686
  865MPD2    H112752   4.064   4.622  16.072 -0.1927 -0.1252  0.6208
  865MPD2    H212753   4.154   4.216  15.963  0.6069  1.3727 -1.5474
  865MPD2    H312754   4.095   4.452  15.901  1.3384 -2.2840  0.0078
  865MPD2     N12755   4.082   4.596  16.329  0.3775 -0.2432  0.2036
  865MPD2    H512756   4.039   4.677  16.285  4.0497  1.7050  0.2271
  865MPD2    N112757   4.184   4.130  16.205 -0.5066 -0.5404 -0.3224
  865MPD2    H712758   4.186   4.071  16.122  1.0477 -0.9821  0.0137
  866MPD2     C12759   1.246   4.218  11.730 -0.1517  0.6729  0.2344
  866MPD2    C112760   1.238   4.158  11.603 -0.0389  0.1017  0.3236
  866MPD2    C212761   1.130   4.183  11.517  0.1959 -0.5411  0.0621
  866MPD2    C312762   1.026   4.259  11.563 -0.0058 -0.3345 -0.3480
  866MPD2    C412763   1.028   4.298  11.690 -0.6441 -0.1956  0.2226
  866MPD2    C512764   1.136   4.276  11.777 -0.3994 -0.3886  0.0673
  866MPD2     H12765   1.135   4.138  11.418  1.2031  0.7818 -0.4946
  866MPD2    H112766   0.944   4.351  11.732  1.1122  0.6651  2.6604
  866MPD2    H212767   1.335   4.200  11.789  0.2925 -0.0937 -0.6716
  866MPD2    H312768   1.140   4.313  11.879 -0.1030 -2.3268  0.7570
  866MPD2     N12769   0.910   4.285  11.484 -0.1370 -0.0914  0.9302
  866MPD2    H512770   0.831   4.331  11.529 -2.6348 -2.1674 -1.3945
  866MPD2    N112771   1.337   4.069  11.576  0.6954 -0.3779  0.4209
  866MPD2    H712772   1.413   4.059  11.642  1.3173 -0.3768 -0.2979
  867MPD2     C12773   2.888   4.207  16.713 -0.0991 -0.3009 -0.0771
  867MPD2    C112774   2.893   4.178  16.849 -0.2971  0.5593  0.0648
  867MPD2    C212775   2.878   4.280  16.942 -0.2020  0.4050 -0.3574
  867MPD2    C312776   2.829   4.405  16.898  0.1438  0.2574  0.5881
  867MPD2    C412777   2.827   4.429  16.763  0.0930  0.6664 -0.4289
  867MPD2    C512778   2.861   4.335  16.671 -0.5856  0.2012  0.5798
  867MPD2     H12779   2.894   4.269  17.048 -1.3786  1.8712 -0.0274
  867MPD2    H112780   2.793   4.522  16.719 -1.9226 -0.2799 -0.8768
  867MPD2    H212781   2.899   4.135  16.633 -0.4513 -1.7656  1.1926
  867MPD2    H312782   2.840   4.355  16.567 -1.2365  3.7869  1.4049
  867MPD2     N12783   2.781   4.507  16.987 -0.0505 -0.1455  0.3997
  867MPD2    H512784   2.769   4.602  16.954  1.7260  0.2054  0.7961
  867MPD2    N112785   2.921   4.041  16.884 -0.0810 -0.0478 -0.1091
  867MPD2    H712786   2.917   3.974  16.808 -0.3132 -1.3564  1.0701
  868MPD2     C12787   4.614   3.379  13.582 -0.3066  0.6934 -0.7211
  868MPD2    C112788   4.660   3.250  13.614  0.1415  0.3870  0.4653
  868MPD2    C212789   4.590   3.182  13.715  0.7268  0.0652  0.4776
  868MPD2    C312790   4.502   3.256  13.792 -0.6178  0.4628  0.5749
  868MPD2    C412791   4.452   3.377  13.752 -0.1866 -0.1135 -0.2594
  868MPD2    C512792   4.499   3.434  13.637 -0.1027 -0.3577 -0.2612
  868MPD2     H12793   4.617   3.080  13.744 -0.9085 -0.1403  1.2756
  868MPD2    H112794   4.370   3.430  13.798  0.9392  1.6918 -0.3212
  868MPD2    H212795   4.649   3.436  13.496  2.7816 -1.4322 -0.8846
  868MPD2    H312796   4.451   3.528  13.612 -2.1717 -1.3249  0.0778
  868MPD2     N12797   4.458   3.192  13.910  0.1556 -0.3883  0.8527
  868MPD2    H512798   4.512   3.111  13.939  0.7635 -0.3632 -0.2179
  868MPD2    N112799   0.026   3.185  13.538 -0.0563  0.0730 -0.5067
  868MPD2    H712800   0.072   3.234  13.461  0.1292  1.2531  0.3499
  869MPD2     C12801   1.030   0.917  17.469 -0.3442 -0.0917  0.3860
  869MPD2    C112802   0.927   0.902  17.559 -0.3345  0.0237 -0.0678
  869MPD2    C212803   0.913   0.997  17.655  0.6241  0.7344  0.4722
  869MPD2    C312804   1.007   1.092  17.672  0.0367 -0.0070 -0.3629
  869MPD2    C412805   1.104   1.099  17.575 -0.5913 -0.0940 -0.1809
  869MPD2    C512806   1.112   1.019  17.470  0.0801 -0.1436 -0.5570
  869MPD2     H12807   0.839   0.986  17.733  1.4242 -0.8558  1.0138
  869MPD2    H112808   1.181   1.175  17.578  0.0320 -0.7029 -0.9203
  869MPD2    H212809   1.036   0.852  17.383 -1.3286  1.0941 -0.5775
  869MPD2    H312810   1.180   1.037  17.388  0.1816  0.5381 -0.3288
  869MPD2     N12811   1.002   1.183   0.037  0.0632 -0.4498 -0.0746
  869MPD2    H512812   1.080   1.248   0.037 -0.1094 -0.2503 -0.9801
  869MPD2    N112813   0.831   0.801  17.548  0.3262 -0.3412  0.5874
  869MPD2    H712814   0.853   0.743  17.468 -2.9162 -0.5749 -0.1257
  870MPD2     C12815   1.307   0.244   1.594 -0.1267 -0.4676  0.4721
  870MPD2    C112816   1.239   0.180   1.495  0.5429 -0.0493  0.3902
  870MPD2    C212817   1.163   0.254   1.404 -0.1970  0.5190  0.6669
  870MPD2    C312818   1.134   0.387   1.430 -0.4727 -0.3580 -0.4637
  870MPD2    C412819   1.219   0.450   1.527 -0.0745 -0.1220  0.0712
  870MPD2    C512820   1.307   0.381   1.603  0.5390  0.8092 -0.3709
  870MPD2     H12821   1.110   0.199   1.327  0.4259 -1.4927  1.7025
  870MPD2    H112822   1.217   0.558   1.536 -0.5870 -0.2328  1.2181
  870MPD2    H212823   1.363   0.186   1.666  2.8496  0.0465 -1.4151
  870MPD2    H312824   1.381   0.432   1.663  1.7958 -2.3660  0.7594
  870MPD2     N12825   1.039   0.452   1.348 -0.2346 -0.1450  0.4184
  870MPD2    H512826   0.991   0.399   1.276  0.0788 -0.9607  0.8116
  870MPD2    N112827   1.250   0.041   1.491 -0.1898 -0.0203 -0.1696
  870MPD2    H712828   1.317   0.010   1.561 -0.4424 -2.5629 -1.0516
  871MPD2     C12829   2.166   4.383  16.348  0.1112 -0.3961  0.3012
  871MPD2    C112830   2.187   4.348  16.478  0.5880 -0.2131 -0.1779
  871MPD2    C212831   2.249   4.223  16.504  0.5938 -0.0425  0.3712
  871MPD2    C312832   2.282   4.143  16.395 -0.0881  0.4854  0.4930
  871MPD2    C412833   2.256   4.179  16.262 -0.2847 -0.6911 -0.4382
  871MPD2    C512834   2.206   4.304  16.248  0.5308 -0.2351 -0.1527
  871MPD2     H12835   2.274   4.191  16.604  1.1061  0.9366  0.5624
  871MPD2    H112836   2.290   4.127  16.173 -0.9326  0.9743 -1.6546
  871MPD2    H212837   2.127   4.480  16.319  1.1423 -0.3607 -0.9938
  871MPD2    H312838   2.201   4.353  16.151  0.1464  1.4409  0.7036
  871MPD2     N12839   2.332   4.013  16.423  0.0611  0.5008 -0.4336
  871MPD2    H512840   2.342   3.997  16.522 -2.8063 -3.0717 -0.7144
  871MPD2    N112841   2.131   4.429  16.581  0.3686 -0.4464 -0.3358
  871MPD2    H712842   2.122   4.528  16.562  0.8571 -0.0615  1.4223
  872MPD2     C12843   2.597   1.913  13.381 -0.0054  0.0262  0.1948
  872MPD2    C112844   2.659   1.794  13.435 -0.4952  0.1447 -0.0575
  872MPD2    C212845   2.586   1.720  13.524 -0.2005  0.2336 -0.3176
  872MPD2    C312846   2.475   1.767  13.590 -0.5252  0.0558  0.1924
  872MPD2    C412847   2.422   1.890  13.550 -0.1981 -0.4845  0.1702
  872MPD2    C512848   2.478   1.955  13.440  0.1262  0.4448  0.3383
  872MPD2     H12849   2.632   1.624  13.543 -0.2016  0.4694  0.8880
  872MPD2    H112850   2.332   1.930  13.595  0.8904 -0.5192  2.4018
  872MPD2    H212851   2.629   1.990  13.311 -0.7497 -0.4332 -0.6561
  872MPD2    H312852   2.447   2.055  13.413  1.4778  0.2271 -1.9416
  872MPD2     N12853   2.408   1.703  13.695 -0.1869 -0.2698 -0.7320
  872MPD2    H512854   2.356   1.760  13.761 -1.9143 -2.7671  0.0664
  872MPD2    N112855   2.799   1.752  13.406 -0.4457  0.7457  0.1326
  872MPD2    H712856   2.839   1.670  13.449 -2.7264 -0.2527  0.3857
  873MPD2     C12857   3.981   2.596   1.416  0.1418  0.0447 -1.2747
  873MPD2    C112858   4.090   2.516   1.407  0.4596  0.2072 -0.6413
  873MPD2    C212859   4.096   2.426   1.302 -0.3919  0.4850 -0.1223
  873MPD2    C312860   3.995   2.415   1.213 -0.2799  0.3923  0.7921
  873MPD2    C412861   3.895   2.513   1.207 -0.3414  0.2201  0.4259
  873MPD2    C512862   3.894   2.601   1.310 -0.1825  0.4801  0.4483
  873MPD2     H12863   4.177   2.357   1.286 -0.9290 -0.2401  0.2981
  873MPD2    H112864   3.811   2.518   1.139 -1.5820 -0.6823  1.8792
  873MPD2    H212865   3.978   2.681   1.483 -0.4473 -0.0862 -1.1352
  873MPD2    H312866   3.818   2.678   1.314  1.9464  2.5641  0.7029
  873MPD2     N12867   3.982   2.313   1.119  0.3902  0.2875 -0.8184
  873MPD2    H512868   3.895   2.318   1.067  0.3410 -2.6139 -0.9694
  873MPD2    N112869   4.204   2.548   1.486  0.5464 -0.0926 -0.1413
  873MPD2    H712870   4.194   2.606   1.570  1.7906  1.2699 -0.9293
  874MPD2     C12871   4.172   2.367  16.322  0.6369  0.5243 -0.4064
  874MPD2    C112872   4.252   2.301  16.414  1.1237 -0.6447  0.2977
  874MPD2    C212873   4.387   2.295  16.385 -0.9961  0.1931  0.5777
  874MPD2    C312874   4.439   2.381  16.288  0.1698 -0.5508  0.0117
  874MPD2    C412875   4.364   2.471  16.211  0.1582  0.2802 -0.6366
  874MPD2    C512876   4.222   2.454  16.227  0.1313 -0.0570  0.0013
  874MPD2     H12877   4.452   2.227  16.438 -0.6839 -1.4586 -1.8856
  874MPD2    H112878   4.402   2.554  16.154 -1.7236  0.4477 -1.6469
  874MPD2    H212879   4.067   2.375  16.343  0.8533  1.1548  0.4171
  874MPD2    H312880   4.160   2.512  16.159 -0.5791 -0.8044  0.0122
  874MPD2     N12881   4.574   2.379  16.298  0.1467  0.1596  0.5000
  874MPD2    H512882   4.620   2.318  16.365  2.9297  0.3771 -1.1856
  874MPD2    N112883   4.194   2.227  16.524  1.2231 -0.3621  0.2710
  874MPD2    H712884   4.092   2.223  16.530  1.2933 -3.2296 -0.2991
  875MPD2     C12885   1.025   0.247  14.769  0.3462  0.6949 -0.2197
  875MPD2    C112886   0.905   0.219  14.832  0.2521 -0.3166 -0.1348
  875MPD2    C212887   0.876   0.276  14.954 -0.1254  0.8323 -0.4006
  875MPD2    C312888   0.966   0.355  15.018  0.8070  0.0182 -0.4549
  875MPD2    C412889   1.082   0.380  14.954  0.1773 -1.0553 -0.3703
  875MPD2    C512890   1.111   0.328  14.834 -0.1997  0.1901  0.2912
  875MPD2     H12891   0.783   0.236  14.992  1.5224  0.4158  3.1088
  875MPD2    H112892   1.143   0.457  15.001  0.2106 -1.1812 -0.2081
  875MPD2    H212893   1.069   0.201  14.681  1.6450  1.3353  0.0949
  875MPD2    H312894   1.209   0.346  14.792 -1.0245  2.1306 -0.8113
  875MPD2     N12895   0.945   0.410  15.152 -0.3798  0.3797 -0.7310
  875MPD2    H512896   1.012   0.482  15.173 -0.5256  0.4556 -0.5316
  875MPD2    N112897   0.808   0.135  14.774  0.3660  0.4915 -0.5468
  875MPD2    H712898   0.722   0.113  14.823  0.0485 -0.5807 -1.5888
  876MPD2     C12899   4.208   1.650  16.120 -0.6028  0.2333 -0.4346
  876MPD2    C112900   4.343   1.619  16.091  0.1493  0.4288  0.0182
  876MPD2    C212901   4.408   1.532  16.179 -0.0959  0.3804 -0.3710
  876MPD2    C312902   4.331   1.471  16.276 -0.7236  0.2223  0.2296
  876MPD2    C412903   4.200   1.514  16.306  0.0462 -0.0907  0.6593
  876MPD2    C512904   4.133   1.596  16.218  0.0045  0.9771  0.5643
  876MPD2     H12905   4.505   1.490  16.157 -0.3457  0.5658 -1.8143
  876MPD2    H112906   4.147   1.460  16.384 -0.7076  0.7345  0.7166
  876MPD2    H212907   4.156   1.729  16.066  0.6442  1.8339  0.7189
  876MPD2    H312908   4.029   1.619  16.239 -0.3563 -1.5509  1.5947
  876MPD2     N12909   4.400   1.373  16.345  0.4623  0.0411  0.2485
  876MPD2    H512910   4.496   1.354  16.317 -0.2931 -1.2312 -1.4896
  876MPD2    N112911   4.407   1.692  15.991  0.1618  0.2169 -0.4262
  876MPD2    H712912   4.343   1.736  15.925 -1.5930 -1.8649 -0.1011
  877MPD2     C12913   4.134   1.956  15.417  0.0758 -1.0065  0.2302
  877MPD2    C112914   4.267   1.922  15.386 -0.2032 -1.0974  0.1884
  877MPD2    C212915   4.299   1.892  15.255 -0.8036  0.0890 -0.3962
  877MPD2    C312916   4.197   1.894  15.163  0.1973 -0.0674  0.0466
  877MPD2    C412917   4.068   1.915  15.201  0.3074 -0.5036 -0.6595
  877MPD2    C512918   4.031   1.950  15.327  0.1080  0.1831 -0.4599
  877MPD2     H12919   4.400   1.862  15.229 -1.5948 -2.5762 -0.4733
  877MPD2    H112920   3.991   1.915  15.125  1.8343  0.6670 -2.2149
  877MPD2    H212921   4.105   1.970  15.521 -0.5791  0.8883 -0.2144
  877MPD2    H312922   3.933   1.978  15.364  0.0636 -0.7340  0.1049
  877MPD2     N12923   4.220   1.886  15.022 -0.4648 -0.7002 -0.2688
  877MPD2    H512924   4.136   1.878  14.966  0.0750  1.0250 -1.3350
  877MPD2    N112925   4.379   1.918  15.473 -0.2412 -0.2410 -0.7373
  877MPD2    H712926   4.458   1.862  15.444 -1.7667 -1.3027 -2.7891
  878MPD2     C12927   4.393   1.218  13.552 -0.3855  0.5791 -0.2111
  878MPD2    C112928   4.275   1.156  13.600 -0.5242  0.8158 -0.5004
  878MPD2    C212929   4.231   1.192  13.729 -0.3339  0.0622  0.1219
  878MPD2    C312930   4.303   1.285  13.801  0.2623  0.5550 -0.6200
  878MPD2    C412931   4.419   1.338  13.751  0.1453 -0.6239 -0.6989
  878MPD2    C512932   4.461   1.305  13.626  0.4930  0.4955  0.1932
  878MPD2     H12933   4.144   1.144  13.773  0.4654 -1.3036  0.2387
  878MPD2    H112934   4.475   1.416  13.801 -0.3619 -1.0796  0.5858
  878MPD2    H212935   4.430   1.197  13.453 -0.9441 -0.1304 -0.2739
  878MPD2    H312936   4.546   1.361  13.588  0.0002  1.4912  0.5599
  878MPD2     N12937   4.247   1.320  13.928  0.5339 -0.3316 -0.0355
  878MPD2    H512938   4.190   1.251  13.976  1.1659 -1.5436 -1.0236
  878MPD2    N112939   4.204   1.073  13.507 -0.4109  0.4720 -0.5351
  878MPD2    H712940   4.238   1.057  13.413 -1.6716 -1.8989 -0.5620
  879MPD2     C12941   0.020   2.118   0.073 -0.3437 -0.1956 -0.2010
  879MPD2    C112942   4.708   2.242   0.054 -0.2127 -0.2937  0.2996
  879MPD2    C212943   4.599   2.254  17.710 -0.2440 -0.4328  0.4584
  879MPD2    C312944   4.561   2.138  17.641  0.0769 -0.2027  0.7283
  879MPD2    C412945   4.621   2.012  17.662  0.6411 -0.5513  0.4562
  879MPD2    C512946   4.717   2.004   0.012  0.3282  0.5875  0.5572
  879MPD2     H12947   4.552   2.351  17.702 -2.3983 -1.4056  1.4105
  879MPD2    H112948   4.579   1.922  17.619  2.0391 -1.5606  1.2228
  879MPD2    H212949   0.102   2.105   0.142 -1.0540  0.2123  0.7220
  879MPD2    H312950   0.016   1.904   0.032 -3.2253 -0.5998  1.1305
  879MPD2     N12951   4.473   2.135  17.533 -0.4904 -0.4055 -0.8536
  879MPD2    H512952   4.460   2.047  17.483  0.8668 -1.8016  1.2968
  879MPD2    N112953   0.022   2.349   0.135 -0.1943 -0.5860  0.1760
  879MPD2    H712954   0.106   2.323   0.185 -0.2014  0.9338  0.9614
  880MPD2     C12955   0.727   4.345   0.025  0.9128 -0.4922 -0.3454
  880MPD2    C112956   0.778   4.393   0.141  0.2858  0.3197 -0.0175
  880MPD2    C212957   0.833   4.303   0.234 -0.5554 -0.4209  0.2104
  880MPD2    C312958   0.838   4.167   0.213 -0.0454  0.2765  0.6175
  880MPD2    C412959   0.789   4.125   0.086 -0.5226  0.3089  0.0617
  880MPD2    C512960   0.739   4.214  17.737  0.1351  0.5414 -0.1445
  880MPD2     H12961   0.896   4.336   0.316 -0.3182 -1.0198  0.2687
  880MPD2    H112962   0.774   4.021   0.057 -0.1796 -0.7843  3.7868
  880MPD2    H212963   0.697   4.416  17.696 -0.7238  0.2288  0.9818
  880MPD2    H312964   0.707   4.168  17.644  3.6848 -0.9631 -0.6170
  880MPD2     N12965   0.887   4.075   0.313 -0.5714 -0.6592  0.0882
  880MPD2    H512966   0.911   4.125   0.398 -0.8900  0.7578 -0.6577
  880MPD2    N112967   0.765   4.530   0.176 -0.5504  0.3250  0.5052
  880MPD2    H712968   0.723   4.591   0.107  0.4125 -3.1520 -3.1407
  881MPD2     C12969   1.164   0.664  17.645 -0.3908  0.1499 -0.0709
  881MPD2    C112970   1.164   0.530  17.611 -0.1682  0.0575  0.2699
  881MPD2    C212971   1.080   0.445  17.679  0.1347  0.2021  0.4856
  881MPD2    C312972   1.019   0.485   0.044 -0.1185 -0.3445 -0.6325
  881MPD2    C412973   1.034   0.611   0.090 -0.4884 -0.8639  0.4896
  881MPD2    C512974   1.106   0.700   0.015  0.1150 -0.1594 -0.1060
  881MPD2     H12975   1.080   0.338  17.667  0.4089  0.3286 -0.5939
  881MPD2    H112976   0.997   0.641   0.187  1.2948  0.0097  0.8847
  881MPD2    H212977   1.239   0.721  17.590 -0.8747  1.3474  0.5020
  881MPD2    H312978   1.106   0.804   0.048  0.3880  0.2498 -1.4151
  881MPD2     N12979   0.943   0.400   0.134  0.1002  0.2905 -0.3167
  881MPD2    H512980   0.904   0.443   0.217 -0.7877  0.7473 -0.9728
  881MPD2    N112981   1.206   0.502  17.475  0.7000 -0.4126  0.1226
  881MPD2    H712982   1.242   0.581  17.421  2.4207 -1.3486 -0.1089
  882MPD2     C12983   4.291   1.834  14.200  0.4415  0.1550 -0.5629
  882MPD2    C112984   4.189   1.851  14.291  0.3617  0.4132  0.5205
  882MPD2    C212985   4.060   1.886  14.239 -0.1349  0.8615 -0.3493
  882MPD2    C312986   4.042   1.906  14.102 -0.4081 -0.0317  0.0281
  882MPD2    C412987   4.143   1.867  14.013 -0.0550 -0.0333 -0.3001
  882MPD2    C512988   4.269   1.840  14.062 -0.4128  0.9010 -0.2742
  882MPD2     H12989   3.979   1.898  14.310  0.0460  0.6563 -0.1072
  882MPD2    H112990   4.130   1.876  13.906 -0.1388 -1.1533 -0.3897
  882MPD2    H212991   4.393   1.830  14.237  0.3105  0.7082 -0.1454
  882MPD2    H312992   4.347   1.827  13.988  1.0555  2.9388  0.9160
  882MPD2     N12993   3.913   1.925  14.050  0.3017  0.3428 -0.1883
  882MPD2    H512994   3.889   1.887  13.959 -2.1126 -2.3511  1.5856
  882MPD2    N112995   4.217   1.833  14.427 -0.4681  0.5659  0.1110
  882MPD2    H712996   4.316   1.825  14.447 -0.5907 -1.3409 -0.0293
  883MPD2     C12997   1.642   1.869  15.818  0.0422 -0.7772 -0.2512
  883MPD2    C112998   1.602   2.002  15.790 -0.2192  0.4517 -0.0248
  883MPD2    C212999   1.649   2.109  15.861  1.0112  0.0783  0.2801
  883MPD2    C313000   1.723   2.077  15.970 -0.3110 -0.1782  0.4710
  883MPD2    C413001   1.734   1.947  16.022  0.2476  0.0992 -0.4900
  883MPD2    C513002   1.696   1.843  15.942 -0.5545  0.3864 -0.0759
  883MPD2     H13003   1.640   2.215  15.840  1.1211  0.3676  1.7074
  883MPD2    H113004   1.776   1.931  16.120  0.1630  0.4847 -0.3912
  883MPD2    H213005   1.618   1.790  15.747 -1.4463  0.0995 -0.7299
  883MPD2    H313006   1.723   1.742  15.971  1.2826  0.8803 -0.0128
  883MPD2     N13007   1.783   2.189  16.041  0.3683  0.5540  0.0599
  883MPD2    H513008   1.793   2.278  15.994 -0.1551  0.3035 -0.5177
  883MPD2    N113009   1.527   2.028  15.675 -0.2371  0.4163 -0.0229
  883MPD2    H713010   1.506   2.123  15.648  1.5298  0.0768 -2.5789
  884MPD2     C13011   3.670   2.312  15.271 -0.4869 -0.5371 -0.3279
  884MPD2    C113012   3.641   2.438  15.318  1.0587 -0.3585 -0.0437
  884MPD2    C213013   3.513   2.487  15.331 -1.2362 -0.3723  0.3136
  884MPD2    C313014   3.402   2.411  15.289  0.0031  0.0573 -0.9996
  884MPD2    C413015   3.434   2.287  15.232 -0.4117  0.1282 -0.1586
  884MPD2    C513016   3.563   2.239  15.223  0.0170  0.6090 -0.4170
  884MPD2     H13017   3.488   2.584  15.372 -2.0791  0.4429 -2.1646
  884MPD2    H113018   3.351   2.221  15.209  0.8886 -2.1858  1.6774
  884MPD2    H213019   3.767   2.266  15.271 -1.0878 -1.7913  1.5140
  884MPD2    H313020   3.584   2.137  15.192  0.1306  0.6016 -0.3158
  884MPD2     N13021   3.262   2.448  15.305 -0.4944 -0.3395 -0.0003
  884MPD2    H513022   3.187   2.384  15.281  0.0421 -0.0189 -2.4586
  884MPD2    N113023   3.752   2.525  15.350  0.2060  0.8648 -0.6489
  884MPD2    H713024   3.731   2.620  15.381  1.4303  1.9899 -3.2712
  885MPD2     C13025   1.167   3.397   0.234  1.3764 -0.0280  0.2633
  885MPD2    C113026   1.299   3.369   0.212  0.0449 -0.0050  0.3122
  885MPD2    C213027   1.357   3.371   0.087  0.3593 -0.1461 -0.5425
  885MPD2    C313028   1.271   3.381  17.719 -0.7538  0.2788  0.6439
  885MPD2    C413029   1.137   3.406  17.745 -0.0486  0.2038 -0.2248
  885MPD2    C513030   1.085   3.421   0.126 -0.2518  0.1685  0.2588
  885MPD2     H13031   1.462   3.356   0.065  0.1094 -3.9977  0.9880
  885MPD2    H113032   1.063   3.406  17.666 -0.8607  1.3567  0.5434
  885MPD2    H213033   1.114   3.411   0.327  1.1033  0.6092  0.0130
  885MPD2    H313034   0.986   3.466   0.126 -0.1316  0.4117 -1.4455
  885MPD2     N13035   1.322   3.358  17.588 -0.0433 -0.1059 -0.0060
  885MPD2    H513036   1.414   3.318  17.580 -0.4410 -1.2673  1.2165
  885MPD2    N113037   1.376   3.364   0.336 -0.4293 -0.1679  0.5449
  885MPD2    H713038   1.329   3.390   0.422  0.2033  3.9131 -0.3384
  886MPD2     C13039   2.956   1.914  15.955 -0.5719 -0.0666 -0.3695
  886MPD2    C113040   3.059   1.824  15.929  0.5961  0.5212 -0.4442
  886MPD2    C213041   3.080   1.787  15.792  0.0739  0.0145  0.3965
  886MPD2    C313042   3.003   1.840  15.687  0.4850  0.2871 -0.5576
  886MPD2    C413043   2.904   1.933  15.713  0.7402 -0.3784 -0.4223
  886MPD2    C513044   2.890   1.969  15.846 -0.0987  0.8816 -0.7895
  886MPD2     H13045   3.144   1.705  15.762  1.6800  1.3075  0.3182
  886MPD2    H113046   2.849   1.986  15.636 -0.2821  0.4016  0.8485
  886MPD2    H213047   2.942   1.973  16.045 -0.8311  0.1097 -0.5250
  886MPD2    H313048   2.816   2.046  15.864 -0.6807  0.2989 -0.6750
  886MPD2     N13049   3.043   1.803  15.559  0.3144 -0.1566  0.9436
  886MPD2    H513050   3.134   1.759  15.550 -0.3498 -1.7216  1.7738
  886MPD2    N113051   3.131   1.752  16.029 -0.4316  0.4389  0.0905
  886MPD2    H713052   3.179   1.670  15.995 -1.9614 -0.5465  0.2900
  887MPD2     C13053   3.789   1.767  16.585  0.4508 -0.4698  0.1969
  887MPD2    C113054   3.750   1.815  16.460 -0.0476  0.0315 -0.3469
  887MPD2    C213055   3.851   1.858  16.373 -0.1033 -0.0437 -0.4775
  887MPD2    C313056   3.985   1.870  16.408 -0.3539  0.2028 -0.4956
  887MPD2    C413057   4.021   1.826  16.534 -0.3417 -0.2809 -0.0034
  887MPD2    C513058   3.923   1.772  16.616  0.0290 -0.0365  0.9170
  887MPD2     H13059   3.818   1.872  16.271  0.2504 -2.9572 -1.0057
  887MPD2    H113060   4.123   1.827  16.569 -0.9536  1.5350  1.7047
  887MPD2    H213061   3.716   1.741  16.661  0.2136  0.2734  0.2197
  887MPD2    H313062   3.943   1.737  16.716 -2.5752 -0.6181  1.2469
  887MPD2     N13063   4.070   1.923  16.313 -0.4093  0.0055  0.6236
  887MPD2    H513064   4.027   1.954  16.226 -3.4496  1.3326  2.6174
  887MPD2    N113065   3.618   1.807  16.411 -0.1794 -0.0315  0.3118
  887MPD2    H713066   3.602   1.812  16.311  2.4596  1.6278 -0.0123
  888MPD2     C13067   0.546   1.300  14.656  0.3535 -0.1370 -0.8458
  888MPD2    C113068   0.591   1.290  14.786 -0.0524 -0.4346 -0.4492
  888MPD2    C213069   0.692   1.374  14.834  0.5120  0.5584  0.1211
  888MPD2    C313070   0.766   1.457  14.753  0.6346 -0.2012 -0.4329
  888MPD2    C413071   0.730   1.456  14.619  0.1964  0.1844  0.2638
  888MPD2    C513072   0.613   1.381  14.574  0.5269 -0.9920  0.3997
  888MPD2     H13073   0.706   1.376  14.942  0.0398 -0.3264  0.2026
  888MPD2    H113074   0.789   1.506  14.543 -0.1452  1.2472  0.7086
  888MPD2    H213075   0.458   1.247  14.619 -1.9300  0.6036  3.5446
  888MPD2    H313076   0.586   1.399  14.470  0.0521  0.8565  0.8276
  888MPD2     N13077   0.861   1.540  14.804  0.1867 -0.4020  0.0635
  888MPD2    H513078   0.871   1.563  14.903 -3.6801  0.4032  0.2685
  888MPD2    N113079   0.523   1.214  14.883 -0.8403  0.1475  0.1188
  888MPD2    H713080   0.567   1.218  14.975  1.7855 -0.8715 -1.1056
  889MPD2     C13081   4.345   0.402  13.396  0.5618  0.7900  0.2224
  889MPD2    C113082   4.479   0.417  13.393 -0.0562 -0.6232 -0.3037
  889MPD2    C213083   4.533   0.541  13.412  0.8883  0.6320  0.0942
  889MPD2    C313084   4.458   0.652  13.384 -0.3306  0.5597  0.0500
  889MPD2    C413085   4.324   0.639  13.368  0.2926  0.1643  1.0052
  889MPD2    C513086   4.267   0.513  13.379 -0.1035  0.0448 -0.2184
  889MPD2     H13087   4.641   0.545  13.398  0.5737  1.5785 -2.0548
  889MPD2    H113088   4.274   0.734  13.348  1.4867  1.0378  2.2027
  889MPD2    H213089   4.310   0.301  13.379  0.5834  0.6698  0.8853
  889MPD2    H313090   4.159   0.507  13.376 -0.1776  2.4089 -2.3179
  889MPD2     N13091   4.530   0.774  13.378 -0.5162 -0.0684  0.3270
  889MPD2    H513092   4.631   0.773  13.391 -0.6229 -1.1409  1.0490
  889MPD2    N113093   4.551   0.295  13.422 -0.6083 -0.0061  0.0285
  889MPD2    H713094   4.489   0.215  13.423  1.7192 -1.8211 -0.1507
  890MPD2     C13095   4.200   2.751  15.036 -0.2507 -0.8088  0.6352
  890MPD2    C113096   4.290   2.839  15.097 -0.0812 -0.0668 -0.5093
  890MPD2    C213097   4.392   2.780  15.172 -0.1086  0.5438  0.2196
  890MPD2    C313098   4.410   2.644  15.187  0.0713 -0.3520 -0.0960
  890MPD2    C413099   4.320   2.567  15.123  0.0354 -0.2313 -0.7649
  890MPD2    C513100   4.224   2.625  15.045 -0.5832  0.0332  0.5718
  890MPD2     H13101   4.473   2.847  15.200 -0.4512  1.5021 -1.0482
  890MPD2    H113102   4.322   2.459  15.121  0.7255 -0.2594  1.2932
  890MPD2    H213103   4.126   2.795  14.970  1.3991 -0.3147 -0.8999
  890MPD2    H313104   4.157   2.557  14.993  0.1050 -0.9172  0.9444
  890MPD2     N13105   4.515   2.582  15.258 -0.1938 -0.1333 -0.1918
  890MPD2    H513106   4.531   2.482  15.255  0.4049 -0.0295 -0.2971
  890MPD2    N113107   4.278   2.978  15.071 -0.6497  0.3406 -0.2182
  890MPD2    H713108   4.211   3.008  15.001  0.3578  0.9035 -0.9387
  891MPD2     C13109   2.599   1.473  16.421  0.3965 -0.0743 -0.3538
  891MPD2    C113110   2.544   1.565  16.509  0.2424  0.4480  0.0859
  891MPD2    C213111   2.595   1.574  16.638 -0.0816  0.1745 -0.8215
  891MPD2    C313112   2.693   1.490  16.686  0.2690 -0.3659  0.7110
  891MPD2    C413113   2.735   1.392  16.606 -1.0366  0.3882  0.4038
  891MPD2    C513114   2.694   1.378  16.473 -0.1799 -0.2682  0.9731
  891MPD2     H13115   2.558   1.644  16.713 -0.5068  0.1468 -1.0102
  891MPD2    H113116   2.800   1.313  16.643  0.0361  1.1608  0.1369
  891MPD2    H213117   2.563   1.470  16.318 -0.7133  3.3083 -0.0592
  891MPD2    H313118   2.730   1.296  16.412  0.2264  1.8696 -1.6601
  891MPD2     N13119   2.737   1.504  16.821  0.3212  0.1383 -0.0168
  891MPD2    H513120   2.697   1.575  16.881  1.5520  1.9014 -1.2756
  891MPD2    N113121   2.450   1.654  16.457 -0.2644 -0.2547 -0.3285
  891MPD2    H713122   2.408   1.642  16.365  1.2774 -0.7818 -0.9710
  892MPD2     C13123   3.513   2.101  14.756 -0.5288  0.1207 -0.0775
  892MPD2    C113124   3.392   2.111  14.687 -0.5751 -0.3290 -0.0178
  892MPD2    C213125   3.387   2.094  14.549  0.2549  0.0256 -0.0739
  892MPD2    C313126   3.506   2.090  14.480 -0.0456 -0.0519 -0.1545
  892MPD2    C413127   3.628   2.085  14.551 -0.1058  0.5616  0.4429
  892MPD2    C513128   3.626   2.085  14.690  0.5531 -0.0276  0.0823
  892MPD2     H13129   3.288   2.081  14.507 -1.0831  0.3916  2.9934
  892MPD2    H113130   3.720   2.078  14.494 -0.3823 -0.0793  0.0703
  892MPD2    H213131   3.520   2.118  14.863  0.5611 -0.1264 -0.1100
  892MPD2    H313132   3.723   2.078  14.737  0.3784 -1.1023  0.2912
  892MPD2     N13133   3.516   2.073  14.341  0.3997 -0.7954  0.1304
  892MPD2    H513134   3.606   2.067  14.295 -1.2779 -0.8380 -3.1208
  892MPD2    N113135   3.261   2.136  14.749 -0.1839 -0.1633  0.5400
  892MPD2    H713136   3.185   2.163  14.688  0.4015 -3.1930 -1.5089
  893MPD2     C13137   4.391   0.214   0.448 -0.8317  0.0815 -0.4507
  893MPD2    C113138   4.402   0.277   0.574  0.3235  0.5367 -0.2685
  893MPD2    C213139   4.294   0.272   0.659 -0.7987  0.9047 -0.0011
  893MPD2    C313140   4.178   0.206   0.616 -0.4007  0.0067  0.0299
  893MPD2    C413141   4.172   0.145   0.488  0.2992  0.1091 -0.3694
  893MPD2    C513142   4.282   0.146   0.409  0.3886  0.5352 -0.6491
  893MPD2     H13143   4.284   0.310   0.759 -1.9282  0.8164 -0.0776
  893MPD2    H113144   4.082   0.110   0.438  2.2167 -2.7282 -1.7990
  893MPD2    H213145   4.482   0.228   0.392 -1.6507  0.0754 -1.7890
  893MPD2    H313146   4.282   0.109   0.307  0.3667 -1.8033  0.1879
  893MPD2     N13147   4.069   0.208   0.702  0.4819  0.2729 -0.0140
  893MPD2    H513148   4.075   0.266   0.785 -3.3098 -0.3908  0.7451
  893MPD2    N113149   4.520   0.351   0.597 -0.4593 -0.2319  0.3442
  893MPD2    H713150   4.576   0.354   0.512  0.5363 -1.6525  0.9614
  894MPD2     C13151   2.928   3.191   1.364  0.4751 -0.5915  0.0685
  894MPD2    C113152   2.853   3.284   1.430  1.1884 -0.6933 -0.5852
  894MPD2    C213153   2.889   3.418   1.417  0.4903  0.0825  0.4526
  894MPD2    C313154   3.008   3.456   1.353 -0.3422  0.4798  0.1656
  894MPD2    C413155   3.084   3.360   1.288 -0.3637  0.6645 -0.0958
  894MPD2    C513156   3.041   3.233   1.298 -0.9626  0.5401 -0.6872
  894MPD2     H13157   2.841   3.492   1.480 -1.7248 -0.0501 -1.0758
  894MPD2    H113158   3.175   3.391   1.238 -1.0131  0.7260 -1.2330
  894MPD2    H213159   2.906   3.085   1.364  0.4966 -0.5940 -2.5380
  894MPD2    H313160   3.101   3.166   1.238  1.2137  0.3962  1.6744
  894MPD2     N13161   3.036   3.592   1.367  0.2307 -0.7107  0.6468
  894MPD2    H513162   2.968   3.642   1.424  0.4929  0.7950 -0.3656
  894MPD2    N113163   2.732   3.246   1.497  0.4867 -0.1045 -0.0791
  894MPD2    H713164   2.674   3.326   1.523 -0.2292 -0.8196  0.5055
  895MPD2     C13165   2.002   1.322  13.802 -0.4803 -0.9603 -0.2275
  895MPD2    C113166   1.948   1.323  13.673 -0.4624  0.4452  0.2503
  895MPD2    C213167   2.031   1.290  13.567 -0.1852  0.0431 -0.2135
  895MPD2    C313168   2.161   1.240  13.583  0.8635  0.1090  0.4874
  895MPD2    C413169   2.212   1.234  13.710  0.4854 -0.1400  0.3523
  895MPD2    C513170   2.134   1.285  13.821  0.4316 -0.5504  0.2012
  895MPD2     H13171   1.989   1.289  13.468  0.2210  0.3349 -0.3902
  895MPD2    H113172   2.311   1.198  13.733  1.5972  0.7812 -2.9475
  895MPD2    H213173   1.947   1.354  13.889  0.7731  0.4447  0.0427
  895MPD2    H313174   2.175   1.275  13.920  0.6577  1.0576  0.2530
  895MPD2     N13175   2.229   1.171  13.477  0.2762 -0.3535 -0.1817
  895MPD2    H513176   2.301   1.106  13.509  1.9826  1.7071  0.1138
  895MPD2    N113177   1.811   1.357  13.646 -0.1635 -0.4276  0.2858
  895MPD2    H713178   1.773   1.351  13.553  1.4956  1.4076 -0.5219
  896MPD2     C13179   4.726   4.647   1.281 -0.4027 -0.3698  0.5813
  896MPD2    C113180   4.724   4.514   1.240 -0.1102 -0.0501 -0.0942
  896MPD2    C213181   4.623   4.427   1.289  0.0693 -0.3259  0.1343
  896MPD2    C313182   4.530   4.479   1.385  0.2297  0.6848  0.4608
  896MPD2    C413183   4.536   4.614   1.417  0.2322  0.1443 -0.8151
  896MPD2    C513184   4.635   4.695   1.371 -0.5434  0.1822  0.1285
  896MPD2     H13185   4.611   4.328   1.245  1.5294 -1.5954  2.5567
  896MPD2    H113186   4.468   4.657   1.490  1.5320  0.7987  0.0148
  896MPD2    H213187   0.068   4.717   1.258 -0.7294 -1.1029 -2.8441
  896MPD2    H313188   4.638   0.059   1.408 -2.2368  0.1630  0.2833
  896MPD2     N13189   4.437   4.384   1.439  0.0775  0.4993 -0.0128
  896MPD2    H513190   4.430   4.291   1.398 -1.1959  0.3281  0.5934
  896MPD2    N113191   0.078   4.482   1.138  0.2414 -0.2827  0.6072
  896MPD2    H713192   0.121   4.560   1.089 -1.8515  0.6290  0.2403
  897MPD2     C13193   1.629   0.020  10.505  0.9147 -0.2504  0.5953
  897MPD2    C113194   1.576   0.139  10.467 -0.2054 -0.7754  0.9072
  897MPD2    C213195   1.460   0.175  10.535 -0.1837  0.4221  0.3612
  897MPD2    C313196   1.401   0.113  10.642  0.6512  0.9202 -0.3559
  897MPD2    C413197   1.472   0.001  10.683 -0.2857 -0.3321  0.4235
  897MPD2    C513198   1.580   4.699  10.612 -0.3132 -0.8638  0.0482
  897MPD2     H13199   1.399   0.264  10.521  1.9852  1.9511  0.5588
  897MPD2    H113200   1.435   4.683  10.768  0.0703  0.0460  0.8206
  897MPD2    H213201   1.710   4.714  10.446 -0.8320 -1.0024 -1.2561
  897MPD2    H313202   1.631   4.609  10.646  1.0851 -1.1268 -2.7601
  897MPD2     N13203   1.285   0.166  10.700 -0.0897  0.0896 -0.0153
  897MPD2    H513204   1.243   0.238  10.643 -0.4998  1.6782  2.3233
  897MPD2    N113205   1.621   0.203  10.349  0.6129  0.0607 -0.7015
  897MPD2    H713206   1.694   0.153  10.299  0.9596 -2.1579  1.9950
  898MPD2     C13207   2.175   1.912   0.134 -0.6559  0.4683  0.3789
  898MPD2    C113208   2.288   1.860   0.064 -0.1609  0.7484  0.7214
  898MPD2    C213209   2.387   1.946   0.025 -0.1169  0.6924 -0.4801
  898MPD2    C313210   2.392   2.080   0.064 -0.0133  0.1565 -0.6425
  898MPD2    C413211   2.279   2.130   0.132 -0.3856  0.1381 -0.1178
  898MPD2    C513212   2.173   2.046   0.168 -0.5994 -1.0818 -0.5340
  898MPD2     H13213   2.465   1.915  17.703  0.2181 -1.0063  0.6730
  898MPD2    H113214   2.272   2.232   0.168  2.3101  1.3255 -3.0093
  898MPD2    H213215   2.089   1.854   0.166 -0.0438 -1.2820 -1.1467
  898MPD2    H313216   2.096   2.081   0.235  0.2063 -0.5598  0.1293
  898MPD2     N13217   2.505   2.158   0.029  0.0822 -0.0113  0.0393
  898MPD2    H513218   2.583   2.101   0.001 -0.8789 -1.5722  0.5375
  898MPD2    N113219   2.297   1.726   0.011  0.4449 -0.1909  0.5869
  898MPD2    H713220   2.389   1.698  17.725 -0.7088 -0.2743 -2.5315
  899MPD2     C13221   4.280   2.463   0.245  0.0430  0.3432  0.3403
  899MPD2    C113222   4.151   2.466   0.193 -0.4586  0.2988  0.2804
  899MPD2    C213223   4.039   2.469   0.270 -0.1431  0.4998  0.1503
  899MPD2    C313224   4.053   2.463   0.407 -0.7644 -0.0482 -1.2126
  899MPD2    C413225   4.177   2.441   0.463  0.2670  0.1145 -0.0284
  899MPD2    C513226   4.288   2.438   0.379  0.1321  0.9891 -0.5374
  899MPD2     H13227   3.939   2.477   0.229  0.0191 -2.1349 -0.7133
  899MPD2    H113228   4.197   2.431   0.570 -1.9365 -0.2970  0.3402
  899MPD2    H213229   4.368   2.453   0.181  0.7163 -0.8062  1.4601
  899MPD2    H313230   4.387   2.419   0.421 -1.7068 -1.6914  2.5725
  899MPD2     N13231   3.938   2.473   0.482  0.5350  0.1262  0.5089
  899MPD2    H513232   3.849   2.465   0.433 -0.2752  0.4424  1.8962
  899MPD2    N113233   4.144   2.473   0.045  0.5487  0.3008 -0.0498
  899MPD2    H713234   4.223   2.519   0.000  0.1727  1.2746  0.2789
  900MPD2     C13235   3.635   3.169  13.069  0.1111 -0.7406 -0.4321
  900MPD2    C113236   3.538   3.072  13.064  0.0704  0.0389  0.7898
  900MPD2    C213237   3.408   3.102  13.021 -0.1879 -0.2058 -0.6975
  900MPD2    C313238   3.390   3.224  12.970 -1.3930  1.0769 -0.5210
  900MPD2    C413239   3.494   3.315  12.969  0.1253  0.2045  0.1968
  900MPD2    C513240   3.612   3.295  13.026 -0.2027  0.5252  0.4024
  900MPD2     H13241   3.325   3.032  13.017 -2.2069  2.2354 -1.5313
  900MPD2    H113242   3.476   3.406  12.914  0.3774 -0.6030 -1.2295
  900MPD2    H213243   3.732   3.146  13.112  0.3066 -1.8571 -1.4647
  900MPD2    H313244   3.693   3.367  13.022 -0.6793  0.9513 -1.4526
  900MPD2     N13245   3.258   3.240  12.918  0.6692  0.5946  0.1803
  900MPD2    H513246   3.196   3.160  12.909 -1.2425  1.9450  1.2630
  900MPD2    N113247   3.565   2.937  13.109 -0.3639  0.0380 -0.4966
  900MPD2    H713248   3.659   2.924  13.145 -0.4500  1.1090  0.1300
  901MPD2     C13249   3.447   1.903  12.806 -0.0210  0.0515 -0.8694
  901MPD2    C113250   3.578   1.936  12.789 -0.5397 -1.0489 -0.3804
  901MPD2    C213251   3.620   2.060  12.839  0.0449  0.0309  0.3961
  901MPD2    C313252   3.540   2.139  12.916  0.5590 -0.4730  0.3884
  901MPD2    C413253   3.410   2.097  12.932 -0.0217 -0.3419 -0.7057
  901MPD2    C513254   3.363   1.984  12.875 -0.4274  0.3188 -0.1215
  901MPD2     H13255   3.724   2.086  12.821 -0.1388  1.0568  0.8386
  901MPD2    H113256   3.340   2.150  12.996  0.8883  0.5182 -0.4178
  901MPD2    H213257   3.413   1.810  12.761  1.1387 -0.7263 -0.1624
  901MPD2    H313258   3.255   1.973  12.882 -0.3705 -0.1008  0.0547
  901MPD2     N13259   3.590   2.261  12.965  0.1232 -0.1827  0.0689
  901MPD2    H513260   3.678   2.293  12.927 -0.0018  2.2172  1.8534
  901MPD2    N113261   3.668   1.856  12.722 -0.2003  0.5441  0.1153
  901MPD2    H713262   3.758   1.896  12.699  0.7836 -2.3433 -1.1501
  902MPD2     C13263   2.410   1.863  13.073  0.1843 -0.4922 -0.1721
  902MPD2    C113264   2.473   1.863  12.954 -0.2483 -0.1766 -0.2399
  902MPD2    C213265   2.488   1.739  12.899  0.1781 -0.2995  0.2395
  902MPD2    C313266   2.450   1.623  12.964 -0.3934  0.3122 -0.5489
  902MPD2    C413267   2.378   1.628  13.076  0.1564  0.0153  0.2825
  902MPD2    C513268   2.366   1.750  13.131  0.4393 -0.3938 -0.0854
  902MPD2     H13269   2.542   1.724  12.806 -2.6549  1.8844 -1.7614
  902MPD2    H113270   2.351   1.537  13.128 -0.8424 -0.5031 -1.1749
  902MPD2    H213271   2.389   1.955  13.127 -1.2166 -1.3150  0.7012
  902MPD2    H313272   2.296   1.754  13.214  1.1451 -1.8308  0.5790
  902MPD2     N13273   2.496   1.509  12.899  0.1239 -0.1453 -0.0894
  902MPD2    H513274   2.567   1.530  12.829  0.3439  1.9216  0.7480
  902MPD2    N113275   2.526   1.978  12.895  0.6554  0.1565 -0.0361
  902MPD2    H713276   2.516   2.064  12.949  0.2991 -0.2576  0.5592
  903MPD2     C13277   2.727   1.283  12.160 -0.6246  0.5708  0.3795
  903MPD2    C113278   2.642   1.311  12.269  0.4741  1.1496 -0.8019
  903MPD2    C213279   2.525   1.388  12.246 -0.0836  0.3568  0.5851
  903MPD2    C313280   2.484   1.420  12.115 -0.6664  0.2343  0.0051
  903MPD2    C413281   2.574   1.390  12.013 -0.5467  0.2792 -0.4982
  903MPD2    C513282   2.691   1.328  12.037  0.1094 -0.1918 -0.2364
  903MPD2     H13283   2.457   1.396  12.330 -1.1531 -0.3741 -0.2024
  903MPD2    H113284   2.560   1.415  11.908 -1.1749 -0.1350 -0.5097
  903MPD2    H213285   2.824   1.236  12.169 -1.1147 -0.6879 -1.0872
  903MPD2    H313286   2.760   1.307  11.956  1.1196 -0.5655  0.7208
  903MPD2     N13287   2.348   1.461  12.097  0.0983 -0.6814  0.0398
  903MPD2    H513288   2.289   1.464  12.180 -1.3099 -0.2335 -0.9683
  903MPD2    N113289   2.683   1.266  12.396  0.3453  0.2797  0.3965
  903MPD2    H713290   2.744   1.186  12.402 -0.7616 -0.8408 -2.8439
  904MPD2     C13291   2.181   0.462  14.198 -0.0689 -0.1342 -0.0938
  904MPD2    C113292   2.232   0.565  14.120  0.0801 -0.7057  0.4342
  904MPD2    C213293   2.360   0.607  14.158  0.2289 -0.1009  0.7752
  904MPD2    C313294   2.425   0.561  14.272  0.1034 -0.7719  0.7695
  904MPD2    C413295   2.354   0.477  14.352  0.4954  0.2326 -0.1200
  904MPD2    C513296   2.238   0.420  14.316  0.2740 -0.1449  0.3440
  904MPD2     H13297   2.415   0.679  14.099 -0.2976 -0.5355 -0.2473
  904MPD2    H113298   2.401   0.443  14.444 -1.5860 -0.7443  0.5851
  904MPD2    H213299   2.083   0.425  14.169 -0.4683  2.4337 -2.0752
  904MPD2    H313300   2.189   0.352  14.385  0.4162 -0.2728  0.3194
  904MPD2     N13301   2.555   0.599  14.317  0.2895  0.1950 -0.5009
  904MPD2    H513302   2.584   0.563  14.408 -0.0651  0.9985 -0.0675
  904MPD2    N113303   2.167   0.621  14.015 -0.0820 -0.7913  0.1205
  904MPD2    H713304   2.220   0.692  13.966 -2.9297  1.7215  0.6720
  905MPD2     C13305   1.646   0.604  13.397 -0.5244 -0.2622 -0.2561
  905MPD2    C113306   1.738   0.707  13.420 -0.0113  0.4615  0.9306
  905MPD2    C213307   1.794   0.772  13.311  0.2312  0.1568 -0.2428
  905MPD2    C313308   1.766   0.724  13.189 -0.1825  0.4392 -0.1199
  905MPD2    C413309   1.668   0.629  13.168 -0.0188  0.9185 -0.5016
  905MPD2    C513310   1.599   0.582  13.276  0.2016  0.1070 -0.4183
  905MPD2     H13311   1.860   0.856  13.328  0.7176  0.0123 -1.3935
  905MPD2    H113312   1.637   0.597  13.069  3.7862  1.9183 -2.0219
  905MPD2    H213313   1.605   0.543  13.476  0.2827 -2.7775 -1.7926
  905MPD2    H313314   1.527   0.503  13.255  0.0273  0.2506 -0.3656
  905MPD2     N13315   1.828   0.787  13.076 -0.2824  0.5583  0.4908
  905MPD2    H513316   1.790   0.750  12.989  0.5904  1.5733 -0.3428
  905MPD2    N113317   1.786   0.722  13.550  0.6236 -0.2654 -0.3011
  905MPD2    H713318   1.750   0.658  13.620  0.4751  1.7978  1.5358
  906MPD2     C13319   4.632   0.585  11.080 -0.1426 -0.6968  0.1937
  906MPD2    C113320   4.645   0.475  11.002 -0.6214 -0.1705  0.1132
  906MPD2    C213321   4.629   0.354  11.058 -0.3071 -0.1487  0.0209
  906MPD2    C313322   4.613   0.344  11.199  0.1979 -0.6835 -0.2147
  906MPD2    C413323   4.615   0.459  11.278  0.2388  1.4128  0.1485
  906MPD2    C513324   4.630   0.578  11.215 -0.5064  0.3013 -0.5342
  906MPD2     H13325   4.636   0.268  10.993  1.3598 -2.0331  2.6845
  906MPD2    H113326   4.575   0.465  11.379  2.9211  0.3749  1.2726
  906MPD2    H213327   4.641   0.685  11.038  0.2201 -0.1555  1.5473
  906MPD2    H313328   4.610   0.674  11.261 -1.1095 -1.8447  3.6799
  906MPD2     N13329   4.586   0.215  11.254 -0.0269  0.1944  0.4023
  906MPD2    H513330   4.591   0.206  11.355  0.4432  0.2346  0.3822
  906MPD2    N113331   4.661   0.479  10.858  0.2457  0.0044 -0.3240
  906MPD2    H713332   4.647   0.391  10.809  1.4710 -0.7119  0.6053
  907MPD2     C13333   3.589   0.086  16.063 -0.2662 -0.2813  0.1541
  907MPD2    C113334   3.635   4.702  16.021  0.0382  0.1591 -0.0677
  907MPD2    C213335   3.697   4.618  16.113 -0.8052  0.3001  0.2025
  907MPD2    C313336   3.709   4.658  16.245 -1.0262  0.3537 -0.4798
  907MPD2    C413337   3.671   0.048  16.284  0.2122  0.1411 -0.0301
  907MPD2    C513338   3.604   0.133  16.186 -0.2002 -0.1336  0.2407
  907MPD2     H13339   3.732   4.526  16.068 -4.8434  0.2240 -2.7749
  907MPD2    H113340   3.676   0.084  16.386 -2.5655  2.4589 -0.6892
  907MPD2    H213341   3.534   0.151  15.997 -0.4364 -0.6155 -0.0296
  907MPD2    H313342   3.560   0.228  16.215 -0.8372 -0.7748  1.3352
  907MPD2     N13343   3.752   4.562  16.347  0.6039 -0.1941  0.3939
  907MPD2    H513344   3.768   4.468  16.313  1.7971  0.0173  0.3932
  907MPD2    N113345   3.621   4.647  15.889 -0.2341 -0.4543  0.4374
  907MPD2    H713346   3.661   4.553  15.882  1.4137  0.3841 -1.4920
  908MPD2     C13347   1.803   4.607   9.529  0.0058 -0.0693  0.2925
  908MPD2    C113348   1.744   4.569   9.643 -0.0818  0.0126  0.4604
  908MPD2    C213349   1.742   4.647   9.757 -0.0514 -0.8538  0.3915
  908MPD2    C313350   1.780   0.047   9.757  0.0890 -0.0063 -0.4576
  908MPD2    C413351   1.835   0.091   9.641  0.0025 -0.0923  0.2036
  908MPD2    C513352   1.843   0.002   9.536  0.5775 -0.7205 -0.4017
  908MPD2     H13353   1.710   4.599   9.848  1.6053 -1.2494  0.7636
  908MPD2    H113354   1.878   0.188   9.622  1.1275 -0.7434 -0.5589
  908MPD2    H213355   1.815   4.546   9.440  2.6846  0.6930  0.1573
  908MPD2    H313356   1.896   0.033   9.447  0.1256 -1.2065 -0.8381
  908MPD2     N13357   1.762   0.131   9.870 -0.0789 -0.0189 -0.3267
  908MPD2    H513358   1.728   0.089   9.956  1.3614 -1.0744 -0.2751
  908MPD2    N113359   1.698   4.439   9.636  0.2992 -1.1306  0.4421
  908MPD2    H713360   1.701   4.399   9.543  0.3508 -0.2341  0.0558
  909MPD2     C13361   1.133   2.876  12.166 -0.4976 -0.7587 -1.2449
  909MPD2    C113362   1.172   2.992  12.106  0.2726  0.5200  0.6626
  909MPD2    C213363   1.105   3.112  12.139  0.6600 -1.0301 -0.1297
  909MPD2    C313364   1.003   3.119  12.238  0.0058 -0.0051  0.9605
  909MPD2    C413365   0.959   3.000  12.294  0.1245  0.4315 -1.0606
  909MPD2    C513366   1.024   2.883  12.258  0.1009 -0.2134  0.4100
  909MPD2     H13367   1.153   3.203  12.104 -0.6245 -0.6345 -0.8637
  909MPD2    H113368   0.882   3.002  12.371  1.5755 -2.2851  0.4679
  909MPD2    H213369   1.177   2.781  12.138  2.4931  0.7133 -1.5197
  909MPD2    H313370   0.991   2.798  12.318 -0.2541  0.4013  1.0835
  909MPD2     N13371   0.954   3.243  12.289 -0.6517 -0.1489  0.2739
  909MPD2    H513372   0.985   3.327  12.241  1.1473  0.0046  1.7208
  909MPD2    N113373   1.279   3.008  12.012 -0.3197  0.4119  0.3853
  909MPD2    H713374   1.299   3.101  11.977  1.4577  0.0110  0.3410
  910MPD2     C13375   3.178   0.232  15.482 -0.1014  0.6351 -0.0015
  910MPD2    C113376   3.151   0.309  15.599 -0.2695 -0.1412  0.0103
  910MPD2    C213377   3.084   0.428  15.594  0.0950 -0.1211  0.0446
  910MPD2    C313378   3.061   0.482  15.470 -0.1171 -0.2544  0.3651
  910MPD2    C413379   3.097   0.411  15.359 -0.6634 -0.5211 -0.4409
  910MPD2    C513380   3.165   0.293  15.364 -0.1796 -0.2271 -0.0070
  910MPD2     H13381   3.069   0.478  15.689 -0.0719 -0.8424  0.3960
  910MPD2    H113382   3.082   0.449  15.259 -0.0238  2.0349  0.4117
  910MPD2    H213383   3.207   0.128  15.488  0.5647  0.5915 -3.9439
  910MPD2    H313384   3.187   0.234  15.276  0.7204  1.3317 -0.8056
  910MPD2     N13385   2.990   0.605  15.453 -0.3080  0.0979  0.0582
  910MPD2    H513386   2.985   0.632  15.355  0.7389 -2.3910 -0.6737
  910MPD2    N113387   3.179   0.238  15.721 -0.5293  0.1065 -0.4552
  910MPD2    H713388   3.203   0.140  15.705 -1.4773 -0.3275  0.7092
  911MPD2     C13389   0.915   0.982  16.172  0.2914 -0.1649  0.3253
  911MPD2    C113390   0.960   1.109  16.210  0.9423 -0.6159  1.0573
  911MPD2    C213391   0.874   1.218  16.182  0.7986 -0.4321  0.0333
  911MPD2    C313392   0.749   1.199  16.125  0.0813 -0.0232 -0.0855
  911MPD2    C413393   0.710   1.069  16.093  0.4977  0.2112 -0.8644
  911MPD2    C513394   0.796   0.961  16.111 -0.2096  0.3728  0.2986
  911MPD2     H13395   0.918   1.316  16.200 -0.2209 -0.0722  0.5746
  911MPD2    H113396   0.611   1.058  16.050  1.1787 -0.5868 -2.2415
  911MPD2    H213397   0.968   0.892  16.202 -0.1316 -0.6837 -0.4829
  911MPD2    H313398   0.767   0.862  16.077  1.0931 -0.0956  0.5239
  911MPD2     N13399   0.659   1.304  16.102  0.3277  0.3399  0.1282
  911MPD2    H513400   0.571   1.279  16.058  0.3215  2.6733 -1.1633
  911MPD2    N113401   1.091   1.116  16.272 -0.0461  0.0209 -0.5827
  911MPD2    H713402   1.132   1.023  16.281 -2.1567 -1.0828 -2.3770
  912MPD2     C13403   0.287   1.111  15.543 -0.5083  0.1503 -0.6803
  912MPD2    C113404   0.348   1.108  15.665 -1.0967  0.0176 -0.0722
  912MPD2    C213405   0.343   0.993  15.748 -0.2137 -0.0059 -0.0266
  912MPD2    C313406   0.278   0.880  15.709  0.5771  0.1513  0.1877
  912MPD2    C413407   0.218   0.876  15.581  0.3051 -0.4376 -0.1830
  912MPD2    C513408   0.226   0.989  15.504 -0.5401  0.2182 -0.3593
  912MPD2     H13409   0.410   0.996  15.833 -0.5830  1.6000  0.2108
  912MPD2    H113410   0.160   0.788  15.553 -0.2864 -0.2605  0.4708
  912MPD2    H213411   0.292   1.201  15.483 -2.4120 -0.0628 -1.1560
  912MPD2    H313412   0.178   0.988  15.407 -0.6888 -0.0032 -0.2836
  912MPD2     N13413   0.284   0.773  15.802 -0.2246 -0.1364  0.1757
  912MPD2    H513414   0.344   0.788  15.883 -0.4504  0.2953  0.2654
  912MPD2    N113415   0.409   1.229  15.700 -0.3663  0.2272  0.8221
  912MPD2    H713416   0.409   1.305  15.633 -0.3116 -1.4199 -1.0514
  913MPD2     C13417   1.139   2.194  10.949 -0.1268  0.0083  0.4093
  913MPD2    C113418   1.269   2.216  10.912  0.0141 -0.6368  0.4187
  913MPD2    C213419   1.296   2.297  10.807  0.0176  0.4960 -0.0258
  913MPD2    C313420   1.189   2.365  10.735  1.0538 -0.1354 -0.6639
  913MPD2    C413421   1.065   2.341  10.779  0.4664  0.4795 -0.7301
  913MPD2    C513422   1.036   2.256  10.881  0.0537  0.1435  0.1438
  913MPD2     H13423   1.401   2.308  10.783 -0.1751  1.4585 -0.4226
  913MPD2    H113424   0.982   2.392  10.733  0.0351  0.7184  0.2971
  913MPD2    H213425   1.112   2.130  11.032  1.8296  1.0539  1.8516
  913MPD2    H313426   0.934   2.248  10.919 -0.9776  3.7535 -1.8492
  913MPD2     N13427   1.201   2.459  10.631  0.4692  0.3419  0.0129
  913MPD2    H513428   1.116   2.511  10.612  0.5847  0.2283 -0.7958
  913MPD2    N113429   1.372   2.156  10.989 -0.4084 -0.0912 -0.0169
  913MPD2    H713430   1.342   2.111  11.075  0.7242  0.6940  0.7978
  914MPD2     C13431   4.273   2.233  12.294  0.3320  0.6349  0.1981
  914MPD2    C113432   4.179   2.254  12.393  0.2535 -0.4838  0.4340
  914MPD2    C213433   4.111   2.140  12.438  0.3577 -0.6144 -0.8282
  914MPD2    C313434   4.136   2.012  12.390  0.0966  0.2191 -0.0703
  914MPD2    C413435   4.218   1.994  12.283 -0.6575  0.0941 -0.0720
  914MPD2    C513436   4.291   2.108  12.239 -0.1256 -0.3397 -0.7176
  914MPD2     H13437   4.043   2.152  12.521  2.0085 -0.4168  0.5089
  914MPD2    H113438   4.236   1.896  12.239 -1.3134 -0.5198  1.0135
  914MPD2    H213439   4.338   2.309  12.253 -0.7326  1.6902  0.4903
  914MPD2    H313440   4.358   2.089  12.156 -0.5461 -0.4862 -1.0244
  914MPD2     N13441   4.063   1.908  12.459 -0.5042  0.0866 -0.5772
  914MPD2    H513442   4.007   1.924  12.542  0.0602  0.6287 -0.3032
  914MPD2    N113443   4.148   2.383  12.439 -0.1996 -0.5874 -0.3048
  914MPD2    H713444   4.197   2.463  12.400  1.4182 -0.9666  0.9035
  915MPD2     C13445   1.838   2.454  15.398  0.7943  0.1766  0.5276
  915MPD2    C113446   1.703   2.459  15.403 -0.8417  0.1531 -0.4407
  915MPD2    C213447   1.641   2.490  15.525  0.4933 -0.1115 -0.4057
  915MPD2    C313448   1.712   2.503  15.641  0.5315  0.3734  1.2237
  915MPD2    C413449   1.846   2.492  15.633  0.1801  0.1024  0.4688
  915MPD2    C513450   1.911   2.466  15.516  0.1906  0.6286  0.3514
  915MPD2     H13451   1.535   2.511  15.520  0.6240  1.0587  1.9458
  915MPD2    H113452   1.909   2.494  15.722  0.3615  1.2031  0.3157
  915MPD2    H213453   1.895   2.440  15.307  1.2763 -0.1813  0.8880
  915MPD2    H313454   2.019   2.452  15.519  0.1110  0.0280  0.4276
  915MPD2     N13455   1.652   2.531  15.763  1.1369  0.5078 -0.4462
  915MPD2    H513456   1.553   2.554  15.759  0.9642  0.0300  1.4224
  915MPD2    N113457   1.634   2.430  15.282 -0.4247 -0.8738 -0.5045
  915MPD2    H713458   1.692   2.415  15.201  1.0989 -0.4030  0.4837
  916MPD2     C13459   4.678   1.064  15.926  0.0082 -0.2466 -0.3704
  916MPD2    C113460   4.611   0.960  15.991  0.7441  0.4588  0.3794
  916MPD2    C213461   4.569   0.846  15.923 -0.1118 -0.0585  0.4710
  916MPD2    C313462   4.605   0.833  15.791 -0.4716  0.0379 -0.2750
  916MPD2    C413463   4.669   0.936  15.727  0.5938  0.0587 -0.0637
  916MPD2    C513464   4.698   1.046  15.793  0.4947  0.1919  0.1931
  916MPD2     H13465   4.502   0.775  15.970 -1.6528  0.0173 -1.5952
  916MPD2    H113466   4.678   0.937  15.619  0.4644  2.1982 -0.0560
  916MPD2    H213467   4.719   1.149  15.979  1.7042 -1.1145 -0.3152
  916MPD2    H313468   0.005   1.128  15.736  2.7580 -0.3058  1.2248
  916MPD2     N13469   4.559   0.714  15.723  0.1057  0.4585  0.2136
  916MPD2    H513470   4.516   0.650  15.787  0.8547 -0.0074  0.2524
  916MPD2    N113471   4.591   0.989  16.127  0.1137  0.0635  0.3818
  916MPD2    H713472   4.621   1.080  16.161  1.0740  0.6012 -1.8654
  917MPD2     C13473   4.647   2.589  11.336  0.2378 -0.5628 -0.4495
  917MPD2    C113474   4.702   2.645  11.451 -0.1843 -0.3444 -0.1431
  917MPD2    C213475   0.056   2.744  11.433 -0.1994 -0.0197 -0.2999
  917MPD2    C313476   0.093   2.791  11.307  0.0286 -0.0020 -0.3275
  917MPD2    C413477   0.019   2.749  11.198 -0.4282 -0.6795  0.4532
  917MPD2    C513478   4.669   2.644  11.211  0.4898  0.3299 -0.8507
  917MPD2     H13479   0.111   2.781  11.519  0.2892 -4.0599  1.1351
  917MPD2    H113480   0.045   2.796  11.103  2.1978 -0.8959  1.0601
  917MPD2    H213481   4.577   2.507  11.334 -0.6911  0.1959  1.0616
  917MPD2    H313482   4.610   2.600  11.132  1.0684  0.7603 -1.5181
  917MPD2     N13483   0.199   2.891  11.288  0.6890  0.3384  0.2909
  917MPD2    H513484   0.212   2.926  11.193 -1.2830  0.7336  0.1572
  917MPD2    N113485   4.676   2.589  11.578  0.1139 -0.0425 -0.7476
  917MPD2    H713486   4.616   2.508  11.586 -1.5483  1.3893  1.0672
  918MPD2     C13487   4.596   3.060  12.457 -0.4108  0.7432 -0.1413
  918MPD2    C113488   4.697   3.060  12.361  0.1841  0.5880 -0.7972
  918MPD2    C213489   4.692   2.955  12.263  0.8452 -0.0291  0.1146
  918MPD2    C313490   4.599   2.854  12.268 -0.4368 -0.5978 -0.5266
  918MPD2    C413491   4.523   2.846  12.380 -0.3135  0.9540 -1.0700
  918MPD2    C513492   4.512   2.956  12.463  0.0412  0.6023 -0.0024
  918MPD2     H13493   0.018   2.958  12.175  1.2342 -2.8898  0.2813
  918MPD2    H113494   4.450   2.767  12.393 -1.8285  2.3713 -0.9886
  918MPD2    H213495   4.579   3.143  12.525  0.4650  0.5523  0.3092
  918MPD2    H313496   4.429   2.956  12.532  0.1399  1.5654  0.1200
  918MPD2     N13497   4.599   2.763  12.159  0.0115 -0.0018 -0.0109
  918MPD2    H513498   4.679   2.762  12.098  1.0783  0.5326  1.3779
  918MPD2    N113499   0.069   3.149  12.356  0.1988 -0.4449 -0.1657
  918MPD2    H713500   0.148   3.130  12.296  0.5717 -0.3221  0.2829
  919MPD2     C13501   1.324   1.566  11.562 -0.2467 -0.1838 -0.1292
  919MPD2    C113502   1.224   1.464  11.543  0.7923 -0.7115 -0.7082
  919MPD2    C213503   1.106   1.505  11.483 -0.1079 -0.3173 -0.9918
  919MPD2    C313504   1.091   1.634  11.435  0.1326 -0.1403 -0.6704
  919MPD2    C413505   1.186   1.730  11.468  0.6214 -0.1119 -0.3646
  919MPD2    C513506   1.301   1.699  11.540  0.0344  0.2009  0.1184
  919MPD2     H13507   1.036   1.425  11.461  0.1792  0.0100 -3.0679
  919MPD2    H113508   1.171   1.834  11.439 -0.0940  0.6073  2.5327
  919MPD2    H213509   1.413   1.543  11.619 -0.4760  0.0255  0.3135
  919MPD2    H313510   1.380   1.771  11.561 -1.7254  1.4980  2.2826
  919MPD2     N13511   0.990   1.672  11.338  0.8967 -0.4974 -0.1790
  919MPD2    H513512   0.975   1.768  11.308 -2.4754 -0.1862  2.6050
  919MPD2    N113513   1.227   1.333  11.589  0.0742  0.7352  0.2407
  919MPD2    H713514   1.145   1.276  11.571 -0.1623  2.0932 -2.9368
  920MPD2     C13515   0.670   2.458  10.873 -0.6001 -0.4440 -0.3878
  920MPD2    C113516   0.636   2.358  10.787  0.3724 -0.9666 -0.5623
  920MPD2    C213517   0.647   2.220  10.811  0.3122  0.3944  0.3015
  920MPD2    C313518   0.676   2.181  10.938  0.8552 -0.3184  0.1940
  920MPD2    C413519   0.709   2.283  11.027 -0.0082 -0.6807 -0.7263
  920MPD2    C513520   0.702   2.417  10.995  0.3984  0.3392 -0.5904
  920MPD2     H13521   0.625   2.150  10.731  0.4114  1.4593 -0.6563
  920MPD2    H113522   0.717   2.257  11.132  1.0121  1.5376 -0.2687
  920MPD2    H213523   0.649   2.564  10.862 -0.4213 -0.1491  2.3033
  920MPD2    H313524   0.727   2.491  11.070  0.3174  0.8567 -1.0750
  920MPD2     N13525   0.683   2.039  10.976  0.5652 -0.3004  0.1335
  920MPD2    H513526   0.650   1.979  10.901  0.1957 -0.1856  0.2021
  920MPD2    N113527   0.603   2.394  10.652  0.1521 -0.3471  0.2156
  920MPD2    H713528   0.590   2.315  10.589  2.0558  0.0214 -0.6549
  921MPD2     C13529   1.770   1.677  16.867 -0.8725  0.9149 -0.3382
  921MPD2    C113530   1.774   1.678  16.728 -0.9501 -1.2082 -1.2610
  921MPD2    C213531   1.698   1.584  16.664 -0.2140  0.2299  0.3943
  921MPD2    C313532   1.614   1.498  16.731 -0.0886  0.4703 -0.1088
  921MPD2    C413533   1.595   1.515  16.861  0.4962 -0.2198  0.1359
  921MPD2    C513534   1.674   1.601  16.932  0.0530 -0.3434 -0.3053
  921MPD2     H13535   1.706   1.572  16.556 -0.1008 -3.3199  0.8015
  921MPD2    H113536   1.521   1.454  16.913  0.4990 -0.9667 -0.7272
  921MPD2    H213537   1.811   1.764  16.918 -1.2691  1.0543 -0.2555
  921MPD2    H313538   1.666   1.618  17.038  0.4670  0.9839 -0.4890
  921MPD2     N13539   1.560   1.403  16.647  0.4432 -0.4727 -0.4931
  921MPD2    H513540   1.584   1.401  16.548  2.7022  0.2806  0.0291
  921MPD2    N113541   1.883   1.740  16.665 -0.4778 -0.1440  0.7343
  921MPD2    H713542   1.966   1.761  16.720  0.2449 -1.5734  0.1920
  922MPD2     C13543   2.137   4.205  17.285  0.2795  0.5100 -0.0383
  922MPD2    C113544   2.034   4.218  17.373  0.8326  0.4748 -0.4370
  922MPD2    C213545   1.964   4.114  17.418  1.0636  0.3354 -0.0274
  922MPD2    C313546   1.988   3.990  17.371 -0.0573  0.2423 -0.0473
  922MPD2    C413547   2.084   3.974  17.272  0.0824 -0.4833 -0.1240
  922MPD2    C513548   2.165   4.074  17.234 -0.5385 -0.1753 -0.1754
  922MPD2     H13549   1.892   4.129  17.498  1.8673  2.4012  0.3317
  922MPD2    H113550   2.111   3.879  17.227  0.1969 -1.0944  1.2349
  922MPD2    H213551   2.193   4.289  17.246  0.2915  0.2838 -0.5059
  922MPD2    H313552   2.243   4.066  17.158  0.2487 -0.6571  0.6788
  922MPD2     N13553   1.895   3.881  17.400 -0.2224 -0.1491  0.5766
  922MPD2    H513554   1.814   3.909  17.455  0.1891  0.6170  0.7850
  922MPD2    N113555   2.006   4.337  17.435  0.0740  0.0832 -0.6728
  922MPD2    H713556   1.931   4.335  17.504 -0.1627  2.5503 -0.8418
  923MPD2     C13557   3.588   0.221   9.022 -0.2997 -1.1986 -0.3912
  923MPD2    C113558   3.578   0.321   9.121 -0.0681 -0.1072 -0.0428
  923MPD2    C213559   3.690   0.347   9.195  0.0325 -1.0660 -0.1322
  923MPD2    C313560   3.811   0.290   9.177 -0.1505  0.0317 -0.1028
  923MPD2    C413561   3.816   0.185   9.086  0.7252 -0.9061  0.1251
  923MPD2    C513562   3.705   0.150   9.009  0.5425 -0.0794 -0.0997
  923MPD2     H13563   3.684   0.428   9.266 -1.3212 -0.7608 -0.6096
  923MPD2    H113564   3.913   0.139   9.068  0.1254 -2.2672  0.4067
  923MPD2    H213565   3.509   0.198   8.952 -1.2220  2.1810 -0.4730
  923MPD2    H313566   3.720   0.072   8.935 -2.0976 -1.8400  1.2182
  923MPD2     N13567   3.927   0.325   9.253  0.4934 -1.2691  0.7832
  923MPD2    H513568   4.007   0.263   9.247  2.6228  1.9540 -3.5817
  923MPD2    N113569   3.443   0.381   9.141 -0.6400  0.3589  0.7020
  923MPD2    H713570   3.364   0.353   9.083 -0.1799 -0.4949  0.4921
  924MPD2     C13571   3.785   3.631  16.580 -0.2504  0.1191  0.7701
  924MPD2    C113572   3.697   3.718  16.524 -0.4774  0.3365  0.3367
  924MPD2    C213573   3.746   3.838  16.474 -0.8422  0.6132 -0.1306
  924MPD2    C313574   3.877   3.875  16.509  0.5742  0.0512 -0.3531
  924MPD2    C413575   3.966   3.783  16.557 -0.3238 -0.0430  0.1636
  924MPD2    C513576   3.922   3.657  16.589  0.5701  0.0802 -1.0262
  924MPD2     H13577   3.677   3.908  16.427  0.1779  1.3815 -0.4794
  924MPD2    H113578   4.070   3.806  16.577 -1.4279  3.3308  1.9603
  924MPD2    H213579   3.745   3.539  16.621 -0.0862  0.0919  0.8711
  924MPD2    H313580   3.988   3.588  16.641 -0.9903 -0.1732  0.6419
  924MPD2     N13581   3.924   4.007  16.519  0.1955 -0.7152  1.1505
  924MPD2    H513582   4.009   4.040  16.563  1.5367 -2.6357 -0.0050
  924MPD2    N113583   3.556   3.695  16.515 -0.1700  0.1736 -0.2976
  924MPD2    H713584   3.500   3.754  16.454  0.1474  0.1784 -0.5877
  925MPD2     C13585   2.719   1.530  14.361 -0.6666 -0.7914 -0.4013
  925MPD2    C113586   2.582   1.553  14.388  0.2611 -0.3013  0.1136
  925MPD2    C213587   2.548   1.592  14.519 -0.6494 -0.4548 -0.2902
  925MPD2    C313588   2.642   1.619  14.612  0.2932  0.2103  0.8457
  925MPD2    C413589   2.773   1.600  14.582 -0.1400  0.2296  0.0002
  925MPD2    C513590   2.807   1.561  14.453  0.2238  0.1026  0.3606
  925MPD2     H13591   2.446   1.610  14.551  0.9726  2.1812  3.4655
  925MPD2    H113592   2.849   1.617  14.658 -0.3480 -1.7507  0.6622
  925MPD2    H213593   2.764   1.499  14.268 -3.0155  0.3126 -1.9294
  925MPD2    H313594   2.909   1.570  14.418  0.1593  2.3216  0.7217
  925MPD2     N13595   2.614   1.663  14.749 -0.1444 -0.3428  0.5901
  925MPD2    H513596   2.692   1.662  14.813  2.3476 -0.1097 -2.4308
  925MPD2    N113597   2.482   1.537  14.288 -0.0800 -0.4162  0.1168
  925MPD2    H713598   2.384   1.560  14.303  0.5170  1.9482  0.2533
  926MPD2     C13599   1.401   4.669  13.645 -0.3945 -0.0545  0.4593
  926MPD2    C113600   1.322   0.009  13.558 -0.3742  0.5269 -0.3075
  926MPD2    C213601   1.383   0.087  13.462  0.5378  0.3734 -0.1721
  926MPD2    C313602   1.522   0.076  13.449 -0.4743  0.3484  0.0029
  926MPD2    C413603   1.594   0.004  13.541 -0.7626 -0.6062 -0.2114
  926MPD2    C513604   1.537   4.675  13.640 -0.6678  0.1936  0.4572
  926MPD2     H13605   1.321   0.143  13.393  0.2857 -0.9175 -0.9959
  926MPD2    H113606   1.703   0.005  13.546 -0.7838  2.1118 -0.1765
  926MPD2    H213607   1.357   4.595  13.711 -1.0808  1.0803  1.2904
  926MPD2    H313608   1.600   4.627  13.713 -0.4144  1.5569  1.1433
  926MPD2     N13609   1.597   0.139  13.349  0.3437  0.2916  0.2373
  926MPD2    H513610   1.698   0.134  13.353  0.2098 -0.6866  2.0201
  926MPD2    N113611   1.184   0.024  13.569  0.0784  0.0969  0.3119
  926MPD2    H713612   1.134   0.082  13.502 -0.0726  0.2933  0.5935
  927MPD2     C13613   1.093   2.649   0.242 -0.2027 -0.0546  0.1950
  927MPD2    C113614   0.992   2.667   0.151 -0.4298  0.1704 -0.1111
  927MPD2    C213615   1.021   2.646   0.019  1.0887 -0.1727 -0.1698
  927MPD2    C313616   1.146   2.617  17.720  0.0212  0.3691  0.4581
  927MPD2    C413617   1.248   2.614   0.060 -0.2430 -0.0684  0.7805
  927MPD2    C513618   1.220   2.615   0.197  0.5208 -0.1341  0.1112
  927MPD2     H13619   0.942   2.648  17.691  0.3739  0.2071  0.5932
  927MPD2    H113620   1.352   2.592   0.041 -0.4262 -1.0952  0.9327
  927MPD2    H213621   1.075   2.668   0.347 -0.6804 -0.1828  0.1372
  927MPD2    H313622   1.287   2.602   0.281  0.0005  0.5220  0.6270
  927MPD2     N13623   1.165   2.610  17.578  0.2750 -0.2561  0.2256
  927MPD2    H513624   1.080   2.611  17.523 -0.3299 -2.9500  1.1151
  927MPD2    N113625   0.860   2.696   0.200 -0.0579  0.9199  0.0760
  927MPD2    H713626   0.834   2.684   0.298 -1.8330 -2.2900 -0.7930
  928MPD2     C13627   3.873   1.114   0.417 -0.0577 -0.2513 -0.0958
  928MPD2    C113628   3.809   1.182   0.521  0.6149 -0.5037 -0.4449
  928MPD2    C213629   3.823   1.323   0.530 -0.1873 -0.3266  0.7354
  928MPD2    C313630   3.900   1.400   0.439  0.1287 -0.3036  0.2902
  928MPD2    C413631   3.961   1.327   0.338 -0.4817 -0.2693 -0.4357
  928MPD2    C513632   3.950   1.189   0.328 -0.6465  0.1192 -0.3570
  928MPD2     H13633   3.781   1.368   0.620 -0.2341  2.5963 -0.7515
  928MPD2    H113634   4.017   1.381   0.262  1.6830 -0.1833  1.2448
  928MPD2    H213635   3.864   1.007   0.409  0.1763 -0.4681  2.4893
  928MPD2    H313636   4.014   1.139   0.257 -0.6912  0.4880 -0.6559
  928MPD2     N13637   3.919   1.540   0.446 -0.4708  0.3404 -0.3380
  928MPD2    H513638   3.977   1.578   0.372  2.4864 -4.1774 -0.3681
  928MPD2    N113639   3.717   1.120   0.606  0.3028 -0.1586  0.1919
  928MPD2    H713640   3.667   1.186   0.664  2.6698  0.8818  1.0714
  929MPD2     C13641   4.270   0.269  10.607 -0.4039 -0.0884  0.5803
  929MPD2    C113642   4.154   0.192  10.614  0.3680  0.2658 -0.0097
  929MPD2    C213643   4.084   0.178  10.494 -0.2538 -0.0914 -0.0707
  929MPD2    C313644   4.110   0.257  10.381  0.0912  0.8868  1.1761
  929MPD2    C413645   4.220   0.336  10.381  0.1531  0.0730  0.0261
  929MPD2    C513646   4.301   0.335  10.488 -0.4760 -0.4248  0.4937
  929MPD2     H13647   3.985   0.134  10.500 -0.0935 -0.3411  0.7925
  929MPD2    H113648   4.256   0.388  10.293 -1.1511 -0.2649 -0.7011
  929MPD2    H213649   4.333   0.283  10.693  1.1638 -0.8530 -0.4449
  929MPD2    H313650   4.377   0.412  10.499 -0.1361 -0.6902  0.0060
  929MPD2     N13651   4.033   0.257  10.261 -0.4687  0.1473 -0.4580
  929MPD2    H513652   4.078   0.301  10.182  0.7549 -4.1182 -2.1490
  929MPD2    N113653   4.116   0.127  10.731  0.3696  0.4551 -0.5066
  929MPD2    H713654   4.168   0.154  10.814  0.5671 -4.4240  0.9246
  930MPD2     C13655   0.441   2.693  14.508 -0.2049 -0.0266  0.3328
  930MPD2    C113656   0.396   2.806  14.449  0.0323  0.2116  0.9422
  930MPD2    C213657   0.353   2.803  14.318  0.0210  0.1508 -0.2514
  930MPD2    C313658   0.345   2.678  14.255 -0.1768  0.6290 -0.6764
  930MPD2    C413659   0.374   2.562  14.319  0.0531  0.4282  0.3498
  930MPD2    C513660   0.421   2.569  14.449 -0.2122  0.6065  0.8357
  930MPD2     H13661   0.308   2.894  14.279  2.7709  1.2005 -0.9266
  930MPD2    H113662   0.365   2.462  14.277 -1.5199  1.1779 -1.0942
  930MPD2    H213663   0.482   2.693  14.608 -0.0518 -0.8426  0.2721
  930MPD2    H313664   0.443   2.481  14.508 -1.6970 -0.4205 -0.1385
  930MPD2     N13665   0.286   2.671  14.123 -0.1877  0.2433  0.4084
  930MPD2    H513666   0.321   2.601  14.059 -1.3030 -0.0629  0.1338
  930MPD2    N113667   0.413   2.925  14.521 -0.0979 -0.1421 -0.0096
  930MPD2    H713668   0.478   2.930  14.598  0.0155  2.0008 -0.2487
  931MPD2     C13669   0.310   2.713   0.803 -0.1977  0.2662 -0.1583
  931MPD2    C113670   0.352   2.622   0.710  0.6635  0.1011  0.0524
  931MPD2    C213671   0.372   2.490   0.748 -0.4357  0.3772  0.3238
  931MPD2    C313672   0.343   2.442   0.875 -0.1005 -1.0431 -0.1863
  931MPD2    C413673   0.297   2.537   0.966  0.5086  0.6960 -0.3496
  931MPD2    C513674   0.274   2.668   0.933 -0.5268  0.2551  0.0485
  931MPD2     H13675   0.396   2.419   0.670 -1.9936  0.2524 -0.0416
  931MPD2    H113676   0.262   2.504   1.063 -0.1599 -0.1796 -0.8893
  931MPD2    H213677   0.301   2.818   0.777 -0.4697  0.3111  0.1195
  931MPD2    H313678   0.233   2.735   1.007  1.4208  1.5700 -0.0766
  931MPD2     N13679   0.334   2.308   0.911  0.0437 -0.0600 -0.6304
  931MPD2    H513680   0.283   2.287   0.996  0.8615 -1.3967 -0.4744
  931MPD2    N113681   0.387   2.676   0.585  0.8572  0.3669 -0.0889
  931MPD2    H713682   0.365   2.775   0.570 -2.3732  0.2716  3.6997
  932MPD2     C13683   2.648   0.928  11.220 -0.1777 -0.2396 -0.1098
  932MPD2    C113684   2.627   1.006  11.335  0.2080 -0.6492 -0.3528
  932MPD2    C213685   2.599   0.952  11.461 -0.2461  0.4873  0.4185
  932MPD2    C313686   2.585   0.815  11.463  0.3120  0.0706  0.3466
  932MPD2    C413687   2.597   0.735  11.354  0.1349 -0.2233 -0.3101
  932MPD2    C513688   2.634   0.792  11.233  1.3901  0.5697  0.6310
  932MPD2     H13689   2.606   1.022  11.544 -0.7515  0.5802  0.3845
  932MPD2    H113690   2.590   0.628  11.368  0.3283 -0.3386 -1.1022
  932MPD2    H213691   2.670   0.957  11.118 -2.3698 -2.0806 -1.1203
  932MPD2    H313692   2.663   0.736  11.145 -1.9993  1.1022 -0.8438
  932MPD2     N13693   2.551   0.746  11.583  0.1251 -0.0869  1.0932
  932MPD2    H513694   2.561   0.645  11.586 -0.0277 -0.1432 -0.7710
  932MPD2    N113695   2.634   1.146  11.331  0.5026  0.7234  0.1623
  932MPD2    H713696   2.643   1.197  11.418 -0.4203  1.4983 -0.1975
  933MPD2     C13697   3.298   1.329   1.216 -0.1006 -0.3111  0.1154
  933MPD2    C113698   3.300   1.305   1.079  0.0919  0.2702  0.1754
  933MPD2    C213699   3.239   1.401   0.995  0.6212  0.0387 -0.0008
  933MPD2    C313700   3.180   1.518   1.046  0.2744  0.1285  0.2038
  933MPD2    C413701   3.170   1.529   1.185 -0.6534  0.2313  0.3213
  933MPD2    C513702   3.236   1.437   1.270 -0.3985 -0.0268  0.4936
  933MPD2     H13703   3.239   1.391   0.887 -1.4498 -1.6888  0.1574
  933MPD2    H113704   3.119   1.613   1.232  0.8393  0.5192  1.4181
  933MPD2    H213705   3.323   1.248   1.283 -1.6690 -0.3386  0.6880
  933MPD2    H313706   3.238   1.446   1.378 -0.2498  2.4760  0.2799
  933MPD2     N13707   3.141   1.625   0.959 -0.5043  0.2639 -0.2211
  933MPD2    H513708   3.151   1.599   0.862 -3.3233 -1.0387 -0.1858
  933MPD2    N113709   3.375   1.193   1.035 -0.2727 -1.0367 -0.3802
  933MPD2    H713710   3.426   1.148   1.110  1.5824  1.5777 -0.0579
  934MPD2     C13711   4.584   4.383   1.876  0.0977 -0.2778 -0.5989
  934MPD2    C113712   4.635   4.301   1.774 -1.0224 -0.4354  0.7044
  934MPD2    C213713   4.577   4.177   1.755 -0.0207  0.1440 -0.0801
  934MPD2    C313714   4.459   4.143   1.825  0.0446 -0.7397  0.3166
  934MPD2    C413715   4.419   4.221   1.935  0.2014 -0.3841 -0.8162
  934MPD2    C513716   4.484   4.337   1.963  0.5977  0.3497 -0.6323
  934MPD2     H13717   4.608   4.114   1.673 -0.4502 -1.3443  0.9032
  934MPD2    H113718   4.340   4.189   2.002 -2.3124  2.4242 -2.4552
  934MPD2    H213719   4.636   4.472   1.910 -0.7736  0.2520 -0.6364
  934MPD2    H313720   4.465   4.402   2.048 -1.5394  0.8116 -1.4611
  934MPD2     N13721   4.379   4.029   1.802 -0.6055  0.1709 -0.5121
  934MPD2    H513722   4.297   4.019   1.861 -0.5247  0.9652 -0.2663
  934MPD2    N113723   0.003   4.337   1.681  0.2150 -0.2079 -0.5050
  934MPD2    H713724   0.029   4.269   1.610 -1.3047 -1.0119 -0.2940
  935MPD2     C13725   4.574   3.083   1.777 -0.1092  0.6697  0.6075
  935MPD2    C113726   4.521   3.117   1.652  0.9313  1.1277  0.0210
  935MPD2    C213727   4.465   3.237   1.628 -0.0506 -0.0918  0.2381
  935MPD2    C313728   4.455   3.328   1.728 -0.7904  0.3054 -0.8364
  935MPD2    C413729   4.504   3.295   1.853  0.1090 -0.1355 -1.0928
  935MPD2    C513730   4.562   3.171   1.883  0.5141  0.2560  0.6890
  935MPD2     H13731   4.421   3.253   1.530 -0.5061  2.3212  0.8279
  935MPD2    H113732   4.478   3.348   1.944  1.0397 -3.1539  0.9235
  935MPD2    H213733   4.615   2.985   1.798 -1.3418 -0.1868 -1.0159
  935MPD2    H313734   4.605   3.145   1.980  0.2227  1.7447  1.2170
  935MPD2     N13735   4.401   3.453   1.704 -0.7922 -0.0687 -0.1723
  935MPD2    H513736   4.397   3.525   1.775  0.2903  0.1813 -0.3650
  935MPD2    N113737   4.541   3.039   1.540 -1.1193 -0.0021  0.1397
  935MPD2    H713738   4.517   3.086   1.453  1.3255 -0.7859 -0.9558
  936MPD2     C13739   3.291   4.050  12.807 -0.0233 -0.0170 -0.1334
  936MPD2    C113740   3.302   4.160  12.892  0.2279 -0.1763  1.0168
  936MPD2    C213741   3.259   4.281  12.853  0.4656 -0.4873 -0.0020
  936MPD2    C313742   3.183   4.295  12.735  0.1161 -0.5830 -0.1405
  936MPD2    C413743   3.182   4.193  12.648  0.2019  0.3918  0.5451
  936MPD2    C513744   3.231   4.072  12.688  1.0950  0.9135  0.3202
  936MPD2     H13745   3.263   4.355  12.932  0.5420 -1.6241  1.0589
  936MPD2    H113746   3.138   4.203  12.550  0.9318 -0.2248  0.1552
  936MPD2    H213747   3.308   3.947  12.838  0.8016  0.2859  0.4520
  936MPD2    H313748   3.216   3.992  12.617 -0.8091  0.7955  0.8548
  936MPD2     N13749   3.119   4.413  12.699 -0.3666 -0.0375  0.4052
  936MPD2    H513750   3.084   4.419  12.604  0.8124 -0.3061 -0.0481
  936MPD2    N113751   3.362   4.147  13.022  0.0183 -1.1198 -0.5938
  936MPD2    H713752   3.366   4.228  13.083  0.6196 -3.2280  2.1313
  937MPD2     C13753   1.616   0.629  11.424  0.1586  0.7264 -0.7101
  937MPD2    C113754   1.645   0.756  11.470 -0.4844 -0.5968 -0.5316
  937MPD2    C213755   1.746   0.819  11.400 -0.0012 -0.1453  0.4157
  937MPD2    C313756   1.830   0.761  11.310 -0.4534  0.3447 -0.8713
  937MPD2    C413757   1.810   0.625  11.284 -0.3247 -0.7664 -0.0265
  937MPD2    C513758   1.694   0.566  11.332  0.4406 -0.3382  0.0329
  937MPD2     H13759   1.762   0.926  11.417 -0.9614 -0.4572  3.3197
  937MPD2    H113760   1.868   0.572  11.209  0.6767  0.9785 -0.4984
  937MPD2    H213761   1.531   0.569  11.451 -0.6939  0.5583 -3.7835
  937MPD2    H313762   1.679   0.464  11.300  1.6775  0.1264 -2.0503
  937MPD2     N13763   1.913   0.845  11.238  0.2390 -0.4569  0.4550
  937MPD2    H513764   1.909   0.943  11.267 -1.3929 -0.6634  0.9251
  937MPD2    N113765   1.551   0.835  11.539  1.1237 -0.1692 -0.3885
  937MPD2    H713766   1.578   0.931  11.558 -0.2729  0.3626 -1.0960
  938MPD2     C13767   3.374   3.447   0.506 -0.0735 -0.3499  0.6729
  938MPD2    C113768   3.314   3.465   0.630 -0.0590 -0.0514  0.2044
  938MPD2    C213769   3.272   3.353   0.704  0.0853 -0.0493 -0.5437
  938MPD2    C313770   3.301   3.226   0.662 -0.1560  0.1642 -0.4422
  938MPD2    C413771   3.359   3.206   0.538  0.6906 -0.6416  0.2079
  938MPD2    C513772   3.392   3.316   0.465  0.3198  0.4146 -0.1014
  938MPD2     H13773   3.218   3.377   0.794  2.1059  1.3388  0.2848
  938MPD2    H113774   3.389   3.109   0.500  0.5864 -0.1855 -1.0304
  938MPD2    H213775   3.394   3.534   0.445  0.5663 -1.5459 -0.7975
  938MPD2    H313776   3.433   3.302   0.366  0.5872 -0.3364  0.1097
  938MPD2     N13777   3.264   3.110   0.735 -0.5073 -0.8008 -0.6682
  938MPD2    H513778   3.290   3.019   0.698  2.6051  0.2400 -1.0370
  938MPD2    N113779   3.306   3.591   0.693 -0.3900  0.4751 -0.1310
  938MPD2    H713780   3.262   3.591   0.785 -1.3528 -0.3302 -0.5861
  939MPD2     C13781   4.242   4.619   1.054 -0.0620 -0.7972  0.3883
  939MPD2    C113782   4.154   4.603   0.959  0.0960 -0.7766 -0.5416
  939MPD2    C213783   4.202   4.600   0.828 -0.0323  0.1201 -0.9208
  939MPD2    C313784   4.337   4.577   0.799 -0.1468  0.2861  0.8418
  939MPD2    C413785   4.430   4.580   0.904  0.6335  0.3556 -0.7092
  939MPD2    C513786   4.377   4.596   1.028 -0.3409 -0.3922 -0.5018
  939MPD2     H13787   4.135   4.611   0.744 -0.9071 -0.6336 -0.3091
  939MPD2    H113788   4.538   4.571   0.898  0.7275  1.0924 -0.0727
  939MPD2    H213789   4.213   4.633   1.158  4.6594 -1.4718  1.8150
  939MPD2    H313790   4.439   4.601   1.117  0.0536 -0.2783 -0.7858
  939MPD2     N13791   4.370   4.559   0.666 -0.4819  0.2642 -0.2236
  939MPD2    H513792   4.299   4.559   0.594 -1.2999  0.3458  0.5963
  939MPD2    N113793   4.015   4.601   0.987 -0.5860 -0.3435  0.2303
  939MPD2    H713794   3.981   4.605   1.083 -0.0766 -0.6451  0.4270
  940MPD2     C13795   3.624   4.634  12.985  0.4980  0.2835  0.7872
  940MPD2    C113796   3.685   4.552  13.073 -0.0610  0.1977  1.1848
  940MPD2    C213797   3.704   4.423  13.048  0.3203  0.2993  0.0187
  940MPD2    C313798   3.653   4.363  12.932  0.7106  0.3705 -0.4192
  940MPD2    C413799   3.584   4.445  12.847  0.1557  0.7126 -0.5839
  940MPD2    C513800   3.575   4.580  12.872 -0.3016  0.0651  0.4773
  940MPD2     H13801   3.765   4.371  13.121  0.2184  2.1721  1.4337
  940MPD2    H113802   3.539   4.406  12.756 -3.8526  0.9303  1.2865
  940MPD2    H213803   3.603   0.001  13.009  1.1100  0.5170  0.3199
  940MPD2    H313804   3.514   4.638  12.803 -2.9191 -0.9503  1.9667
  940MPD2     N13805   3.673   4.226  12.899 -0.1185  0.0259  0.2851
  940MPD2    H513806   3.641   4.195  12.807 -1.3337 -2.1954  1.4512
  940MPD2    N113807   3.755   4.613  13.181  0.3878  0.0397 -0.3548
  940MPD2    H713808   3.794   4.549  13.251  2.0436  2.4649  0.9547
  941MPD2     C13809   2.808   3.759  10.107  0.1475  0.3740  0.2412
  941MPD2    C113810   2.898   3.672  10.166 -0.0680 -0.1999 -0.3000
  941MPD2    C213811   2.857   3.569  10.244 -0.6549  0.3346  0.1535
  941MPD2    C313812   2.719   3.536  10.246 -0.0292 -0.0741 -0.5101
  941MPD2    C413813   2.633   3.621  10.184 -0.7261  0.0117 -0.5152
  941MPD2    C513814   2.673   3.732  10.120 -0.0506 -0.0900 -0.7724
  941MPD2     H13815   2.929   3.515  10.304  0.2588 -1.8265 -2.8793
  941MPD2    H113816   2.527   3.597  10.192 -0.5742  0.0944  1.9149
  941MPD2    H213817   2.835   3.847  10.049 -0.3681  0.4424  0.1143
  941MPD2    H313818   2.599   3.799  10.075 -1.7031 -0.5628  1.2506
  941MPD2     N13819   2.669   3.422  10.306 -0.2081  0.0272  0.5629
  941MPD2    H513820   2.569   3.429  10.318 -0.4080  0.7334 -1.4613
  941MPD2    N113821   3.036   3.689  10.163 -0.2736 -0.4992  0.5465
  941MPD2    H713822   3.092   3.631  10.225 -0.5288  0.8819  2.0860
  942MPD2     C13823   3.017   0.636  10.008  0.1485 -0.5524 -0.2469
  942MPD2    C113824   2.985   0.640   9.875 -0.0636 -0.2189 -0.2063
  942MPD2    C213825   3.056   0.560   9.790 -0.9050  0.4354 -0.6873
  942MPD2    C313826   3.157   0.479   9.834  0.4783 -0.6860 -0.5969
  942MPD2    C413827   3.193   0.491   9.967  0.3276 -1.1259 -0.5014
  942MPD2    C513828   3.114   0.562  10.052 -0.3588  0.0433  0.0791
  942MPD2     H13829   3.019   0.562   9.688 -0.4605 -2.3863 -0.8859
  942MPD2    H113830   3.277   0.437  10.010 -0.8700 -1.0056  2.0018
  942MPD2    H213831   2.957   0.681  10.087  0.3346 -0.9973  0.1426
  942MPD2    H313832   3.117   0.544  10.159 -1.4030  1.6026  0.3760
  942MPD2     N13833   3.235   0.393   9.755  0.0850 -0.0383  0.3894
  942MPD2    H513834   3.319   0.361   9.802 -0.4317 -1.3736  0.4018
  942MPD2    N113835   2.876   0.711   9.817 -0.0511 -0.0446  0.0716
  942MPD2    H713836   2.863   0.702   9.717 -1.9592  0.2835  0.2881
  943MPD2     C13837   2.308   3.840  10.004  0.0099 -0.0117 -0.1595
  943MPD2    C113838   2.260   3.736  10.086  0.4977  0.6689 -0.3166
  943MPD2    C213839   2.233   3.766  10.220 -0.8342  0.6654 -0.5453
  943MPD2    C313840   2.253   3.896  10.264 -0.1731 -0.3542 -0.2126
  943MPD2    C413841   2.310   3.993  10.189 -0.0904 -0.0270  0.5568
  943MPD2    C513842   2.325   3.970  10.056 -0.0480 -0.1719 -0.2217
  943MPD2     H13843   2.191   3.698  10.294  0.1087  3.1457  2.2239
  943MPD2    H113844   2.323   4.095  10.223 -3.0487  0.0659  1.4153
  943MPD2    H213845   2.334   3.811   9.903 -0.3003  0.8031 -0.4757
  943MPD2    H313846   2.367   4.048   9.992 -1.6935  0.1795 -0.8652
  943MPD2     N13847   2.208   3.952  10.391  0.0428 -0.1891 -0.2204
  943MPD2    H513848   2.209   4.053  10.403 -0.4676 -0.1917 -0.1749
  943MPD2    N113849   2.237   3.612  10.025  0.2071 -0.0287 -0.1227
  943MPD2    H713850   2.234   3.609   9.924  0.5659 -0.4191 -0.1220
  944MPD2     C13851   1.222   3.247  11.097 -0.0225 -0.2015 -0.7817
  944MPD2    C113852   1.187   3.159  11.202 -0.3413  0.0578 -0.2890
  944MPD2    C213853   1.111   3.218  11.308  0.3242  0.1102  0.0706
  944MPD2    C313854   1.083   3.348  11.319 -0.3766  0.5387  0.2874
  944MPD2    C413855   1.120   3.434  11.218  0.5010  0.4108 -0.3311
  944MPD2    C513856   1.184   3.384  11.109 -0.8593 -0.1111 -0.4185
  944MPD2     H13857   1.070   3.159  11.389  0.0122 -0.4298 -0.4756
  944MPD2    H113858   1.110   3.542  11.223 -3.3005  0.0481 -0.7437
  944MPD2    H213859   1.279   3.223  11.008  1.4157  0.7557 -0.1201
  944MPD2    H313860   1.230   3.440  11.029  1.5117  0.4299  1.3056
  944MPD2     N13861   1.026   3.392  11.443  0.3102 -0.5674  0.0412
  944MPD2    H513862   1.015   3.331  11.523 -0.6867  1.2081  1.2618
  944MPD2    N113863   1.227   3.021  11.194 -0.7493  0.3561  0.9951
  944MPD2    H713864   1.275   2.989  11.110 -1.7912 -0.5327  0.7212
    1TMC1    C113865   4.373   3.574  14.439 -0.7854 -0.1347 -0.0859
    1TMC1    C213866   4.373   3.449  14.497  0.6975  0.5587 -0.3229
    1TMC1    C313867   4.300   3.351  14.439  0.4718 -0.1975  0.8266
    1TMC1    C413868   4.301   3.603  14.331  1.1579 -0.4724 -0.0668
    1TMC1    C513869   4.218   3.507  14.279  0.2534  0.5702 -0.1397
    1TMC1    C613870   4.216   3.381  14.334 -0.3721 -0.5233  0.2321
    1TMC1     C13871   4.462   3.669  14.505 -0.5544 -0.2680  0.0146
    1TMC1     O13872   4.514   3.630  14.609 -0.1210  0.6316 -0.4030
    1TMC1     H13873   4.443   3.421  14.575  0.0919 -0.3415 -0.0994
    1TMC1    H113874   4.292   3.704  14.294 -1.0109 -1.0769 -1.2244
    1TMC1    H213875   4.152   3.307  14.288  0.0339 -0.1459 -0.9494
    1TMC1    C713876   4.133   3.546  14.164  0.4361  0.2664 -0.3944
    1TMC1    C813877   4.236   3.248  14.523  0.5587 -0.2223  0.1179
    1TMC1    O113878   4.152   3.657  14.117  0.1999 -0.4530  0.4457
    1TMC1    O213879   4.118   3.216  14.517 -0.3975 -0.2104 -0.4540
    1TMC1    O313880   4.009   3.519  14.208  0.0075  0.0207 -0.4651
    1TMC1    H313881   4.001   3.459  14.284 -0.6743  0.9324  0.1838
    1TMC1    O513882   4.325   3.203  14.609  0.0842  0.1684  0.0621
    1TMC1    H513883   4.420   3.221  14.590  0.3133  0.1819  1.1939
    2MPD2     C13884   4.555   4.150  14.663  0.7990 -0.0242 -0.6447
    2MPD2    C113885   4.477   4.150  14.551 -0.1192 -0.0319 -0.5097
    2MPD2    C213886   4.441   4.036  14.488  0.3915 -0.6277  0.4261
    2MPD2    C313887   4.503   3.919  14.526  0.5711  0.5960 -0.3028
    2MPD2    C413888   4.582   3.907  14.644  0.5295  0.0361  0.5334
    2MPD2    C513889   4.606   4.028  14.711  0.7220 -0.3791 -0.5809
    2MPD2     H13890   4.380   4.021  14.400  1.0779 -1.2256  0.0539
    2MPD2    H113891   4.629   3.818  14.683 -2.3361 -0.7025  2.3163
    2MPD2    H213892   4.600   4.236  14.711 -0.3372  0.7944 -1.0544
    2MPD2    H313893   4.681   4.028  14.790 -0.2032 -0.6095  0.2932
    2MPD2     N13894   4.446   3.800  14.462  0.4867 -0.4193 -0.6722
    2MPD2    H513895   4.400   3.820  14.374  0.2912  0.9394 -0.2675
    2MPD2    N113896   4.442   4.281  14.499 -0.3122  0.4662  1.0791
    2MPD2    H713897   4.498   4.357  14.537  0.6526  0.5010 -0.4409
    3TMC2    C113898   4.343   4.442  14.365  0.1963  0.5161 -0.3775
    3TMC2    C213899   4.217   4.498  14.346 -0.3626  0.0505 -0.4117
    3TMC2    C313900   4.212   4.631  14.315 -0.6139  0.2042  0.3705
    3TMC2    C413901   4.463   4.510  14.349  0.3462 -0.0284  0.1155
    3TMC2    C513902   4.445   4.643  14.309  0.0225  0.3196  0.1064
    3TMC2    C613903   4.325   4.701  14.286  0.3229 -0.4325 -0.8171
    3TMC2     C13904   4.347   4.301  14.400  0.6431  0.0215 -0.1214
    3TMC2     O13905   4.259   4.223  14.361  0.1058 -0.3397  0.3355
    3TMC2     H13906   4.127   4.437  14.348 -0.9285  0.9880  2.6429
    3TMC2    H113907   4.561   4.464  14.356  1.0355  1.5047  0.5047
    3TMC2    H213908   4.318   0.070  14.266 -0.1831 -0.3841 -0.3990
    3TMC2    C713909   4.567   4.694  14.249 -0.0591  0.0192  0.0822
    3TMC2    C813910   4.086   4.688  14.275  0.1682  0.3024 -0.4349
    3TMC2    O113911   4.650   4.616  14.210 -0.6730 -0.2821 -0.0572
    3TMC2    O213912   4.069   0.027  14.179  0.1336 -0.1381  0.3144
    3TMC2    O513913   3.993   4.632  14.352  0.3524  0.0282 -0.6924
    3TMC2    H513914   4.024   4.597  14.438 -1.1755 -0.3732 -0.2926
    4TMC2    C113915   4.354   0.907  14.064  0.4554  0.3029  0.1983
    4TMC2    C213916   4.449   0.997  14.035  0.4637  0.2241 -0.1784
    4TMC2    C313917   4.578   0.946  14.029  0.3694  0.3356  0.0021
    4TMC2    C413918   4.377   0.776  14.095 -0.0266 -0.0196 -0.0402
    4TMC2    C513919   4.511   0.733  14.110 -0.0699 -0.0155  0.2834
    4TMC2    C613920   4.610   0.820  14.075  0.1549 -0.4173  0.5318
    4TMC2     C13921   4.213   0.949  14.068 -0.1669  0.2393  0.0290
    4TMC2     O13922   4.198   1.069  14.049  0.0451 -0.6876  0.0777
    4TMC2     H13923   4.442   1.100  14.003 -1.4176  0.2643  0.3879
    4TMC2    H113924   4.304   0.713  14.143 -0.3571  1.2676  1.1709
    4TMC2    H213925   4.712   0.793  14.100  0.2038  0.5572  1.3932
    4TMC2    C713926   4.533   0.592  14.127  0.5746  0.1395  0.7378
    4TMC2    C813927   4.696   1.023  13.988  0.0354 -0.5746 -0.2442
    4TMC2    O113928   4.433   0.526  14.120 -0.7716 -0.1161  0.2553
    4TMC2    O213929   0.062   1.018  14.054  0.1857  0.1775  0.0840
    4TMC2    O513930   4.666   1.114  13.898  0.2993  0.1552  0.4721
    4TMC2    H513931   4.591   1.081  13.844 -0.0922  2.7287 -0.5387
    5MPD2     C13932   3.700   0.945  14.120  0.5190  0.7243  0.0997
    5MPD2    C113933   3.743   0.845  14.037  0.2166 -0.0971 -0.0116
    5MPD2    C213934   3.876   0.821  14.026  0.2059  0.3305 -0.1892
    5MPD2    C313935   3.972   0.892  14.092  0.1401  0.6566 -0.7854
    5MPD2    C413936   3.927   0.999  14.175  0.2996 -0.1929  0.9170
    5MPD2    C513937   3.790   1.029  14.180  0.6426 -0.2603  0.0562
    5MPD2     H13938   3.912   0.738  13.966  0.1167  0.0848  0.1017
    5MPD2    H113939   3.996   1.069  14.221  2.4644 -1.9514  0.3642
    5MPD2    H213940   3.595   0.967  14.130  1.0691  1.9111  3.3006
    5MPD2    H313941   3.742   1.113  14.228 -0.9494 -2.2735  1.9739
    5MPD2     N13942   4.111   0.859  14.082 -0.2016 -0.0887 -0.2617
    5MPD2    H513943   4.127   0.759  14.077  0.9939  0.0467  0.9474
    5MPD2    N113944   3.643   0.786  13.955 -0.3669 -1.1507  0.1882
    5MPD2    H713945   3.550   0.814  13.985 -0.7843  0.5212 -2.6760
    6MPD1     C13946   2.139   4.444  13.695 -0.9893 -0.1472 -0.3779
    6MPD1    C113947   2.196   4.460  13.576  0.0013 -0.2950  1.3539
    6MPD1    C213948   2.333   4.499  13.575 -0.0365  0.1457 -0.2904
    6MPD1    C313949   2.412   4.512  13.684  0.1606  0.1938 -0.1299
    6MPD1    C413950   2.350   4.476  13.803  0.0937  0.4111  0.4262
    6MPD1    C513951   2.215   4.451  13.809  0.2587  0.6060  0.1625
    6MPD1     H13952   2.373   4.531  13.479  0.0829 -2.4390 -1.1234
    6MPD1    H113953   2.401   4.479  13.899 -1.3218 -2.2750  1.2794
    6MPD1    H213954   2.035   4.413  13.699 -1.5215  1.6544  0.1385
    6MPD1    H313955   2.170   4.426  13.904 -0.8408  2.1320  0.0490
    6MPD1     N13956   2.548   4.564  13.693  0.4769 -0.1939 -0.1139
    6MPD1    H513957   2.594   4.579  13.782 -0.9885  1.9653  0.2839
    6MPD1    N113958   2.120   4.458  13.459 -0.3126  0.0697  0.6821
    6MPD1    H613959   2.059   4.377  13.463 -0.6694  0.2531 -0.9691
    6MPD1    H713960   2.185   4.457  13.380 -2.1232 -0.9780 -0.8034
    7MPD2     C13961   2.968   0.362  14.032 -0.5466  0.6909 -0.7200
    7MPD2    C113962   2.980   0.370  13.889  0.4764  0.2943  0.3012
    7MPD2    C213963   3.042   0.478  13.826  1.0836  0.0046 -0.0595
    7MPD2    C313964   3.109   0.570  13.905 -0.2236  0.9910 -0.5914
    7MPD2    C413965   3.094   0.568  14.041  0.5303  0.1289 -0.1334
    7MPD2    C513966   3.025   0.469  14.104 -0.0215 -0.0666  0.1192
    7MPD2     H13967   3.052   0.472  13.719 -2.1790 -1.8068 -0.2474
    7MPD2    H113968   3.141   0.650  14.095  0.8185  0.9524 -1.6360
    7MPD2    H213969   2.917   0.285  14.089  1.7124 -0.6075 -0.4381
    7MPD2    H313970   3.011   0.475  14.212  4.9023  0.8721  0.7011
    7MPD2     N13971   3.192   0.666  13.853 -0.5991 -0.2776 -0.3854
    7MPD2    H513972   3.261   0.699  13.921  1.0532 -3.1347 -0.6696
    7MPD2    N113973   2.925   0.272  13.808  0.6820  0.3116  0.3225
    7MPD2    H713974   2.939   0.288  13.708  1.1396  0.9242  0.4839
    8TMC3    C113975   3.330   0.757  13.692 -0.1027 -0.5206 -0.2901
    8TMC3    C213976   3.429   0.753  13.788 -0.1060  0.4690 -0.1431
    8TMC3    C313977   3.553   0.707  13.747 -0.0256 -0.2257  0.5512
    8TMC3    C413978   3.367   0.727  13.561 -1.2610  0.2969 -0.4073
    8TMC3    C513979   3.484   0.664  13.525  0.5177 -0.3201  0.0768
    8TMC3    C613980   3.576   0.658  13.619  0.2779  0.4402  0.5635
    8TMC3     C13981   3.204   0.697  13.721  0.2466 -0.7186 -0.5584
    8TMC3     O13982   3.126   0.680  13.628  0.0119  0.3785  0.2714
    8TMC3     H13983   3.411   0.773  13.893 -1.6046  0.7110 -0.4519
    8TMC3    H113984   3.299   0.746  13.479  0.2753  0.3892 -1.6786
    8TMC3    H213985   3.675   0.617  13.600 -0.5897 -0.8310 -1.1224
    8TMC3    C713986   3.449   0.533  13.469  0.4397 -0.2012 -0.2362
    8TMC3    C813987   3.670   0.734  13.827  0.1227 -0.1037 -0.7398
    8TMC3    O113988   3.473   0.432  13.538  0.0856  0.7551  0.0069
    8TMC3    O213989   3.771   0.727  13.762  0.1781 -0.2438  0.4276
    9TMC3    C113990   2.746   4.649  13.603 -0.0512  0.4455 -0.3809
    9TMC3    C213991   2.823   4.679  13.488 -0.0626 -0.1681 -0.1652
    9TMC3    C313992   2.921   0.032  13.504 -0.3945 -0.1750  0.2092
    9TMC3    C413993   2.775   4.710  13.723  0.5849 -0.2170  0.2903
    9TMC3    C513994   2.882   0.055  13.732 -0.7606 -0.0807 -0.0680
    9TMC3    C613995   2.960   0.086  13.623  0.0461 -0.2880  0.5212
    9TMC3     C13996   2.624   4.586  13.583  0.3430 -0.2325 -0.3232
    9TMC3     O13997   2.610   4.529  13.477  0.5248  0.2055  0.0044
    9TMC3     H13998   2.807   4.632  13.392 -2.6387 -1.5813  0.9515
    9TMC3    H113999   2.706   4.702  13.807  0.9229 -2.7227  0.3459
    9TMC3    H214000   3.057   0.132  13.640 -0.0561 -0.2653  1.0508
    9TMC3    C714001   2.890   0.143  13.848  0.2828 -0.1767 -0.2776
    9TMC3    C814002   2.958   0.111  13.391  0.6978  0.0655  0.3332
    9TMC3    O114003   2.865   0.102  13.958  0.0192 -0.5793 -0.6996
    9TMC3    O214004   2.874   0.116  13.300  0.2737 -0.4923 -0.2234
   10MPD2     C14005   3.218   0.483  13.179  0.3826 -0.3589  0.1355
   10MPD2    C114006   3.281   0.454  13.301  0.1244  1.0096  0.2332
   10MPD2    C214007   3.236   0.351  13.378 -0.6533 -0.2543 -0.4091
   10MPD2    C314008   3.137   0.271  13.328  1.0032 -0.7455 -0.1124
   10MPD2    C414009   3.086   0.292  13.206 -0.2630 -0.9610 -0.7543
   10MPD2    C514010   3.124   0.398  13.128  0.9882 -1.1211 -0.6359
   10MPD2     H14011   3.275   0.340  13.478  0.9050 -0.5741 -1.0495
   10MPD2    H114012   3.012   0.230  13.158 -0.3640 -1.8800  0.6086
   10MPD2    H214013   3.241   0.568  13.117  0.3297  0.8504  1.7795
   10MPD2    H314014   3.084   0.411  13.028  0.7737  0.0220 -0.4018
   10MPD2     N14015   3.080   0.168  13.408 -0.7428 -0.0999 -0.4796
   10MPD2    H514016   3.130   0.158  13.495  2.7742 -1.6455 -2.7066
   10MPD2    N114017   3.375   0.549  13.353  0.3393  0.3782 -0.4312
   10MPD2    H714018   3.394   0.631  13.297  0.4501  0.3324 -0.4601
   11MPD2     C14019   0.038   0.151  14.148 -0.1708  0.8857  0.8756
   11MPD2    C114020   4.644   0.183  14.184 -0.1008  0.1543 -0.0209
   11MPD2    C214021   4.608   0.313  14.174 -0.0517  0.1669  0.0324
   11MPD2    C314022   4.691   0.407  14.115 -0.3144  0.3524  0.1188
   11MPD2    C414023   0.078   0.370  14.076  0.1695 -0.0714 -0.2129
   11MPD2    C514024   0.128   0.243  14.101  0.3401 -0.0023  0.0034
   11MPD2     H14025   4.512   0.340  14.218  1.2086  1.2995  2.1158
   11MPD2    H114026   0.143   0.435  14.018 -2.5191  0.8640 -2.1778
   11MPD2    H214027   0.063   0.046  14.159 -0.0002  0.8996  0.6189
   11MPD2    H314028   0.226   0.212  14.067  0.4695  0.5639 -0.1363
   11MPD2     N14029   4.657   0.542  14.098 -0.4386 -0.4945 -0.1833
   11MPD2    H514030   4.733   0.603  14.069  1.2847 -3.1492 -1.2515
   11MPD2    N114031   4.567   0.092  14.252  0.1289  0.0813  0.3510
   11MPD2    H714032   4.485   0.126  14.302  0.1415 -0.6133  0.8421
    1MPD1     C14033   3.114   2.046  16.563 -0.4375  0.1620 -0.7163
    1MPD1    C114034   2.999   2.111  16.603 -0.6557  0.2109 -0.3165
    1MPD1    C214035   3.006   2.181  16.723 -0.3590 -0.2373  0.3931
    1MPD1    C314036   3.121   2.180  16.800  0.1590 -0.4166  0.0298
    1MPD1    C414037   3.233   2.120  16.749 -0.4804  0.6963 -0.4412
    1MPD1    C514038   3.230   2.047  16.636  0.1882 -0.6711 -0.2434
    1MPD1     H14039   2.920   2.240  16.752 -1.3083 -1.8852  0.9005
    1MPD1    H114040   3.324   2.108  16.806 -2.0115  0.2930  1.9376
    1MPD1    H214041   3.122   2.013  16.461 -1.5271 -1.4213 -0.2818
    1MPD1    H314042   3.322   1.998  16.605  0.7586 -0.3076  0.8704
    1MPD1     N14043   3.124   2.240  16.926  0.1966  0.0249  0.4073
    1MPD1    H514044   3.216   2.231  16.970  1.0167  1.4135 -1.0427
    1MPD1    N114045   2.884   2.107  16.523  0.2303 -0.1247  0.7984
    1MPD1    H614046   2.803   2.150  16.566 -0.7503 -1.0375 -0.1256
    1MPD1    H714047   2.865   2.010  16.498 -0.2961 -0.0148  0.7644
    2MPD1     C14048   2.455   2.659  17.549 -0.0826  0.4841 -0.0114
    2MPD1    C114049   2.442   2.564  17.444 -0.2273 -0.0634 -0.6109
    2MPD1    C214050   2.557   2.555  17.363 -0.1553  0.4712 -0.2044
    2MPD1    C314051   2.682   2.618  17.398 -0.1245  0.6056  0.0043
    2MPD1    C414052   2.682   2.704  17.499 -0.0406 -0.5790  0.1601
    2MPD1    C514053   2.568   2.723  17.571  0.0360 -0.3836  0.2917
    2MPD1     H14054   2.551   2.499  17.270  0.6188 -0.6410  0.4210
    2MPD1    H114055   2.765   2.762  17.536 -0.8633  0.9264 -0.3277
    2MPD1    H214056   2.376   2.679  17.621 -1.4720  0.5175 -1.5472
    2MPD1    H314057   2.565   2.789  17.657  0.6655  0.1877 -0.1221
    2MPD1     N14058   2.795   2.576  17.328 -0.2890  0.4739 -0.5435
    2MPD1    H514059   2.771   2.514  17.251  1.3681 -2.4657  1.3213
    2MPD1    N114060   2.317   2.509  17.405  0.4975 -0.7509  0.2052
    2MPD1    H614061   2.251   2.510  17.483  1.1581 -1.0816  0.7648
    2MPD1    H714062   2.326   2.415  17.368  0.7889 -0.2034 -1.1119
    3TMC3    C114063   3.019   2.519  17.281 -0.2913  0.5952  0.1564
    3TMC3    C214064   3.146   2.515  17.330  0.1252  0.1993  0.4492
    3TMC3    C314065   3.244   2.444  17.258  0.1590  0.2169  0.6595
    3TMC3    C414066   2.983   2.445  17.177 -0.5500  0.0293 -0.4674
    3TMC3    C514067   3.080   2.374  17.108 -0.2560 -0.9081 -0.7844
    3TMC3    C614068   3.214   2.379  17.143  0.1407  0.1509 -0.0472
    3TMC3     C14069   2.923   2.602  17.354  0.0530 -0.3756 -0.3915
    3TMC3     O14070   2.966   2.682  17.435 -0.1202  0.2297  0.0378
    3TMC3     H14071   3.170   2.577  17.415  0.2284 -2.5092  2.4069
    3TMC3    H114072   2.877   2.450  17.151 -1.3240  0.2091  2.7750
    3TMC3    H214073   3.295   2.326  17.094 -0.2599  0.0052 -0.5525
    3TMC3    C714074   3.027   2.291  17.003 -0.1812 -0.6374 -0.4531
    3TMC3    C814075   3.368   2.406  17.329  0.3330 -0.8527  0.2331
    3TMC3    O114076   2.906   2.295  16.982  0.1180 -0.4043  0.6703
    3TMC3    O214077   3.453   2.363  17.256 -0.5853 -0.2513  0.1180
    4MPD1     C14078   3.639   2.258  17.730 -0.2408  0.0213  0.1870
    4MPD1    C114079   3.522   2.304   0.025  0.6907  0.4370  0.6390
    4MPD1    C214080   3.425   2.339  17.681 -0.1785  0.6434  0.6350
    4MPD1    C314081   3.458   2.352  17.546 -0.5275 -0.1958 -0.6520
    4MPD1    C414082   3.588   2.317  17.499 -0.1330 -1.1447  0.3090
    4MPD1    C514083   3.675   2.277  17.601  0.7207 -0.0989  0.9892
    4MPD1     H14084   3.327   2.372  17.712  0.2979  3.2473 -0.6372
    4MPD1    H114085   3.624   2.327  17.398 -2.9585 -0.6757 -0.6618
    4MPD1    H214086   3.717   2.227   0.051 -0.4255 -0.0208  0.3802
    4MPD1    H314087   3.778   2.266  17.568  0.2992 -1.4415  0.1473
    4MPD1     N14088   3.354   2.393  17.461  0.4497  0.6596  0.0313
    4MPD1    H514089   3.264   2.415  17.502 -0.5614 -1.3477 -1.0674
    4MPD1    N114090   3.479   2.287   0.157  0.0662 -0.2999  0.1345
    4MPD1    H614091   3.561   2.298   0.217  0.7095  0.6575 -0.9081
    4MPD1    H714092   3.414   2.359   0.188  0.2589 -0.6933  1.4642
    1TCq1    O114093   2.785   1.000  12.063  1.2404  0.8594 -0.0084
    1TCq1    C114094   2.871   0.896  12.076  0.1650 -0.3593  1.3483
    1TCq1    O214095   2.884   0.835  12.180  0.3715 -0.2451  0.2010
    1TCq1    C214096   2.877   0.831  11.942  0.6283  0.2769  0.4411
    1TCq1    C314097   2.847   0.704  11.933  0.6651 -0.1783 -0.0781
    1TCq1    C414098   2.870   0.644  11.809  0.7253  0.5130 -0.1504
    1TCq1    C514099   2.915   0.719  11.709  0.4059 -0.1762 -0.1784
    1TCq1    C614100   2.946   0.851  11.728  0.1684  0.0169  0.3137
    1TCq1    C714101   2.939   0.910  11.850  0.1193  0.1707  1.0504
    1TCq1    C814102   2.958   0.937  11.611 -0.0298  0.4343  0.0776
    1TCq1    O414103   2.980   1.055  11.636 -0.6259  0.1894  0.2551
    1TCq1    C914104   2.815   0.507  11.783  0.2880 -0.5578  0.9121
    1TCq1    O514105   2.730   0.459  11.857 -0.6504 -0.0474 -0.2811
    1TCq1    O614106   2.832   0.469  11.664 -0.1357  0.9893  0.3881
    1TCq1    H114107   2.755   1.013  11.971  2.0410  0.4157 -0.3318
    1TCq1    H214108   2.795   0.651  12.012  1.5177  0.3910  0.8585
    1TCq1    H314109   2.922   0.669  11.613 -3.1400 -2.1656  0.6055
    1TCq1    H414110   2.954   1.016  11.862  2.3971  0.1346 -1.4338
    2MPD1     C14111   3.026   0.994  11.096 -0.0982 -0.2336 -0.3504
    2MPD1    C114112   3.020   0.857  11.126 -0.4893 -1.0152 -0.1018
    2MPD1    C214113   3.003   0.812  11.260 -0.0903  0.5414  0.3541
    2MPD1    C314114   3.004   0.912  11.362 -0.4681 -0.4349  0.2527
    2MPD1    C414115   3.015   1.044  11.333 -0.4070 -0.0704 -0.2962
    2MPD1    C514116   3.031   1.085  11.202  0.1321 -0.0749 -0.6708
    2MPD1     H14117   2.994   0.706  11.279 -1.9177  0.7711  0.7722
    2MPD1    H114118   3.023   1.116  11.415  1.9047 -0.1503 -0.4440
    2MPD1    H214119   3.020   1.024  10.992 -0.4179  0.1495 -0.2213
    2MPD1    H314120   3.035   1.190  11.178 -0.1460 -0.2205 -1.3398
    2MPD1     N14121   2.978   0.868  11.495 -0.4470  0.0293 -0.2725
    2MPD1    H514122   2.967   0.767  11.508  1.4890 -0.3859 -1.8277
    2MPD1    N114123   3.010   0.763  11.018  1.3809 -0.0929 -0.4381
    2MPD1    H614124   3.041   0.668  11.036  0.3851  0.1654  2.5945
    2MPD1    H714125   3.059   0.795  10.934 -1.4765 -1.0657 -2.4899
    1TMC1    C114126   1.071   3.002   0.109 -0.0101 -0.3275 -0.3679
    1TMC1    C214127   1.188   2.955   0.065  0.4140  0.0960 -0.7081
    1TMC1    C314128   1.212   2.973  17.677  0.7705 -0.6301 -0.5733
    1TMC1    C414129   0.970   3.041   0.026 -0.1522  0.0178 -0.3694
    1TMC1    C514130   0.994   3.052  17.643  0.0182  0.0144 -0.7021
    1TMC1    C614131   1.114   3.014  17.595  1.0263  0.1946 -0.2935
    1TMC1     C14132   1.041   3.014   0.250  0.0157 -0.2697  0.2113
    1TMC1     O14133   0.937   3.060   0.285  0.3910 -0.3419  0.0861
    1TMC1     H14134   1.262   2.903   0.124 -0.3388 -1.7487 -1.4003
    1TMC1    H114135   0.872   3.064   0.067  0.1027 -0.9518  0.7837
    1TMC1    H214136   1.146   3.037  17.494  2.8280  0.6814  0.3809
    1TMC1    C714137   0.884   3.085  17.554 -0.0042  0.9078  0.8317
    1TMC1    C814138   1.344   2.978  17.622 -0.7794  0.2951  0.4444
    1TMC1    O114139   0.898   3.151  17.451  0.1977  0.5132  0.3199
    1TMC1    O214140   1.370   2.976  17.501 -0.1219  0.0936 -0.4257
    1TMC1    O314141   0.779   3.014  17.584 -0.2639  0.1589  0.4068
    1TMC1    H314142   0.797   2.951  17.656  1.7959  0.0592 -0.1968
    1TMC1    O514143   1.414   3.053  17.707  0.1700  0.1834 -0.2197
    1TMC1    H514144   1.389   3.045   0.054  0.3602  0.1977 -0.1682
    2MPD1     C14145   1.161   2.996   0.752 -0.2914  0.0222  0.2823
    2MPD1    C114146   1.278   2.981   0.683 -0.1088  0.0831 -0.7230
    2MPD1    C214147   1.270   2.964   0.544  0.4188  0.7758 -0.4471
    2MPD1    C314148   1.152   2.986   0.474 -0.4614  0.1181  0.3181
    2MPD1    C414149   1.037   3.015   0.544 -0.3519  0.4006  0.6200
    2MPD1    C514150   1.042   3.020   0.677 -0.3488  0.2418 -0.7297
    2MPD1     H14151   1.357   2.931   0.488 -0.2706 -0.7183 -0.6210
    2MPD1    H114152   0.945   3.032   0.489 -1.0131 -1.1394  1.2452
    2MPD1    H214153   1.157   3.004   0.860 -2.7463 -1.0297  0.2862
    2MPD1    H314154   0.952   3.050   0.730  0.0078 -0.6456  0.3822
    2MPD1     N14155   1.150   2.984   0.334 -0.4859 -0.1946  0.3438
    2MPD1    H514156   1.239   2.972   0.286 -0.4954  0.6772  0.1135
    2MPD1    N114157   1.398   2.959   0.746 -0.4641  0.2188 -0.3289
    2MPD1    H614158   1.474   3.000   0.692 -0.7191  3.4513  1.7490
    2MPD1    H714159   1.412   3.004   0.837  0.4181 -0.1122 -0.3008
    1MPD1     C14160   0.988   0.194  12.321 -0.6230  0.9921  0.6721
    1MPD1    C114161   1.054   0.201  12.195 -0.5993 -0.0117 -0.0362
    1MPD1    C214162   0.982   0.200  12.076  0.1459  0.4078  0.2106
    1MPD1    C314163   0.845   0.169  12.081  0.0184 -0.2817  0.9617
    1MPD1    C414164   0.786   0.156  12.201 -0.0167  0.5594  0.1166
    1MPD1    C514165   0.859   0.169  12.321  0.1249 -0.3376 -0.4559
    1MPD1     H14166   1.033   0.213  11.982  0.0621 -0.0774  0.0997
    1MPD1    H114167   0.681   0.133  12.212 -0.0068 -0.0726 -1.1068
    1MPD1    H214168   1.042   0.192  12.414 -0.5453  1.5674  0.6385
    1MPD1    H314169   0.803   0.161  12.414 -0.1022 -2.1228 -0.7451
    1MPD1     N14170   0.761   0.183  11.967  0.0106 -0.1611  1.0500
    1MPD1    H514171   0.661   0.188  11.983 -0.3620 -0.1075 -1.1987
    1MPD1    N114172   1.191   0.224  12.193  0.0055  0.0431  0.4333
    1MPD1    H614173   1.242   0.198  12.109  3.4529  1.0825  2.2110
    1MPD1    H714174   1.236   0.172  12.269  0.2248  0.4131  0.5613
    2MPD1     C14175   4.502   1.823  10.644 -0.5934  0.0733  0.3421
    2MPD1    C114176   4.455   1.724  10.565 -0.3032 -0.2652  0.2916
    2MPD1    C214177   4.525   1.607  10.564  0.3286  0.0764  0.1003
    2MPD1    C314178   4.632   1.580  10.657 -0.9558  0.2408  0.1090
    2MPD1    C414179   4.665   1.682  10.744 -0.2430 -0.0407 -0.2643
    2MPD1    C514180   4.605   1.812  10.733 -0.1585  0.2371 -0.2775
    2MPD1     H14181   4.484   1.531  10.498 -0.1046 -0.8480  1.4335
    2MPD1    H114182   0.002   1.663  10.821  3.0848  1.9738 -2.9380
    2MPD1    H214183   4.463   1.924  10.640 -3.3534 -1.0600 -1.4807
    2MPD1    H314184   4.633   1.894  10.799  1.1078 -0.0145 -0.4877
    2MPD1     N14185   4.694   1.454  10.670  0.4854 -0.0199 -0.3309
    2MPD1    H514186   0.019   1.442  10.749  1.0625 -0.2269 -0.8158
    2MPD1    N114187   4.364   1.755  10.467  0.8355 -0.7365 -0.1093
    2MPD1    H614188   4.303   1.835  10.485  0.2089 -1.1352 -0.4582
    2MPD1    H714189   4.311   1.685  10.415 -0.3375  1.9557 -2.5865
    3MPD1     C14190   4.536   0.622  10.193  0.1637  0.5992 -0.3947
    3MPD1    C114191   4.456   0.709  10.268  0.1796  0.6425  0.4816
    3MPD1    C214192   4.519   0.799  10.351  0.0559 -0.0022  0.7513
    3MPD1    C314193   4.659   0.818  10.349  0.7249 -0.2252 -0.6295
    3MPD1    C414194   4.733   0.727  10.273 -0.0236  0.2616  0.2288
    3MPD1    C514195   4.672   0.643  10.189 -0.3294  0.0509  0.1581
    3MPD1     H14196   4.460   0.850  10.427  1.1202  1.7270  0.4058
    3MPD1    H114197   0.103   0.717  10.285  0.1749  1.2899 -0.6823
    3MPD1    H214198   4.496   0.546  10.127 -1.5256  2.0272 -1.0210
    3MPD1    H314199   4.734   0.564  10.149 -1.0566 -0.2972 -0.2942
    3MPD1     N14200   4.712   0.910  10.444 -0.4109 -0.1522  0.1753
    3MPD1    H514201   4.644   0.968  10.493  1.2271  1.6410  0.3156
    3MPD1    N114202   4.319   0.684  10.285  0.1404 -0.4705  0.4763
    3MPD1    H614203   4.260   0.759  10.323  0.1625  0.5203 -1.4371
    3MPD1    H714204   4.274   0.634  10.209  2.4236 -1.4314 -0.2165
    4MPD2     C14205   0.595   0.820  11.730  0.4656 -0.0632 -0.2072
    4MPD2    C114206   0.645   0.731  11.642 -0.0326 -0.3327 -0.7963
    4MPD2    C214207   0.748   0.768  11.559  0.2257  0.4950 -0.4568
    4MPD2    C314208   0.801   0.892  11.567 -0.3719 -0.0710  0.5888
    4MPD2    C414209   0.757   0.981  11.665  0.2646 -0.1705 -0.1856
    4MPD2    C514210   0.656   0.941  11.749  0.3493  0.5574 -0.1574
    4MPD2     H14211   0.782   0.701  11.481  1.2690 -0.1069  0.5149
    4MPD2    H114212   0.800   1.079  11.681  0.3851  0.3505 -3.6374
    4MPD2    H214213   0.506   0.803  11.790  0.7198 -1.8137 -0.3044
    4MPD2    H314214   0.621   1.001  11.832 -2.1307  0.9023 -1.4613
    4MPD2     N14215   0.902   0.933  11.481  0.6633 -0.1241  0.0510
    4MPD2    H514216   0.925   0.866  11.409  0.4277 -1.5362  1.2969
    4MPD2    N114217   0.610   0.595  11.626 -0.4702  0.0731 -0.0169
    4MPD2    H714218   0.678   0.541  11.573 -1.2713  1.4101 -2.3998
    5TMC3    C114219   0.530   0.387  11.688  0.0131 -0.5279  0.0858
    5TMC3    C214220   0.602   0.331  11.782 -0.1646  0.7002  0.2427
    5TMC3    C314221   0.707   0.247  11.749  0.1686 -0.0568  0.7362
    5TMC3    C414222   0.548   0.359  11.554  0.1921  0.0416 -0.1119
    5TMC3    C514223   0.656   0.283  11.520 -0.2240 -0.2421 -0.0661
    5TMC3    C614224   0.734   0.229  11.617  0.6778 -0.2932  0.2986
    5TMC3     C14225   0.515   0.526  11.700  0.0899 -0.2086 -0.5330
    5TMC3     O14226   0.453   0.571  11.797 -0.2835  0.2128  0.5844
    5TMC3     H14227   0.571   0.356  11.883 -0.6128 -2.6417  0.9420
    5TMC3    H114228   0.491   0.421  11.485 -0.0701 -1.3278 -1.1151
    5TMC3    H214229   0.823   0.176  11.586  0.8660  0.5714 -0.6489
    5TMC3    C714230   0.726   0.332  11.410 -0.5516 -0.1230  0.5734
    5TMC3    C814231   0.810   0.201  11.842  0.6766 -0.0077 -0.1606
    5TMC3    O114232   0.837   0.381  11.431 -0.7693 -0.1682 -1.1293
    5TMC3    O214233   0.914   0.164  11.789  0.2388  0.2716 -0.9685
    6TMC3    C114234   0.051   1.263  10.599 -0.4420 -0.4521 -0.2912
    6TMC3    C214235   0.037   1.156  10.523 -0.0820  0.5676 -0.0774
    6TMC3    C314236   0.128   1.053  10.538 -0.3161  0.4201 -0.9553
    6TMC3    C414237   0.169   1.277  10.669 -1.1213 -0.1319  0.8810
    6TMC3    C514238   0.252   1.169  10.685  0.6504 -0.2254  0.3748
    6TMC3    C614239   0.235   1.055  10.614  0.0013 -0.4273 -0.4327
    6TMC3     C14240   4.701   1.371  10.565  0.3797 -0.5947  0.2002
    6TMC3     O14241   4.679   1.393  10.446  0.6020 -0.0927  0.4791
    6TMC3     H14242   4.682   1.152  10.466 -1.3701  1.8829  1.9031
    6TMC3    H114243   0.192   1.373  10.711 -2.3825  0.5200  0.1042
    6TMC3    H214244   0.285   0.964  10.643  2.8357  0.7016 -1.7319
    6TMC3    C714245   0.351   1.172  10.784  0.6368 -0.8065 -0.2768
    6TMC3    C814246   0.108   0.934  10.466  0.2153  0.9474 -0.3599
    6TMC3    O114247   0.449   1.099  10.777 -0.3475  0.0083 -0.1402
    6TMC3    O214248   0.200   0.867  10.431  0.0202  0.2196 -0.2131
    7MPD2     C14249   0.724   0.591  10.962 -0.2141  0.0052 -0.2064
    7MPD2    C114250   0.800   0.602  11.071 -0.3291  0.1378  0.5456
    7MPD2    C214251   0.774   0.520  11.181 -0.0091  0.4412 -0.3277
    7MPD2    C314252   0.678   0.420  11.178  0.1223  0.6836 -0.3757
    7MPD2    C414253   0.613   0.401  11.060 -0.1606 -0.3911  0.9586
    7MPD2    C514254   0.630   0.496  10.961 -0.5910  0.6703  0.3399
    7MPD2     H14255   0.826   0.536  11.275  0.5964 -0.8364 -0.4405
    7MPD2    H114256   0.536   0.326  11.045  0.8586 -1.5735  1.5587
    7MPD2    H214257   0.730   0.664  10.882  2.4282 -0.4781 -0.4342
    7MPD2    H314258   0.560   0.508  10.880  0.3820 -1.5528 -0.8204
    7MPD2     N14259   0.649   0.341  11.297 -0.1852 -0.3115 -0.7583
    7MPD2    H514260   0.561   0.292  11.292 -0.8980  0.9435 -0.5535
    7MPD2    N114261   0.885   0.720  11.084 -1.0287 -0.5041  0.8416
    7MPD2    H714262   0.888   0.784  11.004  0.0393 -0.5266  0.8735
    8TMC3    C114263   1.023   0.900  11.189  0.0482 -0.1164 -0.3475
    8TMC3    C214264   0.962   0.980  11.102 -0.1691 -0.1173 -0.1046
    8TMC3    C314265   0.925   1.101  11.147  0.3962  0.3307  0.3935
    8TMC3    C414266   1.068   0.946  11.314  0.2901 -0.7216 -0.4116
    8TMC3    C514267   1.038   1.070  11.352 -0.1199 -0.2935 -0.7463
    8TMC3    C614268   0.971   1.153  11.267  0.1273  0.0051 -0.2564
    8TMC3     C14269   0.970   0.753  11.192  0.1453  0.0671 -0.2791
    8TMC3     O14270   0.988   0.692  11.299 -0.3032  0.3227  0.1936
    8TMC3     H14271   0.911   0.957  11.009 -1.3030 -0.0046  0.4875
    8TMC3    H114272   1.116   0.873  11.378 -0.6225 -0.2768  0.7672
    8TMC3    H214273   0.938   1.249  11.305 -0.2835 -1.1953  2.4112
    8TMC3    C714274   0.967   1.061  11.476 -0.5059  0.0388 -0.3775
    8TMC3    C814275   0.809   1.151  11.072 -0.2173  0.5168  1.0221
    8TMC3    O114276   0.957   1.164  11.541  0.0186  0.5577 -0.1343
    8TMC3    O214277   0.771   1.106  10.964  0.1095 -0.3475 -0.2942
    9MPD2     C14278   0.549   1.372  11.226  0.0260  0.2368  0.0719
    9MPD2    C114279   0.604   1.286  11.130 -0.1716  0.4903  0.0376
    9MPD2    C214280   0.530   1.256  11.015  0.1702  0.4595 -0.2269
    9MPD2    C314281   0.397   1.302  10.996  0.6374 -0.2502 -0.1172
    9MPD2    C414282   0.347   1.395  11.084 -0.0146  0.1745  0.3424
    9MPD2    C514283   0.421   1.417  11.201  0.3010  0.3611 -0.4399
    9MPD2     H14284   0.567   1.176  10.952  0.0840  0.5005 -0.3300
    9MPD2    H114285   0.246   1.426  11.061 -0.7004 -2.0960  0.2533
    9MPD2    H214286   0.601   1.405  11.316  1.4667  1.8515 -1.3422
    9MPD2    H314287   0.377   1.494  11.262 -0.2994 -1.5472  1.5280
    9MPD2     N14288   0.319   1.268  10.878  0.1041  0.2730 -0.2213
    9MPD2    H514289   0.229   1.314  10.862  0.7256  2.1689  1.8008
    9MPD2    N114290   0.735   1.242  11.150  0.2523 -0.5581  0.7233
    9MPD2    H714291   0.782   1.269  11.236 -0.3940 -0.0756  0.9247
    1MPD1     C14292   3.554   0.469  15.915  0.1058  0.0453  0.7311
    1MPD1    C114293   3.520   0.538  15.800  0.0131 -0.2974  0.0240
    1MPD1    C214294   3.519   0.676  15.797  0.0787  0.4640 -0.0190
    1MPD1    C314295   3.577   0.740  15.904  0.1061 -0.0667  0.0619
    1MPD1    C414296   3.629   0.668  16.012  0.1873 -0.1752  0.1161
    1MPD1    C514297   3.619   0.535  16.016  0.0434  0.5801  0.1956
    1MPD1     H14298   3.477   0.730  15.713 -1.2285 -0.6517 -0.0839
    1MPD1    H114299   3.656   0.719  16.104 -5.2857  1.2032  0.9719
    1MPD1    H214300   3.540   0.362  15.915  0.4022 -0.0109 -2.0657
    1MPD1    H314301   3.646   0.479  16.105  0.5500  1.1512  0.4031
    1MPD1     N14302   3.587   0.883  15.909  0.1687  0.2070 -0.7281
    1MPD1    H514303   3.651   0.918  15.980 -1.7593  1.6326  0.2971
    1MPD1    N114304   3.454   0.471  15.695 -0.7011 -0.2974 -0.0791
    1MPD1    H614305   3.360   0.437  15.716  0.0115 -1.4485  1.1999
    1MPD1    H714306   3.446   0.523  15.608  0.0567  0.0802  0.0781
    2TMC2    C114307   3.659   1.274  15.969  0.4951 -0.4179  0.6399
    2TMC2    C214308   3.566   1.365  15.934 -0.0042  0.5713  0.9795
    2TMC2    C314309   3.460   1.326  15.856  0.4465 -0.8082 -0.4418
    2TMC2    C414310   3.650   1.147  15.931  0.1932 -0.5122  0.6651
    2TMC2    C514311   3.540   1.111  15.862  0.3148  0.4216 -0.0345
    2TMC2    C614312   3.442   1.199  15.825  0.2975  0.3913 -0.0697
    2TMC2     C14313   3.752   1.326  16.079  0.0193  0.3512  0.4823
    2TMC2     O14314   3.804   1.430  16.059 -0.5694 -0.3649 -0.3918
    2TMC2     H14315   3.571   1.465  15.973  0.4430  0.4826  1.1476
    2TMC2    H114316   3.733   1.079  15.951  0.6425  0.3145  1.5828
    2TMC2    H214317   3.359   1.165  15.765 -0.3246  1.9151 -0.0824
    2TMC2    C714318   3.522   0.971  15.828 -0.2985 -0.0549 -0.2644
    2TMC2    C814319   3.349   1.419  15.839  0.4434 -0.6700 -0.5315
    2TMC2    O114320   3.418   0.953  15.769 -0.3513 -0.3016  0.2131
    2TMC2    O214321   3.342   1.518  15.908  0.5881 -0.8009 -0.0224
    2TMC2    O514322   3.267   1.386  15.740 -0.0499  0.5035  0.7774
    2TMC2    H514323   3.303   1.333  15.665 -2.6239 -0.4487  0.2005
    3MPD1     C14324   3.887   1.328  16.570 -0.1229 -0.7615 -0.4838
    3MPD1    C114325   3.848   1.192  16.531 -0.9910 -0.2808  0.0418
    3MPD1    C214326   3.819   1.163  16.400  0.2643 -0.0717  0.2523
    3MPD1    C314327   3.810   1.264  16.308 -0.4724 -0.1313  0.8541
    3MPD1    C414328   3.841   1.398  16.342 -0.3440  0.4890  0.1007
    3MPD1    C514329   3.872   1.431  16.474 -0.2656  0.6008  0.1950
    3MPD1     H14330   3.779   1.065  16.377 -0.0749 -0.1827  1.2864
    3MPD1    H114331   3.830   1.480  16.272  1.0553  1.4372  0.9881
    3MPD1    H214332   3.911   1.365  16.668 -2.0763  0.6551 -0.5261
    3MPD1    H314333   3.893   1.534  16.502 -1.9054  0.8618  0.4324
    3MPD1     N14334   3.762   1.236  16.181  0.7193  0.4883 -0.3753
    3MPD1    H514335   3.733   1.140  16.165  1.7008 -0.0816  1.1834
    3MPD1    N114336   3.857   1.083  16.615 -0.1376 -0.4071  0.2829
    3MPD1    H614337   3.818   1.109  16.706 -1.7153  0.2483 -0.5696
    3MPD1    H714338   3.793   1.015  16.573  0.3500 -0.4249 -0.4259
    1TMC1    C114339   2.973   4.001  14.087  0.2104 -0.1701  0.5914
    1TMC1    C214340   2.871   4.051  14.012  0.1067 -0.1987  0.6914
    1TMC1    C314341   2.747   3.997  14.036 -0.0257  0.7149 -0.3350
    1TMC1    C414342   2.960   3.890  14.163  0.2596 -0.0393  0.1705
    1TMC1    C514343   2.836   3.839  14.187  0.7891  0.2876 -0.8053
    1TMC1    C614344   2.729   3.888  14.120 -0.4011 -0.4709 -0.9250
    1TMC1     C14345   3.099   4.076  14.068 -0.8501 -0.0726 -0.2487
    1TMC1     O14346   3.136   4.109  13.957  0.2439  0.2998  0.0593
    1TMC1     H14347   2.881   4.136  13.946  0.6239  0.0770  1.1345
    1TMC1    H114348   3.038   3.869  14.236 -0.6868  0.3087  1.2864
    1TMC1    H214349   2.629   3.857  14.149 -0.3276 -1.0092 -1.2438
    1TMC1    C714350   2.820   3.766  14.314  0.2746  0.3705 -0.5172
    1TMC1    C814351   2.633   4.074  13.996 -0.5902  0.4879 -0.5683
    1TMC1    O114352   2.917   3.729  14.381 -0.1294 -0.4585  0.0152
    1TMC1    O214353   2.630   4.182  13.945  0.0144  0.1268 -0.2089
    1TMC1    O314354   2.694   3.763  14.356 -0.3276 -0.4821  0.5344
    1TMC1    H314355   2.629   3.748  14.284 -1.5573  1.7201  1.1609
    1TMC1    O514356   2.553   3.982  13.951  0.1230 -0.6286  0.0895
    1TMC1    H514357   2.595   3.893  13.945 -1.8305 -1.6413  1.6770
    2MPD2     C14358   3.360   4.219  14.099 -0.1498  0.3042  0.5470
    2MPD2    C114359   3.292   4.159  14.203 -0.3624 -0.3758 -0.8298
    2MPD2    C214360   3.330   4.182  14.330  0.2744  0.5576 -0.6626
    2MPD2    C314361   3.451   4.243  14.353 -0.3583  0.7826 -0.3709
    2MPD2    C414362   3.507   4.314  14.253  0.0179  0.5342 -0.2032
    2MPD2    C514363   3.463   4.305  14.122 -0.1171 -0.0741 -0.8329
    2MPD2     H14364   3.278   4.143  14.417 -0.2080  1.9309 -0.3260
    2MPD2    H114365   3.599   4.370  14.266  0.2936 -0.3705  1.6840
    2MPD2    H214366   3.321   4.216  13.998 -2.8644 -3.6146  1.6928
    2MPD2    H314367   3.499   4.357  14.034 -1.8357  0.0473 -1.4630
    2MPD2     N14368   3.499   4.244  14.486  0.3370  0.1271 -0.3024
    2MPD2    H514369   3.441   4.204  14.558  1.5481 -4.2817 -1.8125
    2MPD2    N114370   3.163   4.099  14.189  1.0072 -0.1801  0.0746
    2MPD2    H714371   3.109   4.066  14.269 -1.9449  0.0846 -1.8339
    3TCq1    O114372   3.533   4.072  15.061  0.3397 -0.2545 -0.7719
    3TCq1    C114373   3.521   4.086  14.928 -0.2313  0.4315 -0.1033
    3TCq1    O214374   3.453   4.008  14.865  0.5052 -0.5712  0.3810
    3TCq1    C214375   3.599   4.199  14.878  0.0487  0.0954  0.5598
    3TCq1    C314376   3.713   4.249  14.933 -0.0472  0.7232 -0.0542
    3TCq1    C414377   3.788   4.329  14.849  0.0833 -0.3749  0.3521
    3TCq1    C514378   3.752   4.366  14.722 -0.7734  0.2164 -0.7855
    3TCq1    C614379   3.632   4.319  14.674  0.9095 -0.0142  0.5954
    3TCq1    C714380   3.563   4.232  14.752  0.4375 -0.3667 -0.5489
    3TCq1    C814381   3.605   4.325  14.531 -0.2942 -0.2040 -0.1178
    3TCq1    O414382   3.683   4.402  14.477 -0.6224 -0.1753 -0.7390
    3TCq1    C914383   3.894   4.405  14.912 -0.4552 -0.1655 -0.0203
    3TCq1    O514384   3.956   4.497  14.843  0.0321  0.6762  0.5621
    3TCq1    O614385   3.915   4.385  15.031  0.0301 -0.2917  0.1414
    3TCq1    H114386   3.579   4.150  15.100 -0.4269 -0.2671  0.1441
    3TCq1    H214387   3.744   4.229  15.035  1.0774 -0.2472 -0.5808
    3TCq1    H314388   3.811   4.435  14.663  0.4213  0.3135  0.5144
    3TCq1    H414389   3.468   4.190  14.722  0.3748 -0.1652 -0.6359
    1MPD2     C14390   2.784   0.362  15.111 -0.1832 -0.1236  0.1820
    1MPD2    C114391   2.668   0.284  15.111 -0.3287  0.1323  0.1932
    1MPD2    C214392   2.691   0.148  15.121 -0.5564  0.0773  0.5246
    1MPD2    C314393   2.807   0.080  15.117  0.4236  0.7227 -0.1708
    1MPD2    C414394   2.923   0.158  15.114 -0.3697  0.2264 -0.5737
    1MPD2    C514395   2.904   0.292  15.116  0.3296  0.1230  0.8497
    1MPD2     H14396   2.606   0.080  15.124 -0.3369 -0.1501  1.7541
    1MPD2    H114397   3.025   0.123  15.118 -0.8930 -1.0063  1.8799
    1MPD2    H214398   2.781   0.469  15.093  1.6816 -0.1587 -0.2971
    1MPD2    H314399   2.994   0.350  15.098 -0.6390  0.7040 -2.1353
    1MPD2     N14400   2.824   4.680  15.116  0.4940  0.1482  0.3746
    1MPD2    H514401   2.912   4.643  15.150  1.0901 -0.6939 -2.1095
    1MPD2    N114402   2.538   0.344  15.112  0.5130 -0.0392  0.0882
    1MPD2    H714403   2.535   0.445  15.103  1.7540  0.0218  0.3322
    2TMC3    C114404   2.308   0.337  15.076 -0.3146  0.3405  0.0974
    2TMC3    C214405   2.203   0.256  15.088 -0.1166  0.6582  0.4347
    2TMC3    C314406   2.111   0.261  14.987  0.1637  0.5285  0.2545
    2TMC3    C414407   2.336   0.415  14.969  0.6522 -0.3057 -0.4876
    2TMC3    C514408   2.234   0.418  14.872 -0.1391 -0.0295  0.4230
    2TMC3    C614409   2.129   0.334  14.873 -1.3721 -0.1782 -0.2594
    2TMC3     C14410   2.426   0.277  15.134  0.1464 -0.1635 -0.3912
    2TMC3     O14411   2.408   0.158  15.160 -0.1719 -0.5903  0.6048
    2TMC3     H14412   2.192   0.205  15.182 -0.4264  1.9316  1.0949
    2TMC3    H114413   2.402   0.500  14.982  2.0168 -1.3421 -0.6842
    2TMC3    H214414   2.051   0.336  14.797 -1.2840 -1.0438 -0.3629
    2TMC3    C714415   2.236   0.517  14.766 -0.1750 -0.1743 -0.5071
    2TMC3    C814416   2.065   0.126  14.958 -0.0522  0.0525 -1.1107
    2TMC3    O114417   2.181   0.476  14.661  0.2383  0.6427  0.1314
    2TMC3    O214418   1.951   0.104  14.919  0.3151 -0.5315  0.3387
    3TCq1    O114419   2.893   1.316  15.046 -0.1870  0.6017  0.4040
    3TCq1    C114420   2.823   1.355  14.936 -0.9158 -0.4874 -0.6223
    3TCq1    O214421   2.849   1.437  14.850 -0.5865 -0.1260  0.3973
    3TCq1    C214422   2.691   1.307  14.947 -0.4490 -0.4716 -0.1494
    3TCq1    C314423   2.627   1.286  15.066  0.0900 -0.0505 -0.5130
    3TCq1    C414424   2.495   1.265  15.058  0.2530 -0.1181  0.2465
    3TCq1    C514425   2.424   1.281  14.945  0.3260  0.0825 -0.2524
    3TCq1    C614426   2.483   1.307  14.827  0.1846  0.5277  0.5436
    3TCq1    C714427   2.617   1.326  14.828 -0.2140 -0.2660  0.1514
    3TCq1    C814428   2.434   1.219  14.719 -0.4267 -0.0721  0.5925
    3TCq1    O414429   2.479   1.229  14.609  0.6559  0.7410 -0.0677
    3TCq1    C914430   2.416   1.227  15.173 -0.3890  0.3253 -0.5114
    3TCq1    O514431   2.470   1.145  15.249  0.3850 -0.1763 -0.0383
    3TCq1    O614432   2.292   1.231  15.155 -0.2001  0.1417 -0.6709
    3TCq1    H114433   2.855   1.230  15.072 -2.6406  1.3072 -0.7878
    3TCq1    H214434   2.684   1.279  15.157  0.1635  0.1044 -0.5480
    3TCq1    H314435   2.319   1.254  14.939 -0.0549  1.2536  1.0831
    3TCq1    H414436   2.670   1.352  14.737 -1.8692  2.3991 -0.0256
    4MPD2     C14437   2.321   0.982  14.571 -0.2095  0.0511  0.0244
    4MPD2    C114438   2.336   0.990  14.707  0.2068 -1.7761 -0.1010
    4MPD2    C214439   2.312   0.878  14.779  0.9985  0.1958  0.4251
    4MPD2    C314440   2.281   0.756  14.729  0.1205 -0.0690  0.7975
    4MPD2    C414441   2.278   0.751  14.590 -0.0601 -0.1076 -0.0880
    4MPD2    C514442   2.294   0.861  14.511 -0.8705  0.0225 -0.9368
    4MPD2     H14443   2.322   0.887  14.887 -0.9658 -0.5330  0.6654
    4MPD2    H114444   2.263   0.658  14.536  2.5856 -0.1313 -0.7571
    4MPD2    H214445   2.315   1.058  14.494 -1.2519  1.3713  1.4341
    4MPD2    H314446   2.292   0.862  14.402 -1.8596  0.9556 -0.9201
    4MPD2     N14447   2.273   0.640  14.808  0.2316  0.0836  0.5000
    4MPD2    H514448   2.279   0.653  14.908 -1.6574  1.3250  0.4545
    4MPD2    N114449   2.383   1.105  14.777 -0.2704 -0.3766 -0.1061
    4MPD2    H714450   2.379   1.098  14.878  0.0476 -2.1045 -0.2063
    5TMC2    C114451   2.614   4.274  15.087  0.2153 -0.7312  0.5006
    5TMC2    C214452   2.627   4.250  15.220 -0.6032 -0.8772 -0.0678
    5TMC2    C314453   2.711   4.324  15.304 -0.3665 -0.2272 -0.4531
    5TMC2    C414454   2.694   4.368  15.031  0.0359 -0.1050  0.3090
    5TMC2    C514455   2.770   4.449  15.110  0.4241  0.2729  0.3675
    5TMC2    C614456   2.787   4.422  15.245 -0.2567  0.1476  0.4654
    5TMC2     C14457   2.483   4.268  15.035  0.1270  0.3292  0.1639
    5TMC2     O14458   2.423   4.161  15.053  0.1327  0.3206 -0.2210
    5TMC2     H14459   2.571   4.168  15.263 -0.9748 -0.9057 -0.6164
    5TMC2    H114460   2.686   4.383  14.924 -1.1460  2.2953  0.7343
    5TMC2    H214461   2.837   4.488  15.316  0.6046  1.7052 -1.5974
    5TMC2    C714462   2.728   4.590  15.091  0.1101 -0.0958  0.1690
    5TMC2    C814463   2.773   4.254  15.415  0.1475 -0.3915 -0.7206
    5TMC2    O114464   2.624   4.612  15.028 -0.0241  0.1765  0.1127
    5TMC2    O214465   2.817   4.139  15.406  0.0791 -0.0194  0.3608
    5TMC2    O514466   2.827   4.351  15.495  0.5743  0.4252 -0.0350
    5TMC2    H514467   2.772   4.429  15.471 -0.3890  0.5030  2.4807
    6MPD2     C14468   2.059   4.555  14.942  0.4850 -0.1005 -0.4092
    6MPD2    C114469   2.155   4.635  14.995  0.8471 -0.3527 -0.9130
    6MPD2    C214470   2.273   4.572  15.033  0.0134 -0.4781  1.4847
    6MPD2    C314471   2.310   4.443  14.997 -0.0032  0.2713  0.3967
    6MPD2    C414472   2.204   4.361  14.964  0.6352 -0.7056 -0.3141
    6MPD2    C514473   2.082   4.418  14.932 -0.6295  0.4042 -0.1926
    6MPD2     H14474   2.354   4.623  15.084  0.4690 -1.2230  1.5041
    6MPD2    H114475   2.218   4.254  14.957 -1.4701 -1.0504  0.5791
    6MPD2    H214476   1.963   4.596  14.915 -0.1348 -1.8959 -0.9288
    6MPD2    H314477   2.002   4.348  14.913  0.7785 -1.4729  0.8645
    6MPD2     N14478   2.442   4.396  15.009 -0.6770  0.1775  0.0687
    6MPD2    H514479   2.515   4.467  15.014 -1.1485  0.5803  1.2403
    6MPD2    N114480   2.157   0.037  15.007  0.2362  0.9953  0.0512
    6MPD2    H714481   2.235   0.076  15.058 -0.9300  0.5009  2.2181
  945NH4     N114482   0.503   0.748   3.489  0.1143  0.0853  0.0262
  945NH4     H214483   0.581   0.686   3.458  0.6809  1.1605 -0.6945
  945NH4     H314484   0.461   0.733   3.583 -0.9055 -0.4800 -0.5139
  945NH4     H414485   0.432   0.743   3.413  0.2704 -0.2779 -0.0949
  945NH4     H514486   0.538   0.846   3.486  4.2248 -1.3476  1.6753
  946SOD     NA14487   2.240   1.064  12.060 -0.1625  0.3241  0.3741
  947SOD     NA14488   2.640   3.918  14.673 -0.6002 -0.3003 -0.1848
  948SOD     NA14489   4.134   0.046  13.952  0.1975 -0.6000  0.1949
  949SOD     NA14490   3.628   2.614  16.933 -0.3179 -0.2236  0.7354
  950SOD     NA14491   2.572   3.273  12.060 -0.2486 -0.2090  0.2411
  951SOD     NA14492   2.723   1.392   9.997 -0.0151 -0.1102 -0.3588
  952SOD     NA14493   3.239   0.412   6.175  0.2703 -0.0474  0.2386
  953SOL     OW14494   3.425   0.402  13.812  0.9227 -0.4115 -0.0241
  953SOL    HW114495   3.459   0.415  13.724  1.0068 -0.8907 -0.0603
  953SOL    HW214496   3.500   0.364  13.857  0.2888 -1.0434  0.4943
  954SOL     OW14497   1.053   2.785   2.151 -0.0370 -0.8338 -0.6911
  954SOL    HW114498   1.005   2.819   2.076  0.4047  1.4641  0.0738
  954SOL    HW214499   1.009   2.829   2.224  0.8099 -1.8363  0.4269
  955SOL     OW14500   0.378   1.289   8.461  1.1302 -0.5907  0.5550
  955SOL    HW114501   0.406   1.200   8.481  2.0806 -0.0151  1.8068
  955SOL    HW214502   0.449   1.317   8.403  0.6597  0.3154  0.4224
  956SOL     OW14503   1.101   0.941   8.137 -0.1695 -0.0595  0.2966
  956SOL    HW114504   1.069   0.922   8.225 -0.8277  0.9759  0.2847
  956SOL    HW214505   1.183   0.892   8.137 -0.0743  0.0827 -1.4478
  957SOL     OW14506   3.018   1.444   3.438 -0.2442 -0.2592  0.6500
  957SOL    HW114507   3.040   1.386   3.511 -0.4555 -0.5786  0.4580
  957SOL    HW214508   2.939   1.475   3.482 -0.9348 -2.3372  0.8971
  958SOL     OW14509   0.083   1.964   8.333  0.3349 -0.6392  0.0662
  958SOL    HW114510   0.140   2.027   8.378 -0.7370  1.8926 -2.1227
  958SOL    HW214511   4.736   1.995   8.368  0.1931  0.0005 -0.8445
  959SOL     OW14512   1.423   1.861   2.541  0.0512  0.1914 -0.1559
  959SOL    HW114513   1.444   1.889   2.452  1.9690  0.7665  0.4675
  959SOL    HW214514   1.416   1.767   2.522 -0.2374 -0.0439  1.0906
  960SOL     OW14515   3.215   1.018   2.784 -0.1727  0.0405  0.3218
  960SOL    HW114516   3.225   0.955   2.856  0.1643  0.4962  0.6764
  960SOL    HW214517   3.254   1.094   2.828 -0.7660 -0.3596  1.5468
  961SOL     OW14518   0.404   0.640   5.401 -0.4872  0.3253 -0.2714
  961SOL    HW114519   0.480   0.674   5.448  1.3723 -0.5850 -2.6039
  961SOL    HW214520   0.446   0.593   5.329 -1.8684 -0.2439 -0.7052
  962SOL     OW14521   1.173   2.405   3.157  0.3295 -0.0660  0.0651
  962SOL    HW114522   1.198   2.314   3.177  0.7816  0.2337  0.8661
  962SOL    HW214523   1.203   2.413   3.067 -2.0536  1.3651 -0.5959
  963SOL     OW14524   3.868   2.825   1.837  0.8368 -0.3281 -0.0193
  963SOL    HW114525   3.826   2.893   1.785 -0.4284 -1.2411 -0.1793
  963SOL    HW214526   3.796   2.776   1.876 -0.5363  1.0638 -0.8258
  964SOL     OW14527   4.042   0.526   2.480 -0.7142  0.0656  0.1164
  964SOL    HW114528   4.027   0.525   2.575  0.6477 -1.7491  0.3184
  964SOL    HW214529   3.976   0.590   2.454 -0.6453  0.8066  1.7355
  965SOL     OW14530   2.435   0.206  14.610 -0.4766  0.4484 -0.0231
  965SOL    HW114531   2.436   0.205  14.706  2.9586  0.7602 -0.0268
  965SOL    HW214532   2.345   0.176  14.600  0.1463 -1.1902 -0.5757
  966SOL     OW14533   2.780   0.369  13.013 -0.0871  0.5902 -0.4364
  966SOL    HW114534   2.739   0.296  12.967  1.3367  1.1707 -2.6483
  966SOL    HW214535   2.770   0.441  12.950 -0.5639  1.2880  0.4384
  967SOL     OW14536   1.763   4.513   2.206  0.2962  0.2318 -0.0711
  967SOL    HW114537   1.707   4.474   2.139  1.0636  0.0854 -0.6225
  967SOL    HW214538   1.749   4.605   2.184 -2.0627 -0.0705  0.1136
  968SOL     OW14539   1.969   4.250   5.722 -0.1088 -0.1992  0.2516
  968SOL    HW114540   1.875   4.238   5.736 -0.4304  1.7086 -0.3387
  968SOL    HW214541   2.010   4.286   5.801  1.5206  1.5275 -1.3945
  969SOL     OW14542   1.481   1.068   3.488 -0.5002  0.4370 -0.1592
  969SOL    HW114543   1.563   1.021   3.493 -0.5855  0.5418  1.9006
  969SOL    HW214544   1.478   1.107   3.575 -0.5524  0.7536 -0.2990
  970SOL     OW14545   3.837   1.445   9.821  0.4993 -0.0268 -0.0633
  970SOL    HW114546   3.879   1.428   9.905  0.0427  0.9203  0.3585
  970SOL    HW214547   3.900   1.512   9.791  0.2061 -0.5256 -1.7599
  971SOL     OW14548   2.118   3.168   3.400  0.1486  0.4652  0.3090
  971SOL    HW114549   2.092   3.254   3.369  0.3053  0.7932  1.0910
  971SOL    HW214550   2.056   3.118   3.347  0.5121  0.4535 -0.1068
  972SOL     OW14551   4.165   2.484   1.874  0.0080  0.2413  0.1700
  972SOL    HW114552   4.227   2.412   1.888  1.4186  1.1153 -1.6348
  972SOL    HW214553   4.097   2.449   1.816 -1.5678 -1.1578  2.8536
  973SOL     OW14554   3.644   2.253  12.102  0.1616  0.2009 -0.6094
  973SOL    HW114555   3.574   2.308  12.066 -0.9162  0.1435  1.3738
  973SOL    HW214556   3.631   2.168  12.060 -0.3831  0.4823 -1.0153
  974SOL     OW14557   2.222   2.372  10.221 -0.4738  0.6279 -0.1767
  974SOL    HW114558   2.205   2.375  10.315  2.0789 -1.2237  0.3402
  974SOL    HW214559   2.283   2.445  10.209  1.3000 -0.5739  1.4329
  975SOL     OW14560   2.503   2.767   9.640 -0.0725  0.2337  0.0010
  975SOL    HW114561   2.525   2.688   9.591  0.0337  0.2244  0.0657
  975SOL    HW214562   2.487   2.727   9.725  1.3074  1.9645  1.0745
  976SOL     OW14563   0.940   2.038  10.693 -0.0176 -0.5098  0.3597
  976SOL    HW114564   1.009   2.076  10.639 -0.5909 -0.0980 -0.0765
  976SOL    HW214565   0.957   2.076  10.780 -0.2361 -3.0359  1.5065
  977SOL     OW14566   3.049   3.990   5.794 -0.6325  0.1050  0.6503
  977SOL    HW114567   3.139   3.984   5.761 -0.6720 -1.6953  0.8405
  977SOL    HW214568   3.048   3.904   5.837  0.6558 -0.7905 -1.0891
  978SOL     OW14569   0.785   0.211   1.559  0.0746  0.1209  0.0402
  978SOL    HW114570   0.711   0.240   1.611 -1.2222  0.6963 -2.1153
  978SOL    HW214571   0.840   0.289   1.571  0.4750 -0.5811  2.7184
  979SOL     OW14572   2.094   0.145   2.939  0.3585  0.4236  0.1938
  979SOL    HW114573   2.052   0.059   2.943 -1.2485  1.2346  0.5327
  979SOL    HW214574   2.086   0.167   3.032 -1.2486  1.1330 -0.1076
  980SOL     OW14575   0.103   3.164   1.114  0.1016  0.4836  0.2126
  980SOL    HW114576   0.144   3.234   1.063  1.2784 -0.5121 -0.2191
  980SOL    HW214577   0.011   3.160   1.091 -0.6087  0.4092  3.0459
  981SOL     OW14578   3.743   0.437   6.300  0.5476 -0.6627  0.1650
  981SOL    HW114579   3.741   0.369   6.233 -0.1786  0.1592 -0.6363
  981SOL    HW214580   3.826   0.420   6.345 -0.4320 -0.3469  2.1012
  982SOL     OW14581   3.020   1.482   9.448 -0.3517  0.6990 -0.0650
  982SOL    HW114582   3.091   1.508   9.507  0.6301 -1.8688 -0.1160
  982SOL    HW214583   3.059   1.400   9.417 -0.8623  0.6010 -0.4422
  983SOL     OW14584   4.190   0.804   3.748  0.6080 -0.4083  0.4976
  983SOL    HW114585   4.208   0.834   3.838  1.8117 -0.4429  0.2731
  983SOL    HW214586   4.241   0.723   3.743  3.2161  1.1348  1.7200
  984SOL     OW14587   0.205   4.316   8.627  0.0549 -0.0590 -0.2426
  984SOL    HW114588   0.217   4.406   8.596  0.0481  0.5812  1.6056
  984SOL    HW214589   0.257   4.310   8.708 -0.3008  3.1769  0.2360
  985SOL     OW14590   3.325   3.262  17.123 -0.0440  0.2224  0.0492
  985SOL    HW114591   3.323   3.314  17.204  0.3132 -0.1977  0.3307
  985SOL    HW214592   3.406   3.210  17.125 -0.7197 -0.7704  3.1388
  986SOL     OW14593   0.456   1.819   4.764 -0.3677 -0.1305 -0.0081
  986SOL    HW114594   0.511   1.846   4.837 -0.3299 -1.3602  0.4100
  986SOL    HW214595   0.481   1.729   4.747  1.6328  0.5011 -0.3429
  987SOL     OW14596   0.773   4.509   3.225 -0.2380 -0.1719 -0.5171
  987SOL    HW114597   0.772   4.505   3.129  0.7191 -3.2206 -0.3984
  987SOL    HW214598   0.786   4.602   3.242 -1.9796 -0.0169  0.0090
  988SOL     OW14599   4.145   1.449   2.132  0.0329 -0.5035  0.3376
  988SOL    HW114600   4.140   1.514   2.201 -4.2053  0.6612 -1.0729
  988SOL    HW214601   4.189   1.378   2.178  0.1926 -0.1349  0.7459
  989SOL     OW14602   3.126   4.570   0.758 -1.0425 -0.0266  0.4519
  989SOL    HW114603   3.142   4.476   0.743  0.3061  0.3934 -0.7888
  989SOL    HW214604   3.213   4.588   0.794 -0.7537  0.7214 -0.6109
  990SOL     OW14605   2.661   2.020  11.300  0.5295 -0.4929  0.3236
  990SOL    HW114606   2.636   1.927  11.301 -0.2393 -0.2799  0.6504
  990SOL    HW214607   2.693   2.025  11.391  0.8492  1.4176  0.1044
  991SOL     OW14608   2.571   3.111   5.068 -0.3251 -0.5420  0.2309
  991SOL    HW114609   2.664   3.135   5.059 -0.0011 -1.9094 -0.1082
  991SOL    HW214610   2.553   3.085   4.978 -0.7854  0.0636  0.1462
  992SOL     OW14611   0.149   0.119   5.239 -0.0146 -0.2156  0.6278
  992SOL    HW114612   0.061   0.086   5.219 -0.3928  0.0528  1.8681
  992SOL    HW214613   0.127   0.170   5.317 -0.1636  0.6062  0.0401
  993SOL     OW14614   3.735   1.110   5.420 -0.3011 -0.4314 -0.1872
  993SOL    HW114615   3.800   1.063   5.472 -0.0063 -0.7932 -0.8810
  993SOL    HW214616   3.781   1.187   5.387  0.7855 -1.0702 -0.1461
  994SOL     OW14617   3.962   3.442  12.127 -0.6608 -0.2019 -0.0914
  994SOL    HW114618   3.928   3.487  12.050 -1.2466  0.8976  0.7994
  994SOL    HW214619   3.958   3.351  12.098 -1.4582 -0.5259  1.0256
  995SOL     OW14620   4.276   2.518   1.001 -0.6436  0.0028  0.1689
  995SOL    HW114621   4.276   2.531   0.906  0.4639  1.8337  0.4027
  995SOL    HW214622   4.271   2.611   1.025 -0.8412  0.2981 -1.0278
  996SOL     OW14623   3.405   3.062   2.629  0.4334 -0.3292 -0.5431
  996SOL    HW114624   3.322   3.068   2.583 -0.5580  0.3884  1.3346
  996SOL    HW214625   3.456   3.129   2.584  3.2211 -1.6052  0.6505
  997SOL     OW14626   4.059   0.530   2.746  0.4079  0.4527  0.2571
  997SOL    HW114627   4.002   0.570   2.812  2.5782  0.6672  2.0142
  997SOL    HW214628   4.135   0.513   2.801 -0.8904 -3.2892  0.9497
  998SOL     OW14629   3.523   3.100   7.676 -0.0782 -0.1343  0.1150
  998SOL    HW114630   3.606   3.143   7.696 -0.2497  0.0225  0.4840
  998SOL    HW214631   3.554   3.014   7.645 -1.4671 -0.2317 -1.0078
  999SOL     OW14632   0.181   0.119  10.615 -0.0474 -0.2895  0.1447
  999SOL    HW114633   0.258   0.169  10.639  1.1634 -1.0246 -2.2022
  999SOL    HW214634   0.133   0.108  10.697  0.1525  0.2844  0.3331
 1000SOL     OW14635   4.642   1.355   8.993  0.1170  0.0126 -0.5079
 1000SOL    HW114636   4.682   1.274   9.024 -0.7889 -0.6659 -1.0933
 1000SOL    HW214637   4.627   1.403   9.074  0.5021 -2.8625  1.2858
 1001SOL     OW14638   4.691   3.710  11.291 -0.1413  0.1261  0.3932
 1001SOL    HW114639   4.677   3.748  11.378  1.5851 -2.2606  1.7117
 1001SOL    HW214640   4.704   3.618  11.313  2.1274  0.3247 -0.1029
 1002SOL     OW14641   0.729   0.241   3.616 -0.2027  0.2179  0.1642
 1002SOL    HW114642   0.676   0.223   3.538  1.5592 -0.4169 -0.8837
 1002SOL    HW214643   0.796   0.298   3.578  0.2679  0.2429  1.0241
 1003SOL     OW14644   2.726   0.976   1.132  0.3355 -0.1475  0.1885
 1003SOL    HW114645   2.717   1.047   1.068  0.3194  0.5272  0.9291
 1003SOL    HW214646   2.806   0.997   1.180 -0.6284  0.4007  1.5766
 1004SOL     OW14647   2.469   1.425  11.562  0.3305  0.2190 -0.1830
 1004SOL    HW114648   2.443   1.439  11.653  0.4304  0.4071 -0.1825
 1004SOL    HW214649   2.385   1.391  11.533  1.5519 -1.8570 -1.2648
 1005SOL     OW14650   0.370   4.300   0.166  0.1182  0.2613  0.0010
 1005SOL    HW114651   0.447   4.334   0.211 -0.8092  0.6248  1.2909
 1005SOL    HW214652   0.341   4.240   0.234 -0.4667  1.2553  0.6314
 1006SOL     OW14653   0.312   3.930  16.604 -0.4377  0.9782  0.0310
 1006SOL    HW114654   0.278   3.879  16.678 -0.7728 -0.8799 -1.4121
 1006SOL    HW214655   0.340   4.007  16.654 -1.9571  0.4504  1.6886
 1007SOL     OW14656   2.404   4.480  10.463  0.3368 -0.3190  0.3990
 1007SOL    HW114657   2.434   4.568  10.487  0.5739  0.3839 -2.4760
 1007SOL    HW214658   2.316   4.493  10.426  0.6114 -1.1265 -0.5351
 1008SOL     OW14659   0.601   0.511   6.558  0.6979  0.0477  0.1094
 1008SOL    HW114660   0.579   0.551   6.642  2.0377  2.8116 -0.8491
 1008SOL    HW214661   0.687   0.476   6.579  1.0310  0.3091 -0.8014
 1009SOL     OW14662   0.791   2.059   4.445 -0.0636 -0.1193 -0.1772
 1009SOL    HW114663   0.836   2.009   4.513 -1.0292 -0.5434  0.1456
 1009SOL    HW214664   0.735   2.113   4.500  2.5260 -0.6990  3.0218
 1010SOL     OW14665   0.607   0.128  17.199 -0.1310  0.6243  0.7401
 1010SOL    HW114666   0.573   0.086  17.278 -0.2430 -1.9617 -0.6689
 1010SOL    HW214667   0.564   0.214  17.196 -0.3329  0.5099  0.2621
 1011SOL     OW14668   0.198   4.595   5.026  0.1441 -0.1642  0.1590
 1011SOL    HW114669   0.252   4.670   5.002 -0.9503  1.3924  2.5052
 1011SOL    HW214670   0.109   4.618   4.998  0.5095  1.0285 -0.0180
 1012SOL     OW14671   3.783   2.230   5.092  0.0921 -0.3436  0.6669
 1012SOL    HW114672   3.845   2.249   5.163  1.5350 -0.3281 -0.6013
 1012SOL    HW214673   3.717   2.173   5.131  2.2114 -1.4224  2.7504
 1013SOL     OW14674   0.450   2.622   9.896 -0.2447  0.3124  0.2313
 1013SOL    HW114675   0.356   2.633   9.882 -0.3963 -2.3143 -0.8162
 1013SOL    HW214676   0.491   2.681   9.833  1.0645 -0.1508  0.6418
 1014SOL     OW14677   3.094   4.630   2.392  0.2355  0.3200  0.2003
 1014SOL    HW114678   3.038   4.699   2.428  3.1122  0.8986  3.5607
 1014SOL    HW214679   3.033   4.558   2.380  1.5508 -0.5905 -1.0687
 1015SOL     OW14680   3.332   2.115   1.389  0.0930  0.1285  0.5799
 1015SOL    HW114681   3.384   2.057   1.445 -0.7839  1.2312  2.5562
 1015SOL    HW214682   3.264   2.048   1.382  2.3024 -1.8871 -1.3519
 1016SOL     OW14683   2.576   2.413   2.682  0.3083 -0.2150 -0.3464
 1016SOL    HW114684   2.609   2.384   2.597 -1.2214  0.1413 -1.0651
 1016SOL    HW214685   2.657   2.455   2.712 -1.2121  0.9839  2.0894
 1017SOL     OW14686   3.531   2.076   2.902  0.2835 -0.6220  0.2409
 1017SOL    HW114687   3.598   2.060   2.835  0.9788  2.3041  0.2425
 1017SOL    HW214688   3.517   2.168   2.882 -0.2596 -1.2404 -2.2402
 1018SOL     OW14689   0.573   0.965   2.429  0.4807  0.5306 -0.3258
 1018SOL    HW114690   0.594   1.054   2.455  1.5118  0.0623  0.4786
 1018SOL    HW214691   0.485   0.947   2.462  1.6455 -1.1215  1.8745
 1019SOL     OW14692   0.102   2.861   2.949  0.0833  0.1503 -0.3134
 1019SOL    HW114693   0.139   2.948   2.935  2.7591 -0.6389  1.8769
 1019SOL    HW214694   0.024   2.873   2.895 -0.3016 -2.3149 -0.3152
 1020SOL     OW14695   0.108   0.713  11.406  0.0742 -0.3221  0.3220
 1020SOL    HW114696   0.097   0.628  11.448  1.9775 -1.6310 -1.8295
 1020SOL    HW214697   0.133   0.766  11.482 -0.6059 -0.4886  0.6554
 1021SOL     OW14698   2.169   3.578   5.039  0.0178  0.3737  0.3765
 1021SOL    HW114699   2.183   3.672   5.050 -0.1227  0.4475 -0.0974
 1021SOL    HW214700   2.259   3.547   5.025 -0.3959 -0.7133  0.1249
 1022SOL     OW14701   0.676   0.668   5.352 -0.0288  0.4734  0.4112
 1022SOL    HW114702   0.731   0.654   5.275 -1.4749  0.3765 -0.6051
 1022SOL    HW214703   0.735   0.676   5.428 -0.1474  2.4417  0.2872
 1023SOL     OW14704   1.318   0.005   8.380  0.2731  0.0744  0.1487
 1023SOL    HW114705   1.319   0.056   8.461  2.7382  1.3241 -0.6719
 1023SOL    HW214706   1.259   4.668   8.396 -3.2025  3.4706  3.0694
 1024SOL     OW14707   4.502   2.968   4.818 -0.0899 -0.0590  0.3142
 1024SOL    HW114708   4.488   3.048   4.769 -1.1420 -0.6628 -0.3724
 1024SOL    HW214709   4.412   2.936   4.808 -0.4265  0.9503  0.1138
 1025SOL     OW14710   4.737   4.700   2.574 -0.1111  0.4291 -0.3711
 1025SOL    HW114711   4.648   4.714   2.541 -0.7173  1.3913  1.7017
 1025SOL    HW214712   0.022   4.637   2.505  0.6030  0.0019  0.2563
 1026SOL     OW14713   2.556   0.218   9.857  0.0352  0.4774  0.2884
 1026SOL    HW114714   2.559   0.130   9.895  2.0944  0.7867  0.8642
 1026SOL    HW214715   2.601   0.271   9.924  0.9019  0.8234 -0.5742
 1027SOL     OW14716   2.122   4.096   3.270  0.7122  0.4228  0.0808
 1027SOL    HW114717   2.156   4.042   3.341  1.3933 -0.2706 -0.7637
 1027SOL    HW214718   2.052   4.139   3.319 -1.3865 -0.0715 -2.4762
 1028SOL     OW14719   2.996   0.636   0.224 -0.2126 -0.2417 -0.0981
 1028SOL    HW114720   2.912   0.680   0.210  0.9675  1.2458 -2.5682
 1028SOL    HW214721   3.051   0.709   0.250 -1.2632  2.1010 -4.4509
 1029SOL     OW14722   1.732   3.024   8.048 -0.2375 -0.2304 -0.8270
 1029SOL    HW114723   1.663   2.998   7.986 -4.1211  0.3314  3.1894
 1029SOL    HW214724   1.707   2.959   8.114  0.9159  2.5208  2.2639
 1030SOL     OW14725   3.091   3.701   4.927 -0.0231  0.6737  0.1982
 1030SOL    HW114726   3.000   3.673   4.929 -0.0400  0.5147 -2.0173
 1030SOL    HW214727   3.101   3.741   4.840  3.2430 -0.2224  0.1632
 1031SOL     OW14728   1.568   3.044  16.886  0.0202  0.2259 -0.4585
 1031SOL    HW114729   1.521   2.976  16.934 -0.6139 -1.4712 -3.4896
 1031SOL    HW214730   1.606   3.100  16.954 -1.4164  0.4895  0.1308
 1032SOL     OW14731   2.072   2.759   8.765 -0.5305  0.3188  0.0450
 1032SOL    HW114732   2.062   2.760   8.669 -1.1606  0.6286  0.1179
 1032SOL    HW214733   2.153   2.708   8.769 -1.2160 -0.7423  0.3966
 1033SOL     OW14734   3.863   3.701   4.234 -0.3778  0.5749 -0.1796
 1033SOL    HW114735   3.954   3.695   4.262  0.3342  1.9111 -2.2160
 1033SOL    HW214736   3.876   3.762   4.162 -0.3254 -0.1925 -0.8142
 1034SOL     OW14737   4.452   0.059   4.411  0.4237  0.3130  0.8351
 1034SOL    HW114738   4.496   0.141   4.388 -1.9764  1.1616 -0.6352
 1034SOL    HW214739   4.399   0.087   4.485 -1.9561 -0.6589 -0.5217
 1035SOL     OW14740   4.103   4.027   7.507  0.5273  0.0167  0.3841
 1035SOL    HW114741   4.081   4.120   7.506 -0.9873 -0.3317  2.2821
 1035SOL    HW214742   4.188   4.024   7.462 -0.1266 -0.1125 -0.8423
 1036SOL     OW14743   4.584   1.644   1.858 -0.4823 -0.5117 -0.7521
 1036SOL    HW114744   4.604   1.600   1.775  0.8940 -0.5049 -0.4149
 1036SOL    HW214745   4.658   1.703   1.871 -1.3866  1.0143 -2.5356
 1037SOL     OW14746   0.697   3.253   7.864  0.1384  0.8382 -0.1296
 1037SOL    HW114747   0.609   3.245   7.826 -0.8891 -1.7384  2.8768
 1037SOL    HW214748   0.682   3.314   7.936  2.7389  0.2775  0.8860
 1038SOL     OW14749   4.030   3.051   7.854  0.7371 -0.0405  0.4660
 1038SOL    HW114750   4.111   3.007   7.882  0.6460 -0.2603  0.3787
 1038SOL    HW214751   3.962   2.984   7.865  0.5180  0.5454  2.7993
 1039SOL     OW14752   4.427   2.019   8.873 -0.3750  0.5421  0.3045
 1039SOL    HW114753   4.460   2.109   8.862 -0.7862  0.6190 -0.3374
 1039SOL    HW214754   4.368   2.031   8.947  1.1413 -0.1247  1.6320
 1040SOL     OW14755   3.693   2.015   3.980  0.5126 -0.1030 -0.3384
 1040SOL    HW114756   3.670   1.955   4.051 -0.1795 -2.1566 -2.3023
 1040SOL    HW214757   3.635   1.981   3.912 -0.0910  0.2160  0.0201
 1041SOL     OW14758   2.757   3.901   2.046  0.2272  0.1325 -0.3152
 1041SOL    HW114759   2.809   3.981   2.059 -1.1848  0.9559  0.3232
 1041SOL    HW214760   2.803   3.836   2.098 -0.9131 -2.6766 -2.8362
 1042SOL     OW14761   0.716   3.102   6.012  0.0852 -0.6567  0.4405
 1042SOL    HW114762   0.646   3.060   5.963  0.1080  1.2460 -1.2196
 1042SOL    HW214763   0.785   3.038   5.995  1.8448  1.3656 -0.1051
 1043SOL     OW14764   1.402   1.411   7.551 -0.4150 -0.3186 -0.3266
 1043SOL    HW114765   1.368   1.501   7.550  1.7510  0.5017 -0.4279
 1043SOL    HW214766   1.363   1.383   7.469 -0.3996 -0.4101 -0.3022
 1044SOL     OW14767   4.695   4.490   6.788  0.0902  0.1311 -0.2637
 1044SOL    HW114768   4.666   4.494   6.879  0.8324  2.1023 -0.1004
 1044SOL    HW214769   0.049   4.462   6.793  0.0429 -0.2679 -1.6601
 1045SOL     OW14770   1.153   0.625  15.207  0.0608 -0.1662  0.1991
 1045SOL    HW114771   1.240   0.663  15.223 -0.3840  0.7809  0.3830
 1045SOL    HW214772   1.100   0.705  15.211 -0.0181 -0.3626  2.5984
 1046SOL     OW14773   3.114   2.411   4.646 -0.7701  0.4785 -0.0417
 1046SOL    HW114774   3.068   2.365   4.575  0.6311 -0.5124 -0.2989
 1046SOL    HW214775   3.192   2.438   4.597 -1.3066  0.6733 -0.8039
 1047SOL     OW14776   0.919   2.544   1.600  0.2482 -0.4443  0.1679
 1047SOL    HW114777   0.944   2.460   1.561  0.6476 -0.7002  0.9789
 1047SOL    HW214778   0.962   2.544   1.685 -0.6477 -1.4987  0.6123
 1048SOL     OW14779   4.653   1.842   5.324  0.5091  0.2362 -0.0996
 1048SOL    HW114780   4.700   1.833   5.241 -2.7002 -0.3090 -1.8780
 1048SOL    HW214781   4.599   1.919   5.307 -1.0777 -0.9663 -0.5185
 1049SOL     OW14782   1.549   0.666   4.705 -0.2565 -0.3235  0.1204
 1049SOL    HW114783   1.609   0.596   4.678 -1.4158 -1.3581  0.2292
 1049SOL    HW214784   1.546   0.714   4.622  1.1785  0.0818  0.3115
 1050SOL     OW14785   0.313   1.692   5.365 -0.5114 -0.0266 -0.5207
 1050SOL    HW114786   0.324   1.698   5.460  0.2459 -0.3345 -0.5893
 1050SOL    HW214787   0.228   1.733   5.352 -0.4069  0.5031  0.4687
 1051SOL     OW14788   3.835   0.231   0.370 -0.3037  0.0030 -0.1512
 1051SOL    HW114789   3.739   0.231   0.374 -0.3529  0.0704 -1.5734
 1051SOL    HW214790   3.865   0.183   0.448 -1.4806  0.7919  0.7924
 1052SOL     OW14791   1.006   0.830   9.525 -0.3050 -0.2224  0.5446
 1052SOL    HW114792   1.002   0.924   9.537 -2.0186 -0.4345  1.6080
 1052SOL    HW214793   0.953   0.802   9.601  0.9661 -1.1897  1.0859
 1053SOL     OW14794   0.373   3.435  13.472 -0.6774 -0.3381 -0.0226
 1053SOL    HW114795   0.385   3.528  13.489  2.6626 -0.9470  0.8143
 1053SOL    HW214796   0.450   3.404  13.519 -0.6024 -1.2066 -0.7229
 1054SOL     OW14797   3.465   0.454   6.073  0.1035 -0.1424 -0.1076
 1054SOL    HW114798   3.508   0.412   5.999 -0.1312 -1.3921  0.4534
 1054SOL    HW214799   3.515   0.420   6.147  0.3591  1.5124  0.4725
 1055SOL     OW14800   1.875   0.961   6.043 -0.3383 -0.4408 -0.1163
 1055SOL    HW114801   1.951   0.970   5.986 -1.2299  2.1715 -0.8711
 1055SOL    HW214802   1.914   0.919   6.120 -0.9858  1.0489  1.0201
 1056SOL     OW14803   0.232   1.358   8.208 -0.4722 -0.0836  0.1952
 1056SOL    HW114804   0.291   1.432   8.220 -0.8769  0.1924  0.4912
 1056SOL    HW214805   0.275   1.286   8.255  0.2234  0.9175  1.0803
 1057SOL     OW14806   3.356   4.121  11.153  0.0933  0.8641  0.9375
 1057SOL    HW114807   3.448   4.108  11.128 -0.4862  0.5400 -1.0125
 1057SOL    HW214808   3.358   4.217  11.157  1.0738  1.0622 -3.4990
 1058SOL     OW14809   1.261   0.295  16.150  0.1271 -0.2498 -0.5119
 1058SOL    HW114810   1.197   0.254  16.092  0.3395 -0.8602 -0.3203
 1058SOL    HW214811   1.224   0.288  16.238 -0.0154  2.8500 -0.3434
 1059SOL     OW14812   2.508   0.838  15.887 -0.1012 -0.5902 -0.7706
 1059SOL    HW114813   2.501   0.860  15.794  2.0106 -0.9614 -1.0375
 1059SOL    HW214814   2.580   0.775  15.893  0.8115  0.3188 -2.0980
 1060SOL     OW14815   4.541   3.806  13.834 -0.6284  0.0499  0.0013
 1060SOL    HW114816   4.621   3.844  13.799 -0.7500  0.0535 -0.2732
 1060SOL    HW214817   4.582   3.732  13.880  0.9129  0.7237 -0.2985
 1061SOL     OW14818   2.848   1.080   6.448  0.5710 -0.1103  0.2217
 1061SOL    HW114819   2.827   1.154   6.505 -0.6994  1.6295 -2.5490
 1061SOL    HW214820   2.913   1.032   6.500 -0.6096 -1.9032  0.0281
 1062SOL     OW14821   0.754   2.568   6.986 -0.2906  0.1423 -0.5941
 1062SOL    HW114822   0.791   2.609   7.064 -0.7445 -1.1194  0.2843
 1062SOL    HW214823   0.745   2.480   7.023 -0.4082  0.1423 -0.6232
 1063SOL     OW14824   2.098   2.700   2.896 -0.4063  0.5067 -0.7142
 1063SOL    HW114825   2.061   2.764   2.957 -1.3317 -0.4737 -0.2434
 1063SOL    HW214826   2.046   2.625   2.924  0.6265  0.0178 -0.1185
 1064SOL     OW14827   2.158   3.503   7.412  0.7048 -0.2169 -0.5302
 1064SOL    HW114828   2.243   3.543   7.394  0.0250  1.2806 -0.4242
 1064SOL    HW214829   2.117   3.523   7.327 -1.2932 -0.6361  0.3361
 1065SOL     OW14830   4.418   0.951   3.555 -0.6202 -0.6107 -0.0122
 1065SOL    HW114831   4.449   0.883   3.614 -0.1347  1.4870  2.1459
 1065SOL    HW214832   4.427   0.904   3.472  0.0137 -1.1295  0.3510
 1066SOL     OW14833   0.596   2.294  16.527 -0.0905 -0.6132 -0.3113
 1066SOL    HW114834   0.568   2.330  16.612  0.3908  1.1021 -0.8742
 1066SOL    HW214835   0.586   2.200  16.540  1.3649 -0.8653 -1.0180
 1067SOL     OW14836   3.077   1.402   1.581  0.3432  0.0435  0.2976
 1067SOL    HW114837   3.037   1.378   1.498  1.1614  0.4987 -0.2263
 1067SOL    HW214838   3.022   1.349   1.639  1.2732 -0.5125  0.6722
 1068SOL     OW14839   2.758   0.730  10.903 -0.5832  0.1083 -0.3874
 1068SOL    HW114840   2.729   0.821  10.895  0.5703  0.6672  1.7480
 1068SOL    HW214841   2.836   0.752  10.955 -0.1045 -1.7275 -0.3289
 1069SOL     OW14842   1.573   1.381   1.782  0.3012 -0.3664  0.0310
 1069SOL    HW114843   1.610   1.469   1.793  0.3226 -0.3375 -0.2755
 1069SOL    HW214844   1.489   1.401   1.824 -0.6198 -0.8958 -1.5571
 1070SOL     OW14845   4.587   1.486  16.594 -0.0861  0.7546 -0.3303
 1070SOL    HW114846   4.513   1.546  16.589 -0.3454  0.4658  0.0268
 1070SOL    HW214847   4.627   1.494  16.507 -2.0182  1.3218 -1.1608
 1071SOL     OW14848   4.132   4.524   0.473  0.2016 -0.3379 -0.0913
 1071SOL    HW114849   4.036   4.522   0.478  0.2984  0.6165  2.1480
 1071SOL    HW214850   4.128   4.556   0.383 -0.2535 -1.7223 -0.5758
 1072SOL     OW14851   0.553   0.188   1.692 -0.0153 -0.7937  0.0855
 1072SOL    HW114852   0.545   0.093   1.701  0.4091 -0.8395 -0.0237
 1072SOL    HW214853   0.621   0.197   1.758 -2.2886  0.0197  2.3235
 1073SOL     OW14854   3.388   1.031   4.916  0.1303 -0.5737 -0.3642
 1073SOL    HW114855   3.483   1.030   4.930  0.5019 -0.3251 -2.9218
 1073SOL    HW214856   3.380   0.966   4.846 -0.0473  0.3613 -1.2016
 1074SOL     OW14857   2.006   3.059   5.205 -0.4503 -0.1956 -0.1120
 1074SOL    HW114858   2.097   3.087   5.193 -0.5973  0.4369  0.2769
 1074SOL    HW214859   1.963   3.142   5.222  1.7498  1.2897 -1.7767
 1075SOL     OW14860   4.016   4.459  13.209  0.2320 -0.1045  0.4155
 1075SOL    HW114861   3.979   4.465  13.121  2.2274  0.6514 -0.3749
 1075SOL    HW214862   4.108   4.477  13.189  0.2851  0.0999  0.8312
 1076SOL     OW14863   2.230   2.325   3.166 -0.2095 -0.0131 -0.0742
 1076SOL    HW114864   2.156   2.301   3.110 -0.1281 -1.0150  0.2307
 1076SOL    HW214865   2.186   2.404   3.197  2.1846  1.3504 -0.1411
 1077SOL     OW14866   2.156   1.315   6.677 -0.0547  0.1340  0.4025
 1077SOL    HW114867   2.113   1.261   6.743 -0.8807 -1.2423 -1.2726
 1077SOL    HW214868   2.082   1.376   6.664  0.5236  0.3440 -1.8609
 1078SOL     OW14869   3.614   2.014   6.115 -0.5167  0.5315 -0.4437
 1078SOL    HW114870   3.594   2.020   6.208 -0.0379 -1.5184 -0.2019
 1078SOL    HW214871   3.570   1.933   6.089 -0.9085  0.3125  0.9088
 1079SOL     OW14872   2.584   0.105   2.577  0.2778  0.3644  0.2209
 1079SOL    HW114873   2.543   0.045   2.640  2.5991  0.0334  1.4247
 1079SOL    HW214874   2.504   0.146   2.545 -0.6754  0.0583  2.1925
 1080SOL     OW14875   4.245   2.130   8.088  0.2022  0.1062 -0.6899
 1080SOL    HW114876   4.234   2.192   8.160 -1.1480  1.1255 -1.7780
 1080SOL    HW214877   4.163   2.081   8.090  0.9614 -1.1851 -0.9827
 1081SOL     OW14878   2.051   0.273  10.937  0.1882  0.2636  0.4702
 1081SOL    HW114879   2.079   0.362  10.957  2.3586 -0.3420  0.2270
 1081SOL    HW214880   2.011   0.237  11.016  0.6117 -1.4504 -0.0823
 1082SOL     OW14881   2.374   1.005   1.531  0.2725  0.4094  0.1822
 1082SOL    HW114882   2.456   1.020   1.578  0.2360  0.3228  0.2723
 1082SOL    HW214883   2.324   1.087   1.538  0.2863  0.6411 -2.4545
 1083SOL     OW14884   0.454   3.219   1.006 -0.5452 -0.1259  0.1167
 1083SOL    HW114885   0.414   3.216   1.093  0.7966  1.7441  0.8226
 1083SOL    HW214886   0.490   3.308   1.010 -0.2792 -0.2330  0.1039
 1084SOL     OW14887   4.165   3.314   6.416  0.8193 -1.0130  0.2806
 1084SOL    HW114888   4.107   3.362   6.357  0.4072  0.2602  1.7349
 1084SOL    HW214889   4.152   3.230   6.372 -2.8953  0.0236 -0.6043
 1085SOL     OW14890   4.224   0.693  15.403 -0.4430  0.4096 -0.4900
 1085SOL    HW114891   4.223   0.679  15.498  0.1616 -0.4009 -0.6010
 1085SOL    HW214892   4.168   0.771  15.407 -1.7370 -0.5320  0.0040
 1086SOL     OW14893   1.306   2.575   9.935  0.1225  0.0552 -0.5939
 1086SOL    HW114894   1.392   2.588   9.896  0.2964  0.6460 -0.0136
 1086SOL    HW214895   1.298   2.480   9.933 -1.4482  0.1046  2.6742
 1087SOL     OW14896   3.059   0.323   2.731  0.2320  0.3951  0.3385
 1087SOL    HW114897   3.082   0.368   2.649  0.3703  2.2341  1.3803
 1087SOL    HW214898   2.966   0.346   2.740  0.5804  2.2063 -0.5831
 1088SOL     OW14899   3.821   4.317  16.183 -0.1626  0.4174 -0.5050
 1088SOL    HW114900   3.838   4.346  16.093 -1.2645  0.0902 -0.8157
 1088SOL    HW214901   3.833   4.222  16.175  0.9245  0.6413 -1.5413
 1089SOL     OW14902   0.005   2.934   6.699  0.4788  0.1486  0.5560
 1089SOL    HW114903   4.671   2.875   6.725  1.9022 -1.4703  0.8021
 1089SOL    HW214904   0.014   2.997   6.770  0.8854  1.6123 -0.8195
 1090SOL     OW14905   2.181   4.115   7.640  0.2919  0.3462 -0.1233
 1090SOL    HW114906   2.184   4.028   7.600  0.1565 -0.7703  2.2344
 1090SOL    HW214907   2.259   4.119   7.695 -0.0805  0.7569  0.3719
 1091SOL     OW14908   2.888   2.613   7.198 -0.3013 -0.0306 -0.3305
 1091SOL    HW114909   2.866   2.700   7.167 -1.5746 -0.6051 -1.0233
 1091SOL    HW214910   2.819   2.608   7.265 -1.2440 -2.1738 -1.4529
 1092SOL     OW14911   1.460   4.038   1.010 -0.3568  0.2561 -0.2908
 1092SOL    HW114912   1.515   4.045   1.088  0.2440  2.1884 -0.9163
 1092SOL    HW214913   1.378   4.075   1.044 -0.0616  2.5253 -2.1141
 1093SOL     OW14914   3.319   4.009  13.780 -0.1020  0.1702  0.1934
 1093SOL    HW114915   3.312   3.914  13.789  1.4705 -0.1156 -1.4840
 1093SOL    HW214916   3.282   4.040  13.862 -1.2763 -1.0299  0.1102
 1094SOL     OW14917   4.572   4.436   4.956 -0.3152  0.4644  0.8320
 1094SOL    HW114918   4.595   4.415   5.046  0.3662  1.8415  0.9776
 1094SOL    HW214919   4.587   4.530   4.959 -0.3261  0.4938 -0.0514
 1095SOL     OW14920   4.232   2.912   8.986  0.2737 -0.2681 -0.2421
 1095SOL    HW114921   4.257   2.911   9.079  0.4914 -0.5679 -0.3040
 1095SOL    HW214922   4.138   2.896   8.994  0.6345 -1.3719  1.7196
 1096SOL     OW14923   1.630   4.156  16.821  0.9775  0.4625  0.2807
 1096SOL    HW114924   1.726   4.159  16.818  0.9738 -1.4218 -2.2562
 1096SOL    HW214925   1.612   4.086  16.883 -0.5663  0.1953 -0.4727
 1097SOL     OW14926   0.716   3.029   3.693 -0.1515 -0.1953 -0.3650
 1097SOL    HW114927   0.630   3.025   3.652 -0.2033  1.2509 -0.4105
 1097SOL    HW214928   0.750   2.945   3.661  0.9623 -0.1379  0.6881
 1098SOL     OW14929   0.018   3.527   5.589 -0.3356  0.1816 -0.1494
 1098SOL    HW114930   0.069   3.603   5.620  0.9913  0.1174 -2.2370
 1098SOL    HW214931   4.696   3.513   5.663 -0.1273  1.3437  0.2427
 1099SOL     OW14932   4.640   1.723  17.491  0.3092  0.1457  0.0611
 1099SOL    HW114933   4.723   1.697  17.451 -0.7521 -1.2808 -1.1896
 1099SOL    HW214934   4.647   1.687  17.579 -0.2246 -0.9280 -0.3350
 1100SOL     OW14935   0.741   3.867   7.482  0.1476 -0.2707 -0.4373
 1100SOL    HW114936   0.706   3.888   7.568 -0.5422  3.0231 -1.4963
 1100SOL    HW214937   0.668   3.825   7.436 -0.9579  0.9827  0.1886
 1101SOL     OW14938   1.705   4.047   4.564  0.6458 -0.1041  0.2209
 1101SOL    HW114939   1.692   4.107   4.637  1.1278 -0.0544  0.2695
 1101SOL    HW214940   1.745   4.108   4.502 -0.7725  0.6628  0.0555
 1102SOL     OW14941   3.425   0.191  11.300 -0.0079 -0.3641 -1.3504
 1102SOL    HW114942   3.483   0.124  11.335  2.4896  1.7855 -1.3304
 1102SOL    HW214943   3.452   0.197  11.208 -0.9164  1.9166 -1.4749
 1103SOL     OW14944   1.571   0.774  11.116 -0.7319 -0.9356  0.2129
 1103SOL    HW114945   1.545   0.758  11.026  1.5040  2.6566 -1.0871
 1103SOL    HW214946   1.654   0.726  11.114 -0.7238 -0.9538  1.0095
 1104SOL     OW14947   0.942   3.502   7.438  0.1457  0.3281  0.0538
 1104SOL    HW114948   0.900   3.474   7.519  2.7755 -0.3984  1.1737
 1104SOL    HW214949   0.962   3.594   7.455  1.6306 -0.0654  0.4679
 1105SOL     OW14950   2.275   0.605   9.547 -0.0472  0.1642  0.4689
 1105SOL    HW114951   2.364   0.627   9.518 -0.1988 -0.7971 -0.7000
 1105SOL    HW214952   2.251   0.533   9.490 -0.7067 -0.5856  1.6837
 1106SOL     OW14953   2.270   1.108   7.029 -0.0173  0.4946  0.0850
 1106SOL    HW114954   2.343   1.159   7.063 -0.8728  1.4265  0.5037
 1106SOL    HW214955   2.229   1.161   6.962  0.4461 -1.8472 -2.0480
 1107SOL     OW14956   4.416   0.743   9.876  0.0391  0.0771  0.5178
 1107SOL    HW114957   4.407   0.758   9.781  2.6218 -1.8254 -0.0068
 1107SOL    HW214958   4.436   0.650   9.875  2.7797  0.6778 -0.2532
 1108SOL     OW14959   0.545   1.337   7.314 -0.1724 -0.1433 -0.0929
 1108SOL    HW114960   0.617   1.390   7.348 -0.7794  1.0556 -0.6664
 1108SOL    HW214961   0.469   1.388   7.343  0.1196  1.1841 -1.6285
 1109SOL     OW14962   3.611   1.758  15.609 -0.1225 -0.3490  0.2479
 1109SOL    HW114963   3.705   1.773  15.594  0.0726 -1.2404  0.5841
 1109SOL    HW214964   3.591   1.849  15.633 -0.9100 -0.6178  0.5926
 1110SOL     OW14965   2.912   0.497   4.493  0.4594 -0.6636  0.4318
 1110SOL    HW114966   2.972   0.519   4.421 -0.4509 -0.0013 -0.1128
 1110SOL    HW214967   2.882   0.580   4.530 -2.2074 -0.7637 -1.5008
 1111SOL     OW14968   3.019   4.248   7.352  0.1132 -0.1127  0.0986
 1111SOL    HW114969   3.084   4.237   7.282 -0.4524 -1.5347 -0.2016
 1111SOL    HW214970   3.073   4.220   7.426 -1.3317 -0.4705  1.0205
 1112SOL     OW14971   0.000   3.837   6.973 -0.5940  0.3208  0.2907
 1112SOL    HW114972   0.061   3.763   6.978 -2.6466 -1.1155  3.5591
 1112SOL    HW214973   4.658   3.791   6.947  0.0769 -0.1520 -0.9015
 1113SOL     OW14974   3.341   3.739   5.081  0.0030  0.1546  0.2907
 1113SOL    HW114975   3.261   3.704   5.043 -1.0907 -0.9155  3.5998
 1113SOL    HW214976   3.392   3.739   4.999 -1.6387  1.0027 -0.7175
 1114SOL     OW14977   2.440   0.614   1.768 -0.9486  0.2141 -0.5932
 1114SOL    HW114978   2.523   0.638   1.726  0.6995  0.4668  2.8161
 1114SOL    HW214979   2.370   0.653   1.716 -0.9927  0.4842 -0.3283
 1115SOL     OW14980   0.238   2.385   5.073  0.1063 -0.3814 -0.9400
 1115SOL    HW114981   0.257   2.442   4.999  0.2051  1.4338  0.4956
 1115SOL    HW214982   0.321   2.338   5.082  0.7548  0.9013 -0.3501
 1116SOL     OW14983   4.136   4.290  11.730  0.2926  0.5560  0.0763
 1116SOL    HW114984   4.137   4.315  11.822 -1.1069  1.7277 -0.2239
 1116SOL    HW214985   4.044   4.304  11.706  0.4237  2.6511  0.8577
 1117SOL     OW14986   1.003   4.065  12.421 -0.3201 -0.0581 -0.0758
 1117SOL    HW114987   0.943   4.062  12.496 -0.7468 -1.4916 -0.4865
 1117SOL    HW214988   1.022   3.973  12.407  0.4094  0.1188 -0.2401
 1118SOL     OW14989   2.907   1.684   4.010 -0.5502  0.2863  0.0738
 1118SOL    HW114990   2.969   1.621   4.047 -1.0466 -0.2885 -0.0778
 1118SOL    HW214991   2.965   1.757   3.987 -0.2081 -0.1290 -0.3575
 1119SOL     OW14992   1.361   2.333   8.216 -0.1574 -0.6404 -0.0005
 1119SOL    HW114993   1.384   2.260   8.158 -0.4053  0.0277 -0.9423
 1119SOL    HW214994   1.364   2.408   8.157  0.8318 -0.1186  0.7154
 1120SOL     OW14995   1.386   2.603   0.562 -0.3281 -0.0580 -0.3491
 1120SOL    HW114996   1.462   2.648   0.525 -0.6068  0.9088  0.2493
 1120SOL    HW214997   1.408   2.591   0.654  1.4417 -1.1064 -0.9102
 1121SOL     OW14998   3.249   2.196  11.510  0.3082  0.1280  0.5034
 1121SOL    HW114999   3.219   2.109  11.485  2.0536  0.8469 -3.9367
 1121SOL    HW215000   3.228   2.195  11.604 -1.1542 -1.3541  0.1543
 1122SOL     OW15001   0.860   3.728  17.024  0.3092 -0.1796  0.2906
 1122SOL    HW115002   0.771   3.736  16.990  0.7238  0.1689 -0.7432
 1122SOL    HW215003   0.859   3.641  17.062  0.6691  0.3607  1.5252
 1123SOL     OW15004   2.622   3.700  13.919  0.8175 -0.0728 -0.0732
 1123SOL    HW115005   2.567   3.631  13.880  0.9979  0.0141 -0.4828
 1123SOL    HW215006   2.701   3.655  13.948  0.9104  0.6337  0.7834
 1124SOL     OW15007   4.714   0.493   6.873 -0.0929 -0.2942  0.2342
 1124SOL    HW115008   4.631   0.476   6.917 -0.4077  1.0173  0.1445
 1124SOL    HW215009   4.690   0.497   6.781  1.8135  0.9363 -0.2254
 1125SOL     OW15010   1.485   1.316   0.538 -0.3343  0.3330  0.0412
 1125SOL    HW115011   1.539   1.347   0.611 -1.1180 -0.2714  0.8818
 1125SOL    HW215012   1.400   1.343   0.573 -0.8677 -1.6706  0.3094
 1126SOL     OW15013   4.471   4.265  10.126  0.5205  0.7412 -0.0537
 1126SOL    HW115014   4.455   4.221  10.210  0.2003 -0.0418 -0.5310
 1126SOL    HW215015   4.489   4.202  10.056 -0.8235 -0.9482  1.1321
 1127SOL     OW15016   4.535   1.658   2.705 -0.3785 -0.2110 -0.5575
 1127SOL    HW115017   4.607   1.706   2.747 -0.4365  0.4149 -1.1826
 1127SOL    HW215018   4.520   1.594   2.774 -1.2560  1.5535  0.8953
 1128SOL     OW15019   1.071   2.532  12.137  0.2043 -0.5025 -0.2948
 1128SOL    HW115020   0.996   2.573  12.181  0.1387 -1.3053  0.3472
 1128SOL    HW215021   1.129   2.503  12.208 -0.3870 -0.6260  0.1373
 1129SOL     OW15022   1.814   2.413   8.102  0.0020 -0.0757  0.0561
 1129SOL    HW115023   1.852   2.326   8.087  2.6954  1.1674 -0.2649
 1129SOL    HW215024   1.759   2.398   8.179 -0.7241  0.7718 -0.3042
 1130SOL     OW15025   0.781   0.737   6.865 -0.3122  0.5150 -0.2100
 1130SOL    HW115026   0.713   0.692   6.815  1.5781 -1.6567 -0.7859
 1130SOL    HW215027   0.839   0.662   6.876  0.9479  1.8546  2.1554
 1131SOL     OW15028   1.525   4.150   9.184 -0.2025 -0.5460  0.4641
 1131SOL    HW115029   1.502   4.182   9.097  1.7983 -0.8157 -0.1721
 1131SOL    HW215030   1.598   4.090   9.170  1.2484  1.1494  0.8699
 1132SOL     OW15031   0.682   3.444   3.323  0.2768  0.3954  0.3034
 1132SOL    HW115032   0.611   3.503   3.297 -0.1063 -0.1616  0.0869
 1132SOL    HW215033   0.759   3.498   3.308 -0.0293  0.7372 -0.0287
 1133SOL     OW15034   2.104   2.692  10.362 -0.9014  0.5203  0.4542
 1133SOL    HW115035   2.050   2.768  10.385  0.0138  1.3181 -0.0888
 1133SOL    HW215036   2.137   2.663  10.447  3.4080  1.1960 -0.9943
 1134SOL     OW15037   3.039   0.809  16.855  0.1701  0.3601 -0.4538
 1134SOL    HW115038   3.073   0.837  16.941  1.5637 -0.2210 -0.8138
 1134SOL    HW215039   3.034   0.896  16.815  0.0880  0.1534 -0.8880
 1135SOL     OW15040   2.444   2.297   9.361  0.4660  0.6781  0.2088
 1135SOL    HW115041   2.370   2.251   9.402 -1.5858  2.0109 -1.9436
 1135SOL    HW215042   2.442   2.257   9.274 -3.9682  0.4712  0.3903
 1136SOL     OW15043   3.334   1.879  11.703  0.3252 -0.0380 -0.4150
 1136SOL    HW115044   3.402   1.930  11.659  1.3003 -0.9147  0.0812
 1136SOL    HW215045   3.252   1.901  11.659 -0.5368 -1.1737  0.6299
 1137SOL     OW15046   3.843   1.820   1.984 -0.0929 -0.3332 -0.3351
 1137SOL    HW115047   3.840   1.900   2.036 -1.1991 -0.8027  0.3154
 1137SOL    HW215048   3.844   1.749   2.048 -0.0936  0.5082  0.5928
 1138SOL     OW15049   1.387   2.102   7.462 -0.2518 -0.2442  0.7946
 1138SOL    HW115050   1.336   2.027   7.431  0.3601 -0.3001 -0.0526
 1138SOL    HW215051   1.453   2.110   7.393 -0.1076 -0.2820  0.9275
 1139SOL     OW15052   3.366   2.805   4.259  0.3862 -0.1999  0.5053
 1139SOL    HW115053   3.396   2.891   4.229  0.5149 -0.1257  0.8421
 1139SOL    HW215054   3.435   2.753   4.218 -0.4573  0.5527 -1.9056
 1140SOL     OW15055   4.422   0.932   5.496 -0.5538  0.0606 -0.1132
 1140SOL    HW115056   4.508   0.893   5.482 -1.1777 -1.9555  1.6230
 1140SOL    HW215057   4.423   0.994   5.423  0.8098 -0.2777 -0.3857
 1141SOL     OW15058   3.633   2.842   8.327 -0.0176  0.0659  0.5092
 1141SOL    HW115059   3.618   2.936   8.321  1.7905  0.2435 -0.9034
 1141SOL    HW215060   3.544   2.818   8.301  0.8295 -2.5484 -0.0260
 1142SOL     OW15061   1.525   2.833  15.604 -0.8149  0.3166 -0.1192
 1142SOL    HW115062   1.612   2.799  15.585 -1.6455 -0.0716 -3.2396
 1142SOL    HW215063   1.518   2.908  15.545 -3.4328  0.1486 -0.0251
 1143SOL     OW15064   3.554   0.264   4.595 -0.3523  1.0292 -0.3313
 1143SOL    HW115065   3.626   0.321   4.620 -0.1080 -0.3570  2.1723
 1143SOL    HW215066   3.599   0.189   4.555  3.6539  2.9680  0.5094
 1144SOL     OW15067   4.726   2.049   5.041  0.5268 -0.2115 -0.2709
 1144SOL    HW115068   4.708   2.137   5.074  0.2477  0.0138 -1.0135
 1144SOL    HW215069   0.080   2.045   5.071  0.8656 -2.4992 -1.6531
 1145SOL     OW15070   2.923   2.767  12.939 -0.4371 -0.6873  0.0607
 1145SOL    HW115071   2.996   2.802  12.990  0.0658  0.7439 -1.6249
 1145SOL    HW215072   2.929   2.673  12.958 -1.0142 -0.1117  3.0591
 1146SOL     OW15073   3.920   2.557   2.251 -0.7627 -0.2402  0.4032
 1146SOL    HW115074   3.988   2.585   2.190 -1.1953  3.5944  1.6878
 1146SOL    HW215075   3.979   2.501   2.301 -1.5594 -2.0778 -0.7024
 1147SOL     OW15076   3.009   2.507   7.976 -0.2684 -0.0866 -0.0359
 1147SOL    HW115077   2.933   2.491   8.032 -1.9173  0.9926 -1.9662
 1147SOL    HW215078   2.981   2.476   7.891 -2.7445  2.0681 -0.0042
 1148SOL     OW15079   1.070   3.082   4.721  0.3665 -0.7227  0.7594
 1148SOL    HW115080   1.076   3.027   4.799 -0.1498 -1.9053 -0.0344
 1148SOL    HW215081   1.114   3.028   4.656  0.7600  0.8905 -0.3328
 1149SOL     OW15082   4.575   3.045   4.146  0.6361 -0.0370  0.5816
 1149SOL    HW115083   4.529   3.105   4.205 -0.1051  0.1273 -0.1685
 1149SOL    HW215084   4.508   2.977   4.132  0.2355  0.0925  1.8464
 1150SOL     OW15085   4.658   1.045   5.649  0.3522 -0.4336 -0.0909
 1150SOL    HW115086   4.667   1.138   5.670  1.6033 -0.2234 -1.6348
 1150SOL    HW215087   4.584   1.021   5.705  0.7245 -0.4469  0.3956
 1151SOL     OW15088   1.431   2.992   0.235  0.3894 -0.4040 -0.5215
 1151SOL    HW115089   1.477   3.074   0.253 -1.1241  0.1649  0.7055
 1151SOL    HW215090   1.497   2.929   0.263 -1.5406 -1.1144  2.3963
 1152SOL     OW15091   0.756   3.246   1.695  0.3501  0.3119  0.6798
 1152SOL    HW115092   0.718   3.300   1.764  1.6256  0.4144  1.3058
 1152SOL    HW215093   0.713   3.162   1.705  0.1175  0.3781  0.2443
 1153SOL     OW15094   1.546   1.458   6.294 -0.9164 -0.3275 -0.2615
 1153SOL    HW115095   1.631   1.440   6.255 -1.1653 -0.0966 -0.9073
 1153SOL    HW215096   1.570   1.479   6.385 -2.2531 -2.8315  0.6674
 1154SOL     OW15097   2.663   1.647   6.685  0.3260 -0.2760  0.6114
 1154SOL    HW115098   2.651   1.689   6.600  2.1522 -1.2520 -0.1336
 1154SOL    HW215099   2.587   1.588   6.690  0.7111 -0.7532  0.8873
 1155SOL     OW15100   3.885   1.303  11.594 -0.2802  0.2000  0.0236
 1155SOL    HW115101   3.927   1.217  11.598 -0.1159  0.2843  0.1377
 1155SOL    HW215102   3.797   1.291  11.629 -1.4038  1.3619 -2.4522
 1156SOL     OW15103   4.297   3.388   3.199  0.2939 -0.1296  0.4115
 1156SOL    HW115104   4.267   3.476   3.178  1.4459 -0.2737 -1.8664
 1156SOL    HW215105   4.389   3.399   3.223  0.2571 -2.5822  1.6756
 1157SOL     OW15106   4.440   1.074   5.268  0.2404 -0.1693 -0.1122
 1157SOL    HW115107   4.418   1.159   5.306  1.5485  0.2508 -0.2857
 1157SOL    HW215108   4.532   1.082   5.244 -0.0625  0.5529 -1.0362
 1158SOL     OW15109   3.948   1.197   3.027  0.5225  0.0102  0.5347
 1158SOL    HW115110   4.036   1.168   3.051 -0.3766 -1.9181  1.4474
 1158SOL    HW215111   3.956   1.292   3.038 -0.2627  0.3468 -1.9667
 1159SOL     OW15112   4.410   1.408   0.565 -0.1912 -0.1909 -0.1845
 1159SOL    HW115113   4.380   1.386   0.477  0.8325  1.9050 -1.0421
 1159SOL    HW215114   4.337   1.382   0.621  0.1707 -2.0439 -0.5404
 1160SOL     OW15115   4.038   2.350   9.255  0.0359  0.0787  0.0305
 1160SOL    HW115116   4.035   2.311   9.343  0.8401 -1.6699 -0.7286
 1160SOL    HW215117   4.004   2.275   9.207  2.2624 -1.2438  0.5348
 1161SOL     OW15118   0.549   0.449   8.399 -0.3062  1.0173 -0.7436
 1161SOL    HW115119   0.559   0.364   8.442  0.6950  1.0974 -0.8103
 1161SOL    HW215120   0.458   0.440   8.370  0.8518  0.0200 -4.0940
 1162SOL     OW15121   3.976   4.207   6.296 -0.0256  0.6666 -0.1531
 1162SOL    HW115122   3.933   4.232   6.214 -0.9914 -1.3075 -0.2374
 1162SOL    HW215123   3.999   4.296   6.325  3.3464 -0.1321 -0.4038
 1163SOL     OW15124   1.578   1.413   4.199 -0.1802  0.1220  0.0871
 1163SOL    HW115125   1.532   1.350   4.254  1.0170 -0.2268  0.6728
 1163SOL    HW215126   1.611   1.487   4.250 -0.2929  0.3760 -0.2100
 1164SOL     OW15127   4.618   1.660  13.453 -0.8251  0.2491  0.1504
 1164SOL    HW115128   4.596   1.749  13.428 -0.4058  0.5215  0.7426
 1164SOL    HW215129   4.551   1.602  13.417  0.4744 -0.8203 -0.5856
 1165SOL     OW15130   0.460   2.821   3.707 -0.0502 -0.3635 -0.0619
 1165SOL    HW115131   0.473   2.742   3.655  1.2653  1.1657 -2.0686
 1165SOL    HW215132   0.459   2.889   3.639  1.3730  0.6963  0.9976
 1166SOL     OW15133   2.638   4.697   3.859 -0.0117  0.0292  0.5326
 1166SOL    HW115134   2.692   4.692   3.938 -0.7581  1.4278  1.1457
 1166SOL    HW215135   2.605   0.050   3.859 -0.2027 -0.0394  1.7684
 1167SOL     OW15136   4.072   3.325   9.112  0.8514  0.2930 -0.4206
 1167SOL    HW115137   4.096   3.287   9.028 -1.2280 -0.1978 -0.7946
 1167SOL    HW215138   4.000   3.379   9.080 -0.1015 -0.5417  0.3099
 1168SOL     OW15139   1.395   1.576   5.405  0.8209 -0.2659  0.3896
 1168SOL    HW115140   1.446   1.641   5.453 -1.5491  0.9091  1.3360
 1168SOL    HW215141   1.469   1.523   5.376  0.5412  0.3586 -1.4061
 1169SOL     OW15142   2.070   3.483  13.254 -0.0262  0.2609 -0.2773
 1169SOL    HW115143   2.139   3.426  13.219  0.7640  0.0094  1.6541
 1169SOL    HW215144   2.004   3.493  13.186  0.8110  0.4649 -1.0608
 1170SOL     OW15145   0.573   0.655   5.698  0.2089  0.4866  0.4114
 1170SOL    HW115146   0.630   0.732   5.702  1.1184 -0.1447 -0.3904
 1170SOL    HW215147   0.646   0.597   5.676  1.1091  1.1675  1.6114
 1171SOL     OW15148   4.371   2.650   4.583 -0.2639 -0.0806  0.0254
 1171SOL    HW115149   4.397   2.666   4.674 -1.3639 -1.5208  0.5858
 1171SOL    HW215150   4.451   2.639   4.533 -0.2214 -0.0885  0.0946
 1172SOL     OW15151   1.176   1.654   2.170  0.0900  0.1748  0.3968
 1172SOL    HW115152   1.255   1.686   2.127  0.8564  0.9321  2.3686
 1172SOL    HW215153   1.124   1.615   2.099 -0.3842 -0.1378  0.9104
 1173SOL     OW15154   3.331   1.913   4.211 -0.0530  0.5757 -0.1977
 1173SOL    HW115155   3.411   1.878   4.251  0.8803  1.1338 -1.5835
 1173SOL    HW215156   3.372   1.992   4.175  1.3329 -0.0391  0.0212
 1174SOL     OW15157   3.165   2.222   2.866 -0.1474 -0.9102  0.5909
 1174SOL    HW115158   3.211   2.155   2.918  2.0947 -0.2554 -0.5523
 1174SOL    HW215159   3.221   2.299   2.863  0.2589 -1.1640  1.5115
 1175SOL     OW15160   1.992   3.531   1.724 -0.1640  0.3600  0.8868
 1175SOL    HW115161   1.928   3.528   1.654  0.9940  0.5644 -0.1773
 1175SOL    HW215162   2.049   3.600   1.688  0.0900  0.2428  1.0615
 1176SOL     OW15163   3.951   2.898   0.451  0.1979 -0.3254 -0.5152
 1176SOL    HW115164   3.988   2.940   0.374  0.3261  0.3169 -0.1028
 1176SOL    HW215165   3.961   2.804   0.438 -2.2109 -0.5377 -0.7709
 1177SOL     OW15166   3.119   0.756   4.083 -0.3982 -0.2276 -0.3718
 1177SOL    HW115167   3.033   0.739   4.045  0.1208 -2.1530 -0.6918
 1177SOL    HW215168   3.113   0.724   4.173  0.1333  1.2733  0.1964
 1178SOL     OW15169   2.482   1.933  10.961  0.1754  0.2563 -0.6798
 1178SOL    HW115170   2.413   1.997  10.946 -1.4702 -1.5577 -0.8453
 1178SOL    HW215171   2.426   1.858  10.981 -0.0269  1.1025  2.0264
 1179SOL     OW15172   3.333   1.451   5.169 -0.1559  0.1904 -0.4153
 1179SOL    HW115173   3.427   1.433   5.169  0.0010  1.0538  0.8725
 1179SOL    HW215174   3.309   1.383   5.105  1.1927 -1.1408  0.4974
 1180SOL     OW15175   1.010   3.959   9.228 -0.2630 -0.1535 -0.1498
 1180SOL    HW115176   1.034   3.917   9.311  0.9813 -2.1454 -1.5129
 1180SOL    HW215177   1.044   4.049   9.229  0.6982 -0.5063 -1.2668
 1181SOL     OW15178   4.564   2.381   8.304  0.3543  0.3684 -0.0426
 1181SOL    HW115179   4.481   2.361   8.349  1.5403 -3.1923  0.5915
 1181SOL    HW215180   4.559   2.469   8.267 -2.8734  1.7978  3.7395
 1182SOL     OW15181   2.191   3.503  16.991 -0.3827 -1.0578  0.2872
 1182SOL    HW115182   2.182   3.494  16.896  0.3890  1.2260 -0.0026
 1182SOL    HW215183   2.098   3.495  17.015 -0.7903 -1.1269 -1.3110
 1183SOL     OW15184   3.328   4.372   3.346  0.0173  0.5661 -0.3440
 1183SOL    HW115185   3.404   4.391   3.402 -0.2764 -1.0159  0.5864
 1183SOL    HW215186   3.338   4.277   3.343  0.2748  0.5783  0.1303
 1184SOL     OW15187   1.679   2.311   5.617 -0.8134  0.4778  0.1639
 1184SOL    HW115188   1.719   2.316   5.530 -0.6877  0.8896  0.2457
 1184SOL    HW215189   1.599   2.352   5.583 -0.0786  0.9659 -0.9480
 1185SOL     OW15190   2.025   4.535   5.012  0.3313  0.3434  0.0648
 1185SOL    HW115191   2.054   4.596   4.945 -0.0720  1.8079  1.2423
 1185SOL    HW215192   2.104   4.526   5.064  0.0333  1.0759  0.6474
 1186SOL     OW15193   1.231   4.107   5.200  0.6194 -0.6053  0.6399
 1186SOL    HW115194   1.177   4.030   5.184 -0.2277  0.2727 -0.7683
 1186SOL    HW215195   1.171   4.157   5.256 -0.1215  1.0689 -1.6496
 1187SOL     OW15196   3.109   0.297   6.317  0.3405  0.6728 -0.0513
 1187SOL    HW115197   3.158   0.290   6.399 -0.9751  0.9708  0.7646
 1187SOL    HW215198   3.018   0.304   6.347 -0.5287 -4.0550 -1.4955
 1188SOL     OW15199   0.751   0.828   4.468 -0.6121 -0.3994 -0.2870
 1188SOL    HW115200   0.788   0.908   4.505  0.2428 -1.9335  2.2526
 1188SOL    HW215201   0.686   0.807   4.536 -0.9739 -1.4822 -0.9680
 1189SOL     OW15202   0.852   4.149   2.866  0.2458 -0.1727 -0.1451
 1189SOL    HW115203   0.868   4.055   2.875  1.0180 -0.0467 -0.1758
 1189SOL    HW215204   0.937   4.178   2.834  0.1265 -1.7695 -1.8695
 1190SOL     OW15205   2.679   0.830   6.060 -0.2841  0.5227 -0.2152
 1190SOL    HW115206   2.667   0.869   5.974 -1.2769 -1.4668 -0.9850
 1190SOL    HW215207   2.705   0.914   6.097 -0.5598  0.0722  1.0233
 1191SOL     OW15208   2.476   4.666   2.808 -0.5152  0.3838 -0.3813
 1191SOL    HW115209   2.443   4.596   2.864  0.4821  1.0221  1.0077
 1191SOL    HW215210   2.443   0.007   2.853 -1.0748 -1.6334  2.7178
 1192SOL     OW15211   0.633   4.559   6.922 -0.2310  0.4469 -0.0538
 1192SOL    HW115212   0.575   4.620   6.967  0.0130 -0.2369  1.1764
 1192SOL    HW215213   0.572   4.491   6.893  2.2976 -1.6842 -0.4448
 1193SOL     OW15214   1.304   2.434   2.913  0.3490 -0.3665  0.5269
 1193SOL    HW115215   1.293   2.528   2.902 -0.2375 -0.6517 -1.3831
 1193SOL    HW215216   1.396   2.424   2.938  0.7740 -1.3970 -1.3918
 1194SOL     OW15217   3.104   3.726   6.675 -0.3934 -0.1138 -0.0589
 1194SOL    HW115218   3.118   3.670   6.599  1.1063  0.0519  0.0978
 1194SOL    HW215219   3.069   3.807   6.639  1.0549  0.6057  0.1448
 1195SOL     OW15220   0.285   1.945   3.954 -0.1539 -0.3644 -0.3872
 1195SOL    HW115221   0.379   1.964   3.952  0.1653 -1.9924 -0.5140
 1195SOL    HW215222   0.290   1.854   3.926 -0.0022  0.2244 -2.2171
 1196SOL     OW15223   3.657   1.238  12.833  0.0609 -0.6293 -0.2681
 1196SOL    HW115224   3.691   1.148  12.834 -0.0703 -0.6696  1.2601
 1196SOL    HW215225   3.725   1.282  12.781 -1.3403  0.1356 -1.4290
 1197SOL     OW15226   3.695   1.838  14.934  0.0871  0.2493 -0.1090
 1197SOL    HW115227   3.718   1.929  14.917  0.0027 -0.0452 -1.7614
 1197SOL    HW215228   3.616   1.845  14.988 -0.4828 -0.4776 -0.8522
 1198SOL     OW15229   3.252   3.149   9.841  0.0160  0.4967  0.3340
 1198SOL    HW115230   3.298   3.087   9.898 -1.2358 -1.1669 -0.4623
 1198SOL    HW215231   3.326   3.207   9.822 -0.2912  0.9060  0.3971
 1199SOL     OW15232   4.037   3.889   4.988  0.0337  0.1193 -0.1651
 1199SOL    HW115233   4.049   3.977   5.023 -1.4214 -1.0077  3.2410
 1199SOL    HW215234   4.104   3.835   5.031  0.1211  0.7677  0.5193
 1200SOL     OW15235   2.643   3.190  16.181  0.4959 -0.6016 -0.2876
 1200SOL    HW115236   2.660   3.127  16.110 -0.9659 -1.6677  0.3017
 1200SOL    HW215237   2.580   3.243  16.131 -0.9890 -1.6188  0.5023
 1201SOL     OW15238   4.454   4.243  10.509 -0.0613 -0.5874 -0.0594
 1201SOL    HW115239   4.544   4.224  10.481  1.2438  2.1311  2.2857
 1201SOL    HW215240   4.470   4.338  10.514 -0.8825 -0.4393 -0.3353
 1202SOL     OW15241   4.667   3.077   2.684 -0.1583  0.9644  0.3137
 1202SOL    HW115242   4.701   3.007   2.628 -0.3362 -0.1233  1.5685
 1202SOL    HW215243   0.008   3.126   2.710  1.5855 -1.7750  0.2328
 1203SOL     OW15244   0.294   0.388   8.332  0.6767 -0.0748 -0.2785
 1203SOL    HW115245   0.219   0.374   8.390 -0.4772  1.2823 -1.4512
 1203SOL    HW215246   0.268   0.457   8.271  2.9443  0.1138 -1.0352
 1204SOL     OW15247   0.710   0.135  15.902 -0.1990  0.3595 -0.1061
 1204SOL    HW115248   0.706   0.138  15.807 -0.3078 -0.3856 -0.1297
 1204SOL    HW215249   0.710   0.041  15.923 -1.4223  0.8252  1.9703
 1205SOL     OW15250   2.656   0.008   7.405  0.6380  0.9809  0.0448
 1205SOL    HW115251   2.711   4.698   7.468  1.1432  0.0042 -1.1052
 1205SOL    HW215252   2.586   0.039   7.462 -1.4592  0.1213 -2.0433
 1206SOL     OW15253   3.921   4.220   8.736  0.0284  0.2283 -0.2463
 1206SOL    HW115254   3.890   4.218   8.646  0.2762  1.4087 -0.3637
 1206SOL    HW215255   3.839   4.186   8.773  0.3264 -0.9813 -0.7194
 1207SOL     OW15256   1.954   3.496   3.740  0.6665 -0.2199 -0.4752
 1207SOL    HW115257   1.886   3.443   3.699 -0.6139 -0.1399  1.5808
 1207SOL    HW215258   1.918   3.523   3.824 -1.4442 -0.5880 -1.2501
 1208SOL     OW15259   2.940   4.098  14.906  0.3427  0.2712  0.4001
 1208SOL    HW115260   2.934   4.131  14.817 -1.0835  1.7725  1.0700
 1208SOL    HW215261   3.027   4.125  14.937 -0.2647  2.2442  0.3787
 1209SOL     OW15262   2.158   3.351   1.866 -0.1187 -0.3781  0.0996
 1209SOL    HW115263   2.099   3.423   1.846 -0.2442 -0.8247 -1.2090
 1209SOL    HW215264   2.225   3.410   1.900  0.2570  0.2435 -1.7031
 1210SOL     OW15265   1.661   1.370  11.482  0.4978 -0.6803  0.4643
 1210SOL    HW115266   1.720   1.296  11.491  2.5018  0.6388 -1.6624
 1210SOL    HW215267   1.596   1.356  11.550 -0.8206  2.7724 -0.0395
 1211SOL     OW15268   4.403   1.296   4.511 -0.0479  0.5511  0.6658
 1211SOL    HW115269   4.337   1.279   4.578 -1.3495 -1.9031 -1.2255
 1211SOL    HW215270   4.379   1.385   4.485  2.1519  1.1658  0.7826
 1212SOL     OW15271   2.745   2.269   9.252 -0.4379 -0.2933  0.4392
 1212SOL    HW115272   2.748   2.365   9.255 -1.7031 -0.1607 -2.1592
 1212SOL    HW215273   2.691   2.251   9.175 -1.7884 -0.0224  1.3441
 1213SOL     OW15274   1.187   4.425   2.627 -0.2825 -0.0414  0.3865
 1213SOL    HW115275   1.187   4.455   2.718  1.1771  0.4475  0.2301
 1213SOL    HW215276   1.230   4.503   2.593  0.9525 -0.4073  1.1236
 1214SOL     OW15277   0.542   2.164   9.843  0.5028 -0.4665 -0.0242
 1214SOL    HW115278   0.565   2.097   9.907 -0.4910 -2.8282 -2.1621
 1214SOL    HW215279   0.550   2.238   9.904  2.0683  0.5824 -1.5057
 1215SOL     OW15280   0.672   3.760   6.445  0.2114  0.2630 -0.2141
 1215SOL    HW115281   0.758   3.770   6.487 -0.9837  1.8856  1.8518
 1215SOL    HW215282   0.629   3.689   6.493 -0.4460  0.3596 -0.6620
 1216SOL     OW15283   2.131   4.249   3.573 -0.3665  0.0167 -0.0711
 1216SOL    HW115284   2.096   4.168   3.611  0.1214 -0.0165  0.3153
 1216SOL    HW215285   2.098   4.316   3.632 -0.1199 -0.8246  1.0347
 1217SOL     OW15286   1.841   3.352  15.581  0.2903 -0.1169  0.2482
 1217SOL    HW115287   1.846   3.351  15.677  0.5238 -1.0127  0.2249
 1217SOL    HW215288   1.818   3.445  15.571  0.3358  0.0322  1.4911
 1218SOL     OW15289   4.310   2.157   3.959 -0.0229  0.2542 -0.0471
 1218SOL    HW115290   4.239   2.178   4.019  0.3162 -1.3595  0.9169
 1218SOL    HW215291   4.371   2.223   3.992 -2.7853  3.4173 -1.2168
 1219SOL     OW15292   0.107   3.816   0.436 -0.5184  0.2925  0.4725
 1219SOL    HW115293   0.201   3.818   0.454 -0.5118 -2.2296  0.6832
 1219SOL    HW215294   0.088   3.907   0.459 -1.6268  0.0067  0.6853
 1220SOL     OW15295   1.687   3.161  13.523 -0.0401  0.6704 -0.0029
 1220SOL    HW115296   1.596   3.171  13.495  0.2737  0.3809 -1.1318
 1220SOL    HW215297   1.670   3.087  13.582  0.4443 -0.9171 -1.8763
 1221SOL     OW15298   0.066   4.028   6.806  0.0625  0.4508 -0.5086
 1221SOL    HW115299   0.031   3.955   6.857 -2.3087  2.9159  1.3816
 1221SOL    HW215300   0.032   4.098   6.861 -1.9329 -0.9179 -0.0224
 1222SOL     OW15301   2.033   3.082   3.943  0.1083 -0.1214 -0.0178
 1222SOL    HW115302   2.092   3.041   3.880  0.7448 -2.8208  2.3266
 1222SOL    HW215303   2.070   3.168   3.962  1.2699 -0.9285  1.4087
 1223SOL     OW15304   3.100   0.654   2.686  0.9672  0.3442  0.4774
 1223SOL    HW115305   3.100   0.569   2.643 -0.7728  0.2367  0.6591
 1223SOL    HW215306   3.097   0.710   2.609 -1.0217  1.0386  1.0485
 1224SOL     OW15307   2.794   0.307   7.588 -0.1603 -0.6137 -0.8937
 1224SOL    HW115308   2.835   0.223   7.611 -1.3957 -2.1468 -4.1754
 1224SOL    HW215309   2.700   0.290   7.589 -0.7519  2.5223 -2.3758
 1225SOL     OW15310   1.144   4.540   8.424 -0.3042  0.2864  0.4405
 1225SOL    HW115311   1.123   4.458   8.379 -0.9457  0.3261  0.6564
 1225SOL    HW215312   1.062   4.552   8.472 -1.0224  1.0292 -0.9706
 1226SOL     OW15313   1.704   0.019   1.843 -0.3381 -0.2051 -0.1681
 1226SOL    HW115314   1.779   0.057   1.888 -0.1544 -0.8960  0.1084
 1226SOL    HW215315   1.684   4.677   1.894 -0.3116 -1.0574 -1.4848
 1227SOL     OW15316   1.976   2.232   7.734  0.1526 -0.3531 -0.0627
 1227SOL    HW115317   1.932   2.250   7.650 -0.3852 -0.4161  0.2013
 1227SOL    HW215318   1.949   2.310   7.783  0.6640 -1.1907  1.5458
 1228SOL     OW15319   4.167   3.023  12.872  1.1049 -0.4187  0.3535
 1228SOL    HW115320   4.252   3.030  12.914  0.7782 -1.7731  1.2675
 1228SOL    HW215321   4.192   3.024  12.780  1.3977 -0.3373  0.4343
 1229SOL     OW15322   2.459   0.542   2.980  0.0895  0.1909  0.2953
 1229SOL    HW115323   2.497   0.620   3.020  1.7572 -0.8906  0.8280
 1229SOL    HW215324   2.384   0.584   2.939  1.1551  3.2451  1.4992
 1230SOL     OW15325   1.203   4.358   8.051 -0.2491  0.1683  0.0465
 1230SOL    HW115326   1.177   4.442   8.013  3.5097  0.8271 -1.1033
 1230SOL    HW215327   1.290   4.380   8.085 -0.2741 -2.9716  2.0745
 1231SOL     OW15328   1.550   0.589   8.553 -0.2757 -0.5339  0.3483
 1231SOL    HW115329   1.575   0.498   8.572  0.5402 -0.3961 -0.1003
 1231SOL    HW215330   1.524   0.620   8.640 -0.3687  0.3870 -0.0130
 1232SOL     OW15331   4.347   0.215   4.086  0.3982 -0.1173 -0.1940
 1232SOL    HW115332   4.389   0.216   4.000  1.3344 -0.8977  0.2479
 1232SOL    HW215333   4.278   0.148   4.084  1.6247 -1.4644  2.2041
 1233SOL     OW15334   2.788   0.386  13.279 -0.3251 -0.1529  0.1116
 1233SOL    HW115335   2.811   0.293  13.284  3.3102  0.9134  2.6615
 1233SOL    HW215336   2.771   0.390  13.185  0.9560  0.7472 -0.0735
 1234SOL     OW15337   3.788   3.344  11.087 -0.1688 -0.2992 -0.0426
 1234SOL    HW115338   3.859   3.283  11.107 -0.4233 -0.6669 -0.2521
 1234SOL    HW215339   3.712   3.289  11.108 -0.9199  1.2442  1.3158
 1235SOL     OW15340   2.270   4.225   2.402 -0.3818 -0.8489 -0.0681
 1235SOL    HW115341   2.277   4.226   2.497 -1.6905  0.2955  0.0185
 1235SOL    HW215342   2.364   4.232   2.385 -0.7764 -1.3811 -2.4801
 1236SOL     OW15343   3.150   4.096   6.642 -0.0277  0.2020 -0.0938
 1236SOL    HW115344   3.145   4.161   6.572  2.9886 -0.5233 -0.9830
 1236SOL    HW215345   3.092   4.030   6.603 -1.0731 -0.5657  2.7529
 1237SOL     OW15346   4.582   3.703   6.267 -0.3483 -0.1334  0.2722
 1237SOL    HW115347   4.591   3.782   6.214 -3.1773 -0.3642 -0.5471
 1237SOL    HW215348   4.627   3.735   6.345 -1.6359 -0.8098  1.2898
 1238SOL     OW15349   2.489   3.842  16.010 -0.4347  0.2211 -0.1559
 1238SOL    HW115350   2.426   3.837  16.082  0.4452  1.8028  0.7214
 1238SOL    HW215351   2.500   3.936  15.995  1.1615 -0.1764 -1.4411
 1239SOL     OW15352   3.988   1.495   2.538  0.2880  0.4209  0.0388
 1239SOL    HW115353   4.040   1.417   2.555 -1.5012 -0.8312 -0.1730
 1239SOL    HW215354   3.940   1.503   2.620  1.9467  0.8523  0.9633
 1240SOL     OW15355   1.936   0.463   2.105 -0.2622  0.6471  0.7534
 1240SOL    HW115356   2.018   0.502   2.075 -0.3194  0.7818  0.7732
 1240SOL    HW215357   1.872   0.512   2.053 -0.6567 -0.0298  0.5949
 1241SOL     OW15358   3.453   0.029   2.413 -0.5172  0.1387  0.2408
 1241SOL    HW115359   3.483   0.112   2.376 -0.5804  0.2218  0.3790
 1241SOL    HW215360   3.386   0.005   2.348  1.0682 -0.7494 -1.0825
 1242SOL     OW15361   1.708   1.716   6.394  0.8303 -0.2955 -0.1444
 1242SOL    HW115362   1.646   1.788   6.385  1.7638  0.5598  0.2131
 1242SOL    HW215363   1.734   1.711   6.302 -0.3946 -1.9325 -0.4093
 1243SOL     OW15364   2.633   4.201   3.039 -0.1563 -0.4230  0.6920
 1243SOL    HW115365   2.633   4.118   2.991  1.9260 -0.3180  0.4990
 1243SOL    HW215366   2.657   4.269   2.977 -1.8076 -1.2194 -0.8097
 1244SOL     OW15367   0.896   2.177   1.025 -0.3216  0.0835 -0.0732
 1244SOL    HW115368   0.967   2.149   1.084  0.0370  0.6169 -0.2532
 1244SOL    HW215369   0.947   2.239   0.973 -2.2540  1.1541 -0.6615
 1245SOL     OW15370   1.661   2.192   4.829 -0.3990  0.1079  0.0016
 1245SOL    HW115371   1.751   2.162   4.835  0.0502  1.2755 -0.8858
 1245SOL    HW215372   1.633   2.148   4.749 -0.7892  0.5861 -0.1253
 1246SOL     OW15373   3.441   0.090   8.154  0.0766 -0.6586 -0.7195
 1246SOL    HW115374   3.361   0.060   8.197  1.8788 -2.5214  1.3120
 1246SOL    HW215375   3.400   0.158   8.100 -1.3450 -0.7730  0.2136
 1247SOL     OW15376   3.058   4.689  17.132 -0.2473 -0.3233  0.0989
 1247SOL    HW115377   3.036   4.711  17.042 -1.0771  0.7385  0.5656
 1247SOL    HW215378   3.123   0.020  17.145  0.1325 -0.3759 -1.5282
 1248SOL     OW15379   0.531   4.002   5.617  0.2759  0.1843  0.0473
 1248SOL    HW115380   0.517   3.922   5.566  0.4283 -0.0178  0.3245
 1248SOL    HW215381   0.515   4.061   5.543 -0.1789 -0.2741 -0.2162
 1249SOL     OW15382   4.177   4.113   5.073 -0.1204  0.0392  0.0906
 1249SOL    HW115383   4.254   4.147   5.118  1.4542 -2.4057 -0.7368
 1249SOL    HW215384   4.210   4.089   4.986 -1.3007 -0.4745 -0.2087
 1250SOL     OW15385   2.073   1.961  17.204 -0.1223  0.0163 -0.0963
 1250SOL    HW115386   2.154   2.011  17.198 -0.4797  0.7143  0.8313
 1250SOL    HW215387   2.010   2.016  17.157  0.1533  0.0791 -0.3915
 1251SOL     OW15388   4.266   2.756   2.566  0.5210  0.0164 -0.2037
 1251SOL    HW115389   4.339   2.812   2.590  0.6954 -0.5698  0.6348
 1251SOL    HW215390   4.318   2.696   2.513 -1.0543  0.2793 -2.0362
 1252SOL     OW15391   3.881   4.695   7.473  0.0704  0.2545  0.1016
 1252SOL    HW115392   3.888   4.684   7.379  0.2177 -0.3381  0.1848
 1252SOL    HW215393   3.972   4.672   7.495 -0.6134 -0.8430  1.7768
 1253SOL     OW15394   4.015   4.065   4.545  0.6497  0.1357 -0.4454
 1253SOL    HW115395   3.949   4.085   4.478  0.5889  0.1486 -0.3807
 1253SOL    HW215396   3.960   4.036   4.617 -0.5632  0.7888 -1.1111
 1254SOL     OW15397   1.520   4.088   6.734  0.2670 -0.4129  0.3020
 1254SOL    HW115398   1.545   3.996   6.731  2.1490  0.0772  1.1684
 1254SOL    HW215399   1.485   4.106   6.821 -0.7840 -1.3093  0.0633
 1255SOL     OW15400   3.214   0.159   4.076 -0.3934 -0.0892 -0.2370
 1255SOL    HW115401   3.205   0.208   3.995  0.4408  1.7023  0.7490
 1255SOL    HW215402   3.278   0.100   4.036  0.1363  1.4671 -1.6893
 1256SOL     OW15403   0.939   0.103  15.216  0.1912  0.8192 -0.5314
 1256SOL    HW115404   1.002   0.172  15.193  2.0797 -0.5661  0.4632
 1256SOL    HW215405   0.942   0.109  15.312 -1.6462 -0.5944 -0.3795
 1257SOL     OW15406   0.876   1.155   9.469 -0.3915 -0.0123 -0.2194
 1257SOL    HW115407   0.874   1.249   9.488  0.0671  0.2793 -1.6708
 1257SOL    HW215408   0.954   1.129   9.518  0.7499  0.5670 -1.7595
 1258SOL     OW15409   0.948   0.550   7.053  0.3358  0.3618  0.5672
 1258SOL    HW115410   1.021   0.612   7.051  0.1080  0.6074 -0.3158
 1258SOL    HW215411   0.994   0.465   7.050  1.4471  1.0561 -2.4171
 1259SOL     OW15412   1.730   2.464   6.032  0.4405 -0.4590  0.1049
 1259SOL    HW115413   1.732   2.538   6.093 -1.1805 -0.9941  0.8229
 1259SOL    HW215414   1.771   2.391   6.078  0.2111 -0.1322  0.8337
 1260SOL     OW15415   3.697   3.977  14.631  0.4763 -0.3024 -0.0429
 1260SOL    HW115416   3.755   3.947  14.561  2.3409 -1.1265  1.8364
 1260SOL    HW215417   3.607   3.965  14.600  0.8183 -0.1955 -1.0910
 1261SOL     OW15418   1.432   1.079   7.166  0.1248 -0.4885  0.4532
 1261SOL    HW115419   1.493   1.141   7.125  0.1597  0.9111  2.6160
 1261SOL    HW215420   1.421   1.115   7.254 -1.6626  4.2449 -1.6892
 1262SOL     OW15421   3.445   4.431  12.491 -0.0317 -0.4612 -0.2410
 1262SOL    HW115422   3.371   4.376  12.464 -1.7929  2.1018 -0.5577
 1262SOL    HW215423   3.408   4.516  12.468  2.7548  0.7836 -0.1664
 1263SOL     OW15424   0.120   0.491   3.185 -0.2742 -0.0859 -0.2170
 1263SOL    HW115425   0.080   0.534   3.109 -0.2058  1.7818  0.8054
 1263SOL    HW215426   0.134   0.401   3.157 -1.3247 -0.7637  1.4452
 1264SOL     OW15427   0.256   0.517  12.939 -0.7157 -0.0113 -0.2618
 1264SOL    HW115428   0.236   0.427  12.965 -1.0137  0.8427  2.4337
 1264SOL    HW215429   0.348   0.507  12.960 -1.0454  0.2208  1.2852
 1265SOL     OW15430   1.698   0.113   6.683 -0.2849  0.3128  0.3220
 1265SOL    HW115431   1.696   0.034   6.738  0.2878  1.9541  2.7158
 1265SOL    HW215432   1.783   0.154   6.701 -0.7969  1.3620  0.3537
 1266SOL     OW15433   0.972   2.759  17.002 -0.8727 -0.1558 -0.3660
 1266SOL    HW115434   0.992   2.681  17.054 -1.7212  0.0269  0.2392
 1266SOL    HW215435   0.999   2.835  17.054 -2.0066  1.2392 -1.7912
 1267SOL     OW15436   3.518   0.640   8.986  0.0794  0.2096  0.0105
 1267SOL    HW115437   3.586   0.578   9.013 -1.4089 -1.9845 -1.3362
 1267SOL    HW215438   3.564   0.722   9.005  0.7538 -0.5300  1.5535
 1268SOL     OW15439   4.546   0.976  10.674  0.0317 -0.1376  0.1868
 1268SOL    HW115440   4.621   0.978  10.735 -0.2508  0.2627  0.5290
 1268SOL    HW215441   4.495   1.047  10.713  1.3902  0.1751  1.4136
 1269SOL     OW15442   2.132   1.330   4.156 -0.6554 -0.0897  0.6188
 1269SOL    HW115443   2.048   1.287   4.138  0.2104 -1.4252 -0.1856
 1269SOL    HW215444   2.113   1.391   4.227  0.6174  1.1085 -0.0693
 1270SOL     OW15445   3.279   2.653   4.977 -0.7987 -0.4573 -0.1089
 1270SOL    HW115446   3.282   2.564   4.942  0.3267 -0.8843  1.0970
 1270SOL    HW215447   3.281   2.645   5.072 -2.9524  3.6925  0.2698
 1271SOL     OW15448   2.478   2.552  12.826 -0.4366  0.2203 -0.4668
 1271SOL    HW115449   2.511   2.627  12.777  0.2305 -1.0984 -2.0076
 1271SOL    HW215450   2.472   2.489  12.754  0.1845  1.4232 -1.5603
 1272SOL     OW15451   2.980   3.675   9.204  0.3259  0.5986  0.1764
 1272SOL    HW115452   3.038   3.700   9.276  0.4556  0.2348  0.1947
 1272SOL    HW215453   2.909   3.740   9.212  0.4989  0.7320  0.6001
 1273SOL     OW15454   3.415   3.646   1.795 -0.1790  0.0737 -0.2242
 1273SOL    HW115455   3.381   3.575   1.739 -1.9651 -0.8931  2.1026
 1273SOL    HW215456   3.497   3.669   1.750  0.0076 -1.8491 -0.8776
 1274SOL     OW15457   0.529   4.001   3.666  0.6630  0.2895  0.2765
 1274SOL    HW115458   0.532   3.937   3.737 -1.0249  0.2911  0.3589
 1274SOL    HW215459   0.541   3.946   3.589 -0.9223 -0.1110  0.3252
 1275SOL     OW15460   1.038   1.279   4.787  0.0300  0.5888 -0.0272
 1275SOL    HW115461   1.069   1.192   4.812 -0.6301  0.4656  0.3786
 1275SOL    HW215462   1.086   1.287   4.705  0.4067 -2.9109 -0.1619
 1276SOL     OW15463   4.151   1.303   2.590 -0.7998  0.1403 -0.2665
 1276SOL    HW115464   4.225   1.270   2.640 -0.8994  2.2243  1.3009
 1276SOL    HW215465   4.072   1.262   2.625  0.1834 -0.2490  1.5134
 1277SOL     OW15466   2.637   3.858   3.813  0.2626 -0.3521 -0.1892
 1277SOL    HW115467   2.608   3.925   3.874  1.9461 -1.3748  1.7394
 1277SOL    HW215468   2.701   3.905   3.760 -0.4071 -0.5176 -1.1366
 1278SOL     OW15469   3.404   1.111   2.133 -0.5897 -0.4840  0.3196
 1278SOL    HW115470   3.420   1.197   2.093 -2.4499 -0.9897 -1.5382
 1278SOL    HW215471   3.429   1.048   2.065  1.2013 -0.1240  0.6422
 1279SOL     OW15472   1.999   1.237   3.139  0.5092  0.3547  0.8249
 1279SOL    HW115473   2.090   1.266   3.131  0.9452 -1.4117 -0.5636
 1279SOL    HW215474   2.024   1.174   3.207 -0.9131 -1.1699 -0.1001
 1280SOL     OW15475   1.257   3.324  10.199 -1.0758  0.0731  0.0166
 1280SOL    HW115476   1.286   3.237  10.171  0.9165 -0.0970  2.5752
 1280SOL    HW215477   1.210   3.363  10.126  1.4215  3.1767  0.1117
 1281SOL     OW15478   0.524   0.928   6.596 -0.2070 -0.4136 -0.5662
 1281SOL    HW115479   0.584   0.993   6.633 -2.4299 -0.2586  2.7388
 1281SOL    HW215480   0.444   0.979   6.607  0.0786 -0.2332  0.6179
 1282SOL     OW15481   3.344   1.553  12.006  0.5144 -0.2130 -0.2525
 1282SOL    HW115482   3.392   1.506  11.938 -0.2015 -2.8569  1.0578
 1282SOL    HW215483   3.280   1.487  12.034  0.9622  0.0910  1.4858
 1283SOL     OW15484   0.859   1.982  14.581 -0.0410 -0.3117  0.1591
 1283SOL    HW115485   0.870   2.032  14.661  2.8105 -2.6930  1.2708
 1283SOL    HW215486   0.808   1.913  14.624  0.3001  0.4413  1.7630
 1284SOL     OW15487   3.945   2.642   5.633  0.1288  0.0118  0.0169
 1284SOL    HW115488   4.021   2.638   5.690  0.6761 -2.2740 -0.8816
 1284SOL    HW215489   3.871   2.602   5.680  0.2983 -0.5576 -0.2012
 1285SOL     OW15490   3.970   0.387  14.470 -0.3156 -0.4082 -0.5134
 1285SOL    HW115491   3.976   0.322  14.540  2.1555 -1.1635 -1.4497
 1285SOL    HW215492   3.876   0.377  14.453 -0.7689  3.7019 -0.4440
 1286SOL     OW15493   3.447   0.638  10.358  0.1919  0.5052 -0.0454
 1286SOL    HW115494   3.493   0.693  10.295  1.1031 -2.9355 -2.3364
 1286SOL    HW215495   3.511   0.567  10.361 -0.8547 -0.4047  0.5157
 1287SOL     OW15496   4.208   3.391   7.732  0.1441  0.3417  0.1720
 1287SOL    HW115497   4.191   3.307   7.689 -0.3195 -0.4795  1.9563
 1287SOL    HW215498   4.214   3.381   7.827 -1.0446 -2.2377 -0.0254
 1288SOL     OW15499   1.143   2.694   1.244  0.1578  0.1463 -0.1863
 1288SOL    HW115500   1.224   2.649   1.218  0.7136  0.1065  1.6570
 1288SOL    HW215501   1.160   2.783   1.214 -0.2372 -1.4220 -5.1625
 1289SOL     OW15502   2.286   3.912   8.517  0.6149 -0.1841  0.2082
 1289SOL    HW115503   2.311   3.994   8.475  1.9117 -1.2635 -1.1030
 1289SOL    HW215504   2.334   3.847   8.467 -0.9443 -1.4009  0.2850
 1290SOL     OW15505   4.339   4.080   9.427  0.0962 -0.0553 -0.3313
 1290SOL    HW115506   4.274   4.010   9.436 -0.5990  0.7143  0.7384
 1290SOL    HW215507   4.349   4.089   9.332  1.7226 -0.1268 -0.1657
 1291SOL     OW15508   3.764   4.100   3.486  0.2227 -0.2906  0.4545
 1291SOL    HW115509   3.726   4.043   3.419  0.8314  0.1114 -0.2362
 1291SOL    HW215510   3.818   4.162   3.437 -1.0243 -0.3120 -0.9366
 1292SOL     OW15511   0.196   3.076  10.824 -0.0629 -0.0885  0.0923
 1292SOL    HW115512   0.205   3.136  10.750 -0.0873 -3.3032 -2.5594
 1292SOL    HW215513   0.255   3.115  10.888 -0.7593  0.8935  0.1343
 1293SOL     OW15514   1.500   0.689  10.861 -0.5437 -0.1171  0.8205
 1293SOL    HW115515   1.556   0.612  10.859  0.6280  0.8182 -1.2193
 1293SOL    HW215516   1.414   0.655  10.836  0.0777  1.9769 -4.0756
 1294SOL     OW15517   1.291   0.190   0.827  0.3971 -0.1345  0.1287
 1294SOL    HW115518   1.234   0.267   0.826 -1.3752 -1.4686 -2.0818
 1294SOL    HW215519   1.375   0.235   0.838  0.9401 -1.2692  0.6714
 1295SOL     OW15520   4.506   4.141  15.863 -0.0683 -0.0730  0.2771
 1295SOL    HW115521   4.487   4.188  15.944  0.1252 -2.0013  1.4426
 1295SOL    HW215522   4.515   4.053  15.900 -0.2494  0.0050  0.5071
 1296SOL     OW15523   2.500   0.623   7.668 -0.4093 -0.5046 -0.1425
 1296SOL    HW115524   2.564   0.623   7.597 -1.1760  0.6964 -0.8378
 1296SOL    HW215525   2.544   0.663   7.743  0.4416  0.0518 -0.9356
 1297SOL     OW15526   2.082   0.286   6.942  1.1888  0.3339  0.1633
 1297SOL    HW115527   2.006   0.344   6.931  0.1195 -0.8718  1.1956
 1297SOL    HW215528   2.121   0.320   7.022  0.4600 -0.3621  0.8068
 1298SOL     OW15529   2.342   1.806   8.376 -0.2518  0.1943 -0.3309
 1298SOL    HW115530   2.279   1.739   8.350  0.4965 -0.9322  0.7700
 1298SOL    HW215531   2.304   1.843   8.456  3.0429 -0.6402  1.5960
 1299SOL     OW15532   2.483   4.060   8.041 -0.4759 -0.1820  0.0947
 1299SOL    HW115533   2.570   4.023   8.023 -0.4764  0.3721 -1.0483
 1299SOL    HW215534   2.474   4.048   8.136 -0.6223 -1.5940 -0.1024
 1300SOL     OW15535   3.238   3.302   9.547 -0.2055  0.0643  0.4667
 1300SOL    HW115536   3.186   3.379   9.524 -0.7898 -0.2038  0.8828
 1300SOL    HW215537   3.316   3.323   9.496  0.5253  1.5504  2.1690
 1301SOL     OW15538   2.783   0.890  13.981  0.4332 -0.2874 -0.0147
 1301SOL    HW115539   2.706   0.849  14.021  0.3214 -0.0254  0.0378
 1301SOL    HW215540   2.758   0.981  13.995 -0.8309 -0.7233  0.6154
 1302SOL     OW15541   4.266   1.228   6.831  0.6361  0.5131 -0.0587
 1302SOL    HW115542   4.333   1.289   6.860  0.8159  0.4619 -0.3648
 1302SOL    HW215543   4.313   1.149   6.857  1.4450  0.7603 -0.7752
 1303SOL     OW15544   3.373   1.988   8.921  0.2491  0.5369 -0.0328
 1303SOL    HW115545   3.375   1.928   8.847  3.6099  0.1170  0.3803
 1303SOL    HW215546   3.387   1.935   9.000 -0.1461 -0.2269 -0.4823
 1304SOL     OW15547   0.871   1.938  15.735  0.2788  0.6160  0.3547
 1304SOL    HW115548   0.792   1.948  15.683  0.5224 -0.9077 -0.3118
 1304SOL    HW215549   0.829   1.914  15.818  1.3541  1.2186  1.0852
 1305SOL     OW15550   1.147   0.166   6.452  0.1644  0.4405 -0.2379
 1305SOL    HW115551   1.084   0.125   6.393  0.0835  0.5159 -0.2047
 1305SOL    HW215552   1.201   0.092   6.480  0.1363  0.3074 -0.5479
 1306SOL     OW15553   4.378   2.109   6.315  0.3795  0.2437 -0.0696
 1306SOL    HW115554   4.337   2.151   6.391  1.6251  1.5159 -0.1076
 1306SOL    HW215555   4.334   2.024   6.323 -0.8562  0.9393  0.4563
 1307SOL     OW15556   0.832   4.185   7.699 -0.0306 -0.3681  0.2204
 1307SOL    HW115557   0.805   4.252   7.762 -2.8287 -0.7375 -0.6056
 1307SOL    HW215558   0.927   4.193   7.708  0.0931 -1.0970 -0.4061
 1308SOL     OW15559   4.185   3.258   8.625  0.2193 -0.1069 -0.0390
 1308SOL    HW115560   4.183   3.328   8.691  2.8558  0.8820 -1.0118
 1308SOL    HW215561   4.278   3.251   8.602  0.3035  3.1400 -0.6569
 1309SOL     OW15562   1.295   3.305   4.859 -0.1045 -0.2626 -0.1798
 1309SOL    HW115563   1.313   3.272   4.947  2.4129 -0.0567 -0.6271
 1309SOL    HW215564   1.286   3.221   4.814  0.5005 -0.9249  0.9325
 1310SOL     OW15565   0.695   1.064   3.090 -0.1457 -0.2593  0.4986
 1310SOL    HW115566   0.752   1.117   3.034  2.1077 -0.1036  2.9556
 1310SOL    HW215567   0.752   1.063   3.166  1.0858 -1.4033 -0.4414
 1311SOL     OW15568   1.930   3.498   5.107 -0.4738  0.2419  0.9076
 1311SOL    HW115569   2.023   3.517   5.102 -0.6498  0.8924 -0.0667
 1311SOL    HW215570   1.927   3.489   5.202 -3.3559  1.6131  0.9630
 1312SOL     OW15571   2.336   4.732   6.758  0.6135  0.5917  0.1148
 1312SOL    HW115572   2.312   0.087   6.755  1.5520  0.8692  0.9466
 1312SOL    HW215573   2.265   4.684   6.715  3.8195 -1.2016 -3.2306
 1313SOL     OW15574   3.199   4.318   4.220 -0.1611  0.2084  0.2211
 1313SOL    HW115575   3.236   4.398   4.257  0.3384 -0.4106  1.0554
 1313SOL    HW215576   3.184   4.354   4.133 -2.6169  0.3285  0.6865
 1314SOL     OW15577   0.394   4.189   7.463 -0.4101  0.3817  0.1186
 1314SOL    HW115578   0.442   4.169   7.543 -0.9426 -2.2240 -0.2245
 1314SOL    HW215579   0.311   4.224   7.496 -0.5008 -0.5307  0.8612
 1315SOL     OW15580   3.855   3.929  11.177 -0.0290  0.4800 -0.0453
 1315SOL    HW115581   3.828   3.948  11.266 -0.1214  0.7342 -0.1264
 1315SOL    HW215582   3.844   3.834  11.175 -3.1828  0.8140  1.2331
 1316SOL     OW15583   3.154   0.196   3.580 -0.2807 -0.3341  0.6998
 1316SOL    HW115584   3.227   0.148   3.541  0.3183  1.4668 -0.3947
 1316SOL    HW215585   3.180   0.283   3.549  1.1271 -0.7722  0.6593
 1317SOL     OW15586   2.070   2.496   0.668 -1.1014  0.0191  0.3630
 1317SOL    HW115587   2.113   2.576   0.699  1.0475 -1.0603  0.2245
 1317SOL    HW215588   1.986   2.486   0.713 -0.7009 -0.0943  1.1021
 1318SOL     OW15589   1.813   2.536   3.240 -0.3111  0.2545  0.5180
 1318SOL    HW115590   1.736   2.495   3.201 -0.7445  0.8484  0.7551
 1318SOL    HW215591   1.776   2.588   3.311 -2.8291  1.4086 -1.6531
 1319SOL     OW15592   2.125   1.228   5.934  0.0907 -0.1151 -0.0491
 1319SOL    HW115593   2.105   1.237   6.027  0.2463  0.4495 -0.0743
 1319SOL    HW215594   2.220   1.216   5.940  0.5124  2.8093 -1.1765
 1320SOL     OW15595   0.326   3.639   3.861  0.4619 -0.7427  0.3856
 1320SOL    HW115596   0.414   3.608   3.882  0.5240  0.4171  1.7969
 1320SOL    HW215597   0.325   3.633   3.765 -0.0291 -0.2018  0.3617
 1321SOL     OW15598   3.242   3.666  17.579 -0.6165 -0.1730  0.2756
 1321SOL    HW115599   3.305   3.704  17.640 -0.3517  2.0401 -1.3840
 1321SOL    HW215600   3.292   3.588  17.556  0.7873  0.0828  2.4621
 1322SOL     OW15601   0.242   2.134   4.603  0.2960  0.2502 -0.3574
 1322SOL    HW115602   0.240   2.115   4.697  0.5754  0.7805 -0.2436
 1322SOL    HW215603   0.261   2.228   4.594 -1.6733  0.5992 -0.9010
 1323SOL     OW15604   2.545   0.756   3.990 -0.5509  0.4458 -0.9666
 1323SOL    HW115605   2.558   0.845   4.021 -0.0351 -0.0808  0.3266
 1323SOL    HW215606   2.471   0.730   4.045  0.9054  0.1210  0.8422
 1324SOL     OW15607   3.276   4.031   4.253  0.5278 -0.4933 -0.2360
 1324SOL    HW115608   3.295   3.993   4.167 -1.1428  0.5615 -1.0636
 1324SOL    HW215609   3.257   4.122   4.232 -1.6251 -1.1329 -1.0473
 1325SOL     OW15610   2.891   0.580   4.160 -0.4852 -0.0415  0.4615
 1325SOL    HW115611   2.858   0.669   4.169 -0.5710 -0.0495  0.2209
 1325SOL    HW215612   2.816   0.542   4.113 -1.8674  1.2739  1.6291
 1326SOL     OW15613   4.038   1.746   9.688 -0.6990  0.2492 -0.9507
 1326SOL    HW115614   4.104   1.806   9.724 -0.1369 -1.2053  0.4343
 1326SOL    HW215615   4.086   1.674   9.647  1.5363  1.8918 -1.1909
 1327SOL     OW15616   0.696   0.141   1.180  0.2066  0.0661 -0.4579
 1327SOL    HW115617   0.696   0.088   1.259 -1.6434  3.8629  2.1091
 1327SOL    HW215618   0.606   0.174   1.177 -0.2424 -1.1662 -0.5111
 1328SOL     OW15619   4.245   1.015   4.260  0.6153 -0.4558  0.1280
 1328SOL    HW115620   4.325   0.996   4.310 -0.7808  0.1098  2.5943
 1328SOL    HW215621   4.266   1.097   4.215 -0.0437 -1.5647 -2.1641
 1329SOL     OW15622   4.104   4.537  15.151 -0.2404  0.0282 -0.5693
 1329SOL    HW115623   4.036   4.491  15.101 -1.2547  0.7567  0.1479
 1329SOL    HW215624   4.067   4.562  15.236 -1.5010  0.5456 -1.2590
 1330SOL     OW15625   1.186   0.146  11.446 -0.2268  0.1843 -0.1617
 1330SOL    HW115626   1.176   0.066  11.498  0.6119 -0.1273 -0.4872
 1330SOL    HW215627   1.142   0.215  11.496 -1.2239 -1.4332  1.1968
 1331SOL     OW15628   3.105   0.497   4.835 -0.3080 -0.0702 -0.3011
 1331SOL    HW115629   3.193   0.458   4.837 -0.2161  0.1196 -0.8057
 1331SOL    HW215630   3.060   0.416   4.811  0.9425 -0.4378 -1.4146
 1332SOL     OW15631   2.849   4.614  16.492  0.1759 -0.5928 -0.5475
 1332SOL    HW115632   2.768   4.665  16.493  1.6636  1.6692  2.9836
 1332SOL    HW215633   2.902   4.693  16.491 -1.5710  0.5824 -0.7659
 1333SOL     OW15634   3.991   3.641   7.659  0.0372 -0.2527 -0.2994
 1333SOL    HW115635   3.997   3.643   7.754  0.6487  2.1275 -0.3923
 1333SOL    HW215636   4.031   3.556   7.643 -0.8593 -0.5824 -0.8010
 1334SOL     OW15637   1.316   0.740   8.743 -0.6808  0.1714 -0.6745
 1334SOL    HW115638   1.399   0.697   8.763 -0.1812  1.6083  0.3198
 1334SOL    HW215639   1.342   0.815   8.689  0.1382 -1.3806 -2.4184
 1335SOL     OW15640   1.799   3.101   2.492  0.4598  0.7005  0.3731
 1335SOL    HW115641   1.705   3.112   2.507  0.5067  2.4658 -0.5319
 1335SOL    HW215642   1.822   3.151   2.571 -1.2174  0.3698  1.0643
 1336SOL     OW15643   2.233   0.733   1.618 -0.2714 -0.0191 -0.1061
 1336SOL    HW115644   2.167   0.734   1.549  1.2071 -0.5338 -1.5250
 1336SOL    HW215645   2.284   0.813   1.606 -1.5468  0.4250 -2.5063
 1337SOL     OW15646   3.166   0.833   8.354  0.1272 -0.0764 -0.4482
 1337SOL    HW115647   3.225   0.880   8.294  1.1431  1.0130  1.4105
 1337SOL    HW215648   3.081   0.873   8.336 -1.4630 -2.9250  0.8219
 1338SOL     OW15649   2.257   1.435   8.404  0.0878  0.2108  0.6634
 1338SOL    HW115650   2.202   1.464   8.332 -1.0231 -1.4602  0.8508
 1338SOL    HW215651   2.207   1.472   8.477  2.0317  0.9998  1.5954
 1339SOL     OW15652   0.543   3.603   6.595  0.4606  0.1097 -0.4664
 1339SOL    HW115653   0.545   3.654   6.677  1.4078 -1.7361  0.6538
 1339SOL    HW215654   0.479   3.534   6.610  0.4807 -0.0426 -1.0946
 1340SOL     OW15655   0.218   2.528   6.273  0.4959  0.3566  0.3019
 1340SOL    HW115656   0.259   2.586   6.337 -1.1599  0.2441  1.4587
 1340SOL    HW215657   0.129   2.562   6.263 -0.2339 -1.0570  2.1108
 1341SOL     OW15658   0.896   4.108   2.424 -0.0838  0.5748 -0.5467
 1341SOL    HW115659   0.892   4.036   2.362  0.0748  2.5398 -2.8605
 1341SOL    HW215660   0.990   4.102   2.436 -0.4470 -1.3349  1.4071
 1342SOL     OW15661   3.079   4.390   8.036 -0.1227 -0.3641  0.0424
 1342SOL    HW115662   3.007   4.437   8.078 -0.2528 -0.0295 -0.5517
 1342SOL    HW215663   3.114   4.459   7.979  1.5966 -0.4094  1.0382
 1343SOL     OW15664   1.481   2.117   8.779  0.1673  0.2232 -0.0314
 1343SOL    HW115665   1.465   2.182   8.712 -0.3086 -0.6622 -0.7814
 1343SOL    HW215666   1.448   2.032   8.748 -2.9028  0.7668  1.8326
 1344SOL     OW15667   1.641   0.114   0.792 -0.0400  0.1636  0.0477
 1344SOL    HW115668   1.731   0.142   0.779 -0.4674  2.6339  2.4377
 1344SOL    HW215669   1.595   0.196   0.773 -0.8024 -0.3712 -0.4431
 1345SOL     OW15670   3.649   0.404   7.951 -0.4511  0.1739  0.4233
 1345SOL    HW115671   3.564   0.433   7.986  0.1170  1.9313  0.3843
 1345SOL    HW215672   3.647   0.442   7.863  0.6278 -0.7209  0.0195
 1346SOL     OW15673   0.887   1.162   2.402 -0.0269  0.2239  0.3828
 1346SOL    HW115674   0.804   1.197   2.435 -0.0313  0.5730 -0.0051
 1346SOL    HW215675   0.878   1.180   2.309 -0.2954  1.1320  0.5848
 1347SOL     OW15676   0.409   0.857  11.417 -0.0845 -0.2542 -0.2518
 1347SOL    HW115677   0.405   0.932  11.477 -0.8255  0.0911 -0.7397
 1347SOL    HW215678   0.489   0.886  11.373  0.4529  0.1554  1.0096
 1348SOL     OW15679   4.341   1.922   8.309  0.0505  0.4438  0.4102
 1348SOL    HW115680   4.330   1.864   8.384 -1.7499  3.3490  2.4006
 1348SOL    HW215681   4.274   1.988   8.330  1.7311  2.1860  0.3094
 1349SOL     OW15682   1.872   4.456   3.275  0.3014 -0.1046 -0.2780
 1349SOL    HW115683   1.880   4.363   3.295  2.9789  0.4671  1.2108
 1349SOL    HW215684   1.960   4.486   3.295 -0.0374  0.8983 -0.3050
 1350SOL     OW15685   3.983   1.013   7.860 -0.3387  0.0693 -0.3108
 1350SOL    HW115686   3.934   1.033   7.940  0.4094  0.5312  0.0238
 1350SOL    HW215687   3.942   0.927   7.845  1.2740 -0.5739 -1.0202
 1351SOL     OW15688   3.251   0.897  10.331 -0.0613 -0.1246  0.1890
 1351SOL    HW115689   3.292   0.842  10.398 -1.2773 -0.6275  0.5253
 1351SOL    HW215690   3.170   0.847  10.324 -0.2257  0.4073 -1.5834
 1352SOL     OW15691   3.904   2.051   3.816  0.0862 -0.1802 -0.5625
 1352SOL    HW115692   3.827   2.039   3.871  2.3017 -0.9026  2.4222
 1352SOL    HW215693   3.905   2.147   3.808 -0.6879 -0.1808 -0.6725
 1353SOL     OW15694   3.020   4.164   3.979 -0.1736 -0.0966 -0.1307
 1353SOL    HW115695   3.088   4.168   3.912  1.6090 -1.6152  1.6007
 1353SOL    HW215696   2.974   4.248   3.968  1.0943  0.7552  1.0464
 1354SOL     OW15697   3.844   1.921  15.625  0.4043 -0.2818 -0.6294
 1354SOL    HW115698   3.815   2.012  15.632 -2.0684 -1.0868 -0.3259
 1354SOL    HW215699   3.917   1.924  15.687 -0.7105 -0.8180  0.7161
 1355SOL     OW15700   2.911   3.928  12.397 -0.1617 -0.2878  0.3870
 1355SOL    HW115701   2.908   4.009  12.345  0.8000  0.5512  1.6582
 1355SOL    HW215702   2.903   3.953  12.489  0.1590  0.4805  0.2016
 1356SOL     OW15703   2.151   2.771  16.344 -0.2239  0.2147 -0.7110
 1356SOL    HW115704   2.166   2.850  16.293  0.9869  0.0967 -0.5393
 1356SOL    HW215705   2.113   2.805  16.425  0.7236  0.4623 -0.3716
 1357SOL     OW15706   4.227   0.887   7.132  0.1505 -0.3810 -0.0922
 1357SOL    HW115707   4.157   0.950   7.148 -1.9862 -2.3264 -1.7688
 1357SOL    HW215708   4.205   0.812   7.189  1.4545 -0.2708  0.5672
 1358SOL     OW15709   2.000   3.271   4.862 -0.4944  0.1228  0.1874
 1358SOL    HW115710   1.985   3.308   4.949  1.4817 -0.7106  0.8914
 1358SOL    HW215711   2.079   3.221   4.881 -0.8275 -0.9183 -1.1815
 1359SOL     OW15712   3.787   2.622   7.186 -0.2033 -1.1389  0.2580
 1359SOL    HW115713   3.813   2.533   7.160 -0.3829 -0.7476 -1.2734
 1359SOL    HW215714   3.692   2.609   7.176  0.0463 -2.8891  0.1112
 1360SOL     OW15715   0.031   4.058   7.963 -0.0931 -0.0576 -0.2944
 1360SOL    HW115716   4.682   4.075   8.001 -0.7218 -0.1744 -1.6990
 1360SOL    HW215717   0.054   4.147   7.936  3.1062  0.1031  2.8455
 1361SOL     OW15718   1.861   0.891  12.209  0.4515 -0.4559 -0.0770
 1361SOL    HW115719   1.952   0.897  12.239  0.1696  0.8919  0.5518
 1361SOL    HW215720   1.854   0.808  12.164 -0.1402 -0.9943  1.0160
 1362SOL     OW15721   1.834   1.510   5.509 -0.4073 -0.2592  0.1396
 1362SOL    HW115722   1.802   1.580   5.451 -0.0158 -0.3436 -0.1805
 1362SOL    HW215723   1.923   1.541   5.530 -0.0638 -1.2543  0.1410
 1363SOL     OW15724   0.886   1.730   9.973  0.4216 -0.1387 -0.2910
 1363SOL    HW115725   0.816   1.688  10.023 -1.1450 -0.9629 -3.1464
 1363SOL    HW215726   0.923   1.779  10.046  0.1443 -1.1102  0.5026
 1364SOL     OW15727   1.688   0.714   8.156 -0.1703 -0.7644  0.4495
 1364SOL    HW115728   1.658   0.781   8.094  0.1587  0.6440  1.8240
 1364SOL    HW215729   1.617   0.713   8.220 -0.0193  1.1388  0.6491
 1365SOL     OW15730   3.441   2.182   8.647  0.3522  0.2757  0.0178
 1365SOL    HW115731   3.368   2.223   8.601 -0.1317  1.0760  1.5194
 1365SOL    HW215732   3.433   2.087   8.637  0.3373  0.4928 -2.0482
 1366SOL     OW15733   0.247   2.993   5.403 -0.0664 -0.2009  0.0983
 1366SOL    HW115734   0.333   3.034   5.395 -0.0758 -0.1934  0.0382
 1366SOL    HW215735   0.199   3.067   5.441  0.5247  1.3122 -2.1259
 1367SOL     OW15736   1.422   4.125   0.762 -0.3245 -0.7824  0.3288
 1367SOL    HW115737   1.481   4.199   0.747 -0.8013 -0.7568 -1.3504
 1367SOL    HW215738   1.444   4.088   0.848  0.9043 -0.3766  0.1919
 1368SOL     OW15739   4.350   0.528   6.040  0.6014 -0.1462 -0.3224
 1368SOL    HW115740   4.262   0.544   6.074 -0.4371 -2.1879 -2.0363
 1368SOL    HW215741   4.376   0.618   6.023  2.2898 -0.2251  1.8033
 1369SOL     OW15742   3.723   4.057  14.220  0.4045  0.3193 -0.0624
 1369SOL    HW115743   3.734   3.974  14.268  0.7067 -0.2758 -1.1636
 1369SOL    HW215744   3.699   4.023  14.134 -0.6876 -1.8318  1.0984
 1370SOL     OW15745   0.636   3.672   3.644 -0.0502 -0.0378  0.4866
 1370SOL    HW115746   0.584   3.600   3.609  0.6431 -0.0312 -0.5447
 1370SOL    HW215747   0.617   3.653   3.736 -0.1086  2.1231  0.9272
 1371SOL     OW15748   1.918   1.620   0.674  0.1993  0.1128  0.1193
 1371SOL    HW115749   1.885   1.540   0.632  2.4626 -1.5073  1.4608
 1371SOL    HW215750   2.010   1.597   0.682  0.2266  0.2304  0.1426
 1372SOL     OW15751   0.200   3.018   5.852 -0.1910  0.2937  0.5944
 1372SOL    HW115752   0.178   2.968   5.774  0.4901  0.5370  0.2443
 1372SOL    HW215753   0.189   2.950   5.919  1.8757  0.1515  0.7970
 1373SOL     OW15754   3.502   0.733   8.150 -0.5520 -0.2504  0.2998
 1373SOL    HW115755   3.460   0.648   8.156  0.2402 -0.7520 -1.2093
 1373SOL    HW215756   3.532   0.736   8.241 -0.9796  0.2026  0.4291
 1374SOL     OW15757   3.404   0.306   8.517 -0.1208  0.0983  0.3504
 1374SOL    HW115758   3.457   0.231   8.543  0.5941 -0.2476 -2.0207
 1374SOL    HW215759   3.318   0.274   8.491 -0.2680  0.9799 -0.2667
 1375SOL     OW15760   4.637   2.803   9.488 -0.2765  0.6202  0.1913
 1375SOL    HW115761   4.700   2.801   9.416  0.1177  0.9150  0.5266
 1375SOL    HW215762   4.697   2.771   9.556 -0.8558 -1.4905 -0.3130
 1376SOL     OW15763   4.486   0.598   2.285 -0.0021 -0.1409  0.3069
 1376SOL    HW115764   4.522   0.604   2.196  1.9251 -0.9576  1.0327
 1376SOL    HW215765   4.402   0.555   2.266 -0.3871  0.3715  0.8432
 1377SOL     OW15766   0.745   3.017  13.121  0.2989  0.2769 -0.6009
 1377SOL    HW115767   0.787   3.067  13.051 -3.7811  0.2197 -3.0609
 1377SOL    HW215768   0.669   3.070  13.145  0.9776  1.6984 -1.5904
 1378SOL     OW15769   4.724   1.019   4.382  0.1372 -0.1254 -0.0884
 1378SOL    HW115770   0.048   0.949   4.406  0.9407  0.2647 -0.9972
 1378SOL    HW215771   0.047   1.077   4.336  0.3558 -2.7270 -3.1186
 1379SOL     OW15772   2.781   1.934   7.974 -0.1649  0.0398  0.4457
 1379SOL    HW115773   2.690   1.923   7.945 -0.8310  1.3824  1.9966
 1379SOL    HW215774   2.792   1.884   8.055  0.0374 -1.0346 -0.2453
 1380SOL     OW15775   4.590   0.550  16.543 -0.4389 -0.0811 -0.0344
 1380SOL    HW115776   4.680   0.580  16.559 -1.0241  0.6033  2.0419
 1380SOL    HW215777   4.539   0.630  16.529  0.8058  0.6899 -0.1584
 1381SOL     OW15778   1.407   2.914   9.268  0.2696 -1.1357 -0.2436
 1381SOL    HW115779   1.440   2.988   9.319  0.0659 -0.8362 -0.5511
 1381SOL    HW215780   1.483   2.864   9.239  1.9667  1.6196 -0.5078
 1382SOL     OW15781   0.411   0.381  15.296 -0.3443  0.3995  0.0654
 1382SOL    HW115782   0.331   0.367  15.346  1.0798  0.7592  2.4215
 1382SOL    HW215783   0.396   0.336  15.213  1.9651 -0.0621 -0.0932
 1383SOL     OW15784   0.806   4.013   4.735  0.4679 -0.2795 -0.0372
 1383SOL    HW115785   0.827   3.923   4.708 -4.7872 -1.2961 -0.6853
 1383SOL    HW215786   0.752   4.037   4.660 -1.3540 -1.9281  0.7461
 1384SOL     OW15787   4.737   3.368  14.407  0.3725 -0.0548 -0.3418
 1384SOL    HW115788   0.078   3.397  14.360  1.2731  1.7163  2.2370
 1384SOL    HW215789   0.045   3.350  14.489  1.2409 -0.6521 -0.9536
 1385SOL     OW15790   4.316   3.693   4.157  0.3311 -0.4200 -0.9022
 1385SOL    HW115791   4.244   3.706   4.096  0.1463 -2.6439 -1.1895
 1385SOL    HW215792   4.388   3.695   4.095  1.4586  2.0983  0.4923
 1386SOL     OW15793   0.767   1.814   2.313  0.0587  0.2247 -0.3345
 1386SOL    HW115794   0.789   1.722   2.302 -0.1824  0.3081 -1.5291
 1386SOL    HW215795   0.783   1.830   2.406  0.4362  2.3635 -0.7611
 1387SOL     OW15796   3.286   3.753   8.760  0.5939 -0.0894 -1.0401
 1387SOL    HW115797   3.301   3.746   8.666  2.9626  1.1116 -0.7611
 1387SOL    HW215798   3.332   3.833   8.787 -0.2848  0.4982 -1.2552
 1388SOL     OW15799   4.181   4.203   3.272  0.7637  0.0975  0.2808
 1388SOL    HW115800   4.118   4.208   3.201 -0.0725 -0.3783  0.9798
 1388SOL    HW215801   4.159   4.284   3.317  1.1886  0.6525 -0.5262
 1389SOL     OW15802   1.023   4.350  15.837 -0.3284 -0.1300  0.0690
 1389SOL    HW115803   1.112   4.313  15.839 -0.4208 -0.3357  0.3567
 1389SOL    HW215804   0.999   4.371  15.927  1.5762  3.8184 -0.3343
 1390SOL     OW15805   1.605   2.766   2.786  0.5030  0.0784  0.2462
 1390SOL    HW115806   1.589   2.713   2.865  1.0703  1.1376  1.0709
 1390SOL    HW215807   1.595   2.848   2.834 -1.4624 -1.4069  2.3919
 1391SOL     OW15808   0.421   2.520   6.831 -0.3395  0.0405 -0.1096
 1391SOL    HW115809   0.345   2.464   6.812 -0.1847 -0.5593  0.9986
 1391SOL    HW215810   0.447   2.474   6.911 -2.7992  0.8490  1.1670
 1392SOL     OW15811   2.943   2.194   8.015 -0.0575 -0.1133 -0.1908
 1392SOL    HW115812   2.929   2.109   8.056 -0.5834  0.0216 -0.0896
 1392SOL    HW215813   2.857   2.234   8.032 -0.3770  0.0910 -2.1912
 1393SOL     OW15814   2.869   1.564   5.696  0.2358  0.2675 -0.0969
 1393SOL    HW115815   2.888   1.538   5.606 -1.2587  0.2252 -0.3950
 1393SOL    HW215816   2.782   1.603   5.689 -0.4167 -1.4299 -1.3147
 1394SOL     OW15817   3.196   1.814  17.501 -0.1438  0.2343 -0.5089
 1394SOL    HW115818   3.174   1.881  17.436  0.4483 -1.1946 -2.1602
 1394SOL    HW215819   3.206   1.734  17.451  1.3869 -1.3998  2.4044
 1395SOL     OW15820   2.007   3.919   5.953  0.5844  0.7768  0.7477
 1395SOL    HW115821   1.999   4.015   5.957  0.5992  0.9603 -3.6400
 1395SOL    HW215822   2.041   3.892   6.038 -0.9757 -0.3782  1.0087
 1396SOL     OW15823   3.119   4.282   2.748 -0.5060  0.0719 -0.3025
 1396SOL    HW115824   3.116   4.349   2.815 -2.3340  1.4625 -1.7589
 1396SOL    HW215825   3.205   4.243   2.757 -0.3599  0.8005  1.3366
 1397SOL     OW15826   2.863   2.520   8.727  0.0021 -0.3049 -0.0977
 1397SOL    HW115827   2.859   2.576   8.649 -2.2517 -0.1588  0.1202
 1397SOL    HW215828   2.941   2.468   8.710 -1.5465 -2.9244  0.8219
 1398SOL     OW15829   1.289   0.909   6.196  0.0689 -0.0741  0.5852
 1398SOL    HW115830   1.284   0.900   6.291 -2.7736  1.1361  0.5708
 1398SOL    HW215831   1.352   0.979   6.180 -1.4917  0.8669 -1.4839
 1399SOL     OW15832   3.776   1.191   5.905  0.3500  0.3672  0.1426
 1399SOL    HW115833   3.778   1.236   5.989 -0.6738  0.9082 -0.1170
 1399SOL    HW215834   3.869   1.196   5.884 -0.3043  2.2384 -2.3360
 1400SOL     OW15835   0.741   0.826   0.789 -0.2264 -0.1878  0.0705
 1400SOL    HW115836   0.663   0.781   0.757 -0.6057  0.7646 -0.3381
 1400SOL    HW215837   0.800   0.750   0.791  1.4541  1.1053  0.0391
 1401SOL     OW15838   3.296   2.709   1.645 -0.1060 -0.2562  0.2304
 1401SOL    HW115839   3.273   2.650   1.717  1.0785  3.2381  3.4469
 1401SOL    HW215840   3.332   2.639   1.591  2.0706  1.4473 -0.5010
 1402SOL     OW15841   2.426   4.636   4.304  0.0230  0.6677 -0.2946
 1402SOL    HW115842   2.428   4.549   4.263 -3.8159  0.3961  0.0586
 1402SOL    HW215843   2.485   4.690   4.252  3.9912  1.2605  4.7973
 1403SOL     OW15844   2.088   4.230   2.699 -0.3466 -0.4126  0.0387
 1403SOL    HW115845   2.177   4.203   2.717  0.0286  2.1256  1.9395
 1403SOL    HW215846   2.058   4.258   2.786 -1.3453  0.4934 -0.5952
 1404SOL     OW15847   2.987   4.284   8.374 -0.2763 -0.4264  0.0659
 1404SOL    HW115848   3.081   4.275   8.389  0.5615  3.1553 -2.9598
 1404SOL    HW215849   2.954   4.245   8.293  2.3306 -0.9270 -0.7244
 1405SOL     OW15850   4.535   1.999   6.917  0.2363 -0.4107 -0.2584
 1405SOL    HW115851   4.570   2.064   6.856 -1.5260  1.7215  1.0056
 1405SOL    HW215852   4.505   2.056   6.987  2.4803 -0.4548  0.7442
 1406SOL     OW15853   3.807   2.614   7.620 -0.3501 -0.9295 -0.2352
 1406SOL    HW115854   3.715   2.611   7.595 -0.3315  0.1478 -0.4258
 1406SOL    HW215855   3.841   2.666   7.547  0.2321  0.5592  1.1240
 1407SOL     OW15856   0.954   2.328   1.430  0.3615 -0.4554  0.1025
 1407SOL    HW115857   1.039   2.358   1.398  0.1129  0.1823  0.0331
 1407SOL    HW215858   0.965   2.233   1.439  0.2622 -0.1845  3.0512
 1408SOL     OW15859   1.565   1.451   3.534 -0.3046 -0.4019  0.1457
 1408SOL    HW115860   1.530   1.537   3.513 -0.1698  0.2276  2.4870
 1408SOL    HW215861   1.630   1.455   3.464  0.9922  0.5787  1.3978
 1409SOL     OW15862   1.941   2.120   3.120 -0.5771  0.0158 -0.3602
 1409SOL    HW115863   1.921   2.174   3.044  0.3581 -0.2503 -0.7875
 1409SOL    HW215864   2.030   2.088   3.103 -0.3256  0.5606 -0.0651
 1410SOL     OW15865   3.879   3.072   8.354 -0.1794 -0.0375  0.5961
 1410SOL    HW115866   3.857   3.159   8.389  2.1042  1.3530 -1.4728
 1410SOL    HW215867   3.974   3.072   8.351 -0.2460  0.7327 -1.0339
 1411SOL     OW15868   3.489   4.703   3.619  0.5161 -0.0362  0.0518
 1411SOL    HW115869   3.493   4.608   3.608 -2.4223 -0.1677  0.1747
 1411SOL    HW215870   3.576   4.728   3.651  1.1447 -0.1169 -1.5797
 1412SOL     OW15871   4.003   4.217  15.207 -0.3199 -0.3605  0.2086
 1412SOL    HW115872   3.978   4.130  15.178 -1.2546  0.0184 -0.1199
 1412SOL    HW215873   3.964   4.268  15.136 -0.1725 -1.0273 -0.3446
 1413SOL     OW15874   2.516   2.889   8.841 -0.8295  0.6758 -0.1744
 1413SOL    HW115875   2.425   2.866   8.823 -0.6507 -1.3332  1.4745
 1413SOL    HW215876   2.496   2.980   8.866  1.5338  0.7453  1.4521
 1414SOL     OW15877   2.119   0.054   7.960 -0.4171 -0.2248  0.1727
 1414SOL    HW115878   2.140   0.001   8.036 -1.4225  0.7051  1.0967
 1414SOL    HW215879   2.188   0.120   7.970 -1.6028  1.4096 -2.1647
 1415SOL     OW15880   2.961   1.219   2.901  0.1221  0.1125 -0.0597
 1415SOL    HW115881   3.050   1.251   2.921  0.0262 -0.1309  0.7598
 1415SOL    HW215882   2.958   1.242   2.808 -1.5743 -0.7039 -0.2048
 1416SOL     OW15883   2.813   2.738   9.870 -0.1751  0.0027 -0.5124
 1416SOL    HW115884   2.765   2.763   9.949  2.3808  0.7331  0.8106
 1416SOL    HW215885   2.895   2.788   9.873 -1.6660  2.3168  1.6780
 1417SOL     OW15886   0.039   3.392   2.631 -0.2964 -1.3092 -0.7463
 1417SOL    HW115887   4.712   3.349   2.687  0.4473 -1.3094  0.1076
 1417SOL    HW215888   4.729   3.474   2.616 -0.4775 -1.0954  0.9664
 1418SOL     OW15889   4.560   3.883   8.127  0.1159 -0.2401 -0.3482
 1418SOL    HW115890   4.623   3.850   8.062 -0.1854  0.9764 -1.2492
 1418SOL    HW215891   4.487   3.917   8.075 -0.5607  0.8705  1.3336
 1419SOL     OW15892   1.011   0.899   8.396  0.3506 -0.3096 -0.0515
 1419SOL    HW115893   1.077   0.832   8.382  0.2426  0.2782 -3.3578
 1419SOL    HW215894   0.944   0.859   8.452  2.1250 -0.2141  2.0974
 1420SOL     OW15895   3.497   3.109  15.002  0.0909  0.4031 -0.0092
 1420SOL    HW115896   3.427   3.146  15.055 -0.6909  0.4657 -1.0918
 1420SOL    HW215897   3.474   3.126  14.911  2.1679  0.4232 -0.5324
 1421SOL     OW15898   2.756   0.744   6.768 -0.1595 -0.7992 -0.1245
 1421SOL    HW115899   2.684   0.774   6.713 -0.1790  0.0452  0.3809
 1421SOL    HW215900   2.725   0.653   6.763 -0.2329 -0.8144  0.6479
 1422SOL     OW15901   3.023   2.699   1.412 -0.4746  0.3250 -0.4669
 1422SOL    HW115902   3.073   2.779   1.430  1.5931 -1.2104  0.5608
 1422SOL    HW215903   2.942   2.724   1.457 -0.4872 -1.3889  0.4796
 1423SOL     OW15904   1.409   0.987   3.862 -0.1250 -0.8168  0.4255
 1423SOL    HW115905   1.391   1.080   3.849  0.4109 -1.3961 -4.2492
 1423SOL    HW215906   1.346   0.945   3.803 -0.9369 -0.4914  1.0568
 1424SOL     OW15907   0.265   1.445   8.938  1.0204  0.1178 -0.1929
 1424SOL    HW115908   0.261   1.400   8.853  0.1035 -1.4116  0.6471
 1424SOL    HW215909   0.208   1.392   8.994 -0.8636  2.2682 -0.0902
 1425SOL     OW15910   0.818   4.307   6.051  0.0351 -0.1732 -0.3779
 1425SOL    HW115911   0.823   4.259   6.133 -2.6407  2.7592  1.5123
 1425SOL    HW215912   0.806   4.235   5.989 -0.3994 -1.7416  1.5472
 1426SOL     OW15913   0.899   1.612   4.416  0.0895 -0.1701  0.1777
 1426SOL    HW115914   0.807   1.591   4.428 -0.5656  1.3187 -2.1853
 1426SOL    HW215915   0.893   1.670   4.340 -0.0107 -0.0155  0.3043
 1427SOL     OW15916   2.781   4.680  13.122 -0.3748 -0.0965  0.0460
 1427SOL    HW115917   2.694   4.680  13.162 -0.6236  1.3714 -0.5082
 1427SOL    HW215918   2.828   4.735  13.184 -0.9478 -1.4857  1.7221
 1428SOL     OW15919   3.439   4.649   4.114 -0.2204  0.4195 -0.1433
 1428SOL    HW115920   3.471   4.724   4.064  1.1657 -0.9350 -1.2948
 1428SOL    HW215921   3.476   4.575   4.065  0.2477  0.9979 -0.6571
 1429SOL     OW15922   0.917   3.761   6.205  0.0529 -0.5354 -0.7409
 1429SOL    HW115923   0.959   3.703   6.141 -0.4611 -2.0569  0.2929
 1429SOL    HW215924   0.872   3.696   6.259  0.4718  0.3371  0.6455
 1430SOL     OW15925   3.473   3.626  16.194 -0.2776  0.1198  0.2293
 1430SOL    HW115926   3.406   3.625  16.125  0.3547  0.0137 -0.3853
 1430SOL    HW215927   3.459   3.708  16.241 -0.0704  0.1999  0.1554
 1431SOL     OW15928   1.184   4.427   9.525 -0.2880 -0.1847  0.0577
 1431SOL    HW115929   1.117   4.369   9.489 -1.0705 -0.4472  1.8923
 1431SOL    HW215930   1.166   4.426   9.619  1.0525  2.3210  0.3239
 1432SOL     OW15931   4.126   2.776   1.682  0.4723  0.1113 -0.4923
 1432SOL    HW115932   4.168   2.860   1.665  0.3229  1.0338  3.6301
 1432SOL    HW215933   4.046   2.798   1.732  1.4803  1.3549  0.5941
 1433SOL     OW15934   4.522   0.420   1.276 -0.0617 -0.2430 -0.7674
 1433SOL    HW115935   4.488   0.467   1.352  1.9970  1.3198 -0.7882
 1433SOL    HW215936   4.591   0.374   1.324 -1.6275  0.2304  1.9303
 1434SOL     OW15937   1.720   3.947   0.894 -0.7102 -0.0819 -0.2503
 1434SOL    HW115938   1.679   4.031   0.916 -4.0746 -1.8336  0.2551
 1434SOL    HW215939   1.685   3.892   0.965  1.7092  0.4307  1.3364
 1435SOL     OW15940   1.297   2.491   1.075 -0.0386  0.5862  0.1949
 1435SOL    HW115941   1.265   2.528   0.993 -1.1686  1.4576  1.0320
 1435SOL    HW215942   1.391   2.509   1.076  0.6913 -2.9932 -0.4133
 1436SOL     OW15943   2.798   3.865   4.944 -0.0052 -0.7066 -0.1002
 1436SOL    HW115944   2.769   3.956   4.948  0.3184 -0.5894 -0.3885
 1436SOL    HW215945   2.729   3.827   4.998 -1.1945  0.0923 -1.0595
 1437SOL     OW15946   0.890   1.660   7.798 -0.1470  0.0471 -0.1174
 1437SOL    HW115947   0.885   1.674   7.892  1.7294 -1.7869  0.2499
 1437SOL    HW215948   0.979   1.624   7.795 -0.4073 -0.7339  2.0589
 1438SOL     OW15949   1.945   1.310  15.510 -0.2640  0.1259 -0.1420
 1438SOL    HW115950   2.026   1.319  15.460 -1.9945  0.7637 -2.8158
 1438SOL    HW215951   1.940   1.215  15.522 -2.2174  0.3233  0.7842
 1439SOL     OW15952   0.265   4.011   0.732 -0.4120 -0.3928 -0.5728
 1439SOL    HW115953   0.190   4.016   0.673 -1.3751  1.2933  0.8011
 1439SOL    HW215954   0.225   4.024   0.818 -0.3851  1.9233 -0.8921
 1440SOL     OW15955   0.563   2.934   9.480 -0.1414  0.0953 -0.4574
 1440SOL    HW115956   0.513   3.011   9.455  0.1582  0.2056 -0.7147
 1440SOL    HW215957   0.638   2.948   9.422 -1.0966 -1.7146 -2.1183
 1441SOL     OW15958   0.143   3.659  13.461 -0.1788  0.4118  0.1593
 1441SOL    HW115959   0.129   3.747  13.426 -1.9234 -0.4441 -1.3265
 1441SOL    HW215960   0.231   3.663  13.497 -0.7181 -0.3390  1.5668
 1442SOL     OW15961   0.536   1.977   3.308 -0.2539 -0.5249 -0.4386
 1442SOL    HW115962   0.543   1.936   3.394 -0.1240  2.2543  0.8474
 1442SOL    HW215963   0.595   1.929   3.250 -0.0886  0.3575 -0.9985
 1443SOL     OW15964   1.182   1.701   3.946 -0.0689 -0.4327  0.1226
 1443SOL    HW115965   1.097   1.656   3.943 -0.0809 -0.4425  0.7907
 1443SOL    HW215966   1.151   1.791   3.961  2.6272  0.6134 -0.6009
 1444SOL     OW15967   1.360   4.679  16.290  0.5559  0.0200  0.3036
 1444SOL    HW115968   1.283   4.628  16.264 -0.3234  1.3737  0.2110
 1444SOL    HW215969   1.395   4.696  16.203 -1.8276  0.8874 -0.4958
 1445SOL     OW15970   4.337   3.476   5.226 -1.0161 -0.3708  0.7069
 1445SOL    HW115971   4.419   3.437   5.256 -0.4857 -0.7200 -1.1853
 1445SOL    HW215972   4.340   3.468   5.130 -0.2849 -2.5830  0.9269
 1446SOL     OW15973   1.298   3.451  14.086 -0.2372  0.1428 -0.6098
 1446SOL    HW115974   1.349   3.517  14.134 -0.3288  1.1169 -1.8741
 1446SOL    HW215975   1.325   3.465  13.996 -1.2085 -2.1413 -1.2596
 1447SOL     OW15976   2.954   3.128   5.463 -0.0613 -0.2022 -0.1433
 1447SOL    HW115977   2.974   3.170   5.380 -0.4816  3.1580  1.4501
 1447SOL    HW215978   2.933   3.041   5.428 -1.2181  0.2801 -0.6233
 1448SOL     OW15979   2.488   3.815   9.308  0.6624 -0.2101 -0.0665
 1448SOL    HW115980   2.437   3.855   9.237  0.6696  0.3250  0.2338
 1448SOL    HW215981   2.481   3.878   9.380  0.3516 -0.6194  0.2578
 1449SOL     OW15982   1.018   3.578  16.795  0.9198 -0.6267  0.3605
 1449SOL    HW115983   0.927   3.605  16.781  1.2454 -0.3490 -1.1769
 1449SOL    HW215984   1.046   3.627  16.873  1.0710  3.5177 -2.3447
 1450SOL     OW15985   3.938   2.233   9.884 -0.0695 -0.6766  0.3489
 1450SOL    HW115986   3.906   2.285   9.957  1.2518  0.9130 -0.2014
 1450SOL    HW215987   4.032   2.248   9.875 -0.2381  0.3356  0.2694
 1451SOL     OW15988   0.958   3.884  11.407 -0.4749 -0.2097  0.7911
 1451SOL    HW115989   0.995   3.796  11.399  2.8802  1.3307 -0.5284
 1451SOL    HW215990   1.043   3.928  11.409 -0.4084 -0.3302  0.5628
 1452SOL     OW15991   3.297   0.321   4.275 -0.5296 -0.1585  0.5483
 1452SOL    HW115992   3.302   0.258   4.203 -0.1975  0.6423 -0.1242
 1452SOL    HW215993   3.303   0.409   4.236  1.0749 -0.0899  0.9290
 1453SOL     OW15994   3.978   2.314   4.640 -0.1525  0.8654  0.6472
 1453SOL    HW115995   4.027   2.232   4.639  0.3062  1.1513 -1.0350
 1453SOL    HW215996   3.952   2.317   4.732 -2.8856 -0.7105 -0.0655
 1454SOL     OW15997   3.651   2.619   5.051  0.2775  0.2013  0.1068
 1454SOL    HW115998   3.650   2.710   5.023  1.6164  0.1153 -0.2154
 1454SOL    HW215999   3.602   2.566   4.987  2.3637 -1.4323 -0.1551
 1455SOL     OW16000   1.158   1.254   6.210 -0.3340 -0.0154  0.0118
 1455SOL    HW116001   1.081   1.212   6.248 -2.5657  3.2324 -0.9722
 1455SOL    HW216002   1.230   1.203   6.250  0.7665 -0.3316 -2.3991
 1456SOL     OW16003   0.409   2.014   8.157  0.8627 -0.3595  0.3008
 1456SOL    HW116004   0.356   1.935   8.150 -0.1371  0.3596 -0.2545
 1456SOL    HW216005   0.479   1.994   8.094  0.1711  1.3047 -1.0042
 1457SOL     OW16006   2.854   1.830   9.015  0.1629 -0.3370  0.2279
 1457SOL    HW116007   2.871   1.759   9.077 -1.5370  0.2968  1.4449
 1457SOL    HW216008   2.870   1.908   9.068  1.0834  0.0520 -0.6458
 1458SOL     OW16009   2.173   1.190   3.420  0.6348  0.1069 -0.1824
 1458SOL    HW116010   2.168   1.286   3.418 -2.5191 -0.0695 -0.3804
 1458SOL    HW216011   2.250   1.166   3.369  0.8051  0.8579 -0.2746
 1459SOL     OW16012   2.950   4.386   2.427 -0.1368 -0.7237  0.4026
 1459SOL    HW116013   2.901   4.348   2.355 -1.5379 -1.2895  1.6550
 1459SOL    HW216014   2.893   4.355   2.497  0.9726 -1.5085  0.9523
 1460SOL     OW16015   2.892   2.638   8.490 -0.0619  0.1395 -0.7434
 1460SOL    HW116016   2.843   2.710   8.450  1.4436  0.2366 -2.4347
 1460SOL    HW216017   2.924   2.587   8.415  1.8027  1.0624 -0.5724
 1461SOL     OW16018   2.442   4.027   7.022 -0.1438 -0.2103  0.3658
 1461SOL    HW116019   2.428   4.099   7.083 -1.9663 -0.5492  0.3452
 1461SOL    HW216020   2.536   4.009   7.030 -0.3769 -0.8851  1.7225
 1462SOL     OW16021   3.832   0.759   7.788  0.0623  0.0465  0.2920
 1462SOL    HW116022   3.746   0.759   7.829  0.0460  1.2615  0.2677
 1462SOL    HW216023   3.861   0.669   7.799 -0.8540 -0.2230  0.4647
 1463SOL     OW16024   4.028   4.395   5.510 -0.2917 -0.2094  0.4996
 1463SOL    HW116025   4.071   4.316   5.478 -0.9663 -0.7319  0.8779
 1463SOL    HW216026   4.001   4.435   5.427  0.8084 -0.4825  0.0020
 1464SOL     OW16027   2.321   2.515   2.103  0.2729 -0.6255 -0.4212
 1464SOL    HW116028   2.246   2.508   2.043  1.3254  0.6642 -1.8970
 1464SOL    HW216029   2.385   2.451   2.072 -0.2482 -1.6216  0.5641
 1465SOL     OW16030   3.238   2.526   8.391 -0.3688 -0.1871  0.3397
 1465SOL    HW116031   3.202   2.561   8.309  2.1760 -0.3695 -0.8355
 1465SOL    HW216032   3.182   2.575   8.451 -1.4123 -1.5492  0.4706
 1466SOL     OW16033   2.330   3.003   9.359 -0.5286 -0.2331 -0.2028
 1466SOL    HW116034   2.376   2.944   9.299 -1.4555 -1.3217  0.1462
 1466SOL    HW216035   2.391   3.030   9.428 -2.4838  0.7360  1.1379
 1467SOL     OW16036   1.784   4.231   7.954  0.1861  0.1515  0.1789
 1467SOL    HW116037   1.854   4.204   7.894  0.0885  0.1243  0.0775
 1467SOL    HW216038   1.824   4.211   8.038 -2.2941  0.0726  1.3407
 1468SOL     OW16039   2.324   1.731   7.087  0.0658 -1.4806  0.1862
 1468SOL    HW116040   2.273   1.671   7.033  0.3130 -0.4956 -1.1423
 1468SOL    HW216041   2.265   1.750   7.160 -2.0793 -1.9191 -1.4243
 1469SOL     OW16042   4.530   0.508   4.089  0.2240  0.6716  0.3016
 1469SOL    HW116043   4.621   0.517   4.119  0.3522 -0.7785  0.3592
 1469SOL    HW216044   4.511   0.421   4.124  0.5742  0.1841 -0.7023
 1470SOL     OW16045   2.755   1.966   5.940 -0.5847 -0.3742 -0.1973
 1470SOL    HW116046   2.807   1.994   5.864 -1.2595  2.5704  0.4183
 1470SOL    HW216047   2.714   2.045   5.976  1.2976  0.1030  0.9105
 1471SOL     OW16048   3.856   1.321   5.036 -0.4889  0.4120 -0.7554
 1471SOL    HW116049   3.919   1.301   4.968 -1.7372  1.1102 -2.1125
 1471SOL    HW216050   3.904   1.386   5.088 -0.1671  1.8826 -2.9106
 1472SOL     OW16051   3.333   1.919   6.789 -1.0679 -0.4499 -0.1969
 1472SOL    HW116052   3.380   1.904   6.871 -0.2578 -0.7416 -0.7181
 1472SOL    HW216053   3.256   1.863   6.799  0.0162 -1.6478  1.2238
 1473SOL     OW16054   1.333   2.211  12.930  0.3202 -0.4060  0.6510
 1473SOL    HW116055   1.279   2.133  12.941 -0.1515 -0.1911 -0.1946
 1473SOL    HW216056   1.396   2.185  12.863  1.1018  1.1617  0.7793
 1474SOL     OW16057   4.728   2.990   9.300 -0.6760  0.1905 -0.1148
 1474SOL    HW116058   4.655   2.944   9.260  1.2859 -0.4549 -2.9565
 1474SOL    HW216059   0.006   3.066   9.244  2.1042 -0.1310  0.1915
 1475SOL     OW16060   0.298   4.272  14.034 -0.0417  0.1042  0.3998
 1475SOL    HW116061   0.328   4.277  14.124 -0.0641 -1.0576  0.4771
 1475SOL    HW216062   0.208   4.305  14.038  0.1400  0.7374 -0.7418
 1476SOL     OW16063   0.097   0.424   7.317  0.1455  0.2733  0.1839
 1476SOL    HW116064   0.140   0.404   7.233 -1.9601  1.5589 -1.2003
 1476SOL    HW216065   0.051   0.344   7.340 -1.4310  0.7614 -1.2717
 1477SOL     OW16066   3.769   2.435  16.279  0.4110 -0.1794  0.4251
 1477SOL    HW116067   3.704   2.462  16.215  2.0888  0.8952 -0.8356
 1477SOL    HW216068   3.840   2.477  16.230  0.2573  0.0041  0.3555
 1478SOL     OW16069   3.571   4.246   9.575  0.2782  0.2535  0.0119
 1478SOL    HW116070   3.559   4.197   9.493 -0.0618  1.5913 -0.7487
 1478SOL    HW216071   3.495   4.222   9.627 -0.5740  1.1603 -0.7983
 1479SOL     OW16072   1.631   0.240  10.852  0.1914 -0.2561 -0.3667
 1479SOL    HW116073   1.631   0.215  10.945 -0.8615 -0.8303 -0.5139
 1479SOL    HW216074   1.682   0.173  10.808  1.6473  0.1934  0.6514
 1480SOL     OW16075   2.113   3.258   6.397  0.3043 -0.3251  0.3702
 1480SOL    HW116076   2.146   3.193   6.336  1.2574 -0.4557  1.0123
 1480SOL    HW216077   2.151   3.334   6.352  0.0830 -0.9225 -0.8071
 1481SOL     OW16078   0.945   4.230  12.215  0.1615  0.5006 -0.1293
 1481SOL    HW116079   0.956   4.174  12.291  0.2766 -0.3412 -0.7729
 1481SOL    HW216080   0.980   4.316  12.240  0.0849  0.7398 -0.8237
 1482SOL     OW16081   1.510   2.328   1.421  0.4255 -1.0262 -0.8562
 1482SOL    HW116082   1.571   2.318   1.348 -0.3430  0.5478 -1.7041
 1482SOL    HW216083   1.547   2.263   1.481 -0.1986  1.4703  2.2325
 1483SOL     OW16084   4.127   1.492   6.826  0.2132 -0.3342 -0.0476
 1483SOL    HW116085   4.102   1.573   6.870 -0.9213 -1.9476  2.2792
 1483SOL    HW216086   4.208   1.463   6.870  1.4735 -0.6821 -2.5791
 1484SOL     OW16087   2.853   1.512   4.460  0.1453 -0.5114 -0.2797
 1484SOL    HW116088   2.777   1.559   4.426  1.6693  2.0594 -0.1302
 1484SOL    HW216089   2.887   1.467   4.382 -2.7303 -1.5580 -0.9300
 1485SOL     OW16090   0.740   2.465  10.177 -0.0308 -0.5332 -0.5958
 1485SOL    HW116091   0.792   2.386  10.191  0.1949 -0.2011  0.4412
 1485SOL    HW216092   0.808   2.532  10.177  0.0844 -0.6505 -1.0214
 1486SOL     OW16093   3.082   3.111   9.647 -0.3736  0.1860 -0.1359
 1486SOL    HW116094   3.114   3.174   9.582 -4.0246 -1.5466 -3.6087
 1486SOL    HW216095   3.132   3.143   9.722  2.3264  0.2148 -1.9762
 1487SOL     OW16096   3.909   1.186  17.091 -0.2262 -0.5888 -0.1381
 1487SOL    HW116097   3.933   1.110  17.038  0.9068 -0.9920  0.9380
 1487SOL    HW216098   3.923   1.150  17.178  0.1212 -1.6640 -0.6458
 1488SOL     OW16099   3.849   2.294  12.860  0.1487 -0.1066 -0.1285
 1488SOL    HW116100   3.923   2.329  12.909  0.4117 -0.1308 -0.5044
 1488SOL    HW216101   3.888   2.259  12.780  1.4298  0.5520  0.2091
 1489SOL     OW16102   2.425   1.514   6.816  0.1815  0.1356 -0.0396
 1489SOL    HW116103   2.340   1.536   6.854  0.2048 -0.9887  0.6686
 1489SOL    HW216104   2.403   1.467   6.736 -0.8116  0.2497  0.1724
 1490SOL     OW16105   0.308   3.152   7.887 -0.0554  0.2603 -0.0257
 1490SOL    HW116106   0.270   3.117   7.807  0.8853 -0.1724 -0.2922
 1490SOL    HW216107   0.335   3.067   7.923  2.0715  0.2561 -1.6234
 1491SOL     OW16108   2.302   0.741   4.294  0.3878  0.3555 -0.1258
 1491SOL    HW116109   2.318   0.798   4.370 -0.3385  0.8882 -0.3699
 1491SOL    HW216110   2.219   0.775   4.261  0.6585  0.8356 -0.3200
 1492SOL     OW16111   2.073   0.777   8.350 -0.1260  0.1740  0.4184
 1492SOL    HW116112   1.995   0.726   8.371 -0.3113  0.4128  0.3096
 1492SOL    HW216113   2.124   0.715   8.299  0.1942  0.7385  0.0485
 1493SOL     OW16114   3.272   2.862   3.165  0.0367  0.3962  0.2843
 1493SOL    HW116115   3.343   2.845   3.104 -0.2683  0.6547 -0.1369
 1493SOL    HW216116   3.205   2.877   3.099  0.9798  1.0258 -0.5363
 1494SOL     OW16117   4.695   0.549   4.433 -0.1679  0.0472 -0.2569
 1494SOL    HW116118   0.019   0.487   4.472  0.5569  0.3724 -0.8785
 1494SOL    HW216119   4.717   0.529   4.342  0.2639  0.2031 -0.1872
 1495SOL     OW16120   2.256   0.082  13.925  0.3001 -0.2051  0.5530
 1495SOL    HW116121   2.264   0.076  14.020 -1.6762  0.7427  0.7797
 1495SOL    HW216122   2.347   0.106  13.907  1.2006 -3.4625  0.7941
 1496SOL     OW16123   4.643   2.491   6.546 -0.1939  0.4764  0.0955
 1496SOL    HW116124   4.654   2.577   6.505 -1.1081 -0.4862 -2.1533
 1496SOL    HW216125   4.724   2.454   6.511 -0.7274  1.0414 -1.7059
 1497SOL     OW16126   4.634   3.315  12.127  0.3654  0.1555 -0.4064
 1497SOL    HW116127   4.612   3.260  12.202 -1.5103  0.4576 -0.7102
 1497SOL    HW216128   4.724   3.289  12.108  0.9710  1.6446  0.4090
 1498SOL     OW16129   3.893   1.153   7.388  0.5385 -0.0114  0.2809
 1498SOL    HW116130   3.834   1.184   7.456 -1.6300  0.2728 -1.7202
 1498SOL    HW216131   3.957   1.106   7.442 -0.3304 -1.0072  0.4236
 1499SOL     OW16132   2.581   3.974  11.328 -0.4758  0.3762 -0.2973
 1499SOL    HW116133   2.522   4.026  11.274 -0.3170  1.6694  0.7609
 1499SOL    HW216134   2.646   4.038  11.356  1.4884 -1.2134 -1.1769
 1500SOL     OW16135   1.670   2.196   9.955  0.2854 -0.0068 -0.0778
 1500SOL    HW116136   1.676   2.102   9.936  1.8345  0.0204  0.2660
 1500SOL    HW216137   1.698   2.235   9.872  0.0623  0.0721 -0.1159
 1501SOL     OW16138   2.035   2.393   7.402  0.5982  0.0022 -0.0783
 1501SOL    HW116139   1.947   2.384   7.438  0.8388  1.2295  0.8150
 1501SOL    HW216140   2.070   2.309   7.428  3.1979  1.9834  2.7630
 1502SOL     OW16141   4.074   1.506   3.490  0.2674 -0.0843  0.3158
 1502SOL    HW116142   4.123   1.432   3.454  0.8469 -0.6791  2.2919
 1502SOL    HW216143   4.063   1.470   3.579  1.9510 -0.3696  0.4112
 1503SOL     OW16144   1.411   0.874   9.756 -0.0289 -0.0035 -0.4305
 1503SOL    HW116145   1.419   0.952   9.700  0.1380  0.4090  0.1632
 1503SOL    HW216146   1.339   0.906   9.811  1.0950 -1.3350  1.8158
 1504SOL     OW16147   2.574   2.467   7.490  0.1069 -0.0089 -0.0447
 1504SOL    HW116148   2.579   2.500   7.580 -1.4439  2.9474 -1.0535
 1504SOL    HW216149   2.642   2.520   7.448  1.4582 -2.3102 -0.7684
 1505SOL     OW16150   1.435   0.265   9.333 -0.9093  0.1327 -0.1069
 1505SOL    HW116151   1.358   0.304   9.292  0.3012  0.5945 -1.9569
 1505SOL    HW216152   1.390   0.217   9.403 -1.5102 -1.2194 -1.4388
 1506SOL     OW16153   3.725   2.621   6.864  0.1697 -0.1985  0.6445
 1506SOL    HW116154   3.686   2.536   6.843 -0.8197  0.6193 -0.7846
 1506SOL    HW216155   3.644   2.673   6.867  0.0588 -0.2859 -1.2870
 1507SOL     OW16156   1.504   1.399  14.452  0.0077  0.5022 -0.0703
 1507SOL    HW116157   1.572   1.436  14.395 -0.1647  0.2920 -0.4117
 1507SOL    HW216158   1.548   1.360  14.527 -1.2227  0.3494  0.5614
 1508SOL     OW16159   1.243   2.551   5.703  0.0096  0.0342  0.1630
 1508SOL    HW116160   1.232   2.456   5.705  0.5375 -0.0082  1.1398
 1508SOL    HW216161   1.338   2.562   5.703  0.2243 -1.6999  0.5534
 1509SOL     OW16162   1.359   3.098   8.708  0.3296 -0.5262 -0.1174
 1509SOL    HW116163   1.382   3.172   8.651 -0.1518 -0.5808 -0.3821
 1509SOL    HW216164   1.301   3.054   8.646 -3.3399  1.4712  1.8429
 1510SOL     OW16165   2.342   3.948   2.928 -0.8390  0.1463  0.1298
 1510SOL    HW116166   2.282   3.877   2.952  0.2872 -1.0830 -0.7312
 1510SOL    HW216167   2.281   4.022   2.929 -0.8668  0.1235  0.1405
 1511SOL     OW16168   3.744   0.545   6.872  0.5704 -0.3040 -0.1829
 1511SOL    HW116169   3.685   0.621   6.870  1.4096  0.3706  0.9405
 1511SOL    HW216170   3.705   0.486   6.936  3.2212 -1.7013  0.1151
 1512SOL     OW16171   3.263   3.673   3.748 -0.7420 -0.0065 -0.4903
 1512SOL    HW116172   3.237   3.697   3.659  4.2280  1.6059 -1.5205
 1512SOL    HW216173   3.188   3.635   3.793 -0.4299  1.3736  1.1876
 1513SOL     OW16174   2.007   3.039  15.571  0.0870 -0.5872 -0.3334
 1513SOL    HW116175   2.001   3.008  15.480  0.4469  0.3972 -0.6919
 1513SOL    HW216176   1.924   3.006  15.604 -0.1940 -0.1740 -0.6332
 1514SOL     OW16177   3.489   4.250   2.164  0.2397  0.0119 -0.3739
 1514SOL    HW116178   3.464   4.233   2.255  0.1581 -1.0461 -0.5950
 1514SOL    HW216179   3.583   4.261   2.171  0.2512 -0.3719  0.0689
 1515SOL     OW16180   0.809   2.594   3.315 -0.2011  0.2633 -0.0561
 1515SOL    HW116181   0.721   2.631   3.316 -0.8422 -1.2672  0.7570
 1515SOL    HW216182   0.831   2.593   3.222 -0.2534 -0.9967 -0.0623
 1516SOL     OW16183   3.986   3.484   5.482 -0.0182  0.3310  0.2964
 1516SOL    HW116184   3.933   3.406   5.496  1.4535 -0.8823 -0.9189
 1516SOL    HW216185   4.005   3.476   5.389 -2.9089 -0.3721 -0.2590
 1517SOL     OW16186   1.574   3.417   9.233 -0.5424  0.1471  0.1822
 1517SOL    HW116187   1.645   3.453   9.286 -1.0929 -0.2446  1.1748
 1517SOL    HW216188   1.512   3.490   9.237 -0.6526  0.0031  1.1198
 1518SOL     OW16189   1.029   1.974   9.895  0.0762  0.2117 -0.3669
 1518SOL    HW116190   1.053   1.936   9.980  0.7546  0.7718 -0.3116
 1518SOL    HW216191   0.996   1.896   9.849  0.0219  0.1878 -0.2874
 1519SOL     OW16192   2.100   3.997  14.931 -0.8163  0.1335 -0.0243
 1519SOL    HW116193   2.144   3.912  14.930 -3.2916 -1.1383  0.7022
 1519SOL    HW216194   2.016   3.980  14.889 -0.8454  4.1703 -1.6305
 1520SOL     OW16195   0.502   1.678   6.991  0.0254 -0.1197  0.4652
 1520SOL    HW116196   0.506   1.646   6.901  0.6176  2.1297 -0.3190
 1520SOL    HW216197   0.421   1.730   6.985  0.0722  0.1979  2.4888
 1521SOL     OW16198   3.137   0.463  11.038  0.6926 -0.2811  0.0576
 1521SOL    HW116199   3.127   0.480  10.945  1.4995 -0.6067 -0.0855
 1521SOL    HW216200   3.142   0.368  11.047 -2.5553 -0.3580  1.1487
 1522SOL     OW16201   2.557   1.117   3.200  0.2003 -0.1787  0.3258
 1522SOL    HW116202   2.604   1.182   3.252  1.2159 -1.5914  1.1591
 1522SOL    HW216203   2.612   1.131   3.122 -1.3486  2.1016 -0.3620
 1523SOL     OW16204   3.809   1.390  16.936 -0.2816 -0.4267 -0.4686
 1523SOL    HW116205   3.881   1.443  16.901 -2.0850  0.3612 -3.0018
 1523SOL    HW216206   3.854   1.332  16.998 -1.4059  1.5470  2.1806
 1524SOL     OW16207   1.923   1.940  17.605 -0.0242  0.2462  0.6205
 1524SOL    HW116208   1.997   2.000  17.600  0.8938 -0.9208  0.3537
 1524SOL    HW216209   1.856   2.007  17.590  1.5401  1.1837 -2.3972
 1525SOL     OW16210   1.846   2.549   4.245  0.2658 -0.4459 -0.6640
 1525SOL    HW116211   1.813   2.638   4.258 -0.6458 -1.2036  2.2885
 1525SOL    HW216212   1.935   2.565   4.214  0.9738 -2.2537  0.4320
 1526SOL     OW16213   4.075   3.860   3.594 -0.0128  0.2573  0.0013
 1526SOL    HW116214   4.048   3.828   3.508 -0.8409  1.9968 -0.3826
 1526SOL    HW216215   4.116   3.784   3.635 -0.7378  0.5720  1.3132
 1527SOL     OW16216   0.958   1.093   1.819 -0.1553 -0.1097 -1.0357
 1527SOL    HW116217   1.013   1.015   1.816 -1.0836 -0.7285 -1.8603
 1527SOL    HW216218   1.019   1.167   1.808 -0.2063  0.5161  2.9742
 1528SOL     OW16219   1.762   1.466   4.514  0.2225 -0.0074  0.1807
 1528SOL    HW116220   1.841   1.458   4.567  0.5486 -0.2450 -0.3398
 1528SOL    HW216221   1.708   1.421   4.579  0.1677  1.3704  1.0900
 1529SOL     OW16222   2.673   1.590   0.841 -0.0976 -0.3577 -0.4356
 1529SOL    HW116223   2.604   1.621   0.782 -0.4495  0.3219  0.3297
 1529SOL    HW216224   2.735   1.544   0.785  1.0869 -0.7208  1.1632
 1530SOL     OW16225   1.240   3.583   2.707  0.1090  0.5713  0.4009
 1530SOL    HW116226   1.163   3.558   2.656  2.8503 -1.3440 -2.8071
 1530SOL    HW216227   1.218   3.656   2.765  1.2507  0.9199  0.3935
 1531SOL     OW16228   0.076   2.091  12.094  0.6069  0.6751 -0.1452
 1531SOL    HW116229   4.727   2.099  12.053 -0.7764 -1.1022  2.4023
 1531SOL    HW216230   0.062   2.150  12.169  1.0017  0.0018  0.4527
 1532SOL     OW16231   2.335   2.180  12.580 -0.2388 -0.7435 -0.8317
 1532SOL    HW116232   2.307   2.207  12.667 -0.0475  1.3796 -1.4125
 1532SOL    HW216233   2.345   2.085  12.583  0.9383 -0.5449  1.2807
 1533SOL     OW16234   3.598   2.817  14.873  0.0631  0.0868  0.2813
 1533SOL    HW116235   3.660   2.875  14.917 -0.7557  2.4194 -1.5959
 1533SOL    HW216236   3.664   2.760  14.834 -0.0154  0.2254 -0.0507
 1534SOL     OW16237   1.581   1.395   5.117  0.0500 -0.3825 -0.7241
 1534SOL    HW116238   1.635   1.466   5.083 -0.2354 -0.0961 -0.5840
 1534SOL    HW216239   1.495   1.411   5.078  1.3791  1.3666 -2.9056
 1535SOL     OW16240   4.685   2.034   8.715 -0.0020  0.0439 -0.1150
 1535SOL    HW116241   4.601   1.993   8.734 -0.6077  2.4966  2.4462
 1535SOL    HW216242   4.658   2.083   8.638  3.5365 -1.2409 -2.1484
 1536SOL     OW16243   2.786   4.116   7.337  0.6311 -0.2485 -0.5797
 1536SOL    HW116244   2.858   4.178   7.324  0.5934 -0.2706 -0.8994
 1536SOL    HW216245   2.824   4.034   7.367  1.9168 -0.1927 -2.0345
 1537SOL     OW16246   3.959   2.135   9.111 -0.2685  0.0860 -0.1225
 1537SOL    HW116247   3.884   2.096   9.156 -0.7364 -0.0755 -1.0245
 1537SOL    HW216248   3.924   2.140   9.021 -0.6764  0.3829  0.0504
 1538SOL     OW16249   3.998   4.495  12.870 -0.4694  0.0465 -0.0954
 1538SOL    HW116250   3.974   4.580  12.907  2.9181  0.9982 -0.1062
 1538SOL    HW216251   4.025   4.521  12.782  1.9533 -2.2308 -0.0407
 1539SOL     OW16252   2.931   1.220   4.018 -0.6951  0.2952 -0.1241
 1539SOL    HW116253   2.854   1.185   3.973 -1.0797 -1.7452  2.0832
 1539SOL    HW216254   2.990   1.146   4.006  0.4696  1.3508 -0.8289
 1540SOL     OW16255   2.447   3.757   8.956  0.2132  0.1563 -0.3641
 1540SOL    HW116256   2.382   3.802   9.009 -0.2003  0.1251 -0.8488
 1540SOL    HW216257   2.410   3.670   8.944 -0.6810  0.2140  2.1760
 1541SOL     OW16258   1.117   0.258   5.087 -0.1921  0.2296  0.2276
 1541SOL    HW116259   1.091   0.334   5.035  0.4377  0.3057  0.0259
 1541SOL    HW216260   1.066   0.183   5.055  1.9744 -0.3757 -1.8513
 1542SOL     OW16261   2.148   0.414   9.388 -0.4947  0.8755 -0.3289
 1542SOL    HW116262   2.127   0.467   9.311  1.0410 -0.8050 -1.9052
 1542SOL    HW216263   2.061   0.423   9.428 -0.1842 -0.1124  0.5631
 1543SOL     OW16264   1.780   1.037   7.757 -0.2817  0.3070  0.2325
 1543SOL    HW116265   1.733   0.954   7.766 -2.4855  1.6402  0.9759
 1543SOL    HW216266   1.860   1.018   7.806 -0.5390 -1.0834  0.1143
 1544SOL     OW16267   2.746   4.070   8.674  0.9447  0.2934 -0.6969
 1544SOL    HW116268   2.826   4.067   8.726 -0.0212  2.4077  0.9460
 1544SOL    HW216269   2.689   4.048   8.747  0.0982 -0.8820 -1.7272
 1545SOL     OW16270   4.212   2.732   5.264 -0.3734  0.1183  0.1792
 1545SOL    HW116271   4.161   2.808   5.293  0.7604  0.4553  1.3046
 1545SOL    HW216272   4.155   2.658   5.283 -2.0306  0.8786 -1.7681
 1546SOL     OW16273   0.720   0.307   5.242  0.4231  0.0532  0.1406
 1546SOL    HW116274   0.719   0.217   5.274 -2.3309 -0.7496 -2.2274
 1546SOL    HW216275   0.812   0.330   5.257  0.4827 -0.5090  0.6311
 1547SOL     OW16276   2.705   1.776   4.840 -0.5636  0.3804  0.2400
 1547SOL    HW116277   2.743   1.724   4.911 -1.0929 -0.4863 -0.1023
 1547SOL    HW216278   2.687   1.710   4.773  0.2713  0.3703  0.0233
 1548SOL     OW16279   2.902   0.164   5.966 -0.3727  0.3259 -0.3558
 1548SOL    HW116280   2.813   0.188   5.989 -0.0750  1.8534 -0.7997
 1548SOL    HW216281   2.881   0.088   5.912  1.2908 -0.2472 -0.2025
 1549SOL     OW16282   1.548   3.282   5.431 -0.2247  0.9769 -0.6840
 1549SOL    HW116283   1.486   3.354   5.444 -1.8175 -1.3374  4.3773
 1549SOL    HW216284   1.559   3.292   5.336  0.6162 -2.3772 -0.9391
 1550SOL     OW16285   2.775   0.759   6.400 -0.1020 -0.1465  0.1595
 1550SOL    HW116286   2.843   0.823   6.422 -0.9491  1.0506 -0.6682
 1550SOL    HW216287   2.718   0.771   6.476 -2.0622 -1.1677 -1.1652
 1551SOL     OW16288   3.558   2.254   6.413 -0.2584 -0.7737  0.2733
 1551SOL    HW116289   3.496   2.273   6.342 -0.5230  0.5593  0.8455
 1551SOL    HW216290   3.578   2.339   6.453  1.8391 -0.5127 -1.3061
 1552SOL     OW16291   3.213   3.810   9.642  0.1724 -0.0317  0.7645
 1552SOL    HW116292   3.138   3.751   9.654 -0.5947  1.0199  1.1927
 1552SOL    HW216293   3.243   3.782   9.555  0.9399  0.2149  0.9518
 1553SOL     OW16294   4.186   2.474  13.671  0.1720  0.4136 -0.7176
 1553SOL    HW116295   4.247   2.504  13.737 -0.1110 -0.3564 -0.1063
 1553SOL    HW216296   4.147   2.552  13.632 -2.0307  0.4583  1.5645
 1554SOL     OW16297   3.162   2.928   5.293 -0.1454  0.3691 -0.2770
 1554SOL    HW116298   3.096   2.959   5.231  0.8939  1.5566 -0.7882
 1554SOL    HW216299   3.124   2.847   5.327 -0.5033 -0.1310 -1.8554
 1555SOL     OW16300   0.776   3.954  17.232  0.9059 -0.2956  0.3162
 1555SOL    HW116301   0.713   3.905  17.285  1.9786  0.7548  2.5462
 1555SOL    HW216302   0.796   4.029  17.288 -0.9418  2.1664 -2.3610
 1556SOL     OW16303   3.800   2.120  11.806 -0.3306 -0.0040 -0.2120
 1556SOL    HW116304   3.736   2.073  11.860 -0.9626 -0.3718 -1.2649
 1556SOL    HW216305   3.838   2.186  11.864 -1.0833  0.7684 -0.5975
 1557SOL     OW16306   2.467   0.662   4.995 -0.6343 -0.1040 -0.1385
 1557SOL    HW116307   2.532   0.730   4.980 -0.2578  0.2332  3.0173
 1557SOL    HW216308   2.383   0.708   4.998  0.4126  1.6064  2.3904
 1558SOL     OW16309   4.153   3.096   8.396 -0.2719  0.2303 -0.1188
 1558SOL    HW116310   4.164   3.112   8.490  0.1463  1.8849 -0.4459
 1558SOL    HW216311   4.177   3.179   8.356 -1.0937  1.5866  2.1516
 1559SOL     OW16312   1.174   1.548   5.224 -0.1124  0.1914 -0.2369
 1559SOL    HW116313   1.238   1.585   5.285 -1.5840  0.4616  1.1165
 1559SOL    HW216314   1.232   1.496   5.168 -1.5009 -0.4689 -1.0735
 1560SOL     OW16315   1.276   2.936   9.691  0.2685  0.7813 -0.2785
 1560SOL    HW116316   1.316   2.939   9.778 -0.2397  0.9059 -0.0439
 1560SOL    HW216317   1.325   2.869   9.645 -2.3108 -1.2907 -0.0361
 1561SOL     OW16318   3.663   0.811  15.373 -0.2588 -0.3312  1.1674
 1561SOL    HW116319   3.713   0.850  15.444  0.6281 -0.5600  0.6571
 1561SOL    HW216320   3.711   0.730  15.355 -1.3320 -0.7379  0.1448
 1562SOL     OW16321   0.048   0.041   9.548 -0.3310  0.0833  0.1807
 1562SOL    HW116322   4.696   0.014   9.528 -0.2838  0.9509 -1.1462
 1562SOL    HW216323   0.046   0.075   9.638  0.6283 -0.1513  0.2971
 1563SOL     OW16324   0.278   2.130   7.371  0.7574 -0.3633  0.3582
 1563SOL    HW116325   0.352   2.189   7.356  1.5471 -1.7140 -1.0206
 1563SOL    HW216326   0.254   2.150   7.462  0.6018 -0.5177  0.3506
 1564SOL     OW16327   1.923   1.616   1.700 -0.7706 -0.0075  0.2041
 1564SOL    HW116328   1.964   1.566   1.629  0.0089  1.1389 -0.1562
 1564SOL    HW216329   1.957   1.701   1.671 -1.1999  0.2875  0.5725
 1565SOL     OW16330   1.193   1.340   3.417 -0.3671 -0.0905 -0.1089
 1565SOL    HW116331   1.109   1.298   3.398 -0.0564 -0.8075  0.0867
 1565SOL    HW216332   1.180   1.435   3.419  1.1194  0.0966  0.6482
 1566SOL     OW16333   0.022   3.105  16.113 -0.9184 -0.1144  0.1095
 1566SOL    HW116334   0.116   3.083  16.118 -0.7710  0.4157 -0.4222
 1566SOL    HW216335   0.015   3.109  16.018  1.0547  1.8400  0.0653
 1567SOL     OW16336   3.869   4.529   2.907 -0.1444  0.0227 -0.4095
 1567SOL    HW116337   3.833   4.441   2.897  1.0329 -0.7204  1.9714
 1567SOL    HW216338   3.794   4.588   2.910  1.9240  2.5623  1.6898
 1568SOL     OW16339   2.442   0.872  15.230  0.0252 -0.0382  0.0114
 1568SOL    HW116340   2.437   0.967  15.218  0.4838 -0.0750 -0.4715
 1568SOL    HW216341   2.351   0.854  15.254 -0.0809  0.9861  0.3862
 1569SOL     OW16342   3.692   1.015   2.449 -0.5245  0.0468  1.0881
 1569SOL    HW116343   3.668   1.009   2.542  1.4035 -1.1947  1.5225
 1569SOL    HW216344   3.627   0.973   2.393  3.3559 -2.4265 -1.5769
 1570SOL     OW16345   3.541   1.532   8.207  0.6372 -0.4406  0.8356
 1570SOL    HW116346   3.634   1.527   8.184  0.9208 -0.5239  1.9969
 1570SOL    HW216347   3.521   1.624   8.222  0.3788 -0.1567 -1.3716
 1571SOL     OW16348   0.654   1.860   4.965  0.0753  0.3636 -0.7193
 1571SOL    HW116349   0.664   1.870   5.059 -3.9977 -1.8046 -0.0662
 1571SOL    HW216350   0.694   1.775   4.947  0.3130 -0.0054  1.6503
 1572SOL     OW16351   3.352   2.479  12.402 -0.1211 -0.0565 -0.7793
 1572SOL    HW116352   3.276   2.521  12.440  0.0208 -1.1743  0.7372
 1572SOL    HW216353   3.313   2.394  12.380 -1.2615  0.3673 -0.3851
 1573SOL     OW16354   2.382   0.420   5.095 -0.1215 -0.3694  0.0923
 1573SOL    HW116355   2.316   0.423   5.165  0.1376  1.2580  0.2703
 1573SOL    HW216356   2.388   0.507   5.056  4.1838 -0.6749  0.0954
 1574SOL     OW16357   2.188   0.116   0.584 -0.5628 -0.0499  0.2425
 1574SOL    HW116358   2.124   0.186   0.572 -0.7500 -0.2395  0.1255
 1574SOL    HW216359   2.171   0.057   0.510 -0.3820  0.5088 -0.2418
 1575SOL     OW16360   2.870   4.379   3.408 -0.4882 -0.1004  0.2885
 1575SOL    HW116361   2.901   4.318   3.476  0.5521 -0.3444 -0.4138
 1575SOL    HW216362   2.958   4.418   3.406 -0.3060 -0.5066  0.3354
 1576SOL     OW16363   3.227   0.573  11.557 -0.1862 -0.2110  0.2380
 1576SOL    HW116364   3.150   0.535  11.515 -0.8530  2.1445 -0.6758
 1576SOL    HW216365   3.290   0.558  11.486 -0.2629  2.9569 -0.5082
 1577SOL     OW16366   3.816   2.133   7.671  0.5637 -0.0790  0.6441
 1577SOL    HW116367   3.874   2.163   7.741  0.4242  4.0727 -1.0533
 1577SOL    HW216368   3.830   2.208   7.612 -0.9547 -0.9316 -0.8154
 1578SOL     OW16369   0.204   1.263  14.629  0.5787  0.2841  0.0661
 1578SOL    HW116370   0.157   1.296  14.705  0.3771 -0.8570  0.4393
 1578SOL    HW216371   0.255   1.195  14.674  0.4144  0.6379  0.7817
 1579SOL     OW16372   4.275   4.273  10.715 -0.4987 -0.0339  0.0286
 1579SOL    HW116373   4.277   4.211  10.788  1.4911  1.2302  1.0741
 1579SOL    HW216374   4.347   4.246  10.658 -1.9878 -0.4034 -1.6635
 1580SOL     OW16375   1.092   2.027   3.666  0.5808  0.3499  0.6309
 1580SOL    HW116376   1.166   1.988   3.713  0.3889 -0.8536 -0.0646
 1580SOL    HW216377   1.033   2.053   3.737 -0.8628 -0.4090 -0.2865
 1581SOL     OW16378   4.729   2.579   8.694  0.4597 -0.3912 -0.5360
 1581SOL    HW116379   4.647   2.613   8.729  1.6560  1.3315  0.5842
 1581SOL    HW216380   0.054   2.609   8.760 -0.6453 -0.5864  0.5796
 1582SOL     OW16381   3.167   4.273   0.462  0.0961  0.5540  0.2855
 1582SOL    HW116382   3.138   4.260   0.371  1.6897  2.3008 -0.4817
 1582SOL    HW216383   3.136   4.363   0.477 -0.4513  0.3130  0.5916
 1583SOL     OW16384   0.917   1.783   4.203 -0.7091  0.8802  0.1542
 1583SOL    HW116385   0.871   1.865   4.184  1.4539  1.4466 -2.7610
 1583SOL    HW216386   0.907   1.745   4.116  3.0691 -0.5721  0.3670
 1584SOL     OW16387   1.024   1.650  12.091  0.1528  0.0213  0.8178
 1584SOL    HW116388   1.051   1.659  11.999 -1.4387  2.4676  0.5876
 1584SOL    HW216389   0.999   1.558  12.096  1.4025 -0.4958 -2.2249
 1585SOL     OW16390   1.044   2.902  13.149 -0.2266  0.4523  0.2588
 1585SOL    HW116391   0.951   2.896  13.128  0.4179  2.1039 -3.0772
 1585SOL    HW216392   1.042   2.972  13.214  0.5904  1.9455 -1.3110
 1586SOL     OW16393   3.218   4.420   8.639 -0.6431 -0.2093 -0.1924
 1586SOL    HW116394   3.224   4.443   8.732  1.4040 -0.1496 -0.3396
 1586SOL    HW216395   3.134   4.375   8.643 -0.0652 -1.4158 -1.5892
 1587SOL     OW16396   1.049   2.524  17.114  0.2949 -0.3695  0.3156
 1587SOL    HW116397   1.081   2.482  17.034  1.1116 -0.3316  0.6224
 1587SOL    HW216398   1.032   2.443  17.162  0.0734 -0.0536  0.7805
 1588SOL     OW16399   3.005   0.645  16.183  0.1958 -0.4774 -0.0095
 1588SOL    HW116400   2.977   0.643  16.091 -0.7023  1.4341  0.2138
 1588SOL    HW216401   3.100   0.635  16.184  0.2181 -0.4103 -0.8416
 1589SOL     OW16402   2.014   0.980   4.554  0.2359  0.1952 -0.5244
 1589SOL    HW116403   1.956   1.056   4.559 -1.3691 -1.1721  1.5508
 1589SOL    HW216404   1.996   0.926   4.631  2.1395 -1.4129 -1.2065
 1590SOL     OW16405   4.446   1.849   6.718  0.7617  0.1178  0.2784
 1590SOL    HW116406   4.354   1.875   6.730  0.6734 -0.2506  0.4016
 1590SOL    HW216407   4.485   1.903   6.786  1.6063  0.1599 -0.2502
 1591SOL     OW16408   2.881   1.280   8.440 -0.4913  0.0669  0.5003
 1591SOL    HW116409   2.937   1.273   8.362  2.3069 -0.1688  2.5302
 1591SOL    HW216410   2.922   1.349   8.492 -3.7944  0.9175  1.9342
 1592SOL     OW16411   0.557   0.208  16.116 -0.4556  0.1903 -0.4472
 1592SOL    HW116412   0.619   0.180  16.048  2.6540 -0.6644  2.7453
 1592SOL    HW216413   0.500   0.262  16.062 -0.3366  0.4549 -0.3066
 1593SOL     OW16414   4.010   4.274  15.745 -0.0472  0.2338 -0.2044
 1593SOL    HW116415   4.097   4.234  15.747  0.9345  2.4519  1.3441
 1593SOL    HW216416   3.998   4.297  15.653 -1.0038  1.6699  0.2731
 1594SOL     OW16417   2.349   4.426   6.994 -0.3048 -0.3255 -0.0156
 1594SOL    HW116418   2.368   4.385   6.910 -1.6598 -1.2726  0.1243
 1594SOL    HW216419   2.405   4.380   7.057  0.1181 -2.1109 -1.7056
 1595SOL     OW16420   0.956   2.256   2.975 -0.3173  0.0103  0.5730
 1595SOL    HW116421   1.049   2.246   2.954 -0.7847  0.8519 -1.9894
 1595SOL    HW216422   0.919   2.224   2.893 -2.1661  0.7679  1.1077
 1596SOL     OW16423   2.308   3.773   7.107 -0.3404  0.4474  0.0266
 1596SOL    HW116424   2.360   3.834   7.054 -3.4255  1.0163 -2.3659
 1596SOL    HW216425   2.219   3.798   7.080 -0.2915  1.0380  0.4159
 1597SOL     OW16426   1.777   1.383   6.190 -0.5553  0.0143 -0.6038
 1597SOL    HW116427   1.798   1.293   6.165  1.4344  0.4908 -0.6417
 1597SOL    HW216428   1.844   1.394   6.257 -2.1642  0.0329  1.0001
 1598SOL     OW16429   1.668   3.295   4.167 -0.0607  0.3034 -0.0398
 1598SOL    HW116430   1.649   3.289   4.260  0.6927 -3.1169 -0.0987
 1598SOL    HW216431   1.601   3.357   4.139 -1.9003 -0.8558  1.7888
 1599SOL     OW16432   2.536   1.748   7.685 -0.3152  0.0957  0.0711
 1599SOL    HW116433   2.480   1.795   7.747 -0.1955 -1.2282  1.1574
 1599SOL    HW216434   2.617   1.800   7.687 -1.1914  1.4136  1.2485
 1600SOL     OW16435   0.586   0.734   6.400  0.6753  0.1665  0.3488
 1600SOL    HW116436   0.564   0.657   6.452  1.7580 -0.5767 -0.3091
 1600SOL    HW216437   0.565   0.798   6.468 -0.0400 -0.7642  1.0020
 1601SOL     OW16438   4.694   4.347  15.792  0.3330  0.0315  0.1178
 1601SOL    HW116439   4.694   4.429  15.843  0.9855  0.6084 -0.8117
 1601SOL    HW216440   4.649   4.294  15.858 -1.0397  2.4087  1.0717
 1602SOL     OW16441   2.305   0.104   1.914  0.0364  0.3449 -0.1323
 1602SOL    HW116442   2.286   0.023   1.867 -1.3668 -0.5015  1.8809
 1602SOL    HW216443   2.320   0.151   1.832  0.5537 -1.2444 -0.9616
 1603SOL     OW16444   2.705   1.733   2.582 -0.3544 -0.3856 -0.1056
 1603SOL    HW116445   2.666   1.755   2.666  0.3551  1.1295 -0.1718
 1603SOL    HW216446   2.794   1.767   2.588 -0.9983  1.5414 -1.4128
 1604SOL     OW16447   3.971   4.676   8.534 -0.2072  0.3510  0.2054
 1604SOL    HW116448   3.979   4.615   8.607  2.0202  2.3617  1.6450
 1604SOL    HW216449   3.882   4.711   8.536 -0.3107  0.0384  1.2698
 1605SOL     OW16450   1.119   0.318  11.675  0.1197 -0.3047  0.2005
 1605SOL    HW116451   1.045   0.265  11.705 -1.2656  0.8214 -1.2225
 1605SOL    HW216452   1.071   0.398  11.653  1.8533  0.2973 -1.4057
 1606SOL     OW16453   2.787   0.812   8.842  0.0823 -0.3354  0.4040
 1606SOL    HW116454   2.752   0.725   8.820 -1.4828  0.9165 -2.0337
 1606SOL    HW216455   2.874   0.795   8.806 -0.2906 -2.2419  0.3990
 1607SOL     OW16456   0.584   2.554  11.596  0.2628  0.3555 -0.4337
 1607SOL    HW116457   0.582   2.605  11.677 -1.5426 -2.3554  1.2263
 1607SOL    HW216458   0.579   2.466  11.634  0.7108  0.1291 -0.9157
 1608SOL     OW16459   3.441   2.487   4.411 -0.0133  0.1483 -0.6783
 1608SOL    HW116460   3.367   2.440   4.372 -2.3822  2.0966  1.4241
 1608SOL    HW216461   3.484   2.522   4.333 -0.6600  0.0782 -1.0674
 1609SOL     OW16462   4.125   3.641   9.225  0.0807 -0.2266  1.3277
 1609SOL    HW116463   4.161   3.655   9.137 -0.3959  0.3389  1.2201
 1609SOL    HW216464   4.038   3.609   9.200  0.0150  0.7188  0.3408
 1610SOL     OW16465   1.525   3.050   2.160  0.3942 -0.0561 -0.2603
 1610SOL    HW116466   1.519   2.974   2.218 -0.9516  1.2012  1.2421
 1610SOL    HW216467   1.442   3.095   2.175 -0.3037 -1.9911  1.6750
 1611SOL     OW16468   4.438   0.537   4.939  0.0552 -0.0768  0.1460
 1611SOL    HW116469   4.493   0.604   4.979 -1.5917  0.4545  1.5425
 1611SOL    HW216470   4.501   0.508   4.873  0.5710  0.0628  0.5767
 1612SOL     OW16471   1.990   1.024  17.043 -0.0642 -0.1194 -0.3796
 1612SOL    HW116472   2.077   1.045  17.008 -0.7698  3.2137 -0.1311
 1612SOL    HW216473   1.930   1.066  16.982 -0.1597 -1.0181 -0.9149
 1613SOL     OW16474   4.177   1.911   8.711 -0.1080  0.2569 -0.2396
 1613SOL    HW116475   4.254   1.868   8.749 -0.0125  0.6549  0.0233
 1613SOL    HW216476   4.175   1.991   8.764  0.3543  0.8037 -1.0371
 1614SOL     OW16477   4.231   2.305  13.017  0.0738 -0.1864  0.5915
 1614SOL    HW116478   4.289   2.245  13.064  1.8473 -1.4524 -3.2307
 1614SOL    HW216479   4.195   2.353  13.092 -1.2814 -0.9149  0.3957
 1615SOL     OW16480   2.123   3.390   4.018  0.2254  0.6865  0.7333
 1615SOL    HW116481   2.073   3.470   4.004  1.2052  1.0728 -0.6135
 1615SOL    HW216482   2.075   3.362   4.096  0.1614  0.7420  0.7132
 1616SOL     OW16483   3.561   0.252  12.857 -0.0002 -0.2163  0.3977
 1616SOL    HW116484   3.566   0.170  12.807  1.6126  1.2227 -1.7721
 1616SOL    HW216485   3.469   0.256  12.883  0.0497 -0.1679  0.5619
 1617SOL     OW16486   3.659   4.244  15.252 -0.1508  0.3113  0.0336
 1617SOL    HW116487   3.731   4.198  15.294  0.0166 -0.2006 -0.8319
 1617SOL    HW216488   3.603   4.258  15.328 -1.5890  1.4365 -1.2266
 1618SOL     OW16489   4.195   4.401  11.999  0.2168 -0.1676 -0.2991
 1618SOL    HW116490   4.239   4.479  11.965 -0.4423 -0.1104 -1.0314
 1618SOL    HW216491   4.269   4.364  12.047 -0.8313  0.0217  1.4540
 1619SOL     OW16492   4.576   0.871   2.909  0.7666  0.0845  0.3489
 1619SOL    HW116493   4.487   0.907   2.907  0.1087 -1.6253 -0.5262
 1619SOL    HW216494   4.548   0.790   2.951  0.5601  0.1470  0.3312
 1620SOL     OW16495   2.257   0.276   8.597 -0.3306  0.1092  0.6823
 1620SOL    HW116496   2.249   0.283   8.502 -1.1333 -2.0374  0.5958
 1620SOL    HW216497   2.167   0.255   8.620 -0.5928 -0.1888 -0.6122
 1621SOL     OW16498   0.126   0.371   3.542  0.2905  0.0382 -0.0890
 1621SOL    HW116499   0.161   0.294   3.587 -0.6254  0.0095  0.5468
 1621SOL    HW216500   0.206   0.395   3.494  0.0219 -1.4575 -1.3213
 1622SOL     OW16501   3.288   2.379   6.499  0.5800 -0.6531 -0.2601
 1622SOL    HW116502   3.322   2.349   6.415 -1.1003  1.6104 -1.7694
 1622SOL    HW216503   3.260   2.293   6.530  0.5176 -0.5350  0.0232
 1623SOL     OW16504   0.862   1.076   7.133  0.0528 -0.4726  0.3580
 1623SOL    HW116505   0.938   1.018   7.130  0.3973 -0.0508  0.8899
 1623SOL    HW216506   0.804   1.047   7.062  1.5832 -0.9262 -0.7112
 1624SOL     OW16507   2.984   4.531   7.319  0.1285  0.0996 -0.1997
 1624SOL    HW116508   3.033   4.552   7.399  0.9610  1.2722 -1.0320
 1624SOL    HW216509   2.996   4.436   7.321  0.4444  0.2026  2.8355
 1625SOL     OW16510   3.415   1.988   8.413 -0.0437 -0.0119 -0.3035
 1625SOL    HW116511   3.465   2.069   8.402 -0.4746  0.4461  1.1373
 1625SOL    HW216512   3.424   1.961   8.321  1.5112 -0.6195  0.0369
 1626SOL     OW16513   4.398   3.195  15.993 -0.0240  0.2286 -0.0856
 1626SOL    HW116514   4.429   3.136  16.061  0.4741  0.9698  0.3308
 1626SOL    HW216515   4.475   3.207  15.937  1.6599 -0.7699  2.0397
 1627SOL     OW16516   0.467   1.954  13.173  0.1203  0.1495  0.1938
 1627SOL    HW116517   0.417   2.035  13.185 -0.4086 -0.5242  2.6395
 1627SOL    HW216518   0.551   1.981  13.211 -0.3114 -0.5965  1.6792
 1628SOL     OW16519   1.379   3.101   7.685 -0.5084  1.2206  0.0411
 1628SOL    HW116520   1.310   3.067   7.743 -0.3702  0.6866 -0.1101
 1628SOL    HW216521   1.406   3.174   7.740 -1.4348 -1.0660  3.5442
 1629SOL     OW16522   4.009   1.242   6.967 -0.5416 -0.2283  0.5763
 1629SOL    HW116523   4.098   1.228   6.936 -0.2083 -1.1871  1.9342
 1629SOL    HW216524   3.997   1.336   6.979  1.7084  0.2476 -0.9527
 1630SOL     OW16525   3.368   4.709   7.172 -0.4642  0.0795  0.1319
 1630SOL    HW116526   3.392   4.653   7.098 -0.2541 -0.4791  0.6271
 1630SOL    HW216527   3.420   4.670   7.241  0.5759  1.1282 -0.0652
 1631SOL     OW16528   2.923   3.615   8.296 -0.0023  0.5003  0.0417
 1631SOL    HW116529   2.996   3.577   8.345  0.9387  1.0146 -0.9666
 1631SOL    HW216530   2.942   3.583   8.208  2.4951  1.3449  0.2683
 1632SOL     OW16531   1.616   4.625   2.666 -0.2403 -0.2122  0.6806
 1632SOL    HW116532   1.641   4.583   2.584 -2.7369  2.4611 -1.4282
 1632SOL    HW216533   1.677   4.699   2.665  2.6518 -2.5987  1.5750
 1633SOL     OW16534   3.896   4.210  14.093 -0.6985 -0.3383 -0.3751
 1633SOL    HW116535   3.830   4.213  14.023  1.3784 -0.0431 -2.3482
 1633SOL    HW216536   3.849   4.155  14.154  0.8739 -2.7798 -1.3773
 1634SOL     OW16537   0.844   3.770  15.254 -0.3189  0.3830 -0.3015
 1634SOL    HW116538   0.757   3.733  15.246 -0.0430 -0.5889  1.1570
 1634SOL    HW216539   0.857   3.781  15.160 -0.8437  2.2994 -0.1490
 1635SOL     OW16540   4.447   1.672   5.889  0.0335  0.5387 -0.0815
 1635SOL    HW116541   4.482   1.618   5.959 -0.8879  1.8187  1.3468
 1635SOL    HW216542   4.422   1.610   5.820  0.7001  0.0569  0.1184
 1636SOL     OW16543   0.872   2.075  12.707  0.0544  0.3562 -0.8161
 1636SOL    HW116544   0.776   2.073  12.704 -0.0628  1.9944  1.3840
 1636SOL    HW216545   0.893   2.124  12.787 -0.3316 -1.9546  0.7188
 1637SOL     OW16546   0.961   3.862   5.019 -0.1593  0.2445  0.1617
 1637SOL    HW116547   0.926   3.789   4.968 -1.5400  0.0236  1.4330
 1637SOL    HW216548   1.026   3.900   4.960  1.8025 -1.3351  1.3243
 1638SOL     OW16549   3.482   2.915   6.615  0.0395 -0.4039 -0.2722
 1638SOL    HW116550   3.393   2.884   6.633  0.0889  1.1118  2.5451
 1638SOL    HW216551   3.496   2.873   6.530  0.7670  1.8226 -1.2582
 1639SOL     OW16552   3.292   2.583  14.559 -0.5493  0.6290  0.0698
 1639SOL    HW116553   3.242   2.504  14.578  0.3333  0.2517  0.8422
 1639SOL    HW216554   3.225   2.651  14.554 -0.6186  0.6171  0.7213
 1640SOL     OW16555   3.273   1.978   5.841  0.0131  0.3653 -0.0214
 1640SOL    HW116556   3.296   2.053   5.786 -1.1426  0.5908 -0.2103
 1640SOL    HW216557   3.364   1.955   5.857 -0.0516 -0.0169 -0.1861
 1641SOL     OW16558   3.480   2.151   5.728 -0.5071 -0.0919 -0.6447
 1641SOL    HW116559   3.549   2.126   5.667 -0.1570 -1.7911  0.4572
 1641SOL    HW216560   3.422   2.192   5.664 -0.2154  1.1948 -0.0986
 1642SOL     OW16561   3.225   0.026   8.694  0.1730 -0.5391 -0.4030
 1642SOL    HW116562   3.141   4.725   8.668 -0.6470  0.0604  1.3279
 1642SOL    HW216563   3.194   0.077   8.770 -4.0527 -0.0334 -2.4309
 1643SOL     OW16564   4.293   2.572   3.951 -0.2922  0.0820 -0.6063
 1643SOL    HW116565   4.283   2.564   4.046  3.6851 -1.0744 -0.2694
 1643SOL    HW216566   4.204   2.567   3.915 -0.5217 -0.8713  0.0863
 1644SOL     OW16567   3.928   1.720   6.090  0.1725  0.5275  0.4342
 1644SOL    HW116568   3.859   1.784   6.107  1.7105  2.3681 -0.2952
 1644SOL    HW216569   3.954   1.682   6.174 -0.9279  0.5462  0.7854
 1645SOL     OW16570   3.748   4.641   1.604 -0.3496  0.5318  0.0122
 1645SOL    HW116571   3.752   4.575   1.535 -1.1882  0.9904 -0.4686
 1645SOL    HW216572   3.703   4.714   1.563  1.4626  0.7163 -1.6599
 1646SOL     OW16573   4.676   3.366  14.139  0.2354  0.2367  0.5267
 1646SOL    HW116574   4.669   3.387  14.232  2.2467  0.1632  0.6935
 1646SOL    HW216575   4.719   3.281  14.133  1.0066  0.5175  2.1001
 1647SOL     OW16576   3.033   3.679  12.855 -0.2594 -0.2681 -0.4656
 1647SOL    HW116577   3.109   3.622  12.868 -0.1420  0.3462  1.4389
 1647SOL    HW216578   3.067   3.767  12.868  0.8915 -0.6547 -0.8607
 1648SOL     OW16579   1.078   4.411   0.049 -0.4519  0.0049  0.3488
 1648SOL    HW116580   0.984   4.403   0.066 -0.1676 -2.1387  0.9554
 1648SOL    HW216581   1.089   4.506   0.044 -0.0934  0.0409  1.7605
 1649SOL     OW16582   1.377   1.829  14.244  0.1118 -0.3177  0.0679
 1649SOL    HW116583   1.342   1.806  14.158 -2.3508 -3.2592  1.8567
 1649SOL    HW216584   1.314   1.896  14.272 -0.0958 -0.7031  0.5273
 1650SOL     OW16585   1.963   4.568   8.573 -0.1271 -0.0785  0.4353
 1650SOL    HW116586   2.015   4.524   8.506 -0.1648 -0.6210  0.7586
 1650SOL    HW216587   2.030   4.619   8.618  0.2529 -1.3634  1.3335
 1651SOL     OW16588   4.668   0.422  17.633  0.8373 -0.0848  0.1682
 1651SOL    HW116589   4.716   0.367  17.693  1.0198 -0.7528 -0.5901
 1651SOL    HW216590   0.001   0.454  17.576 -0.4870 -0.8592 -1.9381
 1652SOL     OW16591   1.736   1.027  15.395 -0.3318 -0.1379  0.8416
 1652SOL    HW116592   1.806   1.026  15.460 -1.9954 -2.2170  2.5786
 1652SOL    HW216593   1.775   0.964  15.335  0.1121 -0.1024  1.0933
 1653SOL     OW16594   1.315   1.886  17.510  0.2537  0.1739 -0.1293
 1653SOL    HW116595   1.238   1.895  17.454 -1.0502 -2.2684  1.2570
 1653SOL    HW216596   1.314   1.790  17.513  2.1596  0.2106  1.5409
 1654SOL     OW16597   0.953   0.136   6.660  0.3899 -0.1742 -0.0469
 1654SOL    HW116598   0.979   0.134   6.568 -0.3504  1.0464 -0.2841
 1654SOL    HW216599   0.997   0.057   6.693 -0.9513 -1.7024 -1.9108
 1655SOL     OW16600   1.815   1.175   9.806 -0.3657 -0.6068 -0.0946
 1655SOL    HW116601   1.807   1.179   9.901 -1.1711 -1.5903 -0.1250
 1655SOL    HW216602   1.762   1.251   9.780 -0.1257 -0.8328 -1.2349
 1656SOL     OW16603   3.752   2.348   7.435 -0.4835  0.7162  0.0534
 1656SOL    HW116604   3.722   2.324   7.348  1.3036 -0.9131 -0.1091
 1656SOL    HW216605   3.667   2.373   7.473 -0.8047  0.5114 -0.5242
 1657SOL     OW16606   0.900   0.717  13.916 -0.0214  0.0817  0.2186
 1657SOL    HW116607   0.856   0.755  13.840 -0.4013  0.8417  0.8103
 1657SOL    HW216608   0.855   0.633  13.925 -0.0240  0.5143  4.1065
 1658SOL     OW16609   1.010   4.504   4.718 -0.5020  0.7538 -0.2658
 1658SOL    HW116610   0.938   4.478   4.775  1.1242 -1.3141  0.8316
 1658SOL    HW216611   1.081   4.507   4.782 -1.9006  2.1193  1.2147
 1659SOL     OW16612   4.580   1.450  11.502 -0.1596 -0.3687 -0.4562
 1659SOL    HW116613   4.489   1.441  11.529  0.2151 -0.8850  0.6262
 1659SOL    HW216614   4.624   1.460  11.586  2.5425  0.8375 -2.0064
 1660SOL     OW16615   3.638   1.332  12.030  0.6131 -0.1726  0.1492
 1660SOL    HW116616   3.656   1.245  12.067 -0.8050  0.3558  2.0298
 1660SOL    HW216617   3.665   1.322  11.938 -0.7341  0.5127 -0.3180
 1661SOL     OW16618   3.983   3.580   7.952 -0.3088 -0.9288 -0.6354
 1661SOL    HW116619   4.019   3.585   8.040 -0.0250  1.5737 -0.9157
 1661SOL    HW216620   3.910   3.520   7.967 -0.8621  0.1344  0.7942
 1662SOL     OW16621   0.888   4.708   2.120  0.0438  0.6331  0.0335
 1662SOL    HW116622   0.793   4.716   2.130  0.1282  0.8790  0.6373
 1662SOL    HW216623   0.890   4.629   2.066  1.4098 -0.8607  2.2713
 1663SOL     OW16624   4.247   3.352   4.625 -0.2061 -0.6018 -0.1061
 1663SOL    HW116625   4.153   3.338   4.640 -0.2456 -0.0647  0.1337
 1663SOL    HW216626   4.243   3.439   4.587 -0.0945 -0.1183  0.9875
 1664SOL     OW16627   0.748   1.854   2.591  0.0505  0.2665  0.1971
 1664SOL    HW116628   0.677   1.919   2.595 -0.4860 -0.2300 -1.2641
 1664SOL    HW216629   0.759   1.842   2.685  0.7806 -1.4192 -0.1119
 1665SOL     OW16630   1.339   3.897  10.473  0.1193 -0.3368  0.5174
 1665SOL    HW116631   1.284   3.858  10.541 -0.8448  0.0114 -0.0684
 1665SOL    HW216632   1.270   3.949  10.432  2.7218  0.7553 -2.4692
 1666SOL     OW16633   3.663   2.096   5.325  0.2539  0.2044 -0.0850
 1666SOL    HW116634   3.684   2.065   5.413 -0.6495 -0.9359 -0.2667
 1666SOL    HW216635   3.636   2.020   5.274 -0.1497  0.7982 -0.7694
 1667SOL     OW16636   3.931   1.214   8.862 -0.2493 -0.4201  0.2596
 1667SOL    HW116637   3.928   1.259   8.946  1.0631 -3.7734  2.1001
 1667SOL    HW216638   3.964   1.132   8.901 -2.4307 -1.2567  0.3225
 1668SOL     OW16639   2.004   1.419   5.138  0.7298  0.4756  0.1474
 1668SOL    HW116640   1.993   1.515   5.139 -2.7146  0.0796 -0.5739
 1668SOL    HW216641   2.066   1.403   5.209  0.0786  0.4276  0.6997
 1669SOL     OW16642   0.721   1.702   3.523  0.0639  0.3564 -0.1472
 1669SOL    HW116643   0.659   1.629   3.531  0.6286  0.2451  2.9966
 1669SOL    HW216644   0.661   1.772   3.550  0.0309  0.2466  0.0603
 1670SOL     OW16645   3.596   3.825   4.157  0.4364 -0.6280 -0.1452
 1670SOL    HW116646   3.667   3.862   4.209  0.2087 -3.0858  1.8979
 1670SOL    HW216647   3.630   3.737   4.146 -0.4243 -0.9576 -0.2113
 1671SOL     OW16648   1.354   3.332   1.193 -0.4213  0.3458 -0.0409
 1671SOL    HW116649   1.270   3.375   1.176 -0.6289 -0.4120 -0.9957
 1671SOL    HW216650   1.339   3.284   1.275 -0.4351 -0.5957 -0.5852
 1672SOL     OW16651   3.360   1.322   6.580 -0.3970  0.5208  0.5886
 1672SOL    HW116652   3.360   1.228   6.598 -2.3340  0.5723  0.9071
 1672SOL    HW216653   3.453   1.344   6.587  0.4022 -2.5865 -0.1714
 1673SOL     OW16654   0.297   3.795  14.843 -0.6402  0.2851 -0.0814
 1673SOL    HW116655   0.255   3.807  14.758 -2.6356  0.2191  0.9069
 1673SOL    HW216656   0.229   3.764  14.901  0.5371 -0.8799  0.6711
 1674SOL     OW16657   4.653   3.591  13.960  0.7588 -0.4032 -0.0755
 1674SOL    HW116658   0.006   3.570  13.938  0.2686 -1.3708 -1.1721
 1674SOL    HW216659   4.628   3.516  14.014  2.2527 -1.6137 -1.0573
 1675SOL     OW16660   4.040   2.497   7.620  0.7538  0.2571  0.1012
 1675SOL    HW116661   4.042   2.479   7.526 -1.0624 -0.1055  0.1273
 1675SOL    HW216662   3.950   2.527   7.627  1.0860  0.5866  2.7759
 1676SOL     OW16663   2.088   0.427  17.433  0.4263  0.8926 -0.6381
 1676SOL    HW116664   2.111   0.336  17.453  1.3587  0.7265 -2.4793
 1676SOL    HW216665   2.030   0.447  17.507  0.0727 -0.5983 -0.5243
 1677SOL     OW16666   2.164   1.553  12.628 -0.4239 -0.1211  0.1967
 1677SOL    HW116667   2.251   1.589  12.614 -0.7878  1.3218  1.6809
 1677SOL    HW216668   2.115   1.631  12.652  1.9488  1.4877 -0.2547
 1678SOL     OW16669   1.292   0.159  14.258  0.1476  0.1061  0.7915
 1678SOL    HW116670   1.240   0.167  14.338 -1.8336 -2.1309 -0.2592
 1678SOL    HW216671   1.235   0.219  14.212  0.9731  1.4295  1.4977
 1679SOL     OW16672   3.754   0.055  15.055 -0.3857 -0.7685  0.3018
 1679SOL    HW116673   3.705   0.118  15.108  0.5537 -0.4101  0.7405
 1679SOL    HW216674   3.749   4.710  15.104 -0.5597 -0.2423  1.1564
 1680SOL     OW16675   2.417   2.719   2.277 -0.5663  0.4734 -0.0788
 1680SOL    HW116676   2.390   2.682   2.192  0.6042 -1.8597  0.5734
 1680SOL    HW216677   2.460   2.645   2.320  0.2779  1.2567  0.4192
 1681SOL     OW16678   0.739   4.697   7.727 -0.3843 -0.2747 -1.0577
 1681SOL    HW116679   0.731   4.647   7.646  1.5880 -2.0174 -0.1666
 1681SOL    HW216680   0.824   4.661   7.752 -0.5324  2.0938  2.9500
 1682SOL     OW16681   2.232   0.651   8.103 -0.0028 -0.3266 -0.1648
 1682SOL    HW116682   2.164   0.712   8.076 -1.6498 -0.9694  2.6289
 1682SOL    HW216683   2.310   0.706   8.097 -0.3672  0.3199  1.1472
 1683SOL     OW16684   2.683   2.864   4.052 -0.3517 -0.1093 -0.1451
 1683SOL    HW116685   2.641   2.938   4.096  0.8044 -0.2684  1.2375
 1683SOL    HW216686   2.626   2.789   4.069 -0.8762 -0.0425 -1.6248
 1684SOL     OW16687   2.520   1.204   9.414 -0.1870 -0.4006 -0.1395
 1684SOL    HW116688   2.447   1.251   9.373 -0.9054 -2.1778 -0.9223
 1684SOL    HW216689   2.588   1.250   9.364  0.1106 -3.6001 -2.7116
 1685SOL     OW16690   0.645   3.932   6.221 -0.3763  0.2576 -0.0622
 1685SOL    HW116691   0.641   3.928   6.316  2.2177 -1.1934 -0.0137
 1685SOL    HW216692   0.714   3.866   6.210  0.5978  1.2232  0.1857
 1686SOL     OW16693   3.175   4.640  15.622  0.8172 -0.8711 -0.6677
 1686SOL    HW116694   3.226   4.595  15.689  1.4717 -1.1855 -1.3769
 1686SOL    HW216695   3.169   4.566  15.563  0.1544 -1.4812  0.1638
 1687SOL     OW16696   1.212   2.398   1.462 -0.0178 -0.3464 -0.5124
 1687SOL    HW116697   1.254   2.485   1.457  1.9306 -1.2441  0.3097
 1687SOL    HW216698   1.283   2.339   1.435 -1.6245 -1.4880 -2.2604
 1688SOL     OW16699   2.373   0.955  17.264 -0.1705 -0.4475  0.0536
 1688SOL    HW116700   2.375   1.030  17.204 -0.3212 -1.3589 -1.0986
 1688SOL    HW216701   2.278   0.960  17.276 -0.0702 -2.4805  1.5208
 1689SOL     OW16702   2.842   3.610   7.254  0.0967 -0.0765 -0.0173
 1689SOL    HW116703   2.753   3.579   7.270  0.1759  0.8804  2.2056
 1689SOL    HW216704   2.846   3.602   7.158 -1.6107 -0.5078 -0.0481
 1690SOL     OW16705   0.279   2.249   6.156 -0.2210  0.1984 -0.1939
 1690SOL    HW116706   0.365   2.289   6.167  0.3368 -1.2031  0.5296
 1690SOL    HW216707   0.231   2.327   6.185  0.2966  0.4103  0.0950
 1691SOL     OW16708   1.696   0.681  10.503 -0.1678 -0.2935 -0.2193
 1691SOL    HW116709   1.632   0.631  10.554 -0.0095  0.5067  0.7851
 1691SOL    HW216710   1.639   0.749  10.465  3.0898  1.1104 -2.5395
 1692SOL     OW16711   0.020   4.065  15.019  0.4979  0.5874 -0.2522
 1692SOL    HW116712   0.023   3.996  15.086  1.1597 -1.4907 -2.4423
 1692SOL    HW216713   4.673   4.043  14.980  1.2408 -1.0217 -0.9521
 1693SOL     OW16714   4.045   0.135  12.530  0.3397 -0.0845  0.3878
 1693SOL    HW116715   3.985   0.206  12.509  0.0856 -0.2460  0.5592
 1693SOL    HW216716   4.031   0.080  12.453 -2.0790  0.3489  0.5151
 1694SOL     OW16717   0.922   0.898   4.771 -0.2997  0.0253 -0.3876
 1694SOL    HW116718   1.011   0.930   4.754 -0.1323 -0.1231  0.2183
 1694SOL    HW216719   0.871   0.956   4.714  0.6603 -0.2627 -1.5558
 1695SOL     OW16720   0.550   3.015   1.711 -0.1987 -0.0947  0.2178
 1695SOL    HW116721   0.557   2.921   1.694  3.5053  0.3161 -0.7115
 1695SOL    HW216722   0.526   3.021   1.803 -0.1713  0.2321  0.2008
 1696SOL     OW16723   2.411   0.641   2.536 -0.5103 -0.3034 -0.2581
 1696SOL    HW116724   2.495   0.658   2.579  0.4017  1.3721 -2.6472
 1696SOL    HW216725   2.425   0.671   2.446  0.2066  1.3175  0.3851
 1697SOL     OW16726   4.488   0.436   7.467 -0.3078 -0.2910 -0.4198
 1697SOL    HW116727   4.415   0.498   7.474 -0.7789 -0.7652 -1.0610
 1697SOL    HW216728   4.560   0.494   7.445 -0.5909  1.0714  2.1930
 1698SOL     OW16729   3.544   1.220   4.654  0.3155 -0.6948 -0.2392
 1698SOL    HW116730   3.537   1.239   4.560  0.2284  1.1579  0.1414
 1698SOL    HW216731   3.451   1.206   4.670  0.0018  1.2112 -0.4042
 1699SOL     OW16732   0.257   4.268   2.656  0.4497  0.3907 -0.4609
 1699SOL    HW116733   0.269   4.227   2.742  1.0468  0.2916 -0.5904
 1699SOL    HW216734   0.344   4.303   2.637  1.1254 -1.2195 -0.4044
 1700SOL     OW16735   3.609   2.330   6.808  0.3915 -0.1830 -0.3862
 1700SOL    HW116736   3.549   2.368   6.744  0.1712  1.7494  0.9606
 1700SOL    HW216737   3.562   2.256   6.846 -2.2522  2.1900  0.9020
 1701SOL     OW16738   2.099   3.677  16.142  0.1517 -0.1284 -0.1077
 1701SOL    HW116739   2.080   3.588  16.114  3.0039 -1.3161  1.7160
 1701SOL    HW216740   2.064   3.732  16.072 -2.0196  0.4411  1.4345
 1702SOL     OW16741   3.058   3.951   2.162  0.3023  0.4428 -0.2160
 1702SOL    HW116742   3.146   3.930   2.192  0.7489  0.9000 -1.2141
 1702SOL    HW216743   3.072   4.033   2.115  2.7010  0.7656  1.0967
 1703SOL     OW16744   0.604   2.494  17.212  0.3856  0.3471 -0.3086
 1703SOL    HW116745   0.575   2.503  17.302  0.9305 -0.8903 -0.0121
 1703SOL    HW216746   0.569   2.409  17.184 -0.5387  0.9830 -1.0925
 1704SOL     OW16747   3.171   0.523   2.226 -0.0390  0.0466 -0.4592
 1704SOL    HW116748   3.146   0.567   2.144 -2.3855 -0.2796  0.0793
 1704SOL    HW216749   3.255   0.565   2.247 -0.5264  1.4356 -1.2324
 1705SOL     OW16750   2.424   3.920   4.910  0.0011  0.5757 -0.0902
 1705SOL    HW116751   2.440   4.008   4.875  0.8895  0.1220 -0.8256
 1705SOL    HW216752   2.496   3.912   4.974  0.8584  1.3279 -0.9609
 1706SOL     OW16753   3.121   0.821   6.749 -0.2567 -0.1685  0.1240
 1706SOL    HW116754   3.089   0.907   6.721  1.2261 -0.4094 -2.3414
 1706SOL    HW216755   3.163   0.839   6.833  1.1834  1.3880 -0.9333
 1707SOL     OW16756   3.006   1.134   5.620 -0.1311  0.4342  0.5502
 1707SOL    HW116757   3.069   1.068   5.650 -1.5835 -1.6603 -0.9876
 1707SOL    HW216758   3.063   1.181   5.559  1.0098 -0.4654  0.9245
 1708SOL     OW16759   1.324   3.375   8.310  0.8724  0.0446  0.4593
 1708SOL    HW116760   1.361   3.291   8.338  1.9688 -0.1742 -1.6499
 1708SOL    HW216761   1.308   3.366   8.216 -1.3358 -0.5336  0.8889
 1709SOL     OW16762   1.817   2.766   1.707 -0.3268  0.1288 -0.5830
 1709SOL    HW116763   1.894   2.788   1.759 -1.0718  0.4584  0.3768
 1709SOL    HW216764   1.855   2.702   1.647  0.6488  0.9669 -0.8590
 1710SOL     OW16765   3.786   3.369   7.303 -0.3745 -0.0139 -0.5123
 1710SOL    HW116766   3.830   3.390   7.221 -2.6423 -2.2434 -2.2963
 1710SOL    HW216767   3.791   3.455   7.344 -0.6142  0.2496 -1.0313
 1711SOL     OW16768   3.394   0.642   5.865  0.5186 -0.3111  0.5709
 1711SOL    HW116769   3.433   0.598   5.940  1.1806  0.4131  0.6458
 1711SOL    HW216770   3.462   0.637   5.797  0.0669  1.3945  0.0054
 1712SOL     OW16771   0.673   1.772   7.569 -0.1290  0.1629  0.2705
 1712SOL    HW116772   0.579   1.762   7.586 -0.2150  1.1680  0.3479
 1712SOL    HW216773   0.680   1.866   7.556  0.0914 -0.0191 -0.9745
 1713SOL     OW16774   1.792   3.721   5.981  0.1084 -0.0121  0.3765
 1713SOL    HW116775   1.747   3.673   6.050 -2.2428  1.3255 -0.2582
 1713SOL    HW216776   1.847   3.784   6.028 -0.5218  1.2910 -0.6509
 1714SOL     OW16777   4.495   3.356  14.829 -0.0561 -0.3744 -0.1996
 1714SOL    HW116778   4.457   3.442  14.807 -0.1754 -0.7773 -1.6051
 1714SOL    HW216779   4.569   3.367  14.889 -1.5038  1.8884  1.1946
 1715SOL     OW16780   4.572   3.972   9.067 -0.3410  0.5094  0.6612
 1715SOL    HW116781   4.551   3.896   9.121  0.9320 -0.1184  0.2693
 1715SOL    HW216782   4.601   3.931   8.985 -2.0993  2.4506 -0.9511
 1716SOL     OW16783   3.636   0.542  17.175  0.1805 -0.4242 -0.3656
 1716SOL    HW116784   3.728   0.529  17.198  0.3853 -0.2418 -1.0678
 1716SOL    HW216785   3.592   0.487  17.240  1.8504 -0.3395  0.8197
 1717SOL     OW16786   4.179   0.426  10.048 -0.1295 -0.2386  0.0317
 1717SOL    HW116787   4.127   0.463   9.977 -0.6958  0.4496  0.7941
 1717SOL    HW216788   4.268   0.441  10.019  0.3318  0.8334  2.0049
 1718SOL     OW16789   0.556   0.756   9.868  0.0339 -0.5952 -0.2740
 1718SOL    HW116790   0.556   0.724   9.958 -0.0706  1.3485  0.4088
 1718SOL    HW216791   0.610   0.687   9.830  2.0423  0.7888  0.0902
 1719SOL     OW16792   1.344   2.408   8.522  0.1392 -0.6311  0.2335
 1719SOL    HW116793   1.377   2.354   8.450 -0.3435  1.0087 -1.2357
 1719SOL    HW216794   1.273   2.454   8.477  0.9907 -1.3211 -1.8028
 1720SOL     OW16795   0.398   1.416   3.803 -0.3939  0.0955 -0.6267
 1720SOL    HW116796   0.450   1.418   3.883 -2.1958 -0.5964  0.5715
 1720SOL    HW216797   0.323   1.473   3.820 -1.8207 -1.3224 -2.1777
 1721SOL     OW16798   1.929   1.876   0.559  0.0163  0.1475 -0.4700
 1721SOL    HW116799   1.849   1.893   0.609 -0.3459  0.5065 -1.1793
 1721SOL    HW216800   1.916   1.787   0.528  0.6270 -0.4354  0.9602
 1722SOL     OW16801   0.027   2.995   7.162 -0.0699  0.4906 -1.0787
 1722SOL    HW116802   0.106   2.943   7.153 -0.6131 -0.5194 -0.0599
 1722SOL    HW216803   0.052   3.074   7.115  0.4240  2.2377  2.1242
 1723SOL     OW16804   0.633   2.553  14.065  0.0612 -0.0434  0.4209
 1723SOL    HW116805   0.663   2.512  14.146 -0.6344 -0.1782  0.6122
 1723SOL    HW216806   0.652   2.475  14.013  1.1919 -0.8742  2.0803
 1724SOL     OW16807   4.429   2.676   8.683  0.2372 -0.2492 -0.6528
 1724SOL    HW116808   4.378   2.713   8.611 -0.9578  1.3268  0.9631
 1724SOL    HW216809   4.358   2.623   8.721 -0.1170  0.7364  0.0866
 1725SOL     OW16810   1.429   3.756   9.064 -0.4702 -0.4567  0.4644
 1725SOL    HW116811   1.367   3.825   9.041  0.6524  0.0462 -1.0104
 1725SOL    HW216812   1.400   3.692   9.000  1.3894 -0.6238 -0.2208
 1726SOL     OW16813   1.271   0.072  16.498  0.0892 -0.1226  0.1677
 1726SOL    HW116814   1.298   0.036  16.413  1.5738  0.1567  0.5317
 1726SOL    HW216815   1.303   0.002  16.555 -0.0221 -0.7886 -0.5796
 1727SOL     OW16816   2.977   2.279  14.326 -0.2747  0.4504  0.0331
 1727SOL    HW116817   2.997   2.191  14.295 -0.2149  0.3158  0.4519
 1727SOL    HW216818   2.916   2.315  14.262 -1.1917 -0.8316  0.1944
 1728SOL     OW16819   1.512   2.064   0.860  0.1040  0.3584  0.8450
 1728SOL    HW116820   1.464   2.131   0.909 -0.6145 -1.6247  2.8765
 1728SOL    HW216821   1.443   2.001   0.838 -0.3686  0.3198  2.4696
 1729SOL     OW16822   2.479   4.277   7.168  1.1015 -0.0610 -0.0140
 1729SOL    HW116823   2.470   4.279   7.263 -1.5698  3.0387 -0.3301
 1729SOL    HW216824   2.574   4.285   7.162  0.7280  2.3013 -2.9745
 1730SOL     OW16825   0.567   1.665   8.034  0.2602 -0.2909 -0.3037
 1730SOL    HW116826   0.630   1.593   8.024 -1.2519 -1.6480  0.0383
 1730SOL    HW216827   0.488   1.616   8.055 -0.9932  0.6923 -2.7669
 1731SOL     OW16828   0.920   0.473   3.708  0.0935  0.9883  0.2742
 1731SOL    HW116829   0.992   0.522   3.748  1.9066 -0.8634 -0.7177
 1731SOL    HW216830   0.937   0.479   3.614 -0.8474  0.8974  0.0990
 1732SOL     OW16831   2.774   1.091   6.170 -0.1436 -0.5010 -0.2072
 1732SOL    HW116832   2.809   1.095   6.259 -1.3217 -1.1108  0.2816
 1732SOL    HW216833   2.852   1.052   6.130 -0.0414 -2.0633  1.5103
 1733SOL     OW16834   3.504   0.076   8.645  0.2569 -0.0394  0.1838
 1733SOL    HW116835   3.427   0.026   8.671 -0.1866  0.1096 -0.8842
 1733SOL    HW216836   3.555   0.082   8.727 -0.0363  0.6320  0.3090
 1734SOL     OW16837   1.049   3.784  15.451  0.0906  0.6415  0.3783
 1734SOL    HW116838   0.982   3.798  15.384 -0.5234 -0.5949  0.7375
 1734SOL    HW216839   1.057   3.877  15.471  1.7055  0.5313  0.1732
 1735SOL     OW16840   2.325   0.459   0.837 -0.0313 -0.4540 -0.0431
 1735SOL    HW116841   2.385   0.474   0.910 -0.0619 -0.0317 -0.1069
 1735SOL    HW216842   2.322   0.547   0.800 -0.9650  0.0757  1.2720
 1736SOL     OW16843   1.000   1.327   9.214  0.4277  0.0558  0.2671
 1736SOL    HW116844   0.992   1.369   9.128 -0.3350 -1.0753 -0.1993
 1736SOL    HW216845   1.059   1.255   9.194 -0.5141 -0.4628 -0.6261
 1737SOL     OW16846   3.607   1.938   9.546 -0.2825 -0.0112  0.2812
 1737SOL    HW116847   3.607   1.931   9.641  3.6285  1.1568  0.3736
 1737SOL    HW216848   3.618   1.846   9.524  0.5803  0.7693 -2.5675
 1738SOL     OW16849   3.596   1.312   7.866  0.0576  0.2228 -0.3267
 1738SOL    HW116850   3.652   1.373   7.914 -0.8578 -0.2569  1.3669
 1738SOL    HW216851   3.555   1.370   7.802 -0.1793 -2.2982 -2.4366
 1739SOL     OW16852   0.052   0.901   4.717  0.1102  0.1288 -0.0887
 1739SOL    HW116853   0.109   0.959   4.766  2.2330 -2.2004  0.2219
 1739SOL    HW216854   0.086   0.903   4.628  0.7862 -1.2781  0.1238
 1740SOL     OW16855   1.871   1.408   4.055  0.2026 -0.1421  0.2989
 1740SOL    HW116856   1.895   1.426   3.964  0.9749  2.3537  1.0004
 1740SOL    HW216857   1.812   1.334   4.040  0.2869  0.2538 -1.9031
 1741SOL     OW16858   1.383   3.486   5.412 -0.2383  0.7473  0.4392
 1741SOL    HW116859   1.331   3.469   5.334  3.4106  1.9935 -2.2366
 1741SOL    HW216860   1.393   3.581   5.416  0.3886  0.7103 -0.2195
 1742SOL     OW16861   0.221   1.489   4.787 -0.0310 -0.3270 -0.1719
 1742SOL    HW116862   0.278   1.451   4.720 -0.3060 -1.0425  0.0090
 1742SOL    HW216863   0.156   1.421   4.804  0.0269 -0.3158  0.0929
 1743SOL     OW16864   1.118   2.592   7.068  0.3948  0.3667  0.2291
 1743SOL    HW116865   1.138   2.676   7.028 -1.3788 -1.1611 -3.8883
 1743SOL    HW216866   1.047   2.617   7.126  0.1741 -0.2944  0.2444
 1744SOL     OW16867   1.843   3.979  16.531 -0.1749  0.6744  0.3592
 1744SOL    HW116868   1.786   4.034  16.477 -1.4920  2.9798  4.1127
 1744SOL    HW216869   1.872   3.925  16.458 -0.6593  0.6246  0.2022
 1745SOL     OW16870   2.188   3.428   4.298  0.0765  0.4104 -0.0634
 1745SOL    HW116871   2.128   3.354   4.309  2.4164 -1.6804 -1.4244
 1745SOL    HW216872   2.218   3.453   4.385 -2.0105  0.5296  0.6225
 1746SOL     OW16873   0.930   0.373   1.711 -0.0932 -0.4571  0.6076
 1746SOL    HW116874   1.000   0.371   1.777  1.3585 -0.1690 -0.9088
 1746SOL    HW216875   0.958   0.451   1.663  0.1711  0.8046  2.7992
 1747SOL     OW16876   2.107   3.312   9.376  0.6443 -0.2689  0.4618
 1747SOL    HW116877   2.071   3.231   9.341 -1.4063  1.3068 -1.1092
 1747SOL    HW216878   2.116   3.287   9.467 -1.2453 -0.4454  0.6149
 1748SOL     OW16879   0.880   4.521   3.785 -0.3711 -0.2587  0.0240
 1748SOL    HW116880   0.925   4.515   3.869  0.8238  2.6010 -0.4212
 1748SOL    HW216881   0.844   4.609   3.781 -1.7040 -0.8212 -0.5385
 1749SOL     OW16882   1.326   2.590  12.729  0.1387  0.2129 -0.2068
 1749SOL    HW116883   1.412   2.549  12.720  0.0539  0.4139 -1.8879
 1749SOL    HW216884   1.273   2.565  12.654 -0.3651  0.2972  0.1223
 1750SOL     OW16885   2.175   2.904   3.781 -0.5380  0.2967 -0.1364
 1750SOL    HW116886   2.216   2.958   3.713  0.0847  0.2054  0.1708
 1750SOL    HW216887   2.123   2.836   3.738 -0.7845  0.4170 -0.0289
 1751SOL     OW16888   0.181   2.557   2.651  0.5816  0.3281  0.0962
 1751SOL    HW116889   0.206   2.561   2.743  0.0196  2.7082  0.1307
 1751SOL    HW216890   0.100   2.608   2.649  0.2971 -0.0931  0.6367
 1752SOL     OW16891   4.146   2.698   7.246  0.2462 -0.5520  0.0304
 1752SOL    HW116892   4.118   2.669   7.159  1.0378 -0.7416 -0.1625
 1752SOL    HW216893   4.160   2.792   7.234 -0.4293 -0.4730 -0.1305
 1753SOL     OW16894   3.728   3.131   7.997 -0.1959  0.7242 -0.6899
 1753SOL    HW116895   3.762   3.219   8.014  1.1630 -0.3543  2.1937
 1753SOL    HW216896   3.660   3.118   8.064 -0.0010 -1.9120 -1.0249
 1754SOL     OW16897   2.444   4.028   6.012 -0.1870 -0.2996 -0.0222
 1754SOL    HW116898   2.533   4.054   5.989 -0.3530 -1.0719 -1.5562
 1754SOL    HW216899   2.411   4.025   5.922  1.3270 -1.2572 -0.5538
 1755SOL     OW16900   2.530   1.701   2.203  0.1543 -1.1638  0.0439
 1755SOL    HW116901   2.559   1.668   2.117  1.0376  0.3208 -0.2338
 1755SOL    HW216902   2.543   1.627   2.262  0.8873 -2.4720 -1.7403
 1756SOL     OW16903   4.438   3.268   2.852 -0.3158 -0.3764  0.1062
 1756SOL    HW116904   4.406   3.240   2.937  2.2562 -1.5563  0.6723
 1756SOL    HW216905   4.506   3.335   2.860  0.4919 -1.2975  0.8965
 1757SOL     OW16906   0.476   1.108   5.135 -0.2170  0.2197  0.6504
 1757SOL    HW116907   0.523   1.061   5.066  2.0755  3.1564  0.1981
 1757SOL    HW216908   0.499   1.052   5.209 -0.0231  0.3427  0.6840
 1758SOL     OW16909   0.593   1.417  15.407 -0.2630  0.3562  0.2083
 1758SOL    HW116910   0.507   1.444  15.440  1.5693  1.6020  3.9133
 1758SOL    HW216911   0.576   1.335  15.360 -0.7612  1.9837 -2.4351
 1759SOL     OW16912   0.654   2.537  13.143  0.3704 -0.3144  0.5139
 1759SOL    HW116913   0.633   2.460  13.196  0.0271 -1.4732 -1.3073
 1759SOL    HW216914   0.722   2.581  13.194  0.6539  0.2843 -0.3735
 1760SOL     OW16915   3.535   3.520  11.787  0.2541 -0.2219 -0.1035
 1760SOL    HW116916   3.474   3.451  11.812 -1.4216  1.3396  0.2168
 1760SOL    HW216917   3.469   3.590  11.778 -0.3994 -0.5452  2.2048
 1761SOL     OW16918   1.460   1.098   2.784 -0.0425 -0.5942 -0.6766
 1761SOL    HW116919   1.500   1.175   2.826 -0.6602 -0.0203 -1.1391
 1761SOL    HW216920   1.511   1.026   2.819  2.9185  1.3850 -0.9058
 1762SOL     OW16921   4.176   0.104   8.391 -0.0613  0.5651  0.0499
 1762SOL    HW116922   4.146   0.029   8.441  0.5110 -1.1680 -2.2281
 1762SOL    HW216923   4.251   0.137   8.440 -0.1012  0.0911  0.4249
 1763SOL     OW16924   0.990   1.723   1.477  0.5658  0.2751  0.1526
 1763SOL    HW116925   0.960   1.754   1.391 -0.4613 -0.3349  0.2925
 1763SOL    HW216926   0.903   1.724   1.517  0.3692  2.1171 -0.3161
 1764SOL     OW16927   0.914   4.093  10.604  0.1490 -0.1430  0.7709
 1764SOL    HW116928   1.002   4.069  10.577  0.5333  1.2289  0.8173
 1764SOL    HW216929   0.869   4.009  10.593  0.5917 -0.1591 -0.8778
 1765SOL     OW16930   1.183   4.093   6.361  0.0922 -0.8341  0.1190
 1765SOL    HW116931   1.168   4.112   6.454 -0.0471 -0.0126 -0.0761
 1765SOL    HW216932   1.244   4.019   6.370 -0.8200 -1.6620 -0.5598
 1766SOL     OW16933   1.450   1.908   5.716 -0.4487  0.5287  0.4752
 1766SOL    HW116934   1.355   1.897   5.710 -0.5451  1.7696 -0.4256
 1766SOL    HW216935   1.450   2.003   5.704  0.7009  0.6384  1.3279
 1767SOL     OW16936   1.049   2.847  11.831  0.2087 -0.2043  0.3227
 1767SOL    HW116937   1.128   2.828  11.882  0.2253 -4.3247 -1.2734
 1767SOL    HW216938   1.065   2.940  11.811  1.2406 -0.4223  0.1137
 1768SOL     OW16939   1.635   2.704   8.104  0.5459 -0.6337 -0.9544
 1768SOL    HW116940   1.631   2.767   8.032 -2.6441  0.1266 -0.0902
 1768SOL    HW216941   1.549   2.714   8.145 -0.0118 -1.6068 -1.8931
 1769SOL     OW16942   4.100   4.563   6.011  0.3276 -0.0678  0.1517
 1769SOL    HW116943   4.030   4.564   6.076 -0.1023 -0.5329 -0.3043
 1769SOL    HW216944   4.043   4.560   5.934  1.2241 -0.2069 -0.5048
 1770SOL     OW16945   4.367   4.511   4.328  0.1831 -0.1151  0.0035
 1770SOL    HW116946   4.306   4.582   4.307 -1.6885 -1.4147  1.1204
 1770SOL    HW216947   4.439   4.563   4.365 -0.5585  1.5785 -0.9538
 1771SOL     OW16948   0.293   4.492   6.595 -0.3487 -0.2795 -0.0420
 1771SOL    HW116949   0.281   4.485   6.690 -2.4841  2.1160 -0.1252
 1771SOL    HW216950   0.381   4.528   6.599 -0.0884 -1.0827  1.5331
 1772SOL     OW16951   0.265   2.446   1.446 -0.0890  0.1180  0.0134
 1772SOL    HW116952   0.202   2.514   1.420  0.7288  1.0726  0.5442
 1772SOL    HW216953   0.204   2.372   1.456  1.5859 -1.4492 -1.4655
 1773SOL     OW16954   1.125   2.651   9.543  0.1461 -0.0495 -0.5433
 1773SOL    HW116955   1.102   2.713   9.473 -1.0431  1.2058  0.9468
 1773SOL    HW216956   1.195   2.694   9.591 -0.1994 -0.8850  0.7023
 1774SOL     OW16957   0.380   3.662  12.613  0.0985 -0.1381  0.4774
 1774SOL    HW116958   0.319   3.605  12.661 -1.7293  2.0797  0.8232
 1774SOL    HW216959   0.320   3.700  12.549  0.2382 -0.6096  0.0727
 1775SOL     OW16960   4.503   2.280   8.861  0.7429  0.3096  0.3918
 1775SOL    HW116961   4.550   2.288   8.945 -0.1634  0.6494  0.8680
 1775SOL    HW216962   4.454   2.362   8.863  0.0102 -0.0789 -2.0158
 1776SOL     OW16963   1.478   1.247   9.951  0.0303  0.5129  0.2789
 1776SOL    HW116964   1.443   1.328   9.986 -2.7991 -0.4109 -0.3676
 1776SOL    HW216965   1.538   1.286   9.887  0.6280 -3.5457 -1.6368
 1777SOL     OW16966   1.293   1.315   7.328  0.1836  0.4770  0.2348
 1777SOL    HW116967   1.298   1.291   7.236 -1.4109  1.0401  0.0082
 1777SOL    HW216968   1.227   1.382   7.311 -0.0531 -0.0594 -0.8951
 1778SOL     OW16969   4.674   3.568   8.024 -0.2486  0.5307  0.2404
 1778SOL    HW116970   4.635   3.494   7.978  1.2927  0.0980 -0.3819
 1778SOL    HW216971   4.645   3.644   7.972 -2.2797 -0.8261 -0.5876
 1779SOL     OW16972   4.020   2.635   8.570 -0.0867  0.3656  0.2827
 1779SOL    HW116973   3.953   2.667   8.510 -0.0757  0.3288  0.2504
 1779SOL    HW216974   4.082   2.587   8.513  0.3538  0.7005  0.4789
 1780SOL     OW16975   1.433   0.776   6.667 -0.7074  0.6950 -0.1113
 1780SOL    HW116976   1.411   0.796   6.758  0.7921 -0.3674  0.4968
 1780SOL    HW216977   1.468   0.689   6.686 -0.2488  0.3029 -2.7122
 1781SOL     OW16978   4.272   1.634   3.117  0.3832 -0.2298  0.3276
 1781SOL    HW116979   4.255   1.696   3.188 -3.0740  1.2975 -1.8582
 1781SOL    HW216980   4.252   1.550   3.159 -0.1692  0.5433  1.6050
 1782SOL     OW16981   4.644   4.672   6.594 -0.1435  0.0521 -0.2191
 1782SOL    HW116982   4.719   4.726   6.621 -0.6012  0.3280  0.5020
 1782SOL    HW216983   4.663   4.588   6.635 -1.4893 -0.0963  0.0985
 1783SOL     OW16984   0.815   2.515  16.932 -0.4835 -0.5114 -1.2811
 1783SOL    HW116985   0.822   2.443  16.995 -0.6225  1.3762  0.8870
 1783SOL    HW216986   0.881   2.575  16.968 -0.8346 -1.5022  1.0178
 1784SOL     OW16987   1.793   3.501   1.964  0.1054  0.1683 -0.1398
 1784SOL    HW116988   1.839   3.540   1.890  0.5275  2.7702  1.5076
 1784SOL    HW216989   1.769   3.585   2.003 -0.0548 -0.1442  0.4434
 1785SOL     OW16990   3.788   1.752   5.692  0.1172 -0.2999 -0.3440
 1785SOL    HW116991   3.784   1.716   5.781 -0.0777  1.8270  0.5130
 1785SOL    HW216992   3.757   1.678   5.639 -0.2034 -0.3336 -0.1120
 1786SOL     OW16993   4.097   4.578   0.214 -0.2749 -0.0018 -0.4341
 1786SOL    HW116994   4.082   4.495   0.168 -0.7117  0.7790 -1.6982
 1786SOL    HW216995   4.059   4.641   0.154 -0.4643  1.0919  0.8426
 1787SOL     OW16996   3.224   3.150   6.446 -0.2390 -0.2269  0.2128
 1787SOL    HW116997   3.316   3.170   6.463 -0.7156  1.6632  0.5359
 1787SOL    HW216998   3.202   3.225   6.390 -0.2679 -2.3884 -2.6589
 1788SOL     OW16999   3.453   0.507   6.618 -0.1395 -0.1510 -0.0517
 1788SOL    HW117000   3.508   0.544   6.549  0.7146  3.3991  2.5410
 1788SOL    HW217001   3.490   0.419   6.626  0.2477  0.1713  1.6857
 1789SOL     OW17002   4.221   2.981  17.457 -1.2037 -0.0120 -0.2774
 1789SOL    HW117003   4.177   3.060  17.428  2.2231  1.7703 -0.6604
 1789SOL    HW217004   4.256   2.956  17.371  1.5138  0.7599  0.5957
 1790SOL     OW17005   3.299   0.269   4.717 -0.0098 -0.0036 -0.6662
 1790SOL    HW117006   3.384   0.260   4.674 -0.9805 -1.7133 -2.2346
 1790SOL    HW217007   3.232   0.260   4.650  1.5746 -2.5511 -1.8852
 1791SOL     OW17008   0.609   3.484   5.009 -0.6648  0.4036  0.0515
 1791SOL    HW117009   0.611   3.574   4.978  0.4705  0.5384  0.5257
 1791SOL    HW217010   0.527   3.496   5.058 -0.6609 -2.1765  0.7187
 1792SOL     OW17011   3.538   4.329   5.700 -0.2101  0.0723 -0.2627
 1792SOL    HW117012   3.570   4.419   5.709 -0.0238  0.2785 -2.9291
 1792SOL    HW217013   3.526   4.301   5.791 -0.8611 -1.6635 -0.8993
 1793SOL     OW17014   4.382   4.391   8.183 -0.0882  0.1547  0.3927
 1793SOL    HW117015   4.340   4.458   8.127  1.2783  0.6577 -0.0254
 1793SOL    HW217016   4.396   4.444   8.261 -0.8075 -0.3877  0.8900
 1794SOL     OW17017   1.522   2.747  10.722 -0.0348  0.4277  0.0529
 1794SOL    HW117018   1.613   2.754  10.751 -0.5820 -0.3138  1.9301
 1794SOL    HW217019   1.484   2.693  10.791 -3.1628  1.9839 -0.4544
 1795SOL     OW17020   2.428   3.485   4.163 -0.1727 -0.5234  0.0280
 1795SOL    HW117021   2.346   3.437   4.151 -0.1751 -0.2176 -1.2107
 1795SOL    HW217022   2.374   3.562   4.178 -0.0225 -0.0654 -1.7954
 1796SOL     OW17023   1.861   2.611   0.775  0.0361 -0.0686  0.5155
 1796SOL    HW117024   1.769   2.594   0.752  0.7755 -0.9565 -1.7512
 1796SOL    HW217025   1.879   2.694   0.733  0.2170 -0.3700 -0.0013
 1797SOL     OW17026   0.539   3.932   7.943 -0.3289 -0.4518  0.5844
 1797SOL    HW117027   0.497   3.849   7.968 -2.2055  0.6952  1.2834
 1797SOL    HW217028   0.608   3.943   8.008 -0.0836 -0.7826  0.3753
 1798SOL     OW17029   3.398   0.441   8.132 -0.1736 -0.2050 -0.2175
 1798SOL    HW117030   3.419   0.361   8.084  0.8225  0.7229 -1.3440
 1798SOL    HW217031   3.303   0.432   8.136 -0.2974  1.8738  1.9372
 1799SOL     OW17032   1.629   1.582   9.363 -0.1049  0.1727 -0.1297
 1799SOL    HW117033   1.624   1.677   9.364  0.7828  0.2241 -0.3607
 1799SOL    HW217034   1.724   1.570   9.355 -0.0247  0.0892  0.9444
 1800SOL     OW17035   0.108   3.953   5.418 -0.4823  0.9498  0.3004
 1800SOL    HW117036   0.033   3.954   5.478 -0.4695  2.3423  0.2765
 1800SOL    HW217037   0.122   4.047   5.413 -1.2439  0.9267 -2.0735
 1801SOL     OW17038   3.608   2.046  16.588  0.2340 -0.4170  0.0167
 1801SOL    HW117039   3.650   2.029  16.672  3.2989 -3.4716 -2.0813
 1801SOL    HW217040   3.622   1.960  16.548  1.0863 -0.4576  0.3997
 1802SOL     OW17041   0.489   0.088   2.230 -0.2563  0.2403  0.5522
 1802SOL    HW117042   0.410   0.120   2.273  0.7026  1.4826  1.3892
 1802SOL    HW217043   0.479   0.117   2.139 -0.4308 -3.0460 -0.4706
 1803SOL     OW17044   3.343   3.735   2.402 -0.1589 -0.3212  0.0133
 1803SOL    HW117045   3.254   3.750   2.434  0.2603 -1.1340  1.5853
 1803SOL    HW217046   3.338   3.653   2.353  0.1883 -0.7661  0.7203
 1804SOL     OW17047   1.174   0.180  15.885  0.3870 -0.2662  0.3141
 1804SOL    HW117048   1.104   0.237  15.918  1.3821  0.8641  0.4680
 1804SOL    HW217049   1.174   0.190  15.789 -2.7863  0.3195  0.3661
 1805SOL     OW17050   1.136   0.372  14.102  0.1264 -0.3076  0.2908
 1805SOL    HW117051   1.041   0.377  14.098  0.2574  1.5441 -0.4169
 1805SOL    HW217052   1.153   0.357  14.009 -0.0001 -1.1449  0.4001
 1806SOL     OW17053   3.499   3.578   3.432 -0.1647 -0.0517 -0.0077
 1806SOL    HW117054   3.447   3.511   3.477 -1.0905  1.3652  1.0318
 1806SOL    HW217055   3.504   3.539   3.345  1.0668 -1.4579  0.6814
 1807SOL     OW17056   1.068   4.410   3.584  0.1041 -0.1050  0.5598
 1807SOL    HW117057   1.018   4.427   3.664 -0.9332 -1.2773  0.1699
 1807SOL    HW217058   0.998   4.369   3.532  0.8223  1.5959 -1.7295
 1808SOL     OW17059   4.689   0.364  13.116 -0.5028  0.0923 -0.0166
 1808SOL    HW117060   4.598   0.336  13.114 -0.3972 -0.1663 -1.0193
 1808SOL    HW217061   4.685   0.398  13.205  0.3887  0.1424  0.0048
 1809SOL     OW17062   2.236   0.884   5.250 -0.4602  0.2718  0.5370
 1809SOL    HW117063   2.267   0.974   5.240 -0.0760 -0.0048 -0.6901
 1809SOL    HW217064   2.233   0.850   5.161 -0.4012  0.1257  0.5900
 1810SOL     OW17065   0.404   3.617  11.889 -0.0842 -0.1670  0.0728
 1810SOL    HW117066   0.473   3.658  11.940 -1.0023  1.1990  0.2346
 1810SOL    HW217067   0.442   3.529  11.888  4.3487  1.7684 -1.8421
 1811SOL     OW17068   4.058   2.758  11.281  0.6017 -0.6858 -0.2267
 1811SOL    HW117069   4.026   2.848  11.275  0.6913 -0.7102 -1.1059
 1811SOL    HW217070   4.152   2.776  11.289  0.4146  0.6870 -1.2043
 1812SOL     OW17071   0.452   1.204  12.048 -0.6064  0.3475  0.1454
 1812SOL    HW117072   0.498   1.212  12.132 -1.7518  1.0886  0.7031
 1812SOL    HW217073   0.514   1.243  11.986 -1.6365  0.2565 -0.9350
 1813SOL     OW17074   2.345   3.805   7.705 -0.5076  1.1631 -0.4767
 1813SOL    HW117075   2.384   3.891   7.689  2.0225  0.0928 -0.0634
 1813SOL    HW217076   2.414   3.765   7.758 -1.0260  1.3999  0.3614
 1814SOL     OW17077   2.164   3.680   4.087  0.1117 -0.4126  0.1023
 1814SOL    HW117078   2.248   3.715   4.116 -0.0465  0.5330 -0.5586
 1814SOL    HW217079   2.134   3.664   4.177  1.2305 -2.2299  0.1516
 1815SOL     OW17080   2.810   2.188   4.904  0.1654  0.3391  0.2515
 1815SOL    HW117081   2.827   2.103   4.863 -1.8673  0.8460 -1.6292
 1815SOL    HW217082   2.898   2.224   4.892  1.7308 -2.3142  3.5122
 1816SOL     OW17083   4.599   0.204   7.367  0.1912  0.5005 -0.6415
 1816SOL    HW117084   4.535   0.258   7.414  1.4729  3.7004 -2.5136
 1816SOL    HW217085   4.675   0.212   7.424  0.0060 -1.3723 -0.1453
 1817SOL     OW17086   2.986   0.423  17.128  0.7494 -0.5474  0.0993
 1817SOL    HW117087   3.021   0.346  17.173  1.6244 -0.5708 -0.6078
 1817SOL    HW217088   3.006   0.492  17.192 -0.9725  0.4999 -0.4846
 1818SOL     OW17089   3.975   2.682   3.281  0.1180 -0.6561 -0.2680
 1818SOL    HW117090   3.997   2.605   3.230  1.7632  0.4018 -1.1859
 1818SOL    HW217091   3.995   2.640   3.365 -1.3391 -0.5618  0.1154
 1819SOL     OW17092   2.527   2.217   7.718 -0.7260  0.0021  0.4662
 1819SOL    HW117093   2.480   2.217   7.635  1.6676  1.4895 -0.8967
 1819SOL    HW217094   2.596   2.282   7.703 -1.2469  0.6437  0.8426
 1820SOL     OW17095   0.932   0.303   8.568 -0.5912  0.6804  0.1473
 1820SOL    HW117096   0.934   0.338   8.657 -2.8996  0.4094  0.3022
 1820SOL    HW217097   0.902   0.379   8.517  1.3444  1.9308  0.8577
 1821SOL     OW17098   3.149   3.457   7.693  0.2590  0.4234 -0.2608
 1821SOL    HW117099   3.057   3.462   7.664  0.2591 -4.2251 -1.1371
 1821SOL    HW217100   3.198   3.431   7.614 -1.9530 -1.6924 -0.9611
 1822SOL     OW17101   3.412   3.312   3.807 -0.3821  0.2273  0.6475
 1822SOL    HW117102   3.352   3.271   3.869 -3.6296  2.3215 -1.0916
 1822SOL    HW217103   3.486   3.251   3.812 -1.5789 -1.3252 -0.3471
 1823SOL     OW17104   4.009   2.821   2.404  0.3068 -0.1329 -0.0776
 1823SOL    HW117105   3.963   2.739   2.385  3.0266 -1.6127 -0.2369
 1823SOL    HW217106   4.090   2.797   2.449 -0.8327 -1.0580  1.4947
 1824SOL     OW17107   2.320   2.142  17.406  0.0306  0.5681 -0.4086
 1824SOL    HW117108   2.319   2.096  17.322  1.1658 -2.5573  1.2647
 1824SOL    HW217109   2.410   2.175  17.399  0.7797 -1.4330 -0.4495
 1825SOL     OW17110   3.820   4.724   5.343  0.1042 -0.2241  0.3369
 1825SOL    HW117111   3.914   4.707   5.336  0.0001 -0.0431 -1.6366
 1825SOL    HW217112   3.819   0.082   5.331 -0.5764 -0.1406  1.0288
 1826SOL     OW17113   2.188   0.874   3.874 -0.1467 -0.1417  0.7229
 1826SOL    HW117114   2.218   0.895   3.786 -0.4159 -1.3812  0.3311
 1826SOL    HW217115   2.261   0.911   3.925  0.2914  0.1244 -0.1015
 1827SOL     OW17116   1.048   4.429   5.953  0.1133  0.5443  0.0633
 1827SOL    HW117117   1.036   4.512   5.907 -1.2267 -0.5732 -1.6013
 1827SOL    HW217118   0.965   4.416   5.998 -0.1424  1.7270 -0.0756
 1828SOL     OW17119   3.913   0.424  11.994 -0.0852 -0.0092 -0.6919
 1828SOL    HW117120   3.954   0.421  12.081 -1.4891  3.2429  0.1043
 1828SOL    HW217121   3.986   0.432  11.933  0.6108 -2.9438 -0.2398
 1829SOL     OW17122   0.847   1.890   6.791 -0.0582 -0.5522  0.1155
 1829SOL    HW117123   0.908   1.953   6.754 -0.5548  0.3720  0.8684
 1829SOL    HW217124   0.888   1.878   6.876  1.2121  1.0212 -0.2865
 1830SOL     OW17125   2.866   0.097   1.910  0.5583  0.0336  0.1038
 1830SOL    HW117126   2.786   0.060   1.947 -0.2678 -1.1691 -2.9158
 1830SOL    HW217127   2.878   0.038   1.835  0.1907  0.9865 -0.6968
 1831SOL     OW17128   2.165   1.998   6.439 -0.6850 -0.5520  0.1688
 1831SOL    HW117129   2.236   2.029   6.495  0.0898 -1.1099 -0.5158
 1831SOL    HW217130   2.088   2.041   6.477 -0.5838 -0.8750  0.7396
 1832SOL     OW17131   0.274   4.531   6.878 -0.0218 -0.1324 -0.4716
 1832SOL    HW117132   0.304   4.503   6.965  0.1987  2.0288  0.1534
 1832SOL    HW217133   0.266   4.626   6.884  1.3338 -0.1417  1.6724
 1833SOL     OW17134   1.465   0.216   6.243 -0.0644  0.8501  0.3902
 1833SOL    HW117135   1.481   0.260   6.159 -2.8639  0.5824 -0.2732
 1833SOL    HW217136   1.499   0.288   6.295 -1.3385  0.4703  1.7252
 1834SOL     OW17137   3.286   0.336   1.593  0.4545 -0.0449  0.4459
 1834SOL    HW117138   3.234   0.258   1.571 -0.9509  1.3594 -1.2178
 1834SOL    HW217139   3.367   0.294   1.622  0.9801 -0.1391 -1.1777
 1835SOL     OW17140   1.497   3.444   6.180  0.1553 -0.0918  0.1810
 1835SOL    HW117141   1.506   3.352   6.206  1.6548  0.0096 -0.0204
 1835SOL    HW217142   1.582   3.476   6.209  0.4460 -1.3831  0.7694
 1836SOL     OW17143   2.511   3.330   2.885  0.3143  0.0960  0.2245
 1836SOL    HW117144   2.591   3.278   2.888  0.0441 -0.2916  0.5594
 1836SOL    HW217145   2.453   3.295   2.952 -1.9713  1.5301 -0.9821
 1837SOL     OW17146   0.279   2.984  12.896 -0.5224 -0.3895  0.0482
 1837SOL    HW117147   0.297   3.023  12.982 -0.9603  2.1228 -1.0106
 1837SOL    HW217148   0.310   3.056  12.841 -1.4361 -1.3141 -1.6634
 1838SOL     OW17149   1.847   0.405   7.961  0.5373 -0.3614  0.8951
 1838SOL    HW117150   1.888   0.419   7.875 -0.1639 -0.8053  0.4834
 1838SOL    HW217151   1.907   0.451   8.019 -1.7149 -0.7840  3.5211
 1839SOL     OW17152   4.705   4.544   7.307  0.1157  0.5510  0.5768
 1839SOL    HW117153   4.640   4.494   7.356 -1.2443  0.1531 -1.6245
 1839SOL    HW217154   4.652   4.618   7.279  0.1941 -0.0129 -1.0645
 1840SOL     OW17155   4.126   3.471   7.308 -0.1069 -0.0616  0.0765
 1840SOL    HW117156   4.192   3.425   7.257  0.5302 -4.0988  4.5186
 1840SOL    HW217157   4.084   3.397   7.353 -0.8076  0.3174  0.0382
 1841SOL     OW17158   2.544   2.341   2.036 -0.5499 -0.3230  0.2088
 1841SOL    HW117159   2.609   2.372   2.099  0.4499 -2.1464  0.0558
 1841SOL    HW217160   2.583   2.374   1.956 -0.5756 -1.3716 -0.2273
 1842SOL     OW17161   0.003   4.217  12.590 -0.0052 -0.5907  0.2353
 1842SOL    HW117162   0.005   4.131  12.633 -0.8278  0.0877  1.6064
 1842SOL    HW217163   0.034   4.280  12.655  0.6787 -0.5126 -0.1699
 1843SOL     OW17164   2.114   1.660   8.245  0.1845  0.5196 -0.2793
 1843SOL    HW117165   2.019   1.663   8.244  0.1329 -1.3219 -1.1570
 1843SOL    HW217166   2.144   1.605   8.172 -3.2261  1.8567 -2.6270
 1844SOL     OW17167   0.769   0.136   7.142  0.0467  0.1115 -0.2250
 1844SOL    HW117168   0.678   0.138   7.115 -0.1018 -2.2079  0.0424
 1844SOL    HW217169   0.816   0.154   7.061  1.4170 -0.2862  0.4618
 1845SOL     OW17170   0.629   2.075  14.741 -0.0980 -0.1312  0.5373
 1845SOL    HW117171   0.645   1.981  14.736 -0.9309 -0.3624  1.9697
 1845SOL    HW217172   0.688   2.098  14.813 -1.3753  2.7422  0.6742
 1846SOL     OW17173   0.329   3.913   8.331 -0.4052  0.1614 -0.2955
 1846SOL    HW117174   0.310   3.904   8.238 -2.0333  2.0034 -0.1691
 1846SOL    HW217175   0.256   3.968   8.362  0.6554  1.0172  0.6980
 1847SOL     OW17176   1.845   0.916   9.825  0.0211 -0.1134 -0.5317
 1847SOL    HW117177   1.807   0.890   9.909 -0.6439 -2.2165 -1.5042
 1847SOL    HW217178   1.835   1.011   9.834 -2.9449 -0.5062  0.2402
 1848SOL     OW17179   0.379   2.559   6.025  0.5902  0.6985 -0.5093
 1848SOL    HW117180   0.451   2.503   6.051  0.3814  0.5460 -0.2542
 1848SOL    HW217181   0.328   2.561   6.106  0.9450 -1.3990 -0.2506
 1849SOL     OW17182   4.573   3.765  16.767  0.2147  0.7470  0.4187
 1849SOL    HW117183   4.650   3.746  16.713  0.0656  2.2995 -0.3473
 1849SOL    HW217184   4.510   3.706  16.727  0.6481  0.6600 -0.1480
 1850SOL     OW17185   1.423   2.750  13.615 -0.5441 -0.5436  0.2149
 1850SOL    HW117186   1.396   2.814  13.681 -1.0932  1.4995 -2.0110
 1850SOL    HW217187   1.402   2.788  13.530  0.9015  0.0852  0.1413
 1851SOL     OW17188   0.431   2.331   7.015 -0.1701 -0.2856 -0.5192
 1851SOL    HW117189   0.448   2.379   7.096  0.4207  0.0543 -0.8454
 1851SOL    HW217190   0.399   2.246   7.044  1.7083  0.1561  2.8141
 1852SOL     OW17191   4.245   1.907  13.201  0.0070 -0.3422 -0.1001
 1852SOL    HW117192   4.188   1.910  13.278 -0.8110 -0.6079 -0.7075
 1852SOL    HW217193   4.191   1.848  13.150  0.5469 -2.3289  1.6267
 1853SOL     OW17194   0.837   4.460   4.916 -0.0447 -0.1950 -0.7128
 1853SOL    HW117195   0.812   4.462   5.009 -0.9112  0.9471 -0.9731
 1853SOL    HW217196   0.752   4.445   4.875 -0.1675  1.5611 -1.0962
 1854SOL     OW17197   0.964   0.218  13.896  0.3447 -0.1818 -0.4671
 1854SOL    HW117198   0.976   0.158  13.970 -1.0572 -0.2660 -0.3025
 1854SOL    HW217199   1.057   0.225  13.874  0.1603  3.2139 -0.1681
 1855SOL     OW17200   2.464   1.888   3.900  0.2754 -0.7718 -0.1048
 1855SOL    HW117201   2.518   1.835   3.960  0.1968 -1.4700 -0.6558
 1855SOL    HW217202   2.375   1.858   3.919  0.8502 -0.8591  2.5431
 1856SOL     OW17203   0.235   0.820   2.130 -0.0412  0.6135  0.1413
 1856SOL    HW117204   0.288   0.897   2.107  1.8069 -0.9580 -0.8446
 1856SOL    HW217205   0.146   0.852   2.112 -0.5519 -0.8835  0.0517
 1857SOL     OW17206   3.072   3.499   9.426  0.2295 -0.1138  0.0616
 1857SOL    HW117207   2.984   3.490   9.390 -0.5885 -0.3279  2.0780
 1857SOL    HW217208   3.048   3.515   9.518 -2.7630  1.7735 -1.0623
 1858SOL     OW17209   2.208   0.852   0.506 -0.5452  0.6644 -0.1585
 1858SOL    HW117210   2.271   0.923   0.517 -0.9388  1.5550 -3.5334
 1858SOL    HW217211   2.158   0.883   0.430  0.0800 -0.0048 -0.8455
 1859SOL     OW17212   0.141   3.327  14.654 -0.5132 -0.6756 -0.2756
 1859SOL    HW117213   0.126   3.276  14.734  1.1788 -1.2195 -0.3031
 1859SOL    HW217214   0.234   3.343  14.668 -0.5198 -0.6972 -0.2084
 1860SOL     OW17215   2.689   1.306   7.986 -0.0804 -0.0086  0.3920
 1860SOL    HW117216   2.716   1.346   7.903 -2.6806  0.1599 -0.3622
 1860SOL    HW217217   2.624   1.372   8.010 -0.1441  0.0995 -0.0782
 1861SOL     OW17218   4.389   2.900   9.233 -0.6328  0.0046 -0.5246
 1861SOL    HW117219   4.421   2.820   9.192  1.1423  0.4048  0.0582
 1861SOL    HW217220   4.346   2.863   9.311 -0.7706  0.5121 -0.3547
 1862SOL     OW17221   3.160   3.512   6.485 -0.2969 -0.1394  0.4442
 1862SOL    HW117222   3.162   3.467   6.400 -0.5904  0.7631 -0.0452
 1862SOL    HW217223   3.253   3.515   6.508 -0.4014  1.7495  0.5929
 1863SOL     OW17224   4.017   2.258   3.495 -0.2428 -0.1480  0.2167
 1863SOL    HW117225   4.061   2.290   3.417 -1.1837  3.0575  0.9690
 1863SOL    HW217226   4.091   2.261   3.555 -0.4208  2.8016  0.3004
 1864SOL     OW17227   4.019   4.477  14.566  0.1768 -0.6461 -0.0847
 1864SOL    HW117228   3.998   4.465  14.659 -0.4115 -2.2990 -0.4303
 1864SOL    HW217229   3.987   4.396  14.526 -1.2204  0.7755 -1.8631
 1865SOL     OW17230   2.621   1.523   2.405 -0.4748  0.3225 -0.0116
 1865SOL    HW117231   2.676   1.494   2.332 -0.8401  0.2992 -0.2720
 1865SOL    HW217232   2.691   1.568   2.454 -0.8638 -0.4265  1.2456
 1866SOL     OW17233   4.702   2.635  14.559 -0.1766 -0.0364 -0.5224
 1866SOL    HW117234   4.644   2.698  14.515  1.0236  1.6890  0.3586
 1866SOL    HW217235   4.635   2.573  14.589  0.0007 -0.7729 -1.6688
 1867SOL     OW17236   1.050   0.834   1.677 -0.0400 -0.0991 -0.2052
 1867SOL    HW117237   1.045   0.757   1.620  3.3775 -0.6355  0.2414
 1867SOL    HW217238   1.120   0.805   1.734 -0.2738 -2.4153 -1.0846
 1868SOL     OW17239   3.252   1.174  14.492 -0.4448  0.0169  0.8820
 1868SOL    HW117240   3.217   1.223  14.417 -1.9914  0.8810  2.1566
 1868SOL    HW217241   3.293   1.101  14.446 -0.2766  1.1580 -0.7410
 1869SOL     OW17242   0.514   2.264  17.104  0.0038 -0.4104 -0.4831
 1869SOL    HW117243   0.513   2.189  17.163 -2.4023  0.2847  0.3450
 1869SOL    HW217244   0.472   2.224  17.028 -1.3126 -0.2162  0.1516
 1870SOL     OW17245   2.071   3.402   5.638  0.3628  0.5090 -0.0532
 1870SOL    HW117246   2.014   3.342   5.687  0.1938  0.9658  0.3145
 1870SOL    HW217247   2.052   3.485   5.681 -2.4477 -0.7792  1.1726
 1871SOL     OW17248   4.406   3.469   3.651  0.4186 -0.4166  0.2272
 1871SOL    HW117249   4.313   3.485   3.668  0.7624  1.5190  0.3637
 1871SOL    HW217250   4.391   3.376   3.635 -1.4486  0.1234 -1.1483
 1872SOL     OW17251   1.085   3.616   7.761  0.3135 -0.4065 -0.3340
 1872SOL    HW117252   1.019   3.602   7.829  0.6903 -1.3957 -0.1705
 1872SOL    HW217253   1.031   3.646   7.688 -1.4407 -0.8951  0.7689
 1873SOL     OW17254   2.030   2.440   7.138  0.5343 -0.8044  0.2927
 1873SOL    HW117255   2.044   2.441   7.233  2.3818 -1.0362  0.0254
 1873SOL    HW217256   1.959   2.377   7.133 -1.5533  1.7772 -2.1432
 1874SOL     OW17257   3.208   2.927   1.496  0.2553  0.2065 -0.3987
 1874SOL    HW117258   3.219   2.847   1.546  2.0212  0.6573 -0.0559
 1874SOL    HW217259   3.284   2.920   1.438  0.3098 -0.8798 -0.1905
 1875SOL     OW17260   1.783   0.112   2.519  0.4693 -0.1673 -0.0967
 1875SOL    HW117261   1.854   0.054   2.494 -0.2961  0.4084 -3.6153
 1875SOL    HW217262   1.826   0.198   2.516  1.9695 -0.9715 -1.3463
 1876SOL     OW17263   3.861   2.953  13.268  0.6020 -0.2072  0.5686
 1876SOL    HW117264   3.900   2.975  13.184  1.9730 -1.6734  0.8208
 1876SOL    HW217265   3.862   3.044  13.296 -1.4953  0.5591 -1.8845
 1877SOL     OW17266   1.935   1.096   2.698 -0.6624 -0.3278 -0.3079
 1877SOL    HW117267   1.985   1.167   2.657 -0.1617 -0.2474  0.4557
 1877SOL    HW217268   1.998   1.027   2.720  0.2061  0.0523 -1.5556
 1878SOL     OW17269   2.077   2.299  17.091 -0.8372  0.3323 -0.3367
 1878SOL    HW117270   2.058   2.376  17.038  0.2146  0.8565  0.0438
 1878SOL    HW217271   2.162   2.277  17.053  0.7228  1.1491  2.6576
 1879SOL     OW17272   0.060   1.529   7.521  0.5084  0.3679 -0.3737
 1879SOL    HW117273   0.106   1.472   7.583  0.4195  0.3047 -0.3654
 1879SOL    HW217274   0.090   1.615   7.549  1.6251  0.0993 -0.7330
 1880SOL     OW17275   1.463   3.617   7.247  0.6219 -0.0882  0.1502
 1880SOL    HW117276   1.474   3.681   7.317 -2.4083 -0.4956  1.0108
 1880SOL    HW217277   1.440   3.544   7.305 -0.7279  0.3084  0.1052
 1881SOL     OW17278   2.094   3.972   4.088  0.0832 -0.8499 -0.0846
 1881SOL    HW117279   2.055   3.960   4.174 -0.4612 -0.1048 -0.2224
 1881SOL    HW217280   2.123   3.885   4.061  0.0664 -0.5531 -1.0592
 1882SOL     OW17281   0.920   4.051  12.691  0.0742  0.2925  0.2798
 1882SOL    HW117282   0.834   4.092  12.698  0.5778  1.2813  0.6983
 1882SOL    HW217283   0.977   4.101  12.750  1.5449 -1.4356  0.3650
 1883SOL     OW17284   0.573   2.412   6.134 -0.5194 -0.2213  0.6598
 1883SOL    HW117285   0.613   2.422   6.221 -1.4754 -0.7809  1.1694
 1883SOL    HW217286   0.649   2.391   6.081 -0.5059 -0.0380  0.6059
 1884SOL     OW17287   2.276   2.428   6.866  0.5704  0.2212 -0.6248
 1884SOL    HW117288   2.364   2.393   6.866  0.5053  0.0574 -0.6048
 1884SOL    HW217289   2.282   2.451   6.959 -0.8620 -1.1403 -0.2028
 1885SOL     OW17290   1.478   1.182   5.592 -0.2863  0.0335 -0.2450
 1885SOL    HW117291   1.430   1.112   5.548 -0.7635  1.0300 -1.2793
 1885SOL    HW217292   1.526   1.215   5.517  0.7720 -0.9934 -0.0178
 1886SOL     OW17293   4.083   4.044  14.228  0.6306  0.2303 -0.1462
 1886SOL    HW117294   4.041   4.107  14.170 -0.4963 -1.5116 -1.2375
 1886SOL    HW217295   4.123   4.106  14.289 -2.5750  0.1494  2.0253
 1887SOL     OW17296   2.837   2.504  15.924  0.1832  0.0687 -0.2609
 1887SOL    HW117297   2.745   2.528  15.939  0.0212 -0.7012 -0.0174
 1887SOL    HW217298   2.888   2.546  15.992 -1.6340  0.9783  0.5553
 1888SOL     OW17299   2.637   0.297  13.654 -0.2745 -0.0814 -1.0606
 1888SOL    HW117300   2.592   0.382  13.650 -1.8437 -0.8347  0.7674
 1888SOL    HW217301   2.717   0.331  13.612 -1.8244  1.1250 -3.0661
 1889SOL     OW17302   1.473   1.855  16.575  0.3222 -0.1082 -0.3007
 1889SOL    HW117303   1.547   1.862  16.634 -0.2219  0.5746  0.3042
 1889SOL    HW217304   1.475   1.767  16.537  0.0682 -0.9567  1.6769
 1890SOL     OW17305   1.197   1.876   9.531  0.0496  0.3404  0.7511
 1890SOL    HW117306   1.120   1.839   9.486  0.5708  0.2054 -0.0260
 1890SOL    HW217307   1.180   1.966   9.501  0.5953  0.0725 -0.3671
 1891SOL     OW17308   1.105   3.612   1.408  0.5656 -0.6058 -0.2456
 1891SOL    HW117309   1.121   3.555   1.333 -0.4101 -2.1321  0.7214
 1891SOL    HW217310   1.084   3.689   1.355 -0.8436 -0.0514  1.0990
 1892SOL     OW17311   0.222   1.243  16.112 -0.6899 -0.0992  0.2685
 1892SOL    HW117312   0.217   1.182  16.186  0.4350 -1.2573 -0.6089
 1892SOL    HW217313   0.301   1.209  16.069 -1.0371  0.4248 -0.7803
 1893SOL     OW17314   2.687   1.034   9.184 -0.2231  0.6082  0.2879
 1893SOL    HW117315   2.657   1.089   9.255 -0.9259  0.7687 -0.1393
 1893SOL    HW217316   2.754   1.093   9.148  1.7035 -0.0269  2.8573
 1894SOL     OW17317   1.350   1.541   9.162  0.2734  0.4218 -0.4000
 1894SOL    HW117318   1.266   1.514   9.126 -0.9723  2.5784  0.9342
 1894SOL    HW217319   1.406   1.555   9.086  1.1784 -0.8811  0.0142
 1895SOL     OW17320   2.112   2.141  17.590 -0.4576 -0.1854  0.1677
 1895SOL    HW117321   2.191   2.131  17.538  0.9576 -0.2101  2.3106
 1895SOL    HW217322   2.074   2.201  17.526  0.4547  0.7078  0.4630
 1896SOL     OW17323   2.915   3.521   8.003  0.1327 -0.0760 -0.0265
 1896SOL    HW117324   2.986   3.470   8.042 -0.0101  0.3550  0.7953
 1896SOL    HW217325   2.835   3.477   8.031 -0.8689  2.3272  0.8884
 1897SOL     OW17326   1.214   3.028   7.156  0.7713  0.1692  0.0257
 1897SOL    HW117327   1.167   3.107   7.181 -0.8369 -1.2448  1.4875
 1897SOL    HW217328   1.140   2.978   7.122 -0.4411  1.3377  0.9450
 1898SOL     OW17329   3.929   2.454  14.946 -0.2964  0.1069  0.1440
 1898SOL    HW117330   3.951   2.383  15.005  2.7736  1.7424  0.9373
 1898SOL    HW217331   3.930   2.422  14.855  0.0583 -1.2217  0.6196
 1899SOL     OW17332   2.917   3.061  13.919  0.1309 -1.1987 -0.0511
 1899SOL    HW117333   2.850   2.999  13.948 -0.2402 -1.0249 -0.5244
 1899SOL    HW217334   2.933   3.039  13.828  1.5057  0.3220 -0.1704
 1900SOL     OW17335   1.373   1.754  10.086  0.1593  0.0643 -0.1423
 1900SOL    HW117336   1.324   1.836  10.081  1.6207  1.0165  1.3714
 1900SOL    HW217337   1.320   1.690  10.039  1.4677  1.6962 -3.9208
 1901SOL     OW17338   3.068   1.556   6.949 -0.1199 -0.1882 -0.4470
 1901SOL    HW117339   3.063   1.545   6.854 -2.0999  2.7609 -0.6756
 1901SOL    HW217340   2.997   1.620   6.959  1.8709  1.7496  1.1698
 1902SOL     OW17341   3.415   3.609   4.421  0.7600  0.7576 -0.4017
 1902SOL    HW117342   3.332   3.655   4.404  1.4427  1.9417 -0.5091
 1902SOL    HW217343   3.393   3.524   4.384  1.0700 -0.3642  1.9825
 1903SOL     OW17344   0.230   2.250   6.760  0.4487  0.9545 -0.0489
 1903SOL    HW117345   0.237   2.158   6.733 -0.7432  1.2408 -1.3489
 1903SOL    HW217346   0.240   2.296   6.677  0.6379 -0.8942 -1.0482
 1904SOL     OW17347   0.825   0.527   7.720 -0.2722  0.1646  0.3770
 1904SOL    HW117348   0.761   0.576   7.772  0.1377  0.4251  0.6370
 1904SOL    HW217349   0.771   0.458   7.681  0.4614  0.8475 -1.7979
 1905SOL     OW17350   3.260   2.222   5.592  0.1613  0.1160 -0.0393
 1905SOL    HW117351   3.220   2.145   5.550  0.4416  0.8836 -1.7200
 1905SOL    HW217352   3.210   2.291   5.549 -0.1217  1.1792  2.0190
 1906SOL     OW17353   2.853   1.674   5.084  0.3742 -0.3626 -0.1753
 1906SOL    HW117354   2.849   1.763   5.118  1.2271 -0.6446  0.6703
 1906SOL    HW217355   2.947   1.661   5.098  0.8979  0.0131 -3.3295
 1907SOL     OW17356   0.488   4.596   6.171  0.4849  0.0490  0.3042
 1907SOL    HW117357   0.583   4.606   6.164  0.7266 -2.0796  0.4252
 1907SOL    HW217358   0.474   4.521   6.229 -0.1149  1.2224  1.6732
 1908SOL     OW17359   1.034   0.923   6.537  0.3069  0.7098 -0.3192
 1908SOL    HW117360   1.021   1.010   6.499 -0.5100 -0.1617 -2.0571
 1908SOL    HW217361   0.965   0.876   6.491  0.0608  0.1056  0.6846
 1909SOL     OW17362   0.919   3.096   7.075 -0.2974 -0.2679  0.1248
 1909SOL    HW117363   0.865   3.069   6.999 -0.0413 -0.6766  0.0873
 1909SOL    HW217364   0.952   3.182   7.052 -1.9997  0.0714 -1.1464
 1910SOL     OW17365   3.083   3.859  17.537  0.1839 -0.5733 -0.1336
 1910SOL    HW117366   3.152   3.793  17.551  0.1275 -0.4856  0.5663
 1910SOL    HW217367   3.085   3.889  17.628  4.7794  0.2707 -0.4902
 1911SOL     OW17368   4.270   2.163  14.549  0.3159  0.4145  0.0580
 1911SOL    HW117369   4.232   2.180  14.635 -0.0411 -1.7552  0.3435
 1911SOL    HW217370   4.196   2.173  14.489 -0.8845  1.5858  1.7425
 1912SOL     OW17371   0.899   0.732   5.509 -0.2391  0.2395  0.3958
 1912SOL    HW117372   0.871   0.737   5.601 -1.7537 -0.2961 -0.0370
 1912SOL    HW217373   0.976   0.788   5.519  0.8631 -1.7116  2.9549
 1913SOL     OW17374   1.252   4.285   4.571 -0.2314 -0.2491 -0.3528
 1913SOL    HW117375   1.262   4.221   4.501  0.1136  0.0693 -0.5928
 1913SOL    HW217376   1.188   4.345   4.531 -2.0704  0.5228  3.6945
 1914SOL     OW17377   0.407   0.221  10.737  0.6511  1.0025 -0.4066
 1914SOL    HW117378   0.415   0.159  10.809  0.4816 -1.5740 -2.6152
 1914SOL    HW217379   0.355   0.294  10.770  0.2953  0.1915  0.8275
 1915SOL     OW17380   0.283   2.651   2.889 -0.6872  0.3072 -0.6941
 1915SOL    HW117381   0.355   2.692   2.841  0.5451  2.0104  2.6076
 1915SOL    HW217382   0.239   2.727   2.928  1.3140  0.1038  1.9539
 1916SOL     OW17383   2.252   1.679   4.219  0.9063 -0.6162  0.1101
 1916SOL    HW117384   2.322   1.650   4.161  0.3727 -0.0521 -0.8065
 1916SOL    HW217385   2.293   1.743   4.277 -2.2042  0.8219  0.7090
 1917SOL     OW17386   0.526   1.008  12.790  0.0606 -0.1391 -0.7299
 1917SOL    HW117387   0.561   0.937  12.843 -0.4477 -1.5366 -2.2625
 1917SOL    HW217388   0.452   0.967  12.745 -0.9399 -0.4480  1.1818
 1918SOL     OW17389   3.828   1.224   4.392  0.8036 -0.2273  0.1865
 1918SOL    HW117390   3.785   1.139   4.385  1.5030 -0.6658  1.2391
 1918SOL    HW217391   3.754   1.279   4.417 -0.3399 -0.9137 -1.6484
 1919SOL     OW17392   3.107   0.873   6.410 -0.0638  0.4046 -0.3233
 1919SOL    HW117393   3.164   0.946   6.433 -0.1798  1.2699 -2.7835
 1919SOL    HW217394   3.153   0.802   6.454 -1.3080 -0.8342 -1.0002
 1920SOL     OW17395   0.814   0.388   4.324 -0.0335 -0.0368 -0.7410
 1920SOL    HW117396   0.853   0.317   4.375 -0.2933 -0.1411 -0.6875
 1920SOL    HW217397   0.883   0.411   4.262  1.1907 -1.4195  0.1037
 1921SOL     OW17398   0.478   2.214  12.772  0.4904  0.2965  0.4734
 1921SOL    HW117399   0.543   2.211  12.843  1.3055 -0.1985 -0.3038
 1921SOL    HW217400   0.478   2.309  12.762 -1.6101 -0.0293 -2.3337
 1922SOL     OW17401   0.878   2.115  14.845  0.0681 -0.5360 -0.2555
 1922SOL    HW117402   0.944   2.123  14.914  1.0636  1.2730 -1.3986
 1922SOL    HW217403   0.866   2.199  14.801  0.4934 -0.8751 -1.0160
 1923SOL     OW17404   2.757   1.095   3.011  0.0547 -0.1825  0.4860
 1923SOL    HW117405   2.817   1.159   2.972 -0.6494  0.1626 -0.0253
 1923SOL    HW217406   2.819   1.045   3.063  1.4639  0.4900 -0.5282
 1924SOL     OW17407   3.584   1.683   1.894 -0.3733  0.6263  0.1957
 1924SOL    HW117408   3.618   1.763   1.854  0.2643  0.2780  0.0541
 1924SOL    HW217409   3.665   1.661   1.938 -0.8838  1.5480  1.5689
 1925SOL     OW17410   1.626   3.282   3.895 -0.6331 -0.1971  0.5016
 1925SOL    HW117411   1.658   3.278   3.985 -1.9035  0.6193  0.9901
 1925SOL    HW217412   1.595   3.373   3.894  0.3195  0.1176 -0.4188
 1926SOL     OW17413   0.198   1.098   1.620 -0.2644  0.0111 -0.2009
 1926SOL    HW117414   0.183   1.005   1.636  0.0060  0.0625  0.3733
 1926SOL    HW217415   0.198   1.124   1.713  2.4515 -2.2597  0.4238
 1927SOL     OW17416   2.175   0.375   3.525 -0.2379  0.2595 -0.3604
 1927SOL    HW117417   2.187   0.467   3.547  1.7964  0.1917 -1.1798
 1927SOL    HW217418   2.261   0.362   3.484 -1.0892  0.2439 -2.1150
 1928SOL     OW17419   3.545   1.437   6.346  0.0039 -0.1562 -0.4782
 1928SOL    HW117420   3.550   1.387   6.265  2.1515 -1.0119  0.2058
 1928SOL    HW217421   3.500   1.510   6.302  2.1612  1.4234 -0.0589
 1929SOL     OW17422   3.765   3.509  17.086  0.1415 -0.1152  0.0688
 1929SOL    HW117423   3.726   3.562  17.017 -0.5584  0.2749  0.7564
 1929SOL    HW217424   3.852   3.548  17.092  0.0046  0.0233  1.1580
 1930SOL     OW17425   1.857   2.013   2.654  0.4050  0.5521 -0.0923
 1930SOL    HW117426   1.951   2.030   2.657  0.7721 -1.2590 -1.4229
 1930SOL    HW217427   1.825   2.075   2.719  1.2466 -0.7757  1.5875
 1931SOL     OW17428   3.989   1.434  14.700  0.7235  0.1129  0.7575
 1931SOL    HW117429   3.959   1.506  14.645 -0.0178 -0.5550  0.2845
 1931SOL    HW217430   3.916   1.372  14.713  0.1225  0.4721 -0.9052
 1932SOL     OW17431   2.529   4.238   2.053 -0.4976  0.3271 -0.1849
 1932SOL    HW117432   2.526   4.147   2.025  0.4184  0.1813  0.1958
 1932SOL    HW217433   2.544   4.234   2.147  0.3052 -0.7203 -0.3636
 1933SOL     OW17434   1.179   0.432   0.894 -0.1621 -0.2078  0.7771
 1933SOL    HW117435   1.149   0.514   0.932 -0.9330  0.8133 -2.0836
 1933SOL    HW217436   1.245   0.415   0.961  2.4429  0.3388 -1.6285
 1934SOL     OW17437   0.397   4.151   3.991 -0.7738  0.4010 -0.8538
 1934SOL    HW117438   0.431   4.220   4.048 -4.2335  1.0737  0.3856
 1934SOL    HW217439   0.329   4.194   3.939 -1.2024 -0.1991 -0.7897
 1935SOL     OW17440   1.717   3.839   7.492 -0.3485 -0.0544 -0.1538
 1935SOL    HW117441   1.739   3.803   7.406  1.1895  3.5472 -1.3080
 1935SOL    HW217442   1.767   3.779   7.546  0.6749  2.2125  1.4376
 1936SOL     OW17443   4.368   2.896   7.631  0.0487 -0.2264  0.2050
 1936SOL    HW117444   4.317   2.825   7.591 -1.2957 -0.1596  1.8190
 1936SOL    HW217445   4.451   2.847   7.637  1.4331  1.7153 -2.7753
 1937SOL     OW17446   0.424   4.287   8.867 -0.0388  0.1822 -0.1618
 1937SOL    HW117447   0.433   4.198   8.833 -1.2485 -0.0485  0.1322
 1937SOL    HW217448   0.383   4.259   8.949 -1.9584  1.0395 -0.8330
 1938SOL     OW17449   2.210   1.392  12.351 -0.3947  0.2364  0.3803
 1938SOL    HW117450   2.128   1.420  12.392 -0.3244 -1.8107  1.8940
 1938SOL    HW217451   2.229   1.316  12.406  1.1961 -0.8301 -1.6579
 1939SOL     OW17452   3.824   2.278   3.028  0.3618  0.0102  0.1200
 1939SOL    HW117453   3.817   2.345   2.960  0.1896  1.6517  1.7586
 1939SOL    HW217454   3.806   2.200   2.975  0.4130 -0.3104  0.5797
 1940SOL     OW17455   3.123   1.780   6.685 -0.0617 -0.0667 -0.0489
 1940SOL    HW117456   3.053   1.718   6.708  0.7645 -0.4099  1.5676
 1940SOL    HW217457   3.183   1.722   6.639  0.4374  0.3613  0.0604
 1941SOL     OW17458   2.009   0.259   6.539 -0.1292 -0.4501  0.0916
 1941SOL    HW117459   1.934   0.267   6.481  0.1034  1.3575  0.0281
 1941SOL    HW217460   2.055   0.184   6.503 -0.3426 -1.2347  1.4479
 1942SOL     OW17461   2.140   3.725  15.152 -0.0012  0.3279 -0.5452
 1942SOL    HW117462   2.198   3.776  15.096  0.3288 -0.7627 -1.2001
 1942SOL    HW217463   2.191   3.651  15.186 -3.3648 -0.6255  2.4313
 1943SOL     OW17464   2.090   0.617   4.810  0.0760  0.0845  0.2746
 1943SOL    HW117465   2.063   0.528   4.834 -1.7357 -0.7280 -4.7863
 1943SOL    HW217466   2.066   0.621   4.717  2.3079 -0.8219 -0.3265
 1944SOL     OW17467   3.809   2.714   4.301  0.3756 -0.5030 -0.6332
 1944SOL    HW117468   3.743   2.780   4.320 -0.0551 -1.4844  1.2358
 1944SOL    HW217469   3.845   2.745   4.218 -0.6658  1.2885 -0.4061
 1945SOL     OW17470   4.386   1.229  16.015  0.0731 -0.0110 -0.3968
 1945SOL    HW117471   4.395   1.135  15.996  0.3538  0.0939 -0.7749
 1945SOL    HW217472   4.413   1.265  15.931 -0.8010 -0.3759 -0.8333
 1946SOL     OW17473   1.868   3.569   4.002 -0.1154  0.3875  0.5136
 1946SOL    HW117474   1.786   3.527   3.975 -0.8544  0.9437  1.8939
 1946SOL    HW217475   1.851   3.593   4.093 -0.5188  1.3204  0.1907
 1947SOL     OW17476   3.751   0.972  12.837 -0.5594  0.2629  0.4382
 1947SOL    HW117477   3.735   0.882  12.810 -0.0851  0.3475 -0.1451
 1947SOL    HW217478   3.833   0.970  12.887 -0.3009 -0.7961 -0.0362
 1948SOL     OW17479   1.683   2.469   4.918  0.2144  0.3404  0.3740
 1948SOL    HW117480   1.681   2.378   4.890 -0.7643  0.8874 -1.2863
 1948SOL    HW217481   1.752   2.502   4.861  0.4334  0.0798  0.4866
 1949SOL     OW17482   0.059   1.459   5.934  0.2882  0.6907  0.6107
 1949SOL    HW117483   0.040   1.543   5.893 -0.5112  0.0267 -0.3941
 1949SOL    HW217484   0.139   1.473   5.985  2.0264 -0.7709 -1.7305
 1950SOL     OW17485   3.108   4.555   9.327 -0.1506 -0.1389 -0.5154
 1950SOL    HW117486   3.157   4.604   9.394  3.6768  1.2366 -4.3584
 1950SOL    HW217487   3.028   4.544   9.378 -0.7866  0.9116 -1.2864
 1951SOL     OW17488   0.286   1.670  15.787  0.2085  0.4463 -0.0587
 1951SOL    HW117489   0.239   1.635  15.861  1.7681 -1.5174 -0.0044
 1951SOL    HW217490   0.369   1.693  15.829 -1.1069  2.7221  1.2790
 1952SOL     OW17491   0.660   1.124   5.895 -0.2606 -0.2374  0.6513
 1952SOL    HW117492   0.728   1.096   5.834 -1.4264  1.3691 -1.3577
 1952SOL    HW217493   0.575   1.119   5.852 -0.6364 -0.9586  1.4859
 1953SOL     OW17494   0.728   2.027   6.293  0.0467 -0.4297  0.0374
 1953SOL    HW117495   0.755   2.115   6.267 -3.2647  1.2222  2.1507
 1953SOL    HW217496   0.806   2.001   6.342  2.1368  2.2502 -1.9141
 1954SOL     OW17497   1.542   0.544  16.271 -0.2014  0.4226  0.4796
 1954SOL    HW117498   1.609   0.607  16.299 -0.0642  0.1752  0.7141
 1954SOL    HW217499   1.578   0.510  16.189  1.4033  1.6097  0.6791
 1955SOL     OW17500   0.304   3.522   6.394 -0.1418 -0.4593  0.5172
 1955SOL    HW117501   0.388   3.563   6.372 -0.5733  0.1660  0.0186
 1955SOL    HW217502   0.287   3.552   6.483  1.8077 -1.2131  1.1483
 1956SOL     OW17503   3.255   0.232  13.716 -0.2678  0.0097  0.4732
 1956SOL    HW117504   3.292   0.303  13.769 -1.0142  3.5844 -3.7208
 1956SOL    HW217505   3.233   0.169  13.784  0.8669 -2.2104 -1.2156
 1957SOL     OW17506   1.451   1.063   7.476 -0.0723  0.1064 -0.2005
 1957SOL    HW117507   1.431   0.984   7.427 -0.8525  1.7444 -2.5223
 1957SOL    HW217508   1.368   1.111   7.470  1.2080  2.5425  1.2274
 1958SOL     OW17509   3.986   0.209   3.025 -0.2679 -0.0510 -0.2044
 1958SOL    HW117510   3.955   0.132   3.071 -0.1221  0.6471  1.0763
 1958SOL    HW217511   4.069   0.179   2.986  0.6006  2.1933 -0.1048
 1959SOL     OW17512   0.740   0.136   4.725 -0.2075  0.0871 -0.0346
 1959SOL    HW117513   0.657   0.160   4.683  0.5096  2.7342  0.0451
 1959SOL    HW217514   0.694   0.097   4.799 -1.9129  1.7275 -0.2178
 1960SOL     OW17515   3.995   4.469   8.717 -0.3822 -0.0412 -0.2274
 1960SOL    HW117516   3.995   4.374   8.729 -0.3338  0.1462  1.2986
 1960SOL    HW217517   3.930   4.485   8.785 -1.8977  1.9265 -2.1395
 1961SOL     OW17518   2.878   3.374   4.857 -0.5684  0.2030 -0.0838
 1961SOL    HW117519   2.968   3.386   4.829 -0.1020 -1.7976  0.5859
 1961SOL    HW217520   2.831   3.455   4.835 -1.4604 -0.3723 -0.3089
 1962SOL     OW17521   4.065   4.095  12.284 -0.6026  0.3232  0.6648
 1962SOL    HW117522   4.100   4.045  12.358 -0.3581 -1.0850 -0.4029
 1962SOL    HW217523   4.116   4.175  12.298  1.7665 -1.4474  2.2960
 1963SOL     OW17524   4.703   0.064   8.230  0.3724  0.1374 -0.6064
 1963SOL    HW117525   4.617   0.089   8.196  0.2011 -0.2950 -0.4865
 1963SOL    HW217526   4.728   0.005   8.159  2.1152 -1.4778  1.3576
 1964SOL     OW17527   0.690   2.011   2.129  0.1250 -0.3175  0.6703
 1964SOL    HW117528   0.662   2.088   2.179  0.7476 -1.1108  2.2352
 1964SOL    HW217529   0.683   1.937   2.190  1.0729 -1.1745 -0.2751
 1965SOL     OW17530   4.517   0.255  12.566  0.2543 -0.2558 -0.3618
 1965SOL    HW117531   4.461   0.222  12.636 -1.0386  1.5301 -0.5533
 1965SOL    HW217532   4.451   0.287  12.504 -0.3735 -1.8273 -0.5232
 1966SOL     OW17533   3.631   3.331   1.108 -0.0488 -0.2694  0.7467
 1966SOL    HW117534   3.660   3.260   1.050  2.9968  2.5913 -1.1784
 1966SOL    HW217535   3.593   3.271   1.172 -0.9787  0.4648  0.8712
 1967SOL     OW17536   3.091   2.148   2.213  0.6002 -0.4623 -0.3809
 1967SOL    HW117537   3.018   2.204   2.188 -1.5795 -2.4196  1.6284
 1967SOL    HW217538   3.087   2.094   2.135 -2.0808  0.4883 -0.8996
 1968SOL     OW17539   4.146   4.338   7.158  0.5414  0.0653 -0.3471
 1968SOL    HW117540   4.066   4.289   7.179  0.8206 -1.0088 -1.7111
 1968SOL    HW217541   4.189   4.370   7.237 -0.7044 -2.9287  1.5425
 1969SOL     OW17542   4.597   2.695  13.531  0.2631 -0.4426  0.0011
 1969SOL    HW117543   4.506   2.723  13.519  0.1223 -0.6195  0.6593
 1969SOL    HW217544   4.633   2.696  13.442 -0.0472 -2.8228 -0.1356
 1970SOL     OW17545   0.267   0.636  12.601  0.4340 -0.3433 -0.0995
 1970SOL    HW117546   0.262   0.588  12.684  1.3787  2.0195  1.3039
 1970SOL    HW217547   0.274   0.726  12.632  1.2357 -0.6397  0.5811
 1971SOL     OW17548   0.036   2.676  10.415 -0.0210  0.4945 -0.1127
 1971SOL    HW117549   0.100   2.711  10.478  2.1735  1.4361 -2.8886
 1971SOL    HW217550   0.010   2.593  10.455  2.2127 -0.2077 -0.1014
 1972SOL     OW17551   3.203   1.200  10.872 -0.7362  0.1386 -0.0164
 1972SOL    HW117552   3.280   1.169  10.919  0.0560 -0.7648 -1.9175
 1972SOL    HW217553   3.160   1.259  10.933 -2.5263 -0.1871 -0.9543
 1973SOL     OW17554   2.236   3.056   6.264  0.4281  0.2591 -0.2317
 1973SOL    HW117555   2.237   2.968   6.302 -2.0559  0.6641  0.8215
 1973SOL    HW217556   2.176   3.032   6.193  0.0558  0.5794 -0.0331
 1974SOL     OW17557   4.570   1.214   7.690  0.0006 -0.1873 -0.9784
 1974SOL    HW117558   4.571   1.159   7.768 -0.1606  2.0124  0.5394
 1974SOL    HW217559   4.645   1.173   7.646  1.0090  2.6617 -1.9262
 1975SOL     OW17560   2.442   1.752   2.556  0.0013  0.4135 -0.5412
 1975SOL    HW117561   2.476   1.779   2.641 -0.9750  0.5982 -0.2181
 1975SOL    HW217562   2.523   1.734   2.508  1.5287 -0.1906  2.2993
 1976SOL     OW17563   1.599   1.348   5.385  0.7903 -0.6729  0.1255
 1976SOL    HW117564   1.663   1.415   5.408 -0.1928  0.1376  0.5049
 1976SOL    HW217565   1.593   1.352   5.289 -1.8513  0.5363  0.3249
 1977SOL     OW17566   4.606   1.210   3.538 -0.8832  0.3537 -0.2878
 1977SOL    HW117567   4.578   1.159   3.614  0.7544  0.8116  0.6202
 1977SOL    HW217568   4.658   1.276   3.584  0.6884  0.1799 -1.8017
 1978SOL     OW17569   1.804   0.767   8.841  0.2526  0.1134  0.4721
 1978SOL    HW117570   1.833   0.854   8.869 -3.2913  1.0658  1.1605
 1978SOL    HW217571   1.744   0.782   8.768 -0.7038  1.2754  1.4958
 1979SOL     OW17572   4.572   1.300   2.870 -0.3244  0.2856  0.3056
 1979SOL    HW117573   4.544   1.386   2.900 -1.0212  0.5765 -1.2353
 1979SOL    HW217574   4.624   1.277   2.947  0.0953 -2.6854 -0.8631
 1980SOL     OW17575   3.668   0.385   7.078  0.0083  0.7813 -0.3474
 1980SOL    HW117576   3.586   0.336   7.082  0.2125  0.6744  2.5936
 1980SOL    HW217577   3.730   0.326   7.121  0.0682  0.1781 -1.2536
 1981SOL     OW17578   2.427   2.305   5.131 -0.1049  0.2748  0.2397
 1981SOL    HW117579   2.395   2.217   5.112 -1.6258  0.3078  2.6316
 1981SOL    HW217580   2.520   2.285   5.135 -0.2223 -0.1454  0.8821
 1982SOL     OW17581   3.634   4.255   6.297 -0.3346 -0.1372  0.3031
 1982SOL    HW117582   3.703   4.233   6.234 -0.4182 -1.1377  0.5594
 1982SOL    HW217583   3.650   4.192   6.367  0.0402 -1.6991 -1.1705
 1983SOL     OW17584   0.675   1.371   2.286 -0.2758  0.0086  0.5245
 1983SOL    HW117585   0.597   1.384   2.231  0.5547 -2.4948 -1.2595
 1983SOL    HW217586   0.733   1.442   2.258 -0.2602  0.3194  1.3576
 1984SOL     OW17587   3.715   0.343  14.365 -0.4409 -0.9553 -0.9485
 1984SOL    HW117588   3.736   0.429  14.327 -0.7406 -1.2161 -1.6865
 1984SOL    HW217589   3.735   0.284  14.292 -1.0513 -2.7208  0.3255
 1985SOL     OW17590   0.615   3.619   1.694  0.6506 -0.4993 -0.4035
 1985SOL    HW117591   0.525   3.600   1.719  0.8986 -0.6435  0.4042
 1985SOL    HW217592   0.619   3.706   1.655  0.2551 -0.5940 -0.6533
 1986SOL     OW17593   1.919   1.327   0.937  0.6754  0.1078 -0.1495
 1986SOL    HW117594   1.951   1.276   0.864 -2.2178 -0.5241 -0.9924
 1986SOL    HW217595   1.832   1.291   0.956  1.4202 -1.7268 -0.2407
 1987SOL     OW17596   3.591   4.323  11.267  0.6288 -0.5340 -0.5980
 1987SOL    HW117597   3.616   4.268  11.342  2.4256 -1.0422 -1.5611
 1987SOL    HW217598   3.610   4.260  11.198 -1.0044 -2.1040  0.3815
 1988SOL     OW17599   2.974   3.147   9.353  0.1836  0.4417  0.2475
 1988SOL    HW117600   2.882   3.135   9.377  1.1589 -2.3516  2.6067
 1988SOL    HW217601   2.967   3.233   9.312 -2.2806 -0.1999 -0.7041
 1989SOL     OW17602   2.566   3.703   6.520  0.0085  0.2137 -0.0633
 1989SOL    HW117603   2.656   3.673   6.512 -0.4587 -0.8115 -1.4070
 1989SOL    HW217604   2.571   3.772   6.587  2.7004 -0.7850  0.7648
 1990SOL     OW17605   4.357   0.177   6.963  0.0865  0.2231 -0.3778
 1990SOL    HW117606   4.366   0.093   6.918 -3.3670 -1.4828  2.1331
 1990SOL    HW217607   4.436   0.219   6.929 -0.2353  2.0863  1.1890
 1991SOL     OW17608   3.349   1.389   2.338 -0.4679 -0.0891 -0.1534
 1991SOL    HW117609   3.394   1.325   2.283 -0.1766 -2.5277  2.9182
 1991SOL    HW217610   3.307   1.327   2.398 -2.1082  1.3445  0.1828
 1992SOL     OW17611   0.564   0.419   4.159 -0.1177  0.6047  0.5657
 1992SOL    HW117612   0.590   0.369   4.081  1.6157  0.6207  1.1302
 1992SOL    HW217613   0.635   0.403   4.221  0.1396 -2.9368 -0.5845
 1993SOL     OW17614   2.907   2.876  16.232 -0.0584  0.7052 -0.0259
 1993SOL    HW117615   2.924   2.879  16.326  0.2883  0.3335 -0.0757
 1993SOL    HW217616   2.816   2.907  16.240 -0.2134  0.7106 -1.7181
 1994SOL     OW17617   0.840   0.395   6.609 -0.1721 -0.5544 -0.5092
 1994SOL    HW117618   0.901   0.436   6.547  2.6118 -1.2817  1.7511
 1994SOL    HW217619   0.886   0.319   6.644  1.6167  1.0794  0.7494
 1995SOL     OW17620   0.987   0.030   1.745 -0.3504  0.5449  0.1632
 1995SOL    HW117621   0.894   0.012   1.762 -0.1724 -1.8237 -1.3015
 1995SOL    HW217622   0.984   0.102   1.682  1.0566 -0.2790 -0.8370
 1996SOL     OW17623   2.431   2.288   9.820  0.2910 -0.4818  0.5416
 1996SOL    HW117624   2.353   2.336   9.793  1.1907 -0.4343 -1.9946
 1996SOL    HW217625   2.410   2.196   9.805  2.3379 -1.1552  1.8063
 1997SOL     OW17626   0.850   1.075   5.696 -0.4192  0.0184 -0.1823
 1997SOL    HW117627   0.834   1.114   5.610  0.0223 -3.2216 -1.7732
 1997SOL    HW217628   0.932   1.121   5.714 -1.0812  1.5792 -1.2431
 1998SOL     OW17629   0.227   3.544   7.655 -0.1042  0.0347  0.1937
 1998SOL    HW117630   0.241   3.599   7.578 -0.1004  0.8296  0.7558
 1998SOL    HW217631   0.208   3.459   7.615 -0.9596  0.3917 -0.1636
 1999SOL     OW17632   0.553   3.236  13.541 -0.0819 -0.1521  0.1861
 1999SOL    HW117633   0.474   3.203  13.583  0.1033  1.7937  2.0530
 1999SOL    HW217634   0.615   3.178  13.585  0.4764 -0.4748 -1.0336
 2000SOL     OW17635   0.082   0.602   5.976 -0.5909 -0.2386  0.1671
 2000SOL    HW117636   0.022   0.543   5.930 -0.2185  1.0267 -1.9220
 2000SOL    HW217637   0.090   0.548   6.055 -1.5655 -0.5109  0.0813
 2001SOL     OW17638   3.370   4.392  10.350  0.1419  0.0314  0.2787
 2001SOL    HW117639   3.313   4.443  10.292 -1.4978 -0.3633  1.5556
 2001SOL    HW217640   3.307   4.367  10.417 -0.1759 -1.3455 -0.5498
 2002SOL     OW17641   0.223   4.235  15.062 -0.5032  0.1777  0.3200
 2002SOL    HW117642   0.199   4.255  15.153  0.1063  0.8843  0.3242
 2002SOL    HW217643   0.143   4.192  15.033  0.8453 -2.1990  0.1445
 2003SOL     OW17644   0.193   4.498   4.338 -0.2295  0.2190 -0.1908
 2003SOL    HW117645   0.137   4.467   4.267  0.0898 -0.7131 -0.0412
 2003SOL    HW217646   0.127   4.531   4.398 -0.4307  0.8521 -0.7496
 2004SOL     OW17647   0.251   3.031   2.202 -0.3356  0.2594  0.5044
 2004SOL    HW117648   0.163   3.030   2.239 -0.5489 -0.7629 -0.0126
 2004SOL    HW217649   0.290   2.957   2.249  0.1963  1.0664  1.3235
 2005SOL     OW17650   1.123   2.786   7.530 -0.3077 -0.2690 -0.2673
 2005SOL    HW117651   1.081   2.826   7.607  3.4632 -0.5627  1.9131
 2005SOL    HW217652   1.078   2.833   7.460  0.3600  0.8039  0.0245
 2006SOL     OW17653   0.473   3.128   2.978  0.4579  0.0540  0.0219
 2006SOL    HW117654   0.406   3.196   2.992  1.0380  1.3548 -3.3258
 2006SOL    HW217655   0.552   3.166   3.016  0.9039  0.2568 -1.0924
 2007SOL     OW17656   0.298   0.640   4.534 -0.0027 -0.1800  0.8072
 2007SOL    HW117657   0.224   0.584   4.510 -0.6334  0.6342  0.8865
 2007SOL    HW217658   0.334   0.628   4.446 -1.4825 -1.6446  0.3954
 2008SOL     OW17659   2.982   3.576   8.965  0.1821  0.4560  0.0141
 2008SOL    HW117660   3.013   3.610   9.049 -0.6035 -1.3190  1.0137
 2008SOL    HW217661   2.896   3.617   8.972  1.2261  2.9860 -1.5408
 2009SOL     OW17662   2.584   1.817   3.649 -0.0403 -0.5187 -0.4846
 2009SOL    HW117663   2.546   1.800   3.735  0.3931  0.1608 -0.1657
 2009SOL    HW217664   2.511   1.861   3.604 -0.1113 -0.0554  0.0930
 2010SOL     OW17665   4.229   3.409   2.619 -0.6597 -0.2001 -0.0206
 2010SOL    HW117666   4.283   3.360   2.681 -1.3579  0.2028  0.9098
 2010SOL    HW217667   4.285   3.400   2.541 -0.8433  2.4782 -0.4768
 2011SOL     OW17668   2.441   2.248   3.370 -0.3738 -0.0560  0.8580
 2011SOL    HW117669   2.510   2.191   3.337  0.5408  2.0784 -0.8877
 2011SOL    HW217670   2.370   2.234   3.307 -0.0837  0.9025  0.3240
 2012SOL     OW17671   0.232   0.178  12.303 -0.1954 -0.3553 -0.0772
 2012SOL    HW117672   0.161   0.178  12.368 -1.6742 -0.3656 -1.6853
 2012SOL    HW217673   0.243   0.273  12.303  2.5528 -0.6916 -1.9574
 2013SOL     OW17674   3.350   3.205   1.468  0.2775  0.1209 -0.1948
 2013SOL    HW117675   3.309   3.145   1.405  1.1397  1.0256 -1.5961
 2013SOL    HW217676   3.380   3.275   1.411 -2.6371  2.4615  1.1507
 2014SOL     OW17677   3.406   3.045  11.052 -0.5270  0.2103 -0.4942
 2014SOL    HW117678   3.318   3.078  11.073  0.4598  2.0006  0.7950
 2014SOL    HW217679   3.392   2.950  11.041  1.0724 -0.1267  0.4297
 2015SOL     OW17680   0.014   3.112   2.312 -0.1326 -0.2915 -0.2715
 2015SOL    HW117681   4.667   3.123   2.354  0.5112  1.5895  0.5237
 2015SOL    HW217682   0.074   3.170   2.359  0.1919  0.1361 -1.2104
 2016SOL     OW17683   0.709   1.372   1.952  0.1649  0.1942  0.1509
 2016SOL    HW117684   0.707   1.468   1.949 -0.4341  0.0884 -2.9991
 2016SOL    HW217685   0.747   1.356   1.865  0.8586 -0.1086  0.5066
 2017SOL     OW17686   1.557   1.828   7.265 -0.2572  0.1674  0.0052
 2017SOL    HW117687   1.601   1.913   7.261 -0.9063  0.6324  2.9581
 2017SOL    HW217688   1.488   1.834   7.200  0.7346 -1.0680 -1.1704
 2018SOL     OW17689   2.541   0.636  15.111  0.0148  0.0612  0.3839
 2018SOL    HW117690   2.623   0.664  15.071 -1.0807  2.3860 -0.2120
 2018SOL    HW217691   2.521   0.713  15.164 -2.0587  0.0512 -0.3743
 2019SOL     OW17692   0.367   0.661   4.798 -0.0423 -0.1639 -0.6906
 2019SOL    HW117693   0.328   0.661   4.711  0.1577  1.5405 -0.7778
 2019SOL    HW217694   0.418   0.580   4.798  1.0533  0.5214 -0.7101
 2020SOL     OW17695   0.220   0.545   1.166 -0.1588 -0.5965  0.0271
 2020SOL    HW117696   0.244   0.637   1.175  0.0330 -0.5344 -1.0679
 2020SOL    HW217697   0.230   0.514   1.256  1.8189 -1.1010 -0.3823
 2021SOL     OW17698   1.315   0.645  11.301  0.1412  0.5422 -0.4066
 2021SOL    HW117699   1.332   0.691  11.383 -1.8976 -1.6729  1.2466
 2021SOL    HW217700   1.402   0.632  11.264  0.2704 -0.0913  0.1345
 2022SOL     OW17701   2.800   1.382   7.734 -0.4950 -0.4276 -0.3607
 2022SOL    HW117702   2.819   1.304   7.682  1.4305 -0.6730  0.7202
 2022SOL    HW217703   2.876   1.438   7.716  0.3965 -2.4847 -2.9474
 2023SOL     OW17704   3.403   0.984  14.378 -0.1109  0.1493 -0.4236
 2023SOL    HW117705   3.431   0.893  14.387 -0.2034  0.2676  1.1460
 2023SOL    HW217706   3.316   0.963  14.343 -0.4379  0.2753  0.3137
 2024SOL     OW17707   4.451   0.316  17.434 -0.3899 -0.3378  0.5144
 2024SOL    HW117708   4.494   0.232  17.417  0.2283 -0.0009  0.4291
 2024SOL    HW217709   4.522   0.349  17.489  0.3359  2.3512 -2.0349
 2025SOL     OW17710   4.088   4.328   4.580  0.2621  0.3948  0.3133
 2025SOL    HW117711   4.085   4.234   4.600  3.5895  0.1087 -0.4395
 2025SOL    HW217712   4.002   4.356   4.610  0.7846 -0.3079  2.4277
 2026SOL     OW17713   2.106   3.162   2.676 -0.2763 -0.2801 -0.0895
 2026SOL    HW117714   2.059   3.186   2.756  1.5569 -1.3293  1.2799
 2026SOL    HW217715   2.199   3.166   2.696 -0.3162  0.2355 -0.0039
 2027SOL     OW17716   2.473   0.746  17.418  0.2539 -0.3397  0.6332
 2027SOL    HW117717   2.450   0.830  17.377 -2.5865 -1.4468 -0.0370
 2027SOL    HW217718   2.410   0.695  17.367  0.5158  2.2290 -2.2584
 2028SOL     OW17719   3.706   3.613   4.824  0.0546  0.0565  0.6458
 2028SOL    HW117720   3.747   3.627   4.739 -1.2808  2.1340  0.3402
 2028SOL    HW217721   3.753   3.667   4.888 -1.2605  0.3316  1.3904
 2029SOL     OW17722   0.952   3.164   6.345 -0.1787 -0.2864  0.0374
 2029SOL    HW117723   0.997   3.173   6.429 -1.3948 -1.1978  0.7759
 2029SOL    HW217724   0.992   3.087   6.304  0.2211  0.2522 -0.5957
 2030SOL     OW17725   0.725   1.097  12.641  0.1370 -0.2452  0.3525
 2030SOL    HW117726   0.708   1.152  12.717  0.3658 -1.0306  0.9730
 2030SOL    HW217727   0.652   1.038  12.661  0.9000 -0.5219  2.3388
 2031SOL     OW17728   0.500   3.857   3.961  0.0581 -0.3325 -0.2262
 2031SOL    HW117729   0.455   3.934   3.996 -0.3138 -1.0167  0.7860
 2031SOL    HW217730   0.428   3.801   3.934 -0.9597  0.4384  0.8855
 2032SOL     OW17731   4.420   3.844   8.372  0.0737  0.1255 -0.0823
 2032SOL    HW117732   4.481   3.832   8.299  0.1697  2.0171 -0.3223
 2032SOL    HW217733   4.472   3.905   8.424 -0.7369  0.8605 -0.1345
 2033SOL     OW17734   1.672   3.446   4.826 -0.2181 -0.8038 -0.6038
 2033SOL    HW117735   1.657   3.359   4.865  0.8406 -1.0781 -0.8058
 2033SOL    HW217736   1.686   3.426   4.734  1.8038 -0.4465 -0.3855
 2034SOL     OW17737   2.327   1.824   0.945 -0.2301 -0.2322  0.1522
 2034SOL    HW117738   2.398   1.858   0.998  0.1858  1.0709 -1.2273
 2034SOL    HW217739   2.345   1.858   0.857 -0.5298  1.3907  0.7256
 2035SOL     OW17740   2.978   2.292   1.188 -0.3857  0.1621 -0.3412
 2035SOL    HW117741   3.050   2.229   1.193 -1.4088 -1.1180 -1.9185
 2035SOL    HW217742   3.016   2.371   1.226 -0.9157  0.3350 -0.1613
 2036SOL     OW17743   4.279   2.598   4.217 -0.5490 -0.0351  0.2184
 2036SOL    HW117744   4.366   2.627   4.245  0.0854 -1.5252 -0.2642
 2036SOL    HW217745   4.231   2.605   4.300  0.2430 -0.6408  0.7279
 2037SOL     OW17746   4.343   1.060  11.070 -0.2704  0.1815  0.3635
 2037SOL    HW117747   4.362   1.018  11.154 -0.2692  2.3054  1.4188
 2037SOL    HW217748   4.267   1.008  11.045 -0.5390  1.0515 -0.6238
 2038SOL     OW17749   3.782   3.466   4.294 -0.0980  0.1155 -0.4500
 2038SOL    HW117750   3.732   3.437   4.218 -1.5400 -2.4740  1.5156
 2038SOL    HW217751   3.821   3.545   4.256 -2.2726  0.7862 -1.2870
 2039SOL     OW17752   1.659   1.147   8.761 -0.2290 -0.4855  0.0644
 2039SOL    HW117753   1.661   1.069   8.816 -0.0335 -1.9296 -2.0041
 2039SOL    HW217754   1.592   1.204   8.798  1.6176  1.9309 -0.3372
 2040SOL     OW17755   3.115   2.049   3.212 -0.5525 -0.4061 -0.4081
 2040SOL    HW117756   3.051   2.012   3.152 -2.7447  2.2728  0.3131
 2040SOL    HW217757   3.195   2.058   3.160 -0.1672 -0.9777  0.0758
 2041SOL     OW17758   4.576   0.495   5.863 -0.0170  0.0207  0.7799
 2041SOL    HW117759   4.540   0.456   5.943 -0.3391 -2.4275 -0.5859
 2041SOL    HW217760   4.518   0.456   5.798 -1.3222  0.5373  1.6368
 2042SOL     OW17761   4.458   1.483  13.332  0.2236 -0.7315 -0.6888
 2042SOL    HW117762   4.378   1.531  13.313 -0.2485 -1.6716 -1.1052
 2042SOL    HW217763   4.478   1.439  13.249  3.1584  1.2385 -1.0363
 2043SOL     OW17764   2.762   3.672   4.739  0.1693  0.6656  0.1910
 2043SOL    HW117765   2.801   3.725   4.809  1.1130 -2.2995  1.9048
 2043SOL    HW217766   2.719   3.729   4.675 -0.5354  0.6740  0.6749
 2044SOL     OW17767   0.251   3.361   5.750 -0.9633 -0.1947 -0.2057
 2044SOL    HW117768   0.341   3.345   5.720 -0.5390 -0.9061  1.4339
 2044SOL    HW217769   0.264   3.445   5.795  1.3763 -0.5791 -0.1297
 2045SOL     OW17770   3.196   2.153   6.705 -0.5947 -0.8621  0.3761
 2045SOL    HW117771   3.188   2.167   6.799  1.1072  0.4076  0.3353
 2045SOL    HW217772   3.237   2.066   6.709  0.3389 -0.4145  0.6042
 2046SOL     OW17773   4.373   3.790   7.497  0.3712  0.3059 -0.2675
 2046SOL    HW117774   4.356   3.736   7.575 -0.1091  1.4513  0.4151
 2046SOL    HW217775   4.406   3.869   7.539  0.7130 -0.2140  0.4441
 2047SOL     OW17776   3.618   3.493   3.163  0.7418  0.0065  0.3811
 2047SOL    HW117777   3.572   3.517   3.083 -2.3033  0.7396  2.3583
 2047SOL    HW217778   3.620   3.398   3.151 -0.3694 -0.4297  3.5139
 2048SOL     OW17779   3.859   3.573   8.763 -0.1558  0.0310 -0.0590
 2048SOL    HW117780   3.939   3.620   8.787 -0.2069  1.5307 -2.7962
 2048SOL    HW217781   3.868   3.546   8.671 -0.1194 -2.9716  0.8247
 2049SOL     OW17782   1.205   0.261   8.616  0.0759  0.4331  0.5624
 2049SOL    HW117783   1.268   0.190   8.624  0.0034  0.0075 -2.6134
 2049SOL    HW217784   1.119   0.226   8.592  1.3418 -1.7196 -0.8829
 2050SOL     OW17785   2.063   1.668   5.558 -0.8373 -0.3454 -1.0996
 2050SOL    HW117786   2.063   1.751   5.606  0.8424 -0.9295 -0.0821
 2050SOL    HW217787   2.124   1.695   5.489  2.5893 -1.9241  1.2733
 2051SOL     OW17788   0.709   1.505   7.488 -0.0727  0.3276 -0.4660
 2051SOL    HW117789   0.653   1.493   7.565 -0.5187  0.7112 -0.7337
 2051SOL    HW217790   0.759   1.582   7.513  0.9886  0.3768 -2.8197
 2052SOL     OW17791   4.053   1.967  13.425  0.4460 -0.4305 -0.1502
 2052SOL    HW117792   4.113   2.038  13.401  2.0886 -0.9344  2.4756
 2052SOL    HW217793   4.076   1.968  13.518  0.7624 -0.7802 -0.2267
 2053SOL     OW17794   0.057   3.787   3.295 -0.5964  0.0939  0.3404
 2053SOL    HW117795   0.004   3.736   3.356 -0.1624  0.3393  0.9325
 2053SOL    HW217796   0.129   3.819   3.350 -1.0466  1.6046  0.0492
 2054SOL     OW17797   1.744   1.969   0.766  0.1176 -0.0142 -0.1762
 2054SOL    HW117798   1.784   1.913   0.832 -3.3635 -0.2389  1.7353
 2054SOL    HW217799   1.661   1.999   0.803 -0.0876 -1.9381  0.9301
 2055SOL     OW17800   4.162   2.159   8.822 -0.2011  0.2835  0.2103
 2055SOL    HW117801   4.177   2.175   8.915 -0.3449  2.3548 -0.1137
 2055SOL    HW217802   4.220   2.224   8.781 -0.6418  0.7299  0.2864
 2056SOL     OW17803   2.519   1.765   9.328  0.2579  0.2315  0.0758
 2056SOL    HW117804   2.471   1.713   9.393 -0.4894  2.0703  0.9878
 2056SOL    HW217805   2.454   1.761   9.259 -1.8683  1.3564  2.0334
 2057SOL     OW17806   1.544   4.236  10.652  0.7723  0.5984  0.8568
 2057SOL    HW117807   1.634   4.267  10.652  0.8512  0.3763 -0.2148
 2057SOL    HW217808   1.540   4.201  10.741 -1.1134 -3.1499 -0.6900
 2058SOL     OW17809   4.153   3.335  13.582 -0.2320  0.2351 -0.1143
 2058SOL    HW117810   4.246   3.318  13.591 -0.2512  1.0612  1.6858
 2058SOL    HW217811   4.156   3.426  13.553  0.1979 -0.2233 -1.5340
 2059SOL     OW17812   3.197   0.493   0.022  0.0248 -0.0626 -0.4571
 2059SOL    HW117813   3.149   0.420  17.731 -0.2961  0.6134 -1.3376
 2059SOL    HW217814   3.139   0.531   0.088 -1.5565 -0.6838 -1.5129
 2060SOL     OW17815   4.360   0.311   4.764 -0.3171  0.0580  0.1040
 2060SOL    HW117816   4.374   0.403   4.786  0.8868  0.1496 -1.0665
 2060SOL    HW217817   4.392   0.326   4.675 -0.9660 -0.8222 -0.2870
 2061SOL     OW17818   3.698   2.767   3.472  0.1088  0.3525  0.0168
 2061SOL    HW117819   3.603   2.755   3.476  0.0885  0.5117 -0.0042
 2061SOL    HW217820   3.728   2.714   3.546 -1.3487 -1.3803 -0.5931
 2062SOL     OW17821   3.952   3.180  12.020 -0.5930 -0.2639  0.0637
 2062SOL    HW117822   3.875   3.134  12.054 -0.3256 -0.7089  0.0736
 2062SOL    HW217823   4.023   3.117  12.004 -2.6540 -2.9105  1.4037
 2063SOL     OW17824   1.494   0.031   4.842  0.5731  0.5667 -0.1564
 2063SOL    HW117825   1.478   0.121   4.814  0.1689  0.2357 -0.9727
 2063SOL    HW217826   1.451   0.013   4.926 -2.9399  2.6222 -1.5289
 2064SOL     OW17827   3.656   2.146   8.165  0.2346  0.4691  0.0164
 2064SOL    HW117828   3.711   2.147   8.243  0.0047  1.8444  0.1639
 2064SOL    HW217829   3.598   2.214   8.201  0.5853  0.9096 -0.2503
 2065SOL     OW17830   3.625   3.094   5.375 -0.1088  0.3159  0.1098
 2065SOL    HW117831   3.551   3.083   5.435  0.6760  1.7458  1.3485
 2065SOL    HW217832   3.684   3.158   5.416  0.1396  0.1661 -0.0136
 2066SOL     OW17833   2.592   4.155   1.787  0.2081 -0.3740  0.4990
 2066SOL    HW117834   2.559   4.216   1.853  1.2283  0.1985  0.4664
 2066SOL    HW217835   2.679   4.183   1.758  0.1687 -1.0078 -0.2536
 2067SOL     OW17836   2.428   3.366   2.338 -0.1468  0.2896  0.3695
 2067SOL    HW117837   2.434   3.345   2.431  0.4401  2.3047  0.7831
 2067SOL    HW217838   2.459   3.457   2.340  1.3468 -0.1983 -0.5674
 2068SOL     OW17839   3.011   1.397  16.060  0.0793 -0.3026 -0.2694
 2068SOL    HW117840   2.931   1.415  16.011 -1.1647 -2.5092  1.0001
 2068SOL    HW217841   3.065   1.371  15.985  1.5850  2.5426 -0.1703
 2069SOL     OW17842   2.815   1.274   1.153  0.0413 -0.1366  0.4901
 2069SOL    HW117843   2.783   1.248   1.067 -1.1892  2.2316  0.2467
 2069SOL    HW217844   2.737   1.260   1.207  0.8393 -1.8676  1.1986
 2070SOL     OW17845   0.955   0.262   7.385  0.5031  0.0627 -0.5368
 2070SOL    HW117846   0.916   0.247   7.299  2.0867  0.6500 -1.3580
 2070SOL    HW217847   0.898   0.209   7.440 -0.1604 -0.2616 -1.5440
 2071SOL     OW17848   2.188   3.003   8.153  0.1836  0.0187  0.0715
 2071SOL    HW117849   2.157   3.084   8.112 -0.3462  0.9036  2.2134
 2071SOL    HW217850   2.261   2.982   8.095 -0.8236 -0.7699 -0.9052
 2072SOL     OW17851   3.524   1.793   7.851  0.4678  0.4663  0.2735
 2072SOL    HW117852   3.614   1.783   7.821 -0.6971 -0.1452 -3.1269
 2072SOL    HW217853   3.529   1.889   7.852 -1.1093  0.5399  1.4002
 2073SOL     OW17854   0.077   2.849  16.279 -0.2587  0.1533  0.3340
 2073SOL    HW117855   0.110   2.915  16.218 -1.3557  0.7014  0.3309
 2073SOL    HW217856   0.116   2.879  16.361  1.1835  0.8187 -0.5900
 2074SOL     OW17857   2.255   3.918   4.482  0.4466 -0.7798 -0.1009
 2074SOL    HW117858   2.243   3.900   4.575  2.5273  1.1009  0.5109
 2074SOL    HW217859   2.261   4.013   4.479  2.9751 -0.9375  0.1653
 2075SOL     OW17860   3.882   0.660   2.910 -0.1622 -0.2882 -0.5396
 2075SOL    HW117861   3.823   0.700   2.847  0.0568  1.4440  0.3706
 2075SOL    HW217862   3.844   0.573   2.926  1.5111 -0.8403  0.4786
 2076SOL     OW17863   4.604   3.518   3.164  0.0285  0.4792 -0.3322
 2076SOL    HW117864   4.685   3.472   3.183 -0.5120  0.7684  2.5751
 2076SOL    HW217865   4.595   3.572   3.242 -0.5027  2.3510 -1.6836
 2077SOL     OW17866   1.159   3.878   2.882 -0.1746 -0.2852 -0.3386
 2077SOL    HW117867   1.215   3.855   2.808 -1.3220  2.2124 -1.9857
 2077SOL    HW217868   1.186   3.969   2.895  0.7071 -0.5593 -0.2940
 2078SOL     OW17869   4.300   0.473   8.413 -0.3919 -0.4640 -0.1629
 2078SOL    HW117870   4.316   0.397   8.468  1.4570  1.1937  1.5684
 2078SOL    HW217871   4.211   0.466   8.379  0.2540  1.9521 -2.3393
 2079SOL     OW17872   0.101   1.717   2.331 -0.0701 -0.0413  0.7079
 2079SOL    HW117873   0.148   1.784   2.282 -1.3673  0.1537 -0.2701
 2079SOL    HW217874   0.060   1.670   2.259  3.3559  0.6189 -1.6770
 2080SOL     OW17875   4.263   4.279   2.688  0.0953  0.0170  0.0144
 2080SOL    HW117876   4.191   4.341   2.690 -0.7128 -0.8841 -1.2175
 2080SOL    HW217877   4.218   4.203   2.653 -1.8554  0.6636  1.1436
 2081SOL     OW17878   3.149   2.083   4.361 -1.4160  0.1330  0.1266
 2081SOL    HW117879   3.192   2.037   4.289 -0.4662  2.0070 -0.5112
 2081SOL    HW217880   3.065   2.115   4.329 -1.4075  1.4294  1.4169
 2082SOL     OW17881   1.013   0.860   7.693  0.1418 -0.5734  0.0406
 2082SOL    HW117882   1.058   0.785   7.654 -1.4489 -2.2456  1.4188
 2082SOL    HW217883   0.987   0.905   7.613  1.9922 -3.1304 -2.0015
 2083SOL     OW17884   2.154   0.881   7.084  0.6521  0.2396 -0.0596
 2083SOL    HW117885   2.203   0.963   7.077 -0.1657  0.6942 -0.3850
 2083SOL    HW217886   2.089   0.896   7.015  0.8917 -0.3590 -0.4257
 2084SOL     OW17887   4.588   3.174  14.517  0.7181 -0.1124  0.2108
 2084SOL    HW117888   4.618   3.084  14.501  0.8722  0.0433 -0.4065
 2084SOL    HW217889   4.646   3.232  14.467 -1.9605  1.2387 -1.3072
 2085SOL     OW17890   3.109   2.425   5.495  0.2514  0.6197  0.5220
 2085SOL    HW117891   3.029   2.457   5.454  0.6019  1.2212  0.3222
 2085SOL    HW217892   3.180   2.488   5.486  0.9815 -0.6673 -2.5589
 2086SOL     OW17893   0.044   3.869   1.227  0.0243  0.5583  0.1498
 2086SOL    HW117894   4.710   3.930   1.248 -1.5262 -2.2920  3.1484
 2086SOL    HW217895   0.011   3.780   1.234  2.1653 -0.2139  0.4321
 2087SOL     OW17896   2.423   3.122   3.374 -0.5103  0.5285 -0.1291
 2087SOL    HW117897   2.429   3.042   3.426  0.3621 -0.8216 -2.2870
 2087SOL    HW217898   2.338   3.158   3.397 -1.0893 -2.0079  1.6501
 2088SOL     OW17899   1.725   3.027   7.640 -0.1261 -0.5060  0.2703
 2088SOL    HW117900   1.761   3.101   7.689 -1.0780 -0.2075  0.5258
 2088SOL    HW217901   1.642   3.056   7.600  0.4565  1.7968  0.7221
 2089SOL     OW17902   0.920   4.527   7.855 -0.3547  0.1283 -0.0059
 2089SOL    HW117903   0.952   4.559   7.939 -1.3567  1.3066 -0.0818
 2089SOL    HW217904   0.999   4.509   7.804  0.7696 -0.3572  1.9197
 2090SOL     OW17905   1.772   1.581   7.998  0.1228 -0.1624 -0.4783
 2090SOL    HW117906   1.843   1.616   7.943 -1.1874 -0.1488 -2.1435
 2090SOL    HW217907   1.792   1.489   7.985 -1.5761 -0.5031 -0.6260
 2091SOL     OW17908   2.035   3.981   3.658  0.3725  0.1620  0.3465
 2091SOL    HW117909   2.062   3.913   3.720 -3.9104 -0.9073  1.0996
 2091SOL    HW217910   2.100   3.970   3.589  1.0629 -0.6277  1.1168
 2092SOL     OW17911   3.275   4.528  16.490  0.0965 -0.1187  0.3884
 2092SOL    HW117912   3.319   4.451  16.527  1.5485  0.6833  0.3128
 2092SOL    HW217913   3.201   4.482  16.450 -0.1665  0.7690 -0.1357
 2093SOL     OW17914   2.328   0.160  16.658  0.3119 -0.4047  0.3502
 2093SOL    HW117915   2.238   0.173  16.627  0.2834  1.0577  1.0574
 2093SOL    HW217916   2.368   0.146  16.572  0.9433 -1.1914  0.7766
 2094SOL     OW17917   1.662   1.634   9.864  0.0570 -0.6151 -0.1609
 2094SOL    HW117918   1.603   1.705   9.838 -0.9356 -0.8594  1.4582
 2094SOL    HW217919   1.737   1.693   9.869 -0.0668 -0.3829 -1.0230
 2095SOL     OW17920   3.804   3.414   8.069 -0.0697 -0.1936  0.2137
 2095SOL    HW117921   3.778   3.475   8.138  0.2469 -1.4023  1.3964
 2095SOL    HW217922   3.727   3.412   8.012 -0.6547 -0.9867  1.0239
 2096SOL     OW17923   4.473   0.844  15.276 -0.4410 -0.6595  0.6541
 2096SOL    HW117924   4.387   0.879  15.253 -0.6916 -1.3933  0.4788
 2096SOL    HW217925   4.474   0.839  15.371 -1.1941 -0.5976  0.6633
 2097SOL     OW17926   3.697   0.202   4.874 -0.2211  0.2293  0.5538
 2097SOL    HW117927   3.607   0.233   4.864  0.0367  1.2156  1.2839
 2097SOL    HW217928   3.733   0.283   4.913  0.2889 -0.3729  1.3416
 2098SOL     OW17929   2.988   3.893  11.526  0.3962 -0.0769  0.3088
 2098SOL    HW117930   2.898   3.874  11.500  0.8916 -0.5911 -1.0280
 2098SOL    HW217931   3.031   3.900  11.441 -0.6504 -1.3359 -0.3238
 2099SOL     OW17932   3.225   2.360   9.226  0.6774 -0.0062 -0.0506
 2099SOL    HW117933   3.158   2.341   9.292  1.9604  1.0686  1.5356
 2099SOL    HW217934   3.179   2.434   9.186 -0.1835 -0.1047  0.7468
 2100SOL     OW17935   2.171   1.899   2.625 -0.8602  0.2783  0.0438
 2100SOL    HW117936   2.140   1.955   2.553 -1.9354 -1.4620 -0.8420
 2100SOL    HW217937   2.239   1.844   2.585 -1.0768  1.1354 -1.5098
 2101SOL     OW17938   3.572   1.485  15.626 -0.5848 -0.4492 -0.0138
 2101SOL    HW117939   3.596   1.571  15.593 -0.9589 -0.6997 -0.9550
 2101SOL    HW217940   3.589   1.433  15.547 -0.7048 -0.9902  0.3115
 2102SOL     OW17941   2.828   3.755   6.323  0.0756 -0.0454 -0.3999
 2102SOL    HW117942   2.904   3.731   6.269  0.5734 -0.1742  0.3550
 2102SOL    HW217943   2.785   3.830   6.281  1.2032  1.5466  1.2331
 2103SOL     OW17944   0.883   0.331   8.839 -0.3796 -0.5253  0.1694
 2103SOL    HW117945   0.842   0.293   8.916  2.2464  0.9568  2.2990
 2103SOL    HW217946   0.954   0.386   8.873 -0.6810 -0.0599  0.0399
 2104SOL     OW17947   2.332   1.359   3.980 -0.6583  0.3961 -0.0995
 2104SOL    HW117948   2.267   1.363   4.050 -0.2783  1.3740  0.2036
 2104SOL    HW217949   2.271   1.359   3.906  1.0810  0.0237 -1.5232
 2105SOL     OW17950   2.014   0.855   9.297 -0.2039 -0.2426  0.4198
 2105SOL    HW117951   2.063   0.874   9.376 -1.1809 -0.3795  1.0612
 2105SOL    HW217952   2.063   0.785   9.254  0.1561  0.7548 -0.8047
 2106SOL     OW17953   1.401   4.425   1.841 -0.4941 -0.4345  0.1307
 2106SOL    HW117954   1.417   4.336   1.808  0.6262  0.6625 -2.2774
 2106SOL    HW217955   1.312   4.438   1.809 -0.7666  0.5801  1.2876
 2107SOL     OW17956   0.118   2.521   8.222 -0.0033 -0.0793 -0.0681
 2107SOL    HW117957   0.093   2.557   8.307  1.5886 -1.7481  1.0871
 2107SOL    HW217958   0.141   2.433   8.250  0.0668  1.5645  4.9381
 2108SOL     OW17959   1.092   2.040   2.141  0.2730  0.2915 -0.4849
 2108SOL    HW117960   1.145   2.027   2.063 -0.2564  1.2027 -1.0002
 2108SOL    HW217961   1.009   2.009   2.103 -0.3217  0.9151  0.3073
 2109SOL     OW17962   4.658   1.546   6.765 -0.0590 -0.1600  0.1197
 2109SOL    HW117963   4.687   1.499   6.687  2.1293  2.0181 -0.3716
 2109SOL    HW217964   4.643   1.631   6.723  1.4757  1.5407  3.0186
 2110SOL     OW17965   0.615   4.154   4.590 -0.1092  0.2625 -0.4620
 2110SOL    HW117966   0.525   4.163   4.558 -0.5436 -1.3136  0.3060
 2110SOL    HW217967   0.605   4.165   4.685 -0.4127  2.7367 -0.7890
 2111SOL     OW17968   3.384   1.503  14.661  0.9930 -0.6795  0.0491
 2111SOL    HW117969   3.443   1.574  14.684  0.2669  0.2511 -0.9349
 2111SOL    HW217970   3.332   1.539  14.589  0.9865 -1.2722 -0.2416
 2112SOL     OW17971   0.537   4.641  12.202  0.4551 -0.2462 -0.1186
 2112SOL    HW117972   0.564   4.658  12.112 -0.5354 -0.8371 -0.5388
 2112SOL    HW217973   0.526   4.725  12.247  0.5691  0.2087 -0.9421
 2113SOL     OW17974   1.242   0.290   7.243 -0.3267  0.6523 -0.0612
 2113SOL    HW117975   1.318   0.347   7.236  0.2024  0.3759  3.1453
 2113SOL    HW217976   1.186   0.320   7.315  0.4768  5.7136 -1.5462
 2114SOL     OW17977   2.135   0.843  12.305 -0.1383  0.3385 -0.4809
 2114SOL    HW117978   2.205   0.905  12.325 -0.8822  1.0590 -0.1176
 2114SOL    HW217979   2.138   0.848  12.210  0.6574  1.6047 -0.3877
 2115SOL     OW17980   0.100   2.907  14.779 -0.0829  0.3092  0.0801
 2115SOL    HW117981   0.023   2.930  14.727 -0.6685  0.6930  1.0971
 2115SOL    HW217982   0.140   2.841  14.723 -1.3234 -1.9103  1.7944
 2116SOL     OW17983   1.450   0.933   2.260 -0.1370 -0.1763  0.1179
 2116SOL    HW117984   1.397   0.907   2.184 -1.7439  2.3928  0.3579
 2116SOL    HW217985   1.482   1.016   2.224  1.3589 -0.5799  0.4908
 2117SOL     OW17986   2.446   2.929   6.861  0.6031 -0.0236 -0.0244
 2117SOL    HW117987   2.392   2.913   6.939 -1.0286  0.8037 -0.9662
 2117SOL    HW217988   2.451   3.025   6.865 -1.6183  0.2288 -3.6747
 2118SOL     OW17989   1.659   0.371   5.777 -0.4816 -0.0560  0.1872
 2118SOL    HW117990   1.594   0.333   5.717  0.0879 -1.4846  0.4804
 2118SOL    HW217991   1.662   0.460   5.741  0.6288  0.6046  1.9270
 2119SOL     OW17992   2.710   4.287   9.229 -0.1020  0.8129 -0.0915
 2119SOL    HW117993   2.713   4.327   9.142 -1.2272  2.1500  0.4734
 2119SOL    HW217994   2.786   4.230   9.232 -2.1427 -1.7834  1.9547
 2120SOL     OW17995   4.561   2.374  15.586  0.2424  0.2384  0.1832
 2120SOL    HW117996   4.579   2.411  15.673  0.5871 -1.5666  0.8767
 2120SOL    HW217997   4.474   2.338  15.603  0.4785 -0.5891 -0.3488
 2121SOL     OW17998   4.219   1.872   6.380 -0.7889  0.3991 -0.3724
 2121SOL    HW117999   4.166   1.796   6.355  0.5422 -0.1568 -1.5233
 2121SOL    HW218000   4.194   1.879   6.472 -3.9826 -2.1684 -1.0192
 2122SOL     OW18001   1.144   4.106  10.419  0.0824 -0.1362 -0.3646
 2122SOL    HW118002   1.102   4.137  10.339  0.6450 -0.1781 -0.6737
 2122SOL    HW218003   1.197   4.180  10.448 -2.1001  1.9593 -1.6908
 2123SOL     OW18004   2.092   0.938   7.818 -0.1888  0.3932 -0.2244
 2123SOL    HW118005   2.174   0.900   7.788 -1.3373 -2.9037  0.8504
 2123SOL    HW218006   2.025   0.873   7.837  1.3843 -1.7099 -1.9585
 2124SOL     OW18007   1.441   0.262   3.209 -0.3807  0.1553 -0.0638
 2124SOL    HW118008   1.391   0.340   3.187 -1.9517 -1.5960 -2.7013
 2124SOL    HW218009   1.422   0.215   3.128  0.5146  0.8783 -0.7019
 2125SOL     OW18010   1.637   0.359   8.669  0.3270 -0.8648  0.0902
 2125SOL    HW118011   1.719   0.355   8.718  1.4439  1.5520 -1.5441
 2125SOL    HW218012   1.613   0.268   8.650 -1.6171 -0.0480 -1.3881
 2126SOL     OW18013   3.098   4.586   7.560 -0.1972  0.1998  0.4496
 2126SOL    HW118014   3.157   4.548   7.625 -0.2393  2.2258  1.6817
 2126SOL    HW218015   3.149   4.661   7.529 -1.9116  0.7708 -1.0241
 2127SOL     OW18016   3.401   0.209   4.965  0.4841 -0.3792  0.2092
 2127SOL    HW118017   3.398   0.114   4.969  1.4697 -0.5015 -1.6579
 2127SOL    HW218018   3.345   0.231   4.890 -0.0705  0.4803  0.8809
 2128SOL     OW18019   3.823   1.819   2.947 -0.5104  0.3417  0.1213
 2128SOL    HW118020   3.896   1.774   2.905 -1.2361 -1.4813  0.8302
 2128SOL    HW218021   3.860   1.841   3.032  1.1146  0.6947 -0.6641
 2129SOL     OW18022   4.216   2.561   9.203 -0.4502  0.2131 -0.6289
 2129SOL    HW118023   4.174   2.627   9.258 -0.6390 -0.8765  0.5514
 2129SOL    HW218024   4.151   2.494   9.224 -1.0085  1.1012  0.4343
 2130SOL     OW18025   4.432   3.337   5.593  0.4276 -0.3023  0.3952
 2130SOL    HW118026   4.339   3.357   5.586  1.3540  3.4429 -1.2604
 2130SOL    HW218027   4.441   3.319   5.687 -0.5064 -2.3358  0.0971
 2131SOL     OW18028   3.591   3.214   4.308  0.0657 -0.3430  0.3268
 2131SOL    HW118029   3.586   3.263   4.390 -1.4636  0.1068 -0.0465
 2131SOL    HW218030   3.607   3.278   4.239  0.9450  1.7827  2.5035
 2132SOL     OW18031   4.097   0.406   0.923  0.1685 -0.3714  0.3467
 2132SOL    HW118032   4.169   0.441   0.976  1.7317  1.3111 -2.9121
 2132SOL    HW218033   4.084   0.475   0.858 -1.7402 -0.0332  1.1042
 2133SOL     OW18034   1.438   2.242   6.987 -0.4043 -0.6385 -0.0775
 2133SOL    HW118035   1.402   2.271   6.903 -1.6871  2.4023  1.4969
 2133SOL    HW218036   1.364   2.274   7.039 -1.1194 -1.4824 -0.5906
 2134SOL     OW18037   2.548   3.908   5.645 -0.1777 -0.4565 -0.1922
 2134SOL    HW118038   2.552   3.831   5.589  0.6819  1.8488 -3.3280
 2134SOL    HW218039   2.536   3.853   5.722  0.5802 -1.0659 -0.5217
 2135SOL     OW18040   3.480   2.351  12.697  0.3936 -0.2258  0.6188
 2135SOL    HW118041   3.533   2.290  12.747  2.0718  0.8025  0.0974
 2135SOL    HW218042   3.402   2.299  12.677 -1.1160  1.6677  1.5738
 2136SOL     OW18043   2.653   2.218  16.649 -0.2719  0.0460  0.2093
 2136SOL    HW118044   2.673   2.298  16.698  1.8663 -0.2874 -0.1134
 2136SOL    HW218045   2.602   2.170  16.714 -0.2505  0.0089  0.1987
 2137SOL     OW18046   2.831   0.198  11.893  0.1516 -0.1281 -0.5031
 2137SOL    HW118047   2.791   0.280  11.866  2.1976  1.2609  0.6951
 2137SOL    HW218048   2.916   0.223  11.930 -0.4295 -0.6337  1.1585
 2138SOL     OW18049   0.994   2.255   8.329 -0.1284  0.0294  0.4868
 2138SOL    HW118050   0.978   2.328   8.389 -1.3651  0.8173 -0.7831
 2138SOL    HW218051   0.905   2.235   8.301  0.7796  0.0148 -2.4256
 2139SOL     OW18052   1.031   2.088   7.523 -0.0952  0.3102  0.1401
 2139SOL    HW118053   1.078   2.117   7.601  0.2629  0.0535  0.0213
 2139SOL    HW218054   1.027   2.162   7.462 -0.7839  0.8521  0.8394
 2140SOL     OW18055   3.536   3.408  17.225  0.2134  0.3537 -0.2682
 2140SOL    HW118056   3.479   3.473  17.183 -0.0395  0.3097  0.0083
 2140SOL    HW218057   3.620   3.447  17.201 -0.3683  1.4109 -0.5825
 2141SOL     OW18058   2.121   3.808   2.956  0.0179 -0.0721  0.2540
 2141SOL    HW118059   2.074   3.816   3.039  2.5133  1.9799  1.4811
 2141SOL    HW218060   2.061   3.834   2.886 -0.1667  1.3883  0.9514
 2142SOL     OW18061   1.900   2.954   8.852 -0.4097  0.1452 -0.4186
 2142SOL    HW118062   1.947   2.872   8.840  0.1082  0.1027  1.8060
 2142SOL    HW218063   1.826   2.933   8.909  0.4044  1.4105  1.1519
 2143SOL     OW18064   1.443   4.077   5.449 -0.3075 -0.6299 -0.0570
 2143SOL    HW118065   1.424   4.152   5.504 -0.9158 -1.4087  0.7955
 2143SOL    HW218066   1.418   4.112   5.363 -1.0490  1.2294  0.9149
 2144SOL     OW18067   0.015   3.991   4.293 -0.6230 -0.2782  0.7577
 2144SOL    HW118068   0.106   3.968   4.314 -0.4536  0.3129  0.6513
 2144SOL    HW218069   4.715   3.903   4.286 -0.8290 -0.0816 -0.6238
 2145SOL     OW18070   0.237   4.103   4.800 -0.3808  0.1545  0.9300
 2145SOL    HW118071   0.144   4.082   4.810 -0.9482  0.9871 -2.6497
 2145SOL    HW218072   0.233   4.190   4.761 -2.9847 -0.3021  0.1672
 2146SOL     OW18073   2.419   3.673   0.765  0.1017  0.3110  0.3486
 2146SOL    HW118074   2.436   3.663   0.858  0.5699 -2.3600 -0.0422
 2146SOL    HW218075   2.414   3.769   0.767 -3.0376  0.1594  0.8806
 2147SOL     OW18076   4.641   3.408  11.838 -0.6637 -0.1212 -0.0988
 2147SOL    HW118077   4.584   3.422  11.914  1.4095  0.1638  1.4176
 2147SOL    HW218078   4.711   3.470  11.858 -1.7833  1.2434 -0.4740
 2148SOL     OW18079   2.418   0.025  15.395 -0.0269 -0.2531  0.1891
 2148SOL    HW118080   2.510   0.047  15.409 -0.1568  0.9601 -0.8099
 2148SOL    HW218081   2.408   0.074  15.313  3.7253  1.6538  0.8707
 2149SOL     OW18082   3.771   2.458  10.575 -0.5377  0.3045 -0.5325
 2149SOL    HW118083   3.862   2.475  10.599  0.3820 -0.1293 -3.6903
 2149SOL    HW218084   3.725   2.531  10.615 -0.8985 -0.3911  0.3340
 2150SOL     OW18085   2.057   1.595  13.558  0.0615  0.5308  0.0441
 2150SOL    HW118086   2.105   1.606  13.476 -1.4401  1.0405 -0.7617
 2150SOL    HW218087   2.091   1.510  13.586  0.7823  0.7515 -0.1517
 2151SOL     OW18088   3.936   1.494   1.892  0.6251 -0.0795 -0.5926
 2151SOL    HW118089   3.999   1.484   1.964  1.2569  1.5039 -0.9124
 2151SOL    HW218090   3.874   1.551   1.938  2.1982  0.3631  1.0002
 2152SOL     OW18091   2.104   1.553   9.845 -0.2175  0.6208 -0.2470
 2152SOL    HW118092   2.141   1.479   9.894 -1.6607  0.4992  0.6350
 2152SOL    HW218093   2.098   1.623   9.910 -1.1001 -0.1528  0.4970
 2153SOL     OW18094   2.995   3.079  13.225  0.8832  0.7547 -0.2242
 2153SOL    HW118095   2.998   3.053  13.133 -0.6526  0.2653 -0.1373
 2153SOL    HW218096   3.065   3.025  13.264  1.2857  0.8346 -0.8477
 2154SOL     OW18097   1.751   4.417   2.462  0.3350 -0.1853  0.2031
 2154SOL    HW118098   1.845   4.429   2.475 -0.0904  2.7195  0.5959
 2154SOL    HW218099   1.751   4.449   2.371 -2.6479 -0.3031  0.1692
 2155SOL     OW18100   2.722   4.063   7.073 -0.8360  0.0305  0.5724
 2155SOL    HW118101   2.723   4.158   7.063  1.0589 -0.3505 -2.8309
 2155SOL    HW218102   2.736   4.067   7.168 -2.3277  0.8014  0.7553
 2156SOL     OW18103   3.743   3.011  12.157  0.3505 -0.0685 -0.0925
 2156SOL    HW118104   3.805   3.029  12.228 -0.2819  0.6341  0.2754
 2156SOL    HW218105   3.695   2.936  12.192 -1.8283  1.1738 -0.4316
 2157SOL     OW18106   2.267   4.436  13.160  0.3656 -0.2026  0.4852
 2157SOL    HW118107   2.264   4.442  13.064 -3.3586 -0.1006  0.6031
 2157SOL    HW218108   2.346   4.385  13.177 -0.4460 -2.0265 -1.2294
 2158SOL     OW18109   4.304   4.634  11.857  0.0065  0.2686 -0.6125
 2158SOL    HW118110   4.275   4.642  11.766 -0.6797 -0.9497 -0.5095
 2158SOL    HW218111   4.397   4.646  11.838 -0.3435  3.1507 -0.5225
 2159SOL     OW18112   1.278   1.708   1.391  0.1403 -0.6623 -0.2214
 2159SOL    HW118113   1.191   1.747   1.406  1.2497  3.0104 -3.4366
 2159SOL    HW218114   1.246   1.620   1.372  2.5901 -2.4993  4.2809
 2160SOL     OW18115   3.920   0.794   4.450  0.8349  0.1255  0.1337
 2160SOL    HW118116   3.964   0.835   4.525  0.5332  2.0313 -0.7256
 2160SOL    HW218117   3.988   0.750   4.400  0.7131  1.0457 -0.8550
 2161SOL     OW18118   2.665   2.819   2.526  0.0361  0.5716  0.0230
 2161SOL    HW118119   2.621   2.836   2.609  2.4294 -1.9395  1.7922
 2161SOL    HW218120   2.724   2.753   2.561  1.2146  1.0549 -1.0701
 2162SOL     OW18121   3.000   0.658  15.923  0.3663  0.1577  0.1071
 2162SOL    HW118122   3.088   0.627  15.902  0.5976 -0.0986  1.4711
 2162SOL    HW218123   2.974   0.690  15.836  1.1422  1.1876  0.2540
 2163SOL     OW18124   3.346   1.002   6.125 -0.3418 -0.5207  0.3624
 2163SOL    HW118125   3.303   0.977   6.044  0.9057 -2.0567  0.1766
 2163SOL    HW218126   3.415   0.936   6.121 -1.6738 -1.8729 -0.3807
 2164SOL     OW18127   1.481   3.025  16.635 -0.2244 -0.0808 -0.1364
 2164SOL    HW118128   1.442   3.108  16.607  0.6905  0.4186  0.0562
 2164SOL    HW218129   1.507   3.034  16.727 -0.5318 -2.0835  0.1462
 2165SOL     OW18130   1.735   1.510   3.298 -0.1950 -0.1030  0.2973
 2165SOL    HW118131   1.705   1.435   3.246 -1.8733 -1.5842  3.3948
 2165SOL    HW218132   1.808   1.532   3.241  1.0593  0.4124  2.0899
 2166SOL     OW18133   3.226   4.512   4.428  0.7722  0.2062  0.8223
 2166SOL    HW118134   3.202   4.461   4.505  2.1281  1.7047  2.2229
 2166SOL    HW218135   3.154   4.575   4.428 -1.0854 -1.8797  1.3866
 2167SOL     OW18136   4.490   1.111   6.317 -0.4627 -0.8428 -0.0505
 2167SOL    HW118137   4.572   1.129   6.270  1.0911 -1.8376  2.2675
 2167SOL    HW218138   4.431   1.104   6.242 -2.1690  2.0027  1.0395
 2168SOL     OW18139   1.884   0.857  15.251 -0.0476  0.1733 -0.3634
 2168SOL    HW118140   1.951   0.795  15.223 -0.7771 -1.2016  0.9139
 2168SOL    HW218141   1.852   0.885  15.165  0.8285 -1.8327 -1.3240
 2169SOL     OW18142   4.041   0.409  12.224 -0.3977 -0.0060 -0.1484
 2169SOL    HW118143   4.133   0.409  12.199  0.2757 -0.5233  2.3543
 2169SOL    HW218144   4.036   0.488  12.278  0.5499  0.6507 -1.0116
 2170SOL     OW18145   3.782   3.094   6.165 -0.3558  0.3791  0.4741
 2170SOL    HW118146   3.789   3.129   6.254 -1.3530  0.0786  0.6659
 2170SOL    HW218147   3.690   3.068   6.169 -0.0534 -1.1137 -2.4335
 2171SOL     OW18148   2.784   1.792   6.157 -0.3558 -0.3270 -0.3162
 2171SOL    HW118149   2.786   1.846   6.078  2.0464  0.3178  0.1870
 2171SOL    HW218150   2.854   1.730   6.137 -0.9011 -1.0092 -0.1069
 2172SOL     OW18151   4.096   2.375   5.948 -0.3845 -0.2283 -0.2583
 2172SOL    HW118152   4.128   2.295   5.991 -1.1434 -1.3095 -1.7370
 2172SOL    HW218153   4.013   2.395   5.991 -0.4711  2.2296 -1.5871
 2173SOL     OW18154   2.068   2.705  13.786  0.0579  0.1185 -0.2010
 2173SOL    HW118155   2.081   2.772  13.719  0.3769  0.2524 -0.0064
 2173SOL    HW218156   2.001   2.653  13.743  0.7268 -0.3007 -0.7177
 2174SOL     OW18157   2.632   1.863   1.291 -0.2694 -0.1472 -0.4097
 2174SOL    HW118158   2.721   1.837   1.265  0.3773  0.9605  0.7298
 2174SOL    HW218159   2.604   1.904   1.209 -3.4166  0.9017  1.2400
 2175SOL     OW18160   0.339   0.630  11.289  0.3967  0.4344  0.1179
 2175SOL    HW118161   0.381   0.698  11.341  0.0876 -0.1274  1.1044
 2175SOL    HW218162   0.250   0.664  11.299  0.3546 -0.0712  1.4574
 2176SOL     OW18163   1.059   2.243   0.215 -0.1846 -0.0489 -0.4995
 2176SOL    HW118164   1.116   2.245   0.293 -2.6778 -0.2172  1.3222
 2176SOL    HW218165   0.974   2.270   0.249 -0.7938 -0.3825 -1.7656
 2177SOL     OW18166   1.465   0.511   4.915 -0.0733  0.5649  0.1530
 2177SOL    HW118167   1.497   0.566   4.986  2.4756 -1.2249  0.3938
 2177SOL    HW218168   1.503   0.548   4.835  0.9592 -0.4276  0.1747
 2178SOL     OW18169   3.780   0.169  14.162 -0.2733  0.3774 -0.2276
 2178SOL    HW118170   3.720   0.114  14.111 -0.1872 -0.5640  0.6894
 2178SOL    HW218171   3.856   0.114  14.183 -0.1276  0.3800 -0.7652
 2179SOL     OW18172   1.415   3.161  13.462 -0.1525  0.0221 -0.2034
 2179SOL    HW118173   1.391   3.097  13.529  0.9453 -2.0344 -1.7897
 2179SOL    HW218174   1.330   3.161  13.418  0.7464 -0.6066 -1.9309
 2180SOL     OW18175   0.505   0.045   7.042  0.2094  0.7535 -0.0562
 2180SOL    HW118176   0.409   0.049   7.036  0.1201 -1.8621 -0.1496
 2180SOL    HW218177   0.530   0.113   6.979  0.5398  0.0061 -0.7231
 2181SOL     OW18178   1.776   3.309   0.101  0.0982  0.3596  0.8554
 2181SOL    HW118179   1.699   3.283   0.151  1.0612  0.0138  2.1473
 2181SOL    HW218180   1.828   3.351   0.169  1.2297  1.4215 -0.6593
 2182SOL     OW18181   0.062   1.481   2.152 -0.0804 -0.3854  0.5262
 2182SOL    HW118182   0.115   1.404   2.172  2.6903  0.9358 -1.6948
 2182SOL    HW218183   0.092   1.484   2.061 -3.5161 -1.5793 -0.6429
 2183SOL     OW18184   4.252   2.478  10.035  0.7764  0.3299  0.6180
 2183SOL    HW118185   4.255   2.512   9.946  0.4083  1.1693  0.9311
 2183SOL    HW218186   4.327   2.523  10.073  0.4864  1.1508  0.2070
 2184SOL     OW18187   0.610   4.447   3.601 -0.5738  0.1610 -0.0659
 2184SOL    HW118188   0.586   4.396   3.678 -0.0821  1.5322  0.9951
 2184SOL    HW218189   0.685   4.499   3.631  1.4240 -0.8122 -3.2939
 2185SOL     OW18190   0.440   3.910   2.077  0.7640  0.5814  0.6056
 2185SOL    HW118191   0.435   3.944   1.988  0.3739  1.5000  0.9779
 2185SOL    HW218192   0.354   3.926   2.115 -1.2626 -1.3292 -3.1451
 2186SOL     OW18193   2.634   1.442   6.989  0.0320  0.2392 -0.1004
 2186SOL    HW118194   2.563   1.465   6.928 -1.5605 -0.6094  1.4292
 2186SOL    HW218195   2.646   1.519   7.045 -1.8634 -0.3686  1.1343
 2187SOL     OW18196   1.918   3.503  10.507 -0.6054  0.0088 -0.0384
 2187SOL    HW118197   1.928   3.558  10.429  1.2139 -1.4485 -0.8589
 2187SOL    HW218198   1.834   3.526  10.547 -0.8630 -0.2343 -0.4369
 2188SOL     OW18199   2.110   1.507  16.916 -0.0278  0.2661 -0.0980
 2188SOL    HW118200   2.191   1.558  16.919 -0.3723  0.8366 -0.4848
 2188SOL    HW218201   2.110   1.460  16.999  0.9888 -0.2442 -0.3826
 2189SOL     OW18202   0.315   0.191   9.240  0.2452 -0.3306 -0.2715
 2189SOL    HW118203   0.269   0.108   9.232 -3.7067  1.9004 -0.7763
 2189SOL    HW218204   0.243   0.251   9.257  0.4586 -0.3366  0.6536
 2190SOL     OW18205   4.180   2.568   8.365  0.4279 -0.0870  0.1831
 2190SOL    HW118206   4.257   2.603   8.320  0.9053 -1.1231  0.1913
 2190SOL    HW218207   4.116   2.582   8.296  1.6203  0.7045 -0.7581
 2191SOL     OW18208   0.471   0.530  12.232 -0.1088 -0.0558  0.4435
 2191SOL    HW118209   0.407   0.503  12.297  1.1123  0.6675  1.9419
 2191SOL    HW218210   0.422   0.513  12.152 -1.8252  1.4566  1.1753
 2192SOL     OW18211   0.810   2.334   0.294 -0.2876 -0.4281 -0.2183
 2192SOL    HW118212   0.826   2.421   0.330 -2.2702 -0.4347  0.6431
 2192SOL    HW218213   0.727   2.313   0.336 -0.7623  3.2441  0.6560
 2193SOL     OW18214   1.647   2.734   6.502 -0.0231  0.9293 -0.1634
 2193SOL    HW118215   1.594   2.749   6.580 -1.7545 -0.3728 -1.0695
 2193SOL    HW218216   1.731   2.717   6.545  0.1614  1.2958 -0.3812
 2194SOL     OW18217   1.428   3.715   1.470  0.2119 -0.3039  0.7471
 2194SOL    HW118218   1.341   3.690   1.436  0.0913  2.3436 -0.8403
 2194SOL    HW218219   1.484   3.645   1.437  2.5454  1.6942  0.5115
 2195SOL     OW18220   1.655   2.824   5.950  0.1034  0.0906  0.0812
 2195SOL    HW118221   1.696   2.845   6.034  0.4988 -1.9785  0.3950
 2195SOL    HW218222   1.720   2.775   5.899  0.0382 -0.2642  0.3458
 2196SOL     OW18223   4.716   3.564   8.665 -0.1404  0.0067 -0.0589
 2196SOL    HW118224   0.070   3.558   8.695 -1.1304 -0.3441  2.8515
 2196SOL    HW218225   4.719   3.618   8.586 -1.4262 -0.9888 -0.7951
 2197SOL     OW18226   3.727   3.555  14.044  0.1378  0.0985 -0.0175
 2197SOL    HW118227   3.729   3.648  14.020  0.1020  0.5274  1.6685
 2197SOL    HW218228   3.818   3.541  14.068  0.1424  0.5329  0.2199
 2198SOL     OW18229   3.298   1.017   5.482 -0.1392 -0.1070 -0.3767
 2198SOL    HW118230   3.292   1.030   5.387 -0.2509  1.8420 -0.1109
 2198SOL    HW218231   3.348   1.096   5.501  2.2774 -1.7545  0.1207
 2199SOL     OW18232   0.920   1.597   3.994 -0.1526  0.2644 -0.2854
 2199SOL    HW118233   0.829   1.603   3.967  0.0343  2.0192 -0.5254
 2199SOL    HW218234   0.933   1.503   4.002 -1.5233 -0.0201 -1.6722
 2200SOL     OW18235   1.961   2.680   7.038  0.0632 -0.0218  0.1832
 2200SOL    HW118236   1.985   2.602   7.088 -0.4730 -0.0094  0.4522
 2200SOL    HW218237   1.913   2.735   7.100  0.7845  1.0526 -0.2094
 2201SOL     OW18238   4.604   3.745  11.036 -0.0728  0.5958 -0.3194
 2201SOL    HW118239   4.599   3.658  10.998 -1.3344 -0.9353  3.4129
 2201SOL    HW218240   4.656   3.721  11.112 -0.9243 -1.2313 -0.3124
 2202SOL     OW18241   0.424   0.729   0.276 -0.6290  0.3399  0.9056
 2202SOL    HW118242   0.490   0.791   0.307 -1.5312  1.3627  0.7707
 2202SOL    HW218243   0.392   0.673   0.346  0.8481  0.0530  1.3379
 2203SOL     OW18244   3.955   2.175  14.489  0.5084  0.4955 -0.3008
 2203SOL    HW118245   3.930   2.257  14.445 -1.5016  0.5343  0.9069
 2203SOL    HW218246   3.928   2.107  14.428  1.3109 -1.1902  1.2524
 2204SOL     OW18247   2.851   3.875   9.797 -0.1601 -0.1410  0.6980
 2204SOL    HW118248   2.900   3.859   9.877  3.2218 -1.7194 -1.7203
 2204SOL    HW218249   2.924   3.876   9.735 -0.4192 -2.6004  0.3604
 2205SOL     OW18250   0.909   4.450   9.050 -0.1049  0.2035 -0.7172
 2205SOL    HW118251   0.913   4.534   9.095 -2.9857 -0.7985  1.4204
 2205SOL    HW218252   0.908   4.473   8.957  3.6062 -0.4587 -0.9214
 2206SOL     OW18253   2.439   3.468   6.045 -0.3303 -0.1038 -0.2901
 2206SOL    HW118254   2.474   3.400   5.986 -0.2669  1.0955 -1.6334
 2206SOL    HW218255   2.510   3.490   6.106  0.8396 -1.7463 -1.0431
 2207SOL     OW18256   2.214   2.977  16.564  0.5413 -0.1472 -0.0822
 2207SOL    HW118257   2.189   3.069  16.568  3.6016  0.6843 -0.2072
 2207SOL    HW218258   2.142   2.919  16.589  0.4690 -0.0060  0.0388
 2208SOL     OW18259   4.540   0.222   0.059 -0.2831 -0.2726 -0.4214
 2208SOL    HW118260   4.498   0.142   0.091  0.2451 -0.6928 -0.7563
 2208SOL    HW218261   4.529   0.216  17.711  1.1476  1.4774 -0.6879
 2209SOL     OW18262   3.370   1.078   6.731 -0.6307  0.1336 -0.3649
 2209SOL    HW118263   3.419   1.066   6.650  0.4102 -0.8229  0.3927
 2209SOL    HW218264   3.433   1.107   6.798 -0.2536 -0.2454 -0.5577
 2210SOL     OW18265   2.688   3.300   7.057 -0.4543  0.0655  0.1204
 2210SOL    HW118266   2.657   3.381   7.097 -0.1266  0.0336  0.4488
 2210SOL    HW218267   2.783   3.310   7.050 -0.5623  2.1747  1.6447
 2211SOL     OW18268   2.100   4.510   6.995  0.5644 -0.7560  0.4783
 2211SOL    HW118269   2.062   4.571   6.931 -1.3500 -1.9066  0.5262
 2211SOL    HW218270   2.187   4.481   6.968  1.0113 -2.2072  3.5205
 2212SOL     OW18271   1.751   3.665   5.519 -0.4018  0.3354  0.0034
 2212SOL    HW118272   1.767   3.642   5.611  1.2117 -0.2938 -0.4465
 2212SOL    HW218273   1.658   3.644   5.510 -0.5268  0.8506  0.0824
 2213SOL     OW18274   1.631   1.810  14.342  0.4894 -0.1905 -0.5405
 2213SOL    HW118275   1.548   1.854  14.327  0.6233 -0.3408 -1.7776
 2213SOL    HW218276   1.621   1.734  14.283 -3.1237  0.1724 -0.3739
 2214SOL     OW18277   3.340   0.228  16.757  0.3347 -0.0474  0.6827
 2214SOL    HW118278   3.268   0.185  16.711  1.3309  0.4001 -1.2974
 2214SOL    HW218279   3.308   0.315  16.779 -1.3023 -0.6589  0.6945
 2215SOL     OW18280   2.413   1.063   0.594 -0.3569 -0.7885  0.2716
 2215SOL    HW118281   2.459   1.145   0.612  1.3796 -1.7640  0.2621
 2215SOL    HW218282   2.393   1.035   0.684  0.0154 -0.8909  0.3245
 2216SOL     OW18283   2.194   3.043   9.104  0.4324 -0.7212  0.3898
 2216SOL    HW118284   2.245   3.015   9.179 -0.6573 -1.9505  0.6657
 2216SOL    HW218285   2.108   3.067   9.139  1.5269  3.4253  0.2525
 2217SOL     OW18286   2.536   2.345   6.819  0.8101  0.1424 -0.3530
 2217SOL    HW118287   2.607   2.296   6.777  0.9696 -0.1375  0.2380
 2217SOL    HW218288   2.583   2.415   6.864 -1.4047  0.1969  1.8938
 2218SOL     OW18289   2.605   2.034   8.207  0.1462 -0.1641 -0.3441
 2218SOL    HW118290   2.598   2.112   8.152  1.3745  0.6703  0.6625
 2218SOL    HW218291   2.560   2.054   8.289  0.7571 -1.3339  0.2767
 2219SOL     OW18292   4.410   2.343   4.122  0.7624 -0.3571 -0.1399
 2219SOL    HW118293   4.416   2.279   4.193 -0.5313  1.6080  1.7277
 2219SOL    HW218294   4.364   2.415   4.164  0.9675 -0.3107  0.0055
 2220SOL     OW18295   2.323   2.049  12.102 -0.1878 -0.2962  0.1930
 2220SOL    HW118296   2.408   2.050  12.058  0.2312 -0.4931  1.0032
 2220SOL    HW218297   2.356   2.085  12.185  0.9044  0.1975 -0.4611
 2221SOL     OW18298   1.291   1.201   3.652 -0.2189  0.0373  0.1684
 2221SOL    HW118299   1.245   1.223   3.571  0.3503 -1.4073 -0.5476
 2221SOL    HW218300   1.320   1.289   3.675  0.4429 -0.7501  2.3535
 2222SOL     OW18301   0.125   2.110   3.292 -0.2316 -0.2898 -0.2483
 2222SOL    HW118302   0.170   2.182   3.249  2.5677 -1.2524  0.9970
 2222SOL    HW218303   0.064   2.158   3.348 -0.6113 -1.3926  0.2874
 2223SOL     OW18304   2.182   1.062   4.260  0.4627  0.1885 -0.3128
 2223SOL    HW118305   2.205   1.126   4.192 -0.2993 -1.4221 -2.0652
 2223SOL    HW218306   2.095   1.034   4.232 -0.4644  2.8509 -0.0602
 2224SOL     OW18307   4.310   0.407  12.221  0.0633  0.5278 -0.4282
 2224SOL    HW118308   4.387   0.458  12.247  0.0735  1.2883 -1.9087
 2224SOL    HW218309   4.333   0.405  12.128  0.7762 -1.1088 -0.2116
 2225SOL     OW18310   0.937   2.925   7.272 -0.2044  0.6741 -0.3253
 2225SOL    HW118311   0.899   2.980   7.340  0.0058 -1.6810  1.6864
 2225SOL    HW218312   0.922   2.993   7.207  0.0583  0.6761 -0.3818
 2226SOL     OW18313   1.156   1.558  10.822 -0.4030 -0.4501  0.2111
 2226SOL    HW118314   1.250   1.564  10.803 -0.6073 -1.8210 -1.2501
 2226SOL    HW218315   1.149   1.507  10.902  0.8263  0.2965  0.8004
 2227SOL     OW18316   0.663   2.485   6.637  0.5680  0.4114  0.3813
 2227SOL    HW118317   0.664   2.390   6.626 -0.9023  0.6445 -1.7364
 2227SOL    HW218318   0.654   2.479   6.732 -0.3840  0.5217  0.2981
 2228SOL     OW18319   2.799   0.266   4.905  0.1834 -0.0384  0.4999
 2228SOL    HW118320   2.722   0.309   4.868  1.6477  2.3502  0.1890
 2228SOL    HW218321   2.852   0.262   4.825  1.1660  1.4221  1.0785
 2229SOL     OW18322   1.136   2.775   5.602 -0.3170  0.4588 -0.3443
 2229SOL    HW118323   1.061   2.724   5.573 -0.9166  0.0120  1.9728
 2229SOL    HW218324   1.197   2.712   5.640 -0.1228  0.2433 -1.0121
 2230SOL     OW18325   1.386   4.540   5.783  0.2307  0.5194 -0.7996
 2230SOL    HW118326   1.472   4.582   5.786  0.6246 -0.3046 -0.2470
 2230SOL    HW218327   1.403   4.473   5.850 -0.2272 -1.0685 -2.2694
 2231SOL     OW18328   0.845   3.900   3.281  0.5220 -0.7903  0.0540
 2231SOL    HW118329   0.865   3.977   3.228 -1.1953  0.4348  1.1783
 2231SOL    HW218330   0.874   3.833   3.220 -2.4012 -2.4243  0.4425
 2232SOL     OW18331   1.146   1.885   2.365 -0.2441 -0.4220 -0.1234
 2232SOL    HW118332   1.221   1.853   2.316  0.2755  1.5376 -0.6090
 2232SOL    HW218333   1.120   1.960   2.311  2.1582  1.0257  0.7481
 2233SOL     OW18334   3.914   0.270   8.713  0.1871 -0.9272  0.3567
 2233SOL    HW118335   3.831   0.235   8.678 -0.1491 -1.2720  1.4925
 2233SOL    HW218336   3.887   0.322   8.788 -0.5142  0.3824 -0.8072
 2234SOL     OW18337   0.091   3.120   1.389  0.7165 -0.7113 -0.0804
 2234SOL    HW118338   0.099   3.207   1.427 -1.6865 -0.6250  0.2637
 2234SOL    HW218339   0.072   3.138   1.297 -0.6692  2.1983  0.7886
 2235SOL     OW18340   2.363   2.709   2.886 -0.2982  0.5822 -0.9757
 2235SOL    HW118341   2.398   2.692   2.799  0.6074  1.0453 -0.7065
 2235SOL    HW218342   2.269   2.709   2.874 -0.6414 -0.0842  1.6703
 2236SOL     OW18343   0.100   3.427   6.757 -0.3595  0.2323  0.1609
 2236SOL    HW118344   0.095   3.334   6.775 -0.4452  0.5742  1.8769
 2236SOL    HW218345   0.033   3.445   6.691  1.3259 -0.2572 -1.7097
 2237SOL     OW18346   2.035   2.302   8.372 -0.0606  0.0035  0.2489
 2237SOL    HW118347   2.025   2.207   8.369 -1.5515  0.2129 -1.4371
 2237SOL    HW218348   2.114   2.314   8.425  0.8071 -0.4830 -0.9319
 2238SOL     OW18349   2.392   3.552   2.989  0.0727  0.1412  0.0445
 2238SOL    HW118350   2.443   3.481   2.949 -0.1419  0.7216 -1.2732
 2238SOL    HW218351   2.468   3.596   3.027  1.8908 -0.9054 -2.2965
 2239SOL     OW18352   2.076   0.018   6.388 -0.5804 -0.3815  0.7510
 2239SOL    HW118353   2.136   4.687   6.357 -0.2513  1.7089 -3.1558
 2239SOL    HW218354   1.992   4.709   6.386 -1.3038  1.1033 -4.2179
 2240SOL     OW18355   2.666   0.326   3.288  0.4195 -0.4417 -0.0829
 2240SOL    HW118356   2.696   0.395   3.229  0.4939  1.0204  1.6672
 2240SOL    HW218357   2.748   0.311   3.334  1.3797  0.9508 -1.3512
 2241SOL     OW18358   3.047   1.808   2.860 -0.0825 -0.3401 -0.1855
 2241SOL    HW118359   3.119   1.755   2.827  1.1251  0.2446  1.4714
 2241SOL    HW218360   3.047   1.881   2.799  0.4654 -1.2487 -1.2675
 2242SOL     OW18361   3.020   3.575   3.540  0.0967 -0.2661  0.2831
 2242SOL    HW118362   2.946   3.537   3.494 -1.1471  1.0166  1.2504
 2242SOL    HW218363   3.078   3.499   3.551  0.9810  0.0680 -2.1387
 2243SOL     OW18364   0.855   3.651   4.684  0.6207 -0.1319  0.3376
 2243SOL    HW118365   0.941   3.687   4.664  0.8742 -0.2174  1.2394
 2243SOL    HW218366   0.883   3.611   4.767  0.1156 -1.0930  0.0460
 2244SOL     OW18367   0.224   0.470   6.541  0.1152  0.2134 -0.6394
 2244SOL    HW118368   0.235   0.433   6.628  0.2714 -0.0020 -0.7501
 2244SOL    HW218369   0.274   0.549   6.555 -0.2307  0.2250  0.4954
 2245SOL     OW18370   3.907   3.977   5.723  0.2687 -0.1062 -0.1071
 2245SOL    HW118371   3.866   4.038   5.662 -0.7451 -1.3339 -0.6586
 2245SOL    HW218372   3.875   3.897   5.681 -2.1134  0.2465  1.0307
 2246SOL     OW18373   3.918   1.780   6.621 -0.0013 -0.1770 -0.1970
 2246SOL    HW118374   3.888   1.730   6.545  0.0023 -0.6350  0.1033
 2246SOL    HW218375   3.892   1.725   6.694  1.5769 -2.7236 -1.5510
 2247SOL     OW18376   4.453   0.144  11.740  0.1543 -0.4017  0.4165
 2247SOL    HW118377   4.540   0.104  11.734 -0.1604 -1.2039  1.1916
 2247SOL    HW218378   4.424   0.147  11.649  2.0180 -3.5013 -0.2790
 2248SOL     OW18379   4.510   3.204   8.858  0.5187 -0.0961  0.4851
 2248SOL    HW118380   4.481   3.177   8.945 -0.8386  0.6246  0.2571
 2248SOL    HW218381   4.460   3.143   8.803  2.3134 -1.0577 -0.0979
 2249SOL     OW18382   0.551   4.351   2.242  0.4717  0.3116 -0.4355
 2249SOL    HW118383   0.633   4.328   2.287 -0.2351 -0.2488  0.5676
 2249SOL    HW218384   0.562   4.297   2.164 -1.2865 -0.1627 -0.3480
 2250SOL     OW18385   3.539   1.334   2.624 -0.1669  0.1810 -0.9921
 2250SOL    HW118386   3.574   1.374   2.703 -1.8563  2.9674 -1.6822
 2250SOL    HW218387   3.532   1.414   2.572  0.4315  0.8387 -0.0566
 2251SOL     OW18388   3.090   3.542  14.374  0.0495  0.0923  0.0064
 2251SOL    HW118389   3.071   3.533  14.467  0.5818 -2.1136 -0.1044
 2251SOL    HW218390   3.038   3.617  14.347  2.4431  1.1783 -1.5933
 2252SOL     OW18391   2.699   2.182  13.731 -0.3640 -0.0814 -0.0529
 2252SOL    HW118392   2.703   2.100  13.781 -2.3996 -0.4760 -0.5286
 2252SOL    HW218393   2.754   2.154  13.657  1.8939 -1.1437  2.0155
 2253SOL     OW18394   1.389   4.105   3.208  0.6221 -0.2250  0.5445
 2253SOL    HW118395   1.475   4.063   3.195  0.6390  0.0508 -0.2530
 2253SOL    HW218396   1.424   4.176   3.262 -0.6133  0.6705  0.1593
 2254SOL     OW18397   1.807   2.354   7.514 -0.0206  0.3357 -0.5810
 2254SOL    HW118398   1.747   2.418   7.478 -0.1339  1.4149  1.5018
 2254SOL    HW218399   1.756   2.334   7.593  1.9009 -2.8951 -0.1741
 2255SOL     OW18400   0.814   2.350   7.799  0.0020  0.3195  0.7564
 2255SOL    HW118401   0.745   2.295   7.837  1.8948 -2.4123  0.2268
 2255SOL    HW218402   0.845   2.388   7.881 -0.2518  0.3781  0.8257
 2256SOL     OW18403   1.646   2.692   9.508 -0.1000  0.1690  0.7231
 2256SOL    HW118404   1.722   2.678   9.451 -0.5925 -0.7584  0.2953
 2256SOL    HW218405   1.579   2.653   9.452  0.1488  0.5642  0.1504
 2257SOL     OW18406   0.486   1.010   9.946 -0.6104 -0.3339  0.3802
 2257SOL    HW118407   0.486   0.924   9.904  2.9568  0.8736 -2.1119
 2257SOL    HW218408   0.473   0.991  10.039 -0.4503 -0.7564  0.3169
 2258SOL     OW18409   1.446   1.621   5.988  1.2145 -0.0956  0.4382
 2258SOL    HW118410   1.404   1.633   5.902 -1.0620 -1.0704  1.4194
 2258SOL    HW218411   1.464   1.527   5.989 -1.0861 -0.5631 -1.6538
 2259SOL     OW18412   2.992   0.032   3.777  0.6041 -0.2535 -0.0759
 2259SOL    HW118413   2.915   0.088   3.787  0.7718  0.0037 -0.2237
 2259SOL    HW218414   3.049   0.081   3.717  1.3465  0.6059  1.3089
 2260SOL     OW18415   0.317   2.092  14.745  0.8720 -0.1262  0.1028
 2260SOL    HW118416   0.399   2.109  14.700  0.0672  1.1151 -0.8804
 2260SOL    HW218417   0.346   2.029  14.812  0.6793  0.2566  0.5483
 2261SOL     OW18418   1.429   2.553   9.423  0.5003  0.1279 -0.1548
 2261SOL    HW118419   1.374   2.509   9.488 -2.2937  3.5241 -0.1798
 2261SOL    HW218420   1.473   2.493   9.363  0.1894 -0.6168  0.3522
 2262SOL     OW18421   2.011   3.096  16.887  0.0524  0.2374  0.0110
 2262SOL    HW118422   1.997   3.091  16.793  3.2353 -1.2457 -0.3919
 2262SOL    HW218423   1.951   3.026  16.913  0.0517 -0.3402 -1.5883
 2263SOL     OW18424   3.280   0.407   8.814  0.6573 -0.2473  0.3655
 2263SOL    HW118425   3.273   0.501   8.833 -0.0207  0.1211 -1.7270
 2263SOL    HW218426   3.323   0.405   8.729 -1.2158 -4.1777 -0.4809
 2264SOL     OW18427   3.196   4.618   7.944 -0.9157  0.0703  0.4301
 2264SOL    HW118428   3.236   4.652   7.864 -1.8927 -2.1314 -0.9902
 2264SOL    HW218429   3.154   4.691   7.989  0.2309  1.3578 -0.5939
 2265SOL     OW18430   3.789   4.383   6.598  0.1532  0.3317  0.3011
 2265SOL    HW118431   3.782   4.294   6.562  2.1590 -0.2524  1.3469
 2265SOL    HW218432   3.865   4.419   6.552 -0.0334  0.1422 -0.1631
 2266SOL     OW18433   3.639   3.963  11.903 -0.0412 -0.2926 -0.3157
 2266SOL    HW118434   3.570   3.916  11.950 -0.7595  0.4064 -0.6685
 2266SOL    HW218435   3.674   4.015  11.974 -1.6969  1.8517 -1.0863
 2267SOL     OW18436   0.147   0.084   6.593  0.0813 -0.0685 -0.6745
 2267SOL    HW118437   0.216   0.110   6.653  0.8626  2.7039 -2.7631
 2267SOL    HW218438   0.200   0.076   6.513 -0.5914  1.2551 -1.2613
 2268SOL     OW18439   2.469   2.763   9.203 -0.1357  0.1133  0.0771
 2268SOL    HW118440   2.454   2.682   9.155 -1.0229 -0.1301  0.7665
 2268SOL    HW218441   2.531   2.791   9.136 -0.0851 -0.3152 -0.0486
 2269SOL     OW18442   2.454   2.465   2.420 -0.3325  0.4185  0.0442
 2269SOL    HW118443   2.515   2.414   2.367 -1.8205 -2.1180  0.7603
 2269SOL    HW218444   2.380   2.404   2.417 -0.4872  0.5608  0.9820
 2270SOL     OW18445   2.074   0.846   8.659 -0.1875  0.4089 -0.0008
 2270SOL    HW118446   2.039   0.867   8.572  2.9531 -2.4012 -1.9346
 2270SOL    HW218447   2.162   0.817   8.636 -0.7437 -2.1649  1.1264
 2271SOL     OW18448   3.972   4.087   3.735 -0.0635  0.7390 -0.0239
 2271SOL    HW118449   3.980   4.003   3.691  0.0531 -0.9226  3.1704
 2271SOL    HW218450   3.877   4.083   3.746  0.0130  0.4258  0.5322
 2272SOL     OW18451   3.272   0.859   2.984 -0.6069  0.9752 -0.0764
 2272SOL    HW118452   3.214   0.816   3.046  1.6789 -1.1582  0.5645
 2272SOL    HW218453   3.357   0.868   3.027 -0.3026  0.1878 -0.5099
 2273SOL     OW18454   1.195   1.902   5.618  0.1307  0.3881 -0.4756
 2273SOL    HW118455   1.114   1.943   5.650  0.1533 -0.2298  0.3647
 2273SOL    HW218456   1.161   1.853   5.544 -0.2778  0.0673 -0.0822
 2274SOL     OW18457   3.830   4.455   4.038 -0.5349  0.7203  0.3976
 2274SOL    HW118458   3.785   4.436   3.955  1.3236 -0.8212 -0.2766
 2274SOL    HW218459   3.922   4.462   4.011 -0.4734  0.9287  0.6617
 2275SOL     OW18460   0.994   0.496   5.769 -0.0608  0.6330 -0.6497
 2275SOL    HW118461   0.934   0.534   5.834  0.4386 -0.8330  0.6696
 2275SOL    HW218462   1.016   0.577   5.724  0.9412  0.7794  0.0995
 2276SOL     OW18463   4.155   1.415   5.897  0.2703  0.0413  0.0546
 2276SOL    HW118464   4.110   1.336   5.867 -0.7231  0.1719  1.2055
 2276SOL    HW218465   4.153   1.398   5.991  2.1359  0.7374  0.2201
 2277SOL     OW18466   1.451   4.437   7.442 -0.1571  0.2534 -0.4416
 2277SOL    HW118467   1.423   4.524   7.413  4.1804  2.0531  0.7557
 2277SOL    HW218468   1.473   4.446   7.535  0.4993 -0.9807 -0.4824
 2278SOL     OW18469   4.157   3.877  13.358 -0.2092 -0.7214 -0.6436
 2278SOL    HW118470   4.146   3.811  13.290  3.1858  0.3296 -2.1776
 2278SOL    HW218471   4.071   3.918  13.367 -0.0224 -0.2175 -1.1617
 2279SOL     OW18472   0.099   2.923   2.495  0.6428 -0.3915 -0.2032
 2279SOL    HW118473   0.188   2.946   2.521  0.7680 -1.6807  0.4498
 2279SOL    HW218474   0.133   2.853   2.439 -0.3210 -1.6924  0.8488
 2280SOL     OW18475   0.636   0.770   3.130 -0.1938 -0.3708 -0.0273
 2280SOL    HW118476   0.722   0.758   3.089 -1.0650 -0.0762 -1.9678
 2280SOL    HW218477   0.639   0.866   3.139  0.6757 -0.4770  0.7493
 2281SOL     OW18478   4.213   4.151   3.862 -0.2045  0.3003 -0.0224
 2281SOL    HW118479   4.262   4.069   3.868  1.1397  1.0743 -0.2771
 2281SOL    HW218480   4.130   4.120   3.827 -0.2682  1.7687 -1.1415
 2282SOL     OW18481   3.836   0.792   6.626 -0.4007  0.4678 -0.0515
 2282SOL    HW118482   3.792   0.819   6.707 -1.7782 -0.2614 -0.5450
 2282SOL    HW218483   3.845   0.874   6.577 -0.5075  1.3393  1.3655
 2283SOL     OW18484   0.737   2.047   7.496 -0.6037  0.2530 -0.6911
 2283SOL    HW118485   0.831   2.053   7.514 -0.6368 -0.1373 -0.3611
 2283SOL    HW218486   0.718   2.140   7.486  2.5152  0.9787  0.0111
 2284SOL     OW18487   4.535   1.507   7.602 -0.5242  0.6982  0.1372
 2284SOL    HW118488   4.590   1.431   7.582 -0.4797  0.7047  0.2361
 2284SOL    HW218489   4.563   1.580   7.546  1.5357 -0.4685 -0.3690
 2285SOL     OW18490   2.920   0.667   2.919 -0.6256  0.4030  0.8190
 2285SOL    HW118491   2.836   0.707   2.898  0.6224  2.1034 -0.9176
 2285SOL    HW218492   2.954   0.666   2.829  1.0799  0.6585  1.4682
 2286SOL     OW18493   4.098   1.301   4.546 -0.5712  0.4514  0.3826
 2286SOL    HW118494   4.102   1.278   4.453 -1.3214 -0.0122  0.4655
 2286SOL    HW218495   4.039   1.376   4.537 -0.7127  0.1116 -1.5118
 2287SOL     OW18496   4.710   1.367   8.280  0.1143 -0.5766 -0.3735
 2287SOL    HW118497   0.062   1.387   8.251 -0.0373 -2.7185 -2.3359
 2287SOL    HW218498   4.666   1.413   8.208  0.0540  0.5712  0.3946
 2288SOL     OW18499   4.476   1.868   1.075  0.4434 -0.4076 -0.2416
 2288SOL    HW118500   4.495   1.788   1.124  1.0579 -0.8723 -1.2386
 2288SOL    HW218501   4.392   1.889   1.115  1.4731 -0.6696  2.0333
 2289SOL     OW18502   3.257   1.964   7.978 -0.5723 -0.5444 -0.4735
 2289SOL    HW118503   3.346   1.977   7.946 -0.7041  2.3247  0.3015
 2289SOL    HW218504   3.261   2.018   8.057  2.3667  0.0469 -1.0035
 2290SOL     OW18505   0.404   3.555   6.949 -0.0164 -0.4632 -0.0630
 2290SOL    HW118506   0.436   3.643   6.930 -0.2153 -0.1243  1.1644
 2290SOL    HW218507   0.447   3.508   6.878 -1.6643 -1.3284 -0.4691
 2291SOL     OW18508   0.797   1.769  16.229 -0.1918 -0.8068  0.1152
 2291SOL    HW118509   0.777   1.803  16.316 -0.2807 -1.3361  0.3038
 2291SOL    HW218510   0.829   1.680  16.241 -0.0131 -0.6916  0.4871
 2292SOL     OW18511   0.099   0.233  15.585 -0.1095  0.1967 -0.3186
 2292SOL    HW118512   0.129   0.175  15.655 -0.7976  1.0858  0.7101
 2292SOL    HW218513   0.094   0.169  15.514 -3.3260  0.4718 -0.3213
 2293SOL     OW18514   2.475   2.708   4.378 -0.6475  0.5928  0.3154
 2293SOL    HW118515   2.566   2.735   4.389 -1.5445  2.9906  1.9343
 2293SOL    HW218516   2.417   2.780   4.402  0.8034  1.5767  0.8924
 2294SOL     OW18517   0.232   0.754   5.244 -0.1471  0.3407  0.0531
 2294SOL    HW118518   0.316   0.726   5.280  0.0929 -2.2557 -2.5254
 2294SOL    HW218519   0.266   0.787   5.160  0.1515  0.8789  0.3784
 2295SOL     OW18520   0.975   4.356  16.105 -0.0994  0.5230  0.0624
 2295SOL    HW118521   0.974   4.272  16.151 -0.5562 -0.3906 -1.6315
 2295SOL    HW218522   0.888   4.349  16.065  0.0178  1.3410 -0.3379
 2296SOL     OW18523   4.062   3.163   2.618  0.2303  0.3766  0.2781
 2296SOL    HW118524   4.094   3.123   2.698 -0.1399  0.5511  0.5114
 2296SOL    HW218525   4.037   3.242   2.664 -0.4203  0.9794 -1.1004
 2297SOL     OW18526   1.289   3.962   8.977  0.2073 -0.5319 -0.8010
 2297SOL    HW118527   1.250   4.047   8.998  0.9699 -0.0936 -1.1579
 2297SOL    HW218528   1.251   3.941   8.891 -0.0840 -0.4481 -0.6925
 2298SOL     OW18529   0.140   3.159  14.868 -0.0287 -0.3464 -0.2747
 2298SOL    HW118530   0.129   3.068  14.840  2.3731 -1.0272  0.9703
 2298SOL    HW218531   0.205   3.147  14.937 -0.0353 -1.4541 -0.4528
 2299SOL     OW18532   3.982   3.174   4.849  0.1209 -0.2181 -0.2717
 2299SOL    HW118533   4.005   3.126   4.769  0.3555 -3.0480  1.4870
 2299SOL    HW218534   3.981   3.261   4.808 -1.2219 -0.2361 -0.2725
 2300SOL     OW18535   4.343   1.480   5.114  0.7179 -0.1414 -0.8694
 2300SOL    HW118536   4.420   1.440   5.072  0.9365  1.0862 -1.6425
 2300SOL    HW218537   4.373   1.472   5.205 -1.1211 -2.3526 -0.4737
 2301SOL     OW18538   1.959   4.130   7.760 -0.5912 -0.0826  0.1684
 2301SOL    HW118539   2.044   4.145   7.720 -1.6302 -0.0137 -2.0098
 2301SOL    HW218540   1.906   4.122   7.681 -1.0520 -1.0678  0.5708
 2302SOL     OW18541   0.428   1.111   0.290  0.0310 -0.5823  0.1560
 2302SOL    HW118542   0.485   1.041   0.258  1.3663  1.1466 -1.2523
 2302SOL    HW218543   0.421   1.177   0.221 -0.6556 -1.2128 -0.3832
 2303SOL     OW18544   4.252   2.819   5.660  0.2442 -0.3554  0.0243
 2303SOL    HW118545   4.201   2.741   5.680 -2.5396  0.8894 -2.1943
 2303SOL    HW218546   4.203   2.882   5.712 -1.3176  0.1953 -2.1121
 2304SOL     OW18547   4.683   1.573   8.848  0.9885  0.4298  0.0960
 2304SOL    HW118548   4.624   1.632   8.896  0.3788 -0.7205  0.7567
 2304SOL    HW218549   4.669   1.496   8.903  0.1329  0.0396 -0.6830
 2305SOL     OW18550   4.704   0.167  17.453  0.0830 -0.1614  0.2468
 2305SOL    HW118551   0.058   0.185  17.478  0.5803 -0.6616 -1.2266
 2305SOL    HW218552   4.695   0.158  17.359  1.9314  1.3595 -0.0795
 2306SOL     OW18553   1.920   0.184  11.196  0.2184 -0.3552  0.0728
 2306SOL    HW118554   1.889   0.248  11.260  1.7334  2.2567 -1.7556
 2306SOL    HW218555   1.834   0.146  11.180  0.4444 -0.5452 -0.6905
 2307SOL     OW18556   2.761   1.771  14.074 -0.4357  0.0850  0.3219
 2307SOL    HW118557   2.721   1.754  14.159 -0.6184 -1.5972 -0.1002
 2307SOL    HW218558   2.854   1.754  14.088 -0.7591  0.7792  3.2108
 2308SOL     OW18559   2.464   3.656   3.645 -0.9187  0.2765 -0.0046
 2308SOL    HW118560   2.460   3.584   3.709  0.1846  1.8631  1.8672
 2308SOL    HW218561   2.517   3.722   3.691  0.8106 -2.3192  1.7563
 2309SOL     OW18562   2.047   4.673   7.616  0.1593  0.0674 -0.6850
 2309SOL    HW118563   2.109   4.620   7.666  0.2045 -0.0794 -0.8936
 2309SOL    HW218564   2.009   4.605   7.559 -0.0238 -0.2983 -0.1256
 2310SOL     OW18565   0.269   0.592   9.132 -0.4565  0.1627 -0.3968
 2310SOL    HW118566   0.223   0.624   9.210  0.2605  0.2474 -0.0094
 2310SOL    HW218567   0.259   0.667   9.072 -0.1565 -0.5466 -1.3316
 2311SOL     OW18568   1.009   2.113   9.175 -0.3060 -0.1796  0.3628
 2311SOL    HW118569   0.918   2.113   9.146 -1.3565  2.0220  3.7562
 2311SOL    HW218570   1.048   2.086   9.092  0.4713  1.1084  0.3064
 2312SOL     OW18571   4.098   2.673   2.075 -0.3289 -0.1757 -0.0502
 2312SOL    HW118572   4.165   2.742   2.072  0.7244 -1.2972 -2.4672
 2312SOL    HW218573   4.119   2.622   1.997  0.0782 -1.3566  0.8464
 2313SOL     OW18574   0.103   4.453   4.093  0.5022 -0.0184 -0.4410
 2313SOL    HW118575   0.054   4.523   4.050 -0.8577 -1.1353 -0.6943
 2313SOL    HW218576   0.099   4.373   4.040 -0.4905 -0.5423  0.4212
 2314SOL     OW18577   1.226   4.271   6.091  0.4582  0.2557  0.5825
 2314SOL    HW118578   1.154   4.309   6.041  2.2738 -2.3160 -3.9571
 2314SOL    HW218579   1.189   4.184   6.110 -0.7379  0.5515 -0.4046
 2315SOL     OW18580   4.633   1.328   5.773  0.4350  0.1971  0.8069
 2315SOL    HW118581   4.651   1.345   5.681  0.3474 -1.1626  0.5420
 2315SOL    HW218582   4.706   1.362   5.825  1.5250 -0.5094 -0.2705
 2316SOL     OW18583   1.611   1.880  17.108  0.0088 -0.4457 -0.0499
 2316SOL    HW118584   1.696   1.911  17.077  0.4907 -2.1236 -0.3652
 2316SOL    HW218585   1.562   1.879  17.025 -0.2275  0.7936  0.0774
 2317SOL     OW18586   0.649   1.651   3.858 -0.1988  0.0485 -0.3147
 2317SOL    HW118587   0.610   1.653   3.771 -1.2882 -1.7477  0.1204
 2317SOL    HW218588   0.612   1.575   3.904 -0.0012 -0.2477 -0.6471
 2318SOL     OW18589   1.693   3.040   1.957  0.4750 -0.1718 -0.1007
 2318SOL    HW118590   1.768   3.059   2.014 -0.4188  0.2751  0.9372
 2318SOL    HW218591   1.629   3.030   2.027  0.0876 -3.1475 -0.9042
 2319SOL     OW18592   0.543   2.041  16.588  0.5216 -0.0545 -0.3806
 2319SOL    HW118593   0.517   1.973  16.650  0.9594 -1.1990 -1.4539
 2319SOL    HW218594   0.462   2.058  16.538  1.3392 -0.4977 -1.8591
 2320SOL     OW18595   2.068   0.528   9.163  0.5754 -0.0082 -0.1602
 2320SOL    HW118596   1.984   0.557   9.126  1.7193  2.2801 -0.9473
 2320SOL    HW218597   2.112   0.503   9.082 -0.8767 -0.2566 -0.8770
 2321SOL     OW18598   3.050   2.876   9.855 -0.5625 -0.5128 -0.1584
 2321SOL    HW118599   3.113   2.811   9.823 -0.7433 -0.6802 -0.1728
 2321SOL    HW218600   3.097   2.958   9.838  0.8403 -1.2252  0.2462
 2322SOL     OW18601   1.196   2.872   5.970 -0.0620 -0.3252 -0.1760
 2322SOL    HW118602   1.197   2.917   6.055 -1.6736  2.6504 -1.7147
 2322SOL    HW218603   1.147   2.922   5.905  0.2351  1.0885  0.6845
 2323SOL     OW18604   3.372   1.810   3.517  0.2646 -0.4324  0.0052
 2323SOL    HW118605   3.284   1.782   3.491  0.0239 -1.0087  1.4538
 2323SOL    HW218606   3.428   1.773   3.449  1.5762  0.9245  0.3674
 2324SOL     OW18607   2.293   2.981   4.171  0.1634 -0.2526 -0.0752
 2324SOL    HW118608   2.273   2.957   4.261 -0.0290  1.0329  0.2227
 2324SOL    HW218609   2.360   3.050   4.181 -1.0300  0.7434  1.0502
 2325SOL     OW18610   0.805   2.983  13.441  0.3279  0.3999  0.5315
 2325SOL    HW118611   0.797   3.076  13.417  0.3796 -0.0423 -1.1915
 2325SOL    HW218612   0.760   2.966  13.523  0.1467 -1.0645  0.1234
 2326SOL     OW18613   3.915   1.872   1.709  0.5833  0.2578 -0.4859
 2326SOL    HW118614   3.943   1.897   1.797  0.2086  0.0990 -0.3183
 2326SOL    HW218615   3.963   1.793   1.684  0.1603 -0.8586  2.1716
 2327SOL     OW18616   3.825   0.480   7.664 -0.4062  0.2089 -0.1758
 2327SOL    HW118617   3.829   0.388   7.636 -1.0951 -0.2036  1.0303
 2327SOL    HW218618   3.880   0.468   7.742 -2.1666 -3.0451  0.6164
 2328SOL     OW18619   0.671   2.991   4.114 -0.6061 -0.6215  0.0679
 2328SOL    HW118620   0.591   3.015   4.067 -0.9744  0.7320  1.4085
 2328SOL    HW218621   0.717   2.933   4.053 -1.2431 -1.0690  0.0088
 2329SOL     OW18622   3.140   0.749  17.637  0.4956 -0.3109  0.7479
 2329SOL    HW118623   3.140   0.658  17.667 -0.3960 -0.5676 -0.0317
 2329SOL    HW218624   3.167   0.803  17.712 -0.7545  1.9198 -0.4261
 2330SOL     OW18625   3.823   3.970   6.976  0.1040 -0.3567  0.2768
 2330SOL    HW118626   3.817   4.048   6.920  0.6128  0.5352  1.4443
 2330SOL    HW218627   3.742   3.967   7.026  0.8556  0.3853  1.5611
 2331SOL     OW18628   3.365   3.310   6.123  0.6139  0.1193 -0.3589
 2331SOL    HW118629   3.317   3.298   6.041  0.7877  1.8177 -0.7116
 2331SOL    HW218630   3.394   3.401   6.114  1.2454 -0.0011  0.4906
 2332SOL     OW18631   2.442   0.801   8.085 -0.6005 -0.0583  0.3458
 2332SOL    HW118632   2.507   0.772   8.020 -0.7375 -0.1129  0.2326
 2332SOL    HW218633   2.435   0.896   8.075  1.5971  0.0664 -0.1851
 2333SOL     OW18634   3.875   3.566   9.126  0.1467  0.5096 -0.1384
 2333SOL    HW118635   3.823   3.541   9.049  0.8889  0.6326 -0.6769
 2333SOL    HW218636   3.824   3.534   9.200  1.7659 -1.7928 -0.0185
 2334SOL     OW18637   0.736   0.483  15.980 -0.6850  0.1097  0.2519
 2334SOL    HW118638   0.703   0.480  15.890 -0.5857  1.4327  0.1834
 2334SOL    HW218639   0.659   0.461  16.033  0.5821  0.1552  2.1400
 2335SOL     OW18640   4.318   1.330   7.730  0.1742 -0.1478  0.1915
 2335SOL    HW118641   4.409   1.326   7.702 -0.9240 -2.0252 -3.1357
 2335SOL    HW218642   4.289   1.244   7.700 -0.8911  0.2345  0.1170
 2336SOL     OW18643   2.504   1.829   5.898 -0.1467  0.1580 -0.1282
 2336SOL    HW118644   2.586   1.858   5.940  1.8047 -3.3761 -1.5649
 2336SOL    HW218645   2.453   1.907   5.919  0.2061  0.8678 -1.9139
 2337SOL     OW18646   1.693   4.629   6.840 -1.0422  0.5923  0.2655
 2337SOL    HW118647   1.753   4.564   6.802 -0.3487  0.4389  1.6382
 2337SOL    HW218648   1.620   4.568   6.852 -1.0120  0.3656 -0.7006
 2338SOL     OW18649   2.397   2.233   1.260  0.6446 -0.8377 -1.0097
 2338SOL    HW118650   2.463   2.236   1.192  0.6665  1.5179 -0.8658
 2338SOL    HW218651   2.358   2.316   1.236 -0.3688 -1.1681 -0.5231
 2339SOL     OW18652   1.013   4.686  15.906 -0.1735 -0.1167  0.1398
 2339SOL    HW118653   1.009   4.638  15.823 -2.5411 -1.2624  0.9242
 2339SOL    HW218654   1.091   0.004  15.897  1.0419 -1.7720  0.6439
 2340SOL     OW18655   2.178   2.035   3.040  0.2036  0.3927 -0.0011
 2340SOL    HW118656   2.255   2.021   3.095  0.0975  1.7811  0.5050
 2340SOL    HW218657   2.160   1.955   2.990 -0.0615  0.8196 -0.5805
 2341SOL     OW18658   4.327   4.458   6.833  0.5734 -0.2820 -0.1379
 2341SOL    HW118659   4.368   4.543   6.822 -0.8211  0.3845 -0.1802
 2341SOL    HW218660   4.392   4.388   6.835  0.1361 -0.6783  0.5642
 2342SOL     OW18661   3.849   2.987   5.703  0.6800 -0.5501  0.1406
 2342SOL    HW118662   3.848   2.950   5.615  3.8274 -3.8073  1.4289
 2342SOL    HW218663   3.769   2.946   5.735 -0.3978  2.1227  0.8041
 2343SOL     OW18664   2.925   1.707   0.333  0.0069  0.2976 -0.2180
 2343SOL    HW118665   2.999   1.702   0.393  0.2644  1.7904 -0.4251
 2343SOL    HW218666   2.944   1.661   0.251 -1.3356  1.4076 -1.1540
 2344SOL     OW18667   3.025   1.071   5.949  0.0076  0.5730  0.0845
 2344SOL    HW118668   3.079   1.036   5.878 -1.3240 -1.4440  0.0757
 2344SOL    HW218669   3.030   0.999   6.011 -0.1192  1.7089  1.4262
 2345SOL     OW18670   1.033   1.187   8.359  0.0039  0.2900 -0.6106
 2345SOL    HW118671   1.029   1.092   8.345  1.0979  0.0798  0.5282
 2345SOL    HW218672   1.004   1.216   8.272 -1.1197  2.1268  0.3942
 2346SOL     OW18673   2.765   3.544   8.627 -0.1302 -0.1492  0.5728
 2346SOL    HW118674   2.812   3.614   8.673  0.1462 -0.4155  0.6937
 2346SOL    HW218675   2.703   3.526   8.699  1.4628  0.1384  2.0168
 2347SOL     OW18676   4.621   3.778   6.566  0.9179  0.5376  0.7010
 2347SOL    HW118677   4.707   3.820   6.568  0.9099  0.6537 -0.9346
 2347SOL    HW218678   4.560   3.851   6.570  1.0780  0.5826  2.1943
 2348SOL     OW18679   2.755   2.008   6.321  0.2780 -0.3196 -0.3208
 2348SOL    HW118680   2.836   2.008   6.372 -0.3408 -0.1110  0.6644
 2348SOL    HW218681   2.749   1.921   6.283 -1.3958  0.6309 -2.2355
 2349SOL     OW18682   0.966   1.644   5.752  0.5595  0.5927 -0.6181
 2349SOL    HW118683   0.881   1.630   5.793  1.1328 -0.7542  0.1072
 2349SOL    HW218684   0.960   1.740   5.753 -0.8684  0.5234 -2.7217
 2350SOL     OW18685   3.287   1.935   4.848  0.0331 -0.2871  0.2673
 2350SOL    HW118686   3.281   1.943   4.753 -1.1620  0.0488  0.3731
 2350SOL    HW218687   3.245   1.850   4.865 -1.2539  0.0228 -1.4639
 2351SOL     OW18688   1.187   2.526   4.434  0.0493  0.6601  0.8826
 2351SOL    HW118689   1.130   2.603   4.445 -1.6396 -0.5149  0.3331
 2351SOL    HW218690   1.201   2.519   4.340 -1.4704 -0.5331  0.7492
 2352SOL     OW18691   4.420   3.207   5.939  0.3466  0.0085  0.2028
 2352SOL    HW118692   4.413   3.256   6.021 -2.0196 -2.8715  1.7128
 2352SOL    HW218693   4.513   3.216   5.921 -0.2125  0.9619 -2.2391
 2353SOL     OW18694   2.216   0.152  10.453  0.4679 -0.1996  0.1092
 2353SOL    HW118695   2.125   0.152  10.484  1.3493 -0.7727  2.7009
 2353SOL    HW218696   2.251   0.093  10.520 -1.4269  0.8038  1.9748
 2354SOL     OW18697   3.662   3.194  10.367  0.5700 -0.1801 -0.4110
 2354SOL    HW118698   3.734   3.209  10.428  0.6068  0.3722 -0.5817
 2354SOL    HW218699   3.706   3.229  10.289  0.9231 -0.7812 -0.4803
 2355SOL     OW18700   1.572   0.336   2.811  0.1946  0.3657  0.0194
 2355SOL    HW118701   1.504   0.279   2.776  1.5562 -1.8480  0.9658
 2355SOL    HW218702   1.596   0.286   2.889 -0.2416  1.0703  0.6040
 2356SOL     OW18703   1.843   3.103   9.657 -0.0619  0.6291  0.1183
 2356SOL    HW118704   1.779   3.052   9.706 -0.7821  2.0010  0.6092
 2356SOL    HW218705   1.831   3.058   9.573 -1.6378 -0.3628  0.8825
 2357SOL     OW18706   1.330   0.531  16.012 -0.2042 -0.2908  0.2791
 2357SOL    HW118707   1.318   0.449  16.059  0.7351 -0.1431  0.7663
 2357SOL    HW218708   1.273   0.591  16.060 -2.1435 -0.2242 -2.0620
 2358SOL     OW18709   2.076   3.322   6.680 -0.1409  0.2544  0.1777
 2358SOL    HW118710   2.160   3.359   6.709 -1.7791  3.3579  0.9839
 2358SOL    HW218711   2.098   3.336   6.588 -1.9620 -0.5984 -0.3709
 2359SOL     OW18712   3.217   1.514   1.812 -0.4029  0.2254  0.6265
 2359SOL    HW118713   3.260   1.600   1.818 -0.4934  0.3922 -0.9988
 2359SOL    HW218714   3.204   1.510   1.717 -2.1244  1.4915  0.8103
 2360SOL     OW18715   1.611   3.501   1.400  0.1543 -0.2416 -0.2400
 2360SOL    HW118716   1.615   3.418   1.448 -1.5466  0.6054  1.3866
 2360SOL    HW218717   1.611   3.470   1.310 -2.5457  1.0636 -0.6897
 2361SOL     OW18718   2.588   2.282   4.805  0.3779  0.7047  0.6997
 2361SOL    HW118719   2.666   2.238   4.838 -0.6080 -0.3979  1.5772
 2361SOL    HW218720   2.611   2.292   4.713 -0.8676  2.1168  0.5429
 2362SOL     OW18721   1.829   0.039   9.175  0.2460 -0.1063  0.3054
 2362SOL    HW118722   1.904   0.094   9.151  0.8335 -1.0234  0.0472
 2362SOL    HW218723   1.783   0.098   9.235 -0.4046  1.0572 -1.3466
 2363SOL     OW18724   2.539   0.396  14.039  0.0777  0.1300 -0.1856
 2363SOL    HW118725   2.550   0.456  13.966  1.3091  0.6085  0.3862
 2363SOL    HW218726   2.460   0.434  14.077  0.3885 -0.2256  0.8174
 2364SOL     OW18727   0.928   1.168  14.851  0.0194 -0.2293 -0.1550
 2364SOL    HW118728   0.986   1.188  14.777  0.2081 -2.1117 -0.5177
 2364SOL    HW218729   0.845   1.197  14.812 -0.8631 -0.7151  1.3939
 2365SOL     OW18730   1.928   4.163   1.828 -0.3432 -0.4348  0.7185
 2365SOL    HW118731   1.985   4.106   1.777  0.0844  1.0807 -0.4818
 2365SOL    HW218732   2.004   4.210   1.864  0.1327 -1.2259  0.7418
 2366SOL     OW18733   0.559   0.104   3.391  0.3939  0.0510  0.0208
 2366SOL    HW118734   0.625   0.088   3.323  0.0589  0.6770 -0.4432
 2366SOL    HW218735   0.502   0.029   3.379 -0.5718  0.9037 -0.6535
 2367SOL     OW18736   4.274   4.442  12.578  0.0982  0.2444 -0.2549
 2367SOL    HW118737   4.367   4.465  12.575  0.6485 -1.6611  2.3691
 2367SOL    HW218738   4.245   4.530  12.604  0.9129  0.0942  1.1658
 2368SOL     OW18739   2.540   2.333   1.058  0.3925 -0.0737 -0.9241
 2368SOL    HW118740   2.551   2.374   0.972  1.3128  1.5863 -0.0018
 2368SOL    HW218741   2.575   2.397   1.120 -0.6949 -0.0590 -0.3362
 2369SOL     OW18742   4.376   3.070   7.347  0.2201  0.1260  0.1727
 2369SOL    HW118743   4.398   3.129   7.274 -2.1756  2.5933  1.4546
 2369SOL    HW218744   4.424   3.120   7.413  2.7919 -1.1462 -0.7145
 2370SOL     OW18745   4.245   4.417   9.099 -0.2366 -0.0892 -0.2150
 2370SOL    HW118746   4.206   4.343   9.053  1.9735 -1.6832  0.4998
 2370SOL    HW218747   4.337   4.412   9.072 -0.5145  0.5744 -1.3192
 2371SOL     OW18748   0.113   1.105   1.873 -0.2562 -0.1143  0.4169
 2371SOL    HW118749   0.031   1.154   1.880 -0.9201 -1.1715 -0.0008
 2371SOL    HW218750   0.088   1.032   1.929  0.5864 -1.3258 -0.7797
 2372SOL     OW18751   0.714   2.885  12.677  0.6354 -0.1908  0.3720
 2372SOL    HW118752   0.698   2.806  12.626 -0.2549 -0.7531  1.5113
 2372SOL    HW218753   0.648   2.873  12.746  0.6630  3.7680  1.1055
 2373SOL     OW18754   3.133   2.667   7.015  0.2798  0.7212  0.6672
 2373SOL    HW118755   3.099   2.744   6.968 -0.6246 -0.1785 -0.1784
 2373SOL    HW218756   3.054   2.619   7.041  0.6709 -1.0287 -1.3151
 2374SOL     OW18757   3.594   0.951  12.511  0.3059  0.2399  0.3841
 2374SOL    HW118758   3.687   0.938  12.525  1.1088  2.4059 -2.7701
 2374SOL    HW218759   3.558   1.005  12.581 -0.2968  2.3404 -1.5191
 2375SOL     OW18760   4.326   0.249   8.581 -0.0253 -0.0575 -0.0646
 2375SOL    HW118761   4.408   0.207   8.606  0.4345 -0.8769 -2.9081
 2375SOL    HW218762   4.255   0.212   8.633 -1.2700  1.5181 -0.6250
 2376SOL     OW18763   4.550   3.188   2.462  0.3154 -0.4525  0.1489
 2376SOL    HW118764   4.582   3.174   2.552  1.8208  1.7995 -0.0330
 2376SOL    HW218765   4.461   3.156   2.477 -0.1562  1.0222  0.4419
 2377SOL     OW18766   3.663   3.106  11.083 -0.0510 -0.0316  0.0037
 2377SOL    HW118767   3.574   3.099  11.049  0.1061  1.7045 -0.7529
 2377SOL    HW218768   3.708   3.064  11.010  0.6782  1.4695 -0.4048
 2378SOL     OW18769   2.724   0.767   4.505 -0.4689  0.2881 -0.4332
 2378SOL    HW118770   2.686   0.681   4.518  0.3907 -0.2741 -1.5530
 2378SOL    HW218771   2.736   0.793   4.596 -2.0007  0.3398 -0.2590
 2379SOL     OW18772   4.125   1.547  14.898  0.0185 -0.0797  0.4868
 2379SOL    HW118773   4.078   1.630  14.888  0.5687  0.0884 -0.6034
 2379SOL    HW218774   4.083   1.497  14.828  0.0760  1.0733 -0.3656
 2380SOL     OW18775   0.192   4.650   7.834  0.0342 -0.0269 -0.1475
 2380SOL    HW118776   0.165   4.732   7.792  0.4124 -0.5829 -1.4770
 2380SOL    HW218777   0.287   4.648   7.822  0.3589  1.1207  2.2528
 2381SOL     OW18778   0.472   0.561   8.635  0.3114  0.6430 -0.5665
 2381SOL    HW118779   0.509   0.497   8.574  0.5901 -0.9584  1.2940
 2381SOL    HW218780   0.546   0.551   8.696  0.3772 -2.7461 -1.2411
 2382SOL     OW18781   4.668   1.387  15.960  0.9080 -0.2097 -0.5982
 2382SOL    HW118782   4.666   1.477  15.989  0.2642 -0.2259 -0.5970
 2382SOL    HW218783   4.609   1.400  15.886  0.1397 -1.8595 -0.2809
 2383SOL     OW18784   4.722   2.826   2.220  0.4142  0.2166 -0.6272
 2383SOL    HW118785   4.714   2.920   2.234 -0.2645 -0.1365  1.2740
 2383SOL    HW218786   0.065   2.819   2.169  0.3932 -2.1945 -0.3460
 2384SOL     OW18787   1.559   1.494   7.030  0.1227  0.1976 -0.1296
 2384SOL    HW118788   1.591   1.481   7.120 -0.9875 -0.3290  0.1983
 2384SOL    HW218789   1.469   1.464   7.044  0.5725 -1.6046 -1.1759
 2385SOL     OW18790   1.940   0.214   2.163  0.1720  0.0656  0.1031
 2385SOL    HW118791   1.952   0.304   2.133 -3.0185  0.5034  0.2188
 2385SOL    HW218792   1.857   0.216   2.210 -0.7691 -0.1056 -1.5912
 2386SOL     OW18793   1.845   0.194   5.845  0.0743 -0.1307 -0.1355
 2386SOL    HW118794   1.892   0.198   5.762 -0.4208 -2.3014 -0.5138
 2386SOL    HW218795   1.770   0.249   5.823 -0.3227 -0.7585 -0.3607
 2387SOL     OW18796   1.134   2.090  12.642 -0.8806 -0.1315  0.7541
 2387SOL    HW118797   1.041   2.089  12.666 -0.6873  0.4118  1.5074
 2387SOL    HW218798   1.128   2.021  12.576 -1.7288 -0.3409  1.0478
 2388SOL     OW18799   2.189   4.155   3.021  0.1118 -0.2585 -0.3257
 2388SOL    HW118800   2.179   4.122   3.110 -2.2806  0.1244 -0.4588
 2388SOL    HW218801   2.126   4.227   3.012  0.4200 -0.2077 -2.0328
 2389SOL     OW18802   4.180   1.989   9.772  0.1981  0.0814 -0.2473
 2389SOL    HW118803   4.205   2.067   9.822 -0.6746  0.4480 -0.3845
 2389SOL    HW218804   4.108   2.031   9.726  0.8589  2.1617  0.6239
 2390SOL     OW18805   1.759   1.771   7.011 -0.5367 -0.2775 -0.0779
 2390SOL    HW118806   1.680   1.760   6.957 -1.0837  2.8719  0.0852
 2390SOL    HW218807   1.728   1.828   7.082 -1.6648 -1.2590  0.2245
 2391SOL     OW18808   3.199   0.472   5.734  0.2145  0.0384 -0.3920
 2391SOL    HW118809   3.251   0.543   5.771  1.7370 -1.0173 -0.4831
 2391SOL    HW218810   3.121   0.480   5.788 -0.7155  0.7190 -1.8325
 2392SOL     OW18811   3.202   3.670   5.345  0.1367 -0.2480 -0.1554
 2392SOL    HW118812   3.213   3.763   5.322  0.4485 -0.0094  0.9476
 2392SOL    HW218813   3.291   3.636   5.348  0.1242 -0.2132  0.5712
 2393SOL     OW18814   1.725   0.474   4.671  0.5670  0.3231  0.3726
 2393SOL    HW118815   1.753   0.391   4.632  0.6136  0.2174  0.6276
 2393SOL    HW218816   1.798   0.509   4.723 -0.1558  0.8045  1.0592
 2394SOL     OW18817   2.510   3.934   0.831 -0.4268 -0.3400 -0.5726
 2394SOL    HW118818   2.597   3.967   0.808 -0.4461  1.6673  2.2299
 2394SOL    HW218819   2.504   3.929   0.927  1.5294 -0.1437 -0.4346
 2395SOL     OW18820   0.207   1.091   5.864 -0.0375  0.0084  0.5727
 2395SOL    HW118821   0.291   1.083   5.909  0.3509  1.7908  0.1531
 2395SOL    HW218822   0.166   1.007   5.885 -1.0702  0.3272 -0.1502
 2396SOL     OW18823   0.173   0.139   6.298 -0.3247  0.2050  0.0438
 2396SOL    HW118824   0.234   0.210   6.279 -1.6658  0.9979 -1.3389
 2396SOL    HW218825   0.092   0.177   6.263 -2.1313 -0.0613  3.8956
 2397SOL     OW18826   3.843   4.098  15.438  0.5540  0.8503 -0.5931
 2397SOL    HW118827   3.893   4.018  15.419  1.6811  1.9621 -2.2937
 2397SOL    HW218828   3.814   4.073  15.526 -3.9882 -0.0574 -2.3597
 2398SOL     OW18829   2.813   0.879   7.655  0.5478 -0.4569 -0.2270
 2398SOL    HW118830   2.793   0.806   7.596 -0.4410  1.2263 -1.9782
 2398SOL    HW218831   2.908   0.888   7.646  0.4863  1.7247  1.3183
 2399SOL     OW18832   3.701   2.753  11.119 -0.4827 -0.5056 -0.3495
 2399SOL    HW118833   3.621   2.781  11.074 -1.2652 -0.0755  1.3413
 2399SOL    HW218834   3.770   2.802  11.074 -0.4485  0.5314  0.8677
 2400SOL     OW18835   4.264   4.344   0.042 -0.4813 -0.6601  0.3611
 2400SOL    HW118836   4.255   4.254   0.075  2.2508 -1.5213 -1.2500
 2400SOL    HW218837   4.172   4.366   0.053 -0.4827 -0.4272 -0.1283
 2401SOL     OW18838   3.399   3.061   2.910 -0.4284 -0.2838 -0.4219
 2401SOL    HW118839   3.378   3.056   2.817  0.3520 -0.6926 -0.5729
 2401SOL    HW218840   3.311   3.076   2.947 -1.0626 -2.9783 -0.8388
 2402SOL     OW18841   4.692   1.875   3.113  0.4241  0.0671 -0.2194
 2402SOL    HW118842   4.675   1.879   3.019  1.5993 -0.6513 -0.4701
 2402SOL    HW218843   0.050   1.863   3.104  0.1828 -1.0532 -1.2065
 2403SOL     OW18844   0.583   1.186   7.589  0.0447 -0.2623  0.4195
 2403SOL    HW118845   0.638   1.125   7.540  1.7072  0.6411  1.1532
 2403SOL    HW218846   0.605   1.262   7.535 -1.5729 -1.6395 -2.1699
 2404SOL     OW18847   1.151   3.896   3.906 -0.0217  0.2315 -0.5856
 2404SOL    HW118848   1.167   3.960   3.837  2.0775 -0.7044 -0.9681
 2404SOL    HW218849   1.129   3.957   3.977  0.2024  1.0940 -1.2629
 2405SOL     OW18850   2.724   3.720   9.453 -0.1682 -0.2254  0.6681
 2405SOL    HW118851   2.641   3.724   9.406 -0.4468 -2.9371  0.9306
 2405SOL    HW218852   2.744   3.627   9.451  2.3268  0.4094 -3.5653
 2406SOL     OW18853   0.366   2.104   3.578  0.8258  0.2735 -0.8569
 2406SOL    HW118854   0.373   2.182   3.633 -2.8291 -1.0836  1.5013
 2406SOL    HW218855   0.407   2.139   3.498  1.8969  0.8367 -0.0633
 2407SOL     OW18856   3.495   1.994  17.575 -0.3309 -0.8042  0.2823
 2407SOL    HW118857   3.465   2.083  17.594 -0.2292 -0.6762 -0.1435
 2407SOL    HW218858   3.440   1.973  17.499  2.1227 -2.0717 -1.1496
 2408SOL     OW18859   3.866   1.262   1.254 -0.4618  0.0200  0.3714
 2408SOL    HW118860   3.794   1.208   1.286 -1.2498  1.0777  0.3896
 2408SOL    HW218861   3.843   1.344   1.298 -0.8946  0.5892 -0.9028
 2409SOL     OW18862   1.569   4.394   4.103  0.0859  0.5755 -0.3780
 2409SOL    HW118863   1.573   4.375   4.009 -1.4151 -2.5946  0.2161
 2409SOL    HW218864   1.662   4.403   4.125  0.2359  1.7943 -1.5178
 2410SOL     OW18865   0.386   3.328   1.739  0.3332 -0.1389  0.1182
 2410SOL    HW118866   0.473   3.341   1.775  0.2074  0.8264  0.0595
 2410SOL    HW218867   0.336   3.313   1.819  0.1809 -1.8468 -0.2902
 2411SOL     OW18868   2.837   2.103   7.730  0.4988  0.2436  0.2113
 2411SOL    HW118869   2.775   2.176   7.730 -0.0471 -0.2123  1.3949
 2411SOL    HW218870   2.837   2.076   7.822 -2.3543 -1.7160 -0.3421
 2412SOL     OW18871   1.988   3.472  13.512 -0.5125 -0.0924 -0.1988
 2412SOL    HW118872   2.006   3.510  13.426  0.8111  1.4015  0.7537
 2412SOL    HW218873   2.051   3.522  13.563 -1.1666  0.1283  0.3911
 2413SOL     OW18874   2.824   1.327   6.641 -0.0379  0.5709  0.1658
 2413SOL    HW118875   2.733   1.328   6.611 -1.1189 -0.8351  3.4665
 2413SOL    HW218876   2.819   1.316   6.736 -1.0385  2.8167  0.3813
 2414SOL     OW18877   3.756   0.011  16.911 -0.1805 -0.0680  0.0829
 2414SOL    HW118878   3.785   0.088  16.961 -0.0833 -0.4608  0.6312
 2414SOL    HW218879   3.671   0.040  16.878 -0.5339 -0.9448  0.2369
 2415SOL     OW18880   2.387   3.560   9.280  0.0035  0.5890 -0.0505
 2415SOL    HW118881   2.414   3.652   9.274  0.7862  0.4155  0.7089
 2415SOL    HW218882   2.416   3.536   9.368  0.4269  1.4855  0.0570
 2416SOL     OW18883   0.642   1.150   6.699 -0.2404 -0.1138  0.4093
 2416SOL    HW118884   0.596   1.211   6.756 -1.2118 -0.2207 -0.2533
 2416SOL    HW218885   0.700   1.104   6.759  0.4575  2.3521  1.5799
 2417SOL     OW18886   2.055   3.569   7.128 -0.2339  0.0474  0.5610
 2417SOL    HW118887   1.992   3.621   7.179  1.2867  2.0363  0.4356
 2417SOL    HW218888   2.029   3.615   7.048 -0.1674 -1.2933 -0.2117
 2418SOL     OW18889   0.938   1.187   3.235 -0.4776 -0.0559 -0.2942
 2418SOL    HW118890   0.934   1.263   3.177  0.2467 -1.7066 -2.4973
 2418SOL    HW218891   1.007   1.140   3.189 -0.7823 -2.2112  1.4672
 2419SOL     OW18892   1.053   2.588  12.502  0.6015 -0.0994 -0.4308
 2419SOL    HW118893   1.032   2.543  12.584 -1.6988 -0.1550 -1.0331
 2419SOL    HW218894   0.967   2.592  12.459  0.2650 -2.0645  0.0788
 2420SOL     OW18895   2.656   2.176   2.518 -0.2445 -0.5461  0.3960
 2420SOL    HW118896   2.741   2.155   2.477 -0.7454 -0.8842 -0.4876
 2420SOL    HW218897   2.584   2.153   2.459 -1.0235  1.9608  0.3724
 2421SOL     OW18898   0.053   0.284   9.277 -0.0665 -0.0646 -0.5497
 2421SOL    HW118899   0.058   0.237   9.361 -1.7976  0.2955 -0.2375
 2421SOL    HW218900   4.700   0.316   9.281 -0.7309 -2.3457  3.1356
 2422SOL     OW18901   0.736   4.314   2.427  0.2678  0.0572 -0.1578
 2422SOL    HW118902   0.778   4.229   2.414 -0.5358 -0.2585 -0.6832
 2422SOL    HW218903   0.804   4.377   2.450 -0.2495  0.0402  1.4514
 2423SOL     OW18904   4.623   1.159   1.346  0.3537 -0.5357 -0.2558
 2423SOL    HW118905   4.635   1.070   1.380  1.4539 -1.2100 -2.4125
 2423SOL    HW218906   4.647   1.202   1.428 -1.7294 -2.4533  1.3816
 2424SOL     OW18907   1.943   4.207  12.962 -0.4662  0.2335 -0.0184
 2424SOL    HW118908   1.955   4.183  12.870  2.4673  3.7564 -0.5322
 2424SOL    HW218909   1.851   4.224  12.978 -1.0314 -1.9608 -0.8786
 2425SOL     OW18910   2.858   4.229   1.733  0.2829 -0.6082  0.3304
 2425SOL    HW118911   2.884   4.234   1.641  1.0054  1.5049  0.6331
 2425SOL    HW218912   2.920   4.292   1.770 -2.0673  2.2054 -0.5224
 2426SOL     OW18913   4.390   1.770   7.037 -0.3723  0.2156 -0.6206
 2426SOL    HW118914   4.448   1.774   7.113  1.1744  0.3291 -1.8112
 2426SOL    HW218915   4.435   1.830   6.978  0.0895 -0.4627 -0.9501
 2427SOL     OW18916   2.730   3.746   7.557  0.3041 -0.3438  0.1461
 2427SOL    HW118917   2.685   3.670   7.594 -0.6590 -1.4483 -3.2676
 2427SOL    HW218918   2.662   3.773   7.495  1.0016 -0.2900 -0.5914
 2428SOL     OW18919   3.894   4.729   2.389 -0.1983  0.0753  0.2249
 2428SOL    HW118920   3.917   4.730   2.296 -2.6158 -0.5068 -0.3733
 2428SOL    HW218921   3.863   0.082   2.401 -2.6146 -0.8695  0.9528
 2429SOL     OW18922   1.665   2.490   7.094  0.5405  0.0900  0.5574
 2429SOL    HW118923   1.699   2.580   7.093 -1.3391  0.8059  0.9321
 2429SOL    HW218924   1.612   2.479   7.015  1.2097  2.6757 -0.2494
 2430SOL     OW18925   1.067   4.678   0.062  0.3243 -0.5456  0.1755
 2430SOL    HW118926   1.037   0.020   0.017  1.2696 -0.0998  0.3183
 2430SOL    HW218927   1.116   4.703   0.140 -1.1437  1.5814  0.3930
 2431SOL     OW18928   2.952   0.163  11.300  0.1117  0.1922  0.2724
 2431SOL    HW118929   2.870   0.194  11.338  0.6287  0.8946  0.8215
 2431SOL    HW218930   2.979   0.104  11.370  4.8767  0.5992 -1.1752
 2432SOL     OW18931   2.298   3.265  10.583  0.5232 -0.0441 -0.0252
 2432SOL    HW118932   2.334   3.332  10.641  0.6858 -0.4456  0.3387
 2432SOL    HW218933   2.203   3.264  10.596  0.7578  0.7813  1.6849
 2433SOL     OW18934   1.793   0.538  14.294  0.4531 -0.4537  0.4123
 2433SOL    HW118935   1.737   0.615  14.296  2.2524  0.9077 -2.7515
 2433SOL    HW218936   1.859   0.560  14.360  0.5459 -0.8662  0.4596
 2434SOL     OW18937   1.659   0.902   2.894 -0.8088  0.7932  0.4024
 2434SOL    HW118938   1.699   0.855   2.968 -1.4729  1.3544  1.1145
 2434SOL    HW218939   1.723   0.970   2.873 -0.1852 -0.3489 -1.4411
 2435SOL     OW18940   0.840   3.213   5.741 -0.2552 -0.5796  0.1791
 2435SOL    HW118941   0.803   3.216   5.830  0.4810  0.0956  0.4632
 2435SOL    HW218942   0.847   3.305   5.717  0.1500 -0.5270  0.4951
 2436SOL     OW18943   1.449   2.819   4.475  0.4651 -0.1785 -0.3184
 2436SOL    HW118944   1.510   2.889   4.454 -0.2238  0.0244 -1.6341
 2436SOL    HW218945   1.507   2.743   4.470 -0.1680 -0.5874 -1.4516
 2437SOL     OW18946   4.731   1.017   3.378 -0.4411 -0.2197  0.0343
 2437SOL    HW118947   4.678   1.080   3.426 -0.8398 -0.9694  0.5756
 2437SOL    HW218948   4.671   1.011   3.304 -0.0325  1.3958 -0.4156
 2438SOL     OW18949   3.358   4.654  17.289  0.3538 -0.1953 -0.0476
 2438SOL    HW118950   3.334   4.695  17.372  0.7608  1.6972 -0.8647
 2438SOL    HW218951   3.437   4.706  17.271  0.1279 -0.3149 -1.4179
 2439SOL     OW18952   1.577   1.295   1.196 -0.4387 -0.0738  0.2491
 2439SOL    HW118953   1.634   1.361   1.237 -0.3230 -0.2239  0.3282
 2439SOL    HW218954   1.564   1.238   1.272  0.1994  2.5137  2.3426
 2440SOL     OW18955   3.681   1.794   8.152 -0.7880  0.5051 -0.2924
 2440SOL    HW118956   3.727   1.789   8.068  4.3175 -1.3294  2.5723
 2440SOL    HW218957   3.755   1.812   8.210 -0.7270  1.0695 -0.5488
 2441SOL     OW18958   3.572   3.898   8.481 -0.0788 -0.2093  0.0973
 2441SOL    HW118959   3.650   3.895   8.537  1.7091 -1.3065 -2.4895
 2441SOL    HW218960   3.601   3.953   8.409 -1.7606  0.7406  0.1381
 2442SOL     OW18961   0.321   2.192   6.433  0.1032  0.1071 -0.4607
 2442SOL    HW118962   0.372   2.112   6.449  1.1599  0.9559  0.4315
 2442SOL    HW218963   0.302   2.184   6.340  1.3684 -0.4269 -0.6873
 2443SOL     OW18964   0.025   1.294   3.053  0.4028 -0.0767 -0.1934
 2443SOL    HW118965   0.017   1.203   3.079 -1.6277 -1.0931 -4.4272
 2443SOL    HW218966   4.718   1.334   3.128 -0.4810 -1.2672 -0.0882
 2444SOL     OW18967   1.743   0.195   3.097  0.3007 -0.2087  0.2643
 2444SOL    HW118968   1.779   0.151   3.174  0.6572 -1.6357 -0.7197
 2444SOL    HW218969   1.671   0.142   3.063 -0.4770  1.4840 -0.7613
 2445SOL     OW18970   0.842   3.970  16.443 -0.1031 -0.2719  0.4334
 2445SOL    HW118971   0.843   3.880  16.476  0.3612 -0.8770 -1.2532
 2445SOL    HW218972   0.822   4.026  16.518 -0.7496 -2.3236  1.7726
 2446SOL     OW18973   1.741   4.690   4.432 -0.2076  0.4838  0.4866
 2446SOL    HW118974   1.758   4.651   4.518  0.7434  1.6644  0.8333
 2446SOL    HW218975   1.646   4.705   4.435  0.0697  2.2177  0.8518
 2447SOL     OW18976   0.946   3.535   2.390 -0.0806  0.1913  0.2584
 2447SOL    HW118977   0.873   3.478   2.366  1.1047 -0.8451 -0.9066
 2447SOL    HW218978   0.983   3.473   2.452 -0.9985 -0.0104  0.6016
 2448SOL     OW18979   0.141   1.978   7.174 -0.0128 -0.1103 -0.3873
 2448SOL    HW118980   0.141   2.045   7.105 -0.7773  0.5824  0.2888
 2448SOL    HW218981   0.172   2.029   7.248  0.1034 -0.2109 -0.3679
 2449SOL     OW18982   3.183   1.529  14.463 -0.1127  0.1552 -0.1861
 2449SOL    HW118983   3.151   1.527  14.553 -2.1180  0.0128 -0.8950
 2449SOL    HW218984   3.132   1.460  14.420 -2.1188  1.6014 -0.1204
 2450SOL     OW18985   4.152   4.162   5.694 -0.2024  0.0947  0.1683
 2450SOL    HW118986   4.058   4.142   5.698 -0.0918 -0.2662  0.9228
 2450SOL    HW218987   4.158   4.215   5.774  0.6039 -0.4337  0.4498
 2451SOL     OW18988   2.601   1.205   6.811  0.0303  0.0085  0.3037
 2451SOL    HW118989   2.684   1.160   6.826 -0.5617 -1.1336  0.1622
 2451SOL    HW218990   2.601   1.274   6.877  0.9389 -0.9899  1.3444
 2452SOL     OW18991   1.286   1.407   5.039 -0.2777  0.6137  0.6154
 2452SOL    HW118992   1.264   1.468   4.968 -1.7990 -0.5201  0.1080
 2452SOL    HW218993   1.206   1.355   5.039 -0.5875  1.0950  0.8601
 2453SOL     OW18994   1.567   3.413   2.590  0.3165  0.7056  0.0704
 2453SOL    HW118995   1.492   3.363   2.622  0.3170  1.0161  0.5684
 2453SOL    HW218996   1.530   3.501   2.582 -1.1028  0.0023 -1.0840
 2454SOL     OW18997   1.081   2.219   1.631 -0.1000 -0.7958  0.7058
 2454SOL    HW118998   1.131   2.154   1.581 -0.1762 -1.3055  1.2912
 2454SOL    HW218999   1.110   2.300   1.589  0.2661 -0.5217  1.4966
 2455SOL     OW19000   2.586   0.920   2.380 -0.6035 -0.3757 -0.1231
 2455SOL    HW119001   2.552   0.992   2.327 -2.1163 -0.8409  0.2094
 2455SOL    HW219002   2.551   0.834   2.358  0.3625 -0.5916 -0.7889
 2456SOL     OW19003   2.632   3.946  10.984  0.1977 -0.3872  0.0368
 2456SOL    HW119004   2.707   3.893  10.957  1.8173  2.1803 -0.5037
 2456SOL    HW219005   2.668   3.989  11.062 -2.1762 -0.9300  1.4347
 2457SOL     OW19006   0.811   4.353   8.199  0.4357  0.1618  0.5480
 2457SOL    HW119007   0.907   4.351   8.196  0.4108 -0.1545  0.0443
 2457SOL    HW219008   0.787   4.432   8.248  0.3722  0.1759  0.4938
 2458SOL     OW19009   2.459   1.059  13.903 -0.1693  0.7498 -0.7284
 2458SOL    HW119010   2.498   1.076  13.989 -0.7790  0.0659 -0.3135
 2458SOL    HW219011   2.523   1.101  13.845 -0.7906 -0.2146 -2.1115
 2459SOL     OW19012   4.480   4.651  13.153 -0.2765  0.4210  0.2306
 2459SOL    HW119013   4.456   4.574  13.102  0.8461  0.8192 -0.8989
 2459SOL    HW219014   4.541   4.690  13.090  0.2124  1.3057  1.2449
 2460SOL     OW19015   4.578   3.381   9.973  0.2864 -0.3878 -0.0493
 2460SOL    HW119016   4.503   3.440   9.982 -0.4262 -1.4010  0.5667
 2460SOL    HW219017   4.646   3.415  10.030 -1.5761  0.9173  1.4048
 2461SOL     OW19018   4.455   0.969   4.443 -0.0086  0.0751  0.3835
 2461SOL    HW119019   4.464   0.987   4.536  1.2855 -1.3722  0.5404
 2461SOL    HW219020   4.544   0.992   4.416 -0.2444  2.3410  1.5775
 2462SOL     OW19021   2.748   0.037  16.812  0.0538  0.3889  0.4846
 2462SOL    HW119022   2.717   0.108  16.869  1.7930  1.4405  0.1289
 2462SOL    HW219023   2.705   0.059  16.730  0.0468 -0.4833  0.2612
 2463SOL     OW19024   3.910   4.194   7.254 -0.6828 -0.3989 -0.2221
 2463SOL    HW119025   3.920   4.160   7.343  0.4624  2.2027  0.6506
 2463SOL    HW219026   3.889   4.109   7.217 -2.7918  0.8617 -1.8624
 2464SOL     OW19027   3.834   0.990   4.768  0.3640 -0.5864  0.3938
 2464SOL    HW119028   3.903   0.988   4.701 -1.1502 -0.6888 -1.1692
 2464SOL    HW219029   3.847   0.907   4.813 -0.0553 -0.5381  0.6061
 2465SOL     OW19030   2.687   4.528   9.365  0.0329  0.3985  0.8700
 2465SOL    HW119031   2.771   4.517   9.410 -0.9645  0.2400  2.7139
 2465SOL    HW219032   2.675   4.448   9.315  0.8143  0.4094  0.6708
 2466SOL     OW19033   3.452   3.695   6.033 -0.3080 -0.1154  0.3527
 2466SOL    HW119034   3.495   3.646   6.103  0.4722 -1.3992 -1.0328
 2466SOL    HW219035   3.473   3.628   5.968  0.1814  0.7241 -0.3555
 2467SOL     OW19036   1.678   2.241   9.673 -0.4817  0.3209  0.0729
 2467SOL    HW119037   1.714   2.161   9.634 -1.4726 -0.2784  0.3785
 2467SOL    HW219038   1.597   2.243   9.621 -1.0831 -0.5528  0.9725
 2468SOL     OW19039   0.834   0.607   5.121  0.0585 -0.0780  0.4043
 2468SOL    HW119040   0.844   0.640   5.032 -2.0185  0.8807  0.5294
 2468SOL    HW219041   0.927   0.591   5.135  0.2790  2.1064  1.3850
 2469SOL     OW19042   1.685   3.489   7.433 -0.2485 -0.3463 -0.4208
 2469SOL    HW119043   1.762   3.432   7.435 -0.1108 -0.0756  1.7711
 2469SOL    HW219044   1.721   3.566   7.477  0.7921 -1.0018 -0.1216
 2470SOL     OW19045   4.197   0.750   0.864  0.5359  0.2444 -1.0404
 2470SOL    HW119046   4.279   0.784   0.825  0.8146  1.6499  0.7879
 2470SOL    HW219047   4.174   0.680   0.803 -0.7351 -2.0307  2.1284
 2471SOL     OW19048   0.723   1.969  10.547 -0.4990  0.5262  0.2447
 2471SOL    HW119049   0.745   1.895  10.490  0.3330 -0.1749  1.4803
 2471SOL    HW219050   0.805   1.985  10.593  0.7987 -1.2796 -1.3793
 2472SOL     OW19051   1.243   0.336   6.027 -0.1965 -0.1296  0.2588
 2472SOL    HW119052   1.259   0.379   5.943 -2.0111  2.5615  1.3265
 2472SOL    HW219053   1.210   0.409   6.079  0.1381 -0.5122  1.0156
 2473SOL     OW19054   2.893   4.635   2.746 -0.1777  0.2190 -0.3187
 2473SOL    HW119055   2.906   4.677   2.661 -1.5376 -0.4231 -0.8243
 2473SOL    HW219056   2.978   4.658   2.784  0.9575 -1.5787 -1.7996
 2474SOL     OW19057   2.637   3.457   1.666 -0.1265 -0.4321  0.2803
 2474SOL    HW119058   2.664   3.390   1.727 -1.4196 -2.6941 -1.6402
 2474SOL    HW219059   2.650   3.538   1.716 -1.6366 -0.6029  0.9415
 2475SOL     OW19060   3.391   2.823  14.674 -0.5742  0.5393  1.0058
 2475SOL    HW119061   3.384   2.731  14.650  0.3372  0.1295  2.2817
 2475SOL    HW219062   3.443   2.827  14.755  1.7797 -0.0468 -0.5033
 2476SOL     OW19063   2.392   2.462  12.576  0.3672 -0.3465  0.2347
 2476SOL    HW119064   2.335   2.537  12.560  1.8807  1.1201  1.7698
 2476SOL    HW219065   2.335   2.388  12.556  1.4220 -1.4458  1.2805
 2477SOL     OW19066   1.525   0.798   4.034  0.1243  0.5352 -0.0087
 2477SOL    HW119067   1.485   0.856   3.969 -0.5456  0.1469  0.0500
 2477SOL    HW219068   1.442   0.754   4.054  1.1394 -0.1624  2.7294
 2478SOL     OW19069   2.399   0.717   2.289  0.1181 -0.2817  0.3187
 2478SOL    HW119070   2.384   0.655   2.218 -2.3808  0.7774 -0.0635
 2478SOL    HW219071   2.336   0.786   2.268  0.2920 -0.4665 -0.8292
 2479SOL     OW19072   3.545   1.499  16.915 -0.3675 -0.1939 -0.1809
 2479SOL    HW119073   3.624   1.455  16.948 -1.0540 -1.7789 -0.6602
 2479SOL    HW219074   3.534   1.575  16.972 -0.4289  0.5494 -1.1862
 2480SOL     OW19075   3.787   4.380  15.884 -0.2158 -0.3021 -0.8193
 2480SOL    HW119076   3.870   4.332  15.881 -0.0651 -0.0913 -0.0472
 2480SOL    HW219077   3.809   4.437  15.810 -1.6553  2.3345  0.7686
 2481SOL     OW19078   1.500   2.928   5.752 -0.3994  0.1070 -0.0425
 2481SOL    HW119079   1.520   2.909   5.843  0.1698  1.3359  0.0785
 2481SOL    HW219080   1.464   3.016   5.759  0.0533  0.3437 -0.6997
 2482SOL     OW19081   4.520   0.871   7.441 -0.3434  0.5800  0.1367
 2482SOL    HW119082   4.543   0.786   7.477  0.2489  0.7560  0.1848
 2482SOL    HW219083   4.606   0.914   7.433  0.0442  0.2386  2.5108
 2483SOL     OW19084   1.657   3.966   2.516  0.3615 -0.0106 -0.1993
 2483SOL    HW119085   1.750   3.975   2.534 -0.0327  2.2540  0.6862
 2483SOL    HW219086   1.655   3.964   2.421  0.7599 -1.6783 -0.1722
 2484SOL     OW19087   0.972   2.518   3.898 -0.7607  0.2318 -0.3864
 2484SOL    HW119088   1.004   2.522   3.808  1.3932  0.2644  0.3739
 2484SOL    HW219089   1.057   2.516   3.944 -1.2208  0.8844  0.4931
 2485SOL     OW19090   4.579   0.723  11.574 -0.2616 -0.1530  0.3675
 2485SOL    HW119091   4.588   0.654  11.640 -0.3619 -0.0223  0.5167
 2485SOL    HW219092   4.657   0.775  11.595  1.1160 -1.4834 -1.4104
 2486SOL     OW19093   0.597   1.885   0.043  0.0606 -1.0725 -0.0753
 2486SOL    HW119094   0.637   1.815   0.095  0.3334 -0.9976 -0.1866
 2486SOL    HW219095   0.576   1.958   0.101 -1.1620 -2.2980  1.0210
 2487SOL     OW19096   1.191   4.431  15.476 -0.4059 -0.6481  0.3183
 2487SOL    HW119097   1.218   4.361  15.535  0.6919  1.2808  2.1093
 2487SOL    HW219098   1.272   4.449  15.429 -1.4295 -0.5034 -1.3782
 2488SOL     OW19099   2.198   0.804   4.968 -0.4081 -0.1539 -0.0326
 2488SOL    HW119100   2.173   0.736   4.905  0.5631 -0.2271 -0.3437
 2488SOL    HW219101   2.199   0.880   4.909  1.9583  0.7257  1.1470
 2489SOL     OW19102   4.156   2.738   2.838  0.0243  0.2843  0.2879
 2489SOL    HW119103   4.123   2.827   2.849 -2.2387 -0.2384 -2.3116
 2489SOL    HW219104   4.153   2.729   2.743 -2.9264  1.4908  0.2483
 2490SOL     OW19105   2.586   2.104   2.795  0.0168 -0.1800  0.1940
 2490SOL    HW119106   2.495   2.125   2.771  0.9108 -2.9453 -5.6347
 2490SOL    HW219107   2.627   2.108   2.709 -1.9961  2.8103 -0.5979
 2491SOL     OW19108   2.233   2.964   8.830 -0.4510 -0.0945  0.3531
 2491SOL    HW119109   2.167   2.905   8.793 -1.9126  1.4007  0.5691
 2491SOL    HW219110   2.197   2.970   8.919 -1.9380  0.5193 -0.2886
 2492SOL     OW19111   3.624   4.497   6.140 -0.1086  0.2977  0.1985
 2492SOL    HW119112   3.543   4.486   6.090  1.5330 -0.2750 -2.3200
 2492SOL    HW219113   3.613   4.426   6.204 -2.4908  0.3656 -0.1374
 2493SOL     OW19114   2.612   1.671   7.160 -0.0347  0.2116  0.1510
 2493SOL    HW119115   2.525   1.696   7.129  0.3310  0.8108 -0.3955
 2493SOL    HW219116   2.609   1.710   7.247  1.6814 -1.0572  0.7729
 2494SOL     OW19117   2.899   1.049   0.358  0.5526  0.3331  0.4002
 2494SOL    HW119118   2.908   1.098   0.277  2.6480  1.1122  1.1053
 2494SOL    HW219119   2.808   1.021   0.357  1.2929 -1.9728 -1.4302
 2495SOL     OW19120   2.288   4.006   3.473 -0.2588  0.2103  0.0605
 2495SOL    HW119121   2.367   3.974   3.429  0.6691  0.6914  1.3823
 2495SOL    HW219122   2.322   4.091   3.500  0.1898  1.0293 -3.0850
 2496SOL     OW19123   3.325   1.077   2.411  0.3817  0.1875  0.4398
 2496SOL    HW119124   3.375   1.070   2.329 -1.2745  0.4083 -0.5991
 2496SOL    HW219125   3.265   1.003   2.401  0.0119  0.3915  1.1962
 2497SOL     OW19126   2.153   3.804   6.182  0.1731  0.3318  0.0624
 2497SOL    HW119127   2.187   3.743   6.247  0.1489 -1.0995 -1.2647
 2497SOL    HW219128   2.203   3.769   6.108 -2.4007 -0.3798 -1.3482
 2498SOL     OW19129   2.136   4.413   1.956 -0.0891  0.4033  0.8487
 2498SOL    HW119130   2.070   4.462   1.908 -1.1771  1.6768  3.6165
 2498SOL    HW219131   2.164   4.474   2.025  0.1535  1.2228  0.0277
 2499SOL     OW19132   3.557   4.120   6.977 -0.1267  0.1900  0.3022
 2499SOL    HW119133   3.492   4.085   6.917  2.1402  0.3377 -2.2639
 2499SOL    HW219134   3.622   4.154   6.915 -3.3035  3.5433 -1.2176
 2500SOL     OW19135   2.564   2.613   1.476  0.2657 -0.6239  0.6568
 2500SOL    HW119136   2.544   2.568   1.558 -1.6045  0.4955  0.8229
 2500SOL    HW219137   2.636   2.673   1.496  0.7422 -0.1429 -2.4316
 2501SOL     OW19138   1.133   1.538   4.850  0.0948 -0.2164  0.1870
 2501SOL    HW119139   1.083   1.459   4.829 -0.9936  0.1775  1.3263
 2501SOL    HW219140   1.132   1.576   4.762  1.3633 -1.3284 -0.3088
 2502SOL     OW19141   3.169   2.446  11.409  0.3096  0.2890 -0.3016
 2502SOL    HW119142   3.247   2.500  11.394  1.5321 -1.0961  1.1361
 2502SOL    HW219143   3.195   2.354  11.399 -0.8343  0.0942 -1.6553
 2503SOL     OW19144   0.540   2.398   9.995 -0.3322  0.2384 -0.0276
 2503SOL    HW119145   0.608   2.424  10.057  0.2726 -1.3711  0.0007
 2503SOL    HW219146   0.513   2.482   9.958 -0.8766  0.5709  1.1397
 2504SOL     OW19147   0.129   3.743   5.704 -0.5242  0.0217  0.3720
 2504SOL    HW119148   0.047   3.787   5.728  0.8059  1.0595  3.0789
 2504SOL    HW219149   0.183   3.822   5.695  0.6093 -1.1277 -2.9022
 2505SOL     OW19150   2.744   2.446  16.778 -0.1940  0.1362  0.7465
 2505SOL    HW119151   2.826   2.441  16.828  0.0254  1.2277  0.5150
 2505SOL    HW219152   2.693   2.517  16.817  0.7497  0.5875  1.1719
 2506SOL     OW19153   1.227   2.287   8.798 -0.1093  0.1540  0.2798
 2506SOL    HW119154   1.213   2.314   8.707 -0.0673 -1.9265 -0.3604
 2506SOL    HW219155   1.149   2.232   8.809 -0.7461  0.6479 -1.6398
 2507SOL     OW19156   0.391   1.037   2.129  0.0379 -0.0944 -0.1076
 2507SOL    HW119157   0.398   1.094   2.052  0.6829  2.5524  1.9294
 2507SOL    HW219158   0.482   1.010   2.134 -0.0758 -1.1251 -3.1226
 2508SOL     OW19159   3.579   1.658   6.533 -0.0956 -0.2803  0.6098
 2508SOL    HW119160   3.536   1.713   6.598 -2.8627  0.0448 -1.5189
 2508SOL    HW219161   3.557   1.567   6.551 -0.0500 -0.4554 -0.2403
 2509SOL     OW19162   0.911   2.494   9.480 -0.6263 -0.1124 -0.2848
 2509SOL    HW119163   0.950   2.430   9.540 -0.3857  1.5862  1.3788
 2509SOL    HW219164   0.973   2.566   9.483 -1.1154  0.2733  0.3959
 2510SOL     OW19165   3.852   0.602   9.648  0.0514 -0.1874  0.5811
 2510SOL    HW119166   3.788   0.533   9.666 -2.5066  2.1169  0.3802
 2510SOL    HW219167   3.823   0.626   9.560  0.4570 -1.1054  0.1956
 2511SOL     OW19168   0.264   3.498   4.859  0.1411 -0.2276 -0.2890
 2511SOL    HW119169   0.319   3.442   4.805 -1.6833 -1.2901 -1.0340
 2511SOL    HW219170   0.236   3.575   4.809 -0.3339 -0.4903 -0.4251
 2512SOL     OW19171   3.563   3.811   7.862 -0.4431  0.1451  0.1400
 2512SOL    HW119172   3.567   3.741   7.796  0.5418 -1.8084  2.2597
 2512SOL    HW219173   3.655   3.824   7.888 -0.7528  0.5731  1.0107
 2513SOL     OW19174   1.727   2.333   1.199  0.1716  0.1365  0.2294
 2513SOL    HW119175   1.794   2.401   1.200  0.9790 -0.6934  2.1294
 2513SOL    HW219176   1.779   2.257   1.172  0.5589  1.0176 -1.5124
 2514SOL     OW19177   0.090   2.624   3.968 -0.0216 -0.2030  0.2243
 2514SOL    HW119178   4.735   2.618   3.942  0.7099 -0.0220 -2.3970
 2514SOL    HW219179   0.092   2.548   4.026  2.3336  1.8333  2.8304
 2515SOL     OW19180   2.002   3.233   8.525  0.1968 -0.2847 -0.1010
 2515SOL    HW119181   1.943   3.195   8.590  0.3214  2.4754  1.6112
 2515SOL    HW219182   1.978   3.174   8.453 -0.0401 -0.4752  0.1368
 2516SOL     OW19183   3.432   1.665   8.711 -0.1375  0.2853  0.4880
 2516SOL    HW119184   3.461   1.608   8.640 -1.5660  0.8199 -0.5371
 2516SOL    HW219185   3.518   1.704   8.727 -0.0788 -0.5660  2.2426
 2517SOL     OW19186   0.667   4.169   1.851  0.1081 -0.6246 -0.4689
 2517SOL    HW119187   0.705   4.099   1.798  2.2583  0.1587  0.0562
 2517SOL    HW219188   0.668   4.122   1.934  0.7471  0.7795  0.3115
 2518SOL     OW19189   4.234   1.900   1.184  0.5153  0.1085 -0.0572
 2518SOL    HW119190   4.212   1.851   1.263  1.3330 -0.1153  0.0376
 2518SOL    HW219191   4.208   1.991   1.194  0.5059 -0.0386  1.2425
 2519SOL     OW19192   1.053   1.573   2.386 -0.2082  0.3356  0.4184
 2519SOL    HW119193   1.109   1.612   2.320  1.1761 -1.0641  0.7686
 2519SOL    HW219194   1.062   1.627   2.464  0.9077  0.6594  0.0604
 2520SOL     OW19195   3.216   2.486   1.790  0.4827 -0.1314  0.4534
 2520SOL    HW119196   3.264   2.440   1.721 -1.2454  0.2383 -0.9880
 2520SOL    HW219197   3.174   2.418   1.842  2.3443 -2.7587 -1.5125
 2521SOL     OW19198   2.028   0.558   6.071  0.2551 -0.7270 -0.6365
 2521SOL    HW119199   1.938   0.588   6.085  0.4986  0.4034 -1.4849
 2521SOL    HW219200   2.033   0.474   6.116 -2.1357 -0.5190  0.0215
 2522SOL     OW19201   1.398   2.586  15.697 -0.2366 -0.4561 -0.2430
 2522SOL    HW119202   1.302   2.582  15.698 -0.2523 -0.2880 -1.0030
 2522SOL    HW219203   1.419   2.667  15.651  0.6178 -1.1905 -1.1524
 2523SOL     OW19204   2.781   1.289  13.939  0.1032 -0.3769 -0.2184
 2523SOL    HW119205   2.726   1.359  13.972  0.9579  0.6098 -0.8825
 2523SOL    HW219206   2.794   1.314  13.848  1.1122 -0.3486 -0.0701
 2524SOL     OW19207   4.114   2.443   2.395 -0.3300  0.1013 -0.9232
 2524SOL    HW119208   4.205   2.471   2.383  0.3931 -1.5549  0.5663
 2524SOL    HW219209   4.128   2.367   2.452  3.1904  0.2425 -1.6150
 2525SOL     OW19210   1.989   1.311   7.171  0.3625 -0.5664 -0.3748
 2525SOL    HW119211   2.059   1.311   7.237  0.2698 -1.2700 -0.2865
 2525SOL    HW219212   1.964   1.404   7.170  0.4008 -0.5598 -0.7406
 2526SOL     OW19213   3.703   2.452   2.850 -0.1653  0.2291 -0.2826
 2526SOL    HW119214   3.760   2.462   2.774  0.8892  3.3151  0.9408
 2526SOL    HW219215   3.710   2.538   2.891 -0.8653 -0.7209  1.8146
 2527SOL     OW19216   3.112   0.214   1.888  0.1593  0.5150  0.3210
 2527SOL    HW119217   3.017   0.207   1.883  0.1301  0.9359  0.2503
 2527SOL    HW219218   3.135   0.133   1.842  1.2301  2.8686 -3.3273
 2528SOL     OW19219   0.959   1.956   6.434 -0.0422  0.2540 -0.3580
 2528SOL    HW119220   1.019   2.002   6.376 -0.2032 -0.4251 -1.0719
 2528SOL    HW219221   0.967   1.868   6.397  0.5419 -0.1894  0.8348
 2529SOL     OW19222   3.957   2.137   2.360 -0.0948  0.0767  0.0340
 2529SOL    HW119223   3.994   2.062   2.405 -1.8761 -0.4592  0.6043
 2529SOL    HW219224   4.032   2.196   2.358  0.1250 -0.2561 -2.2130
 2530SOL     OW19225   1.607   0.222   7.557 -0.2366 -0.4529 -0.3322
 2530SOL    HW119226   1.588   0.183   7.643  4.1703  2.1213  1.8168
 2530SOL    HW219227   1.681   0.167   7.530 -0.4216 -0.1645 -1.4331
 2531SOL     OW19228   0.865   1.569   2.187 -0.2887 -0.4220  0.0810
 2531SOL    HW119229   0.870   1.659   2.153  1.6442 -1.0786 -1.3758
 2531SOL    HW219230   0.939   1.572   2.249 -2.2220 -1.6376  2.4435
 2532SOL     OW19231   2.683   3.156   9.062 -0.1815  0.0935  0.7366
 2532SOL    HW119232   2.699   3.104   9.141 -2.0509 -0.5600  0.6666
 2532SOL    HW219233   2.594   3.187   9.078 -0.3168 -0.9832  2.0618
 2533SOL     OW19234   2.860   1.629   0.008 -0.0136 -0.0635 -0.2051
 2533SOL    HW119235   2.890   1.717  17.735  0.8473  0.2000  2.2391
 2533SOL    HW219236   2.898   1.582  17.681  0.4760 -1.2061  0.7544
 2534SOL     OW19237   4.045   0.694  17.359  0.2538 -0.0929 -0.4508
 2534SOL    HW119238   4.018   0.655  17.442  0.0434 -0.4002 -0.6607
 2534SOL    HW219239   4.136   0.718  17.371  0.4448 -1.0182 -0.0694
 2535SOL     OW19240   0.313   2.491   5.644 -0.1270 -0.4063 -0.1951
 2535SOL    HW119241   0.291   2.583   5.638 -1.3708 -0.6983  0.0092
 2535SOL    HW219242   0.264   2.452   5.571 -0.4559 -0.5470  0.1061
 2536SOL     OW19243   3.811   3.085   6.885  0.2431  0.3070 -0.4246
 2536SOL    HW119244   3.872   3.155   6.905 -0.0000  0.2313  0.5995
 2536SOL    HW219245   3.754   3.088   6.962 -0.2584  1.3068 -0.8414
 2537SOL     OW19246   2.824   1.018  12.375  0.1169  0.1216 -0.1079
 2537SOL    HW119247   2.896   1.041  12.434  0.0916 -0.9455  0.3378
 2537SOL    HW219248   2.856   0.936  12.338  3.7851  0.5507  2.0733
 2538SOL     OW19249   4.052   0.129   3.559  0.0225  0.3397  0.3009
 2538SOL    HW119250   4.135   0.132   3.511 -0.4487  2.2025 -0.3877
 2538SOL    HW219251   4.001   0.073   3.501 -1.5422  0.9541  1.0805
 2539SOL     OW19252   3.621   1.063   2.757 -0.1725  0.5747 -0.0175
 2539SOL    HW119253   3.618   1.086   2.850 -0.3003  2.7896 -0.5672
 2539SOL    HW219254   3.594   1.148   2.721 -2.0025  0.7254  1.6620
 2540SOL     OW19255   1.306   4.062  12.789 -0.0724  0.0732  0.5579
 2540SOL    HW119256   1.224   4.108  12.773 -0.4543 -1.2726 -1.3698
 2540SOL    HW219257   1.373   4.124  12.760  0.7361 -0.0607  2.0970
 2541SOL     OW19258   4.237   0.065   4.583 -0.6037  0.0265 -0.5960
 2541SOL    HW119259   4.244   4.712   4.614 -1.0309  0.5239  0.9711
 2541SOL    HW219260   4.234   0.114   4.665 -0.6486  1.3124 -1.3734
 2542SOL     OW19261   1.196   4.002   3.392  1.0230  0.6577  0.2385
 2542SOL    HW119262   1.273   4.020   3.446  0.7827 -1.0822  1.1397
 2542SOL    HW219263   1.225   4.039   3.308 -0.8849  2.1707  0.2412
 2543SOL     OW19264   3.771   1.211   7.619  0.6320 -0.1165  0.3805
 2543SOL    HW119265   3.716   1.179   7.690 -0.8837 -0.2946 -0.8640
 2543SOL    HW219266   3.806   1.285   7.667  0.8480 -2.0380  3.2038
 2544SOL     OW19267   0.615   3.188   7.062  0.5502  0.8256  0.1871
 2544SOL    HW119268   0.683   3.211   6.999 -0.2673  0.2853 -0.8890
 2544SOL    HW219269   0.658   3.215   7.143  0.1392  3.5044 -0.4938
 2545SOL     OW19270   4.248   1.424  13.092  0.3254  0.0338 -0.1984
 2545SOL    HW119271   4.265   1.346  13.039 -1.4590  0.3702 -1.2370
 2545SOL    HW219272   4.154   1.414  13.103  0.0111  1.6426 -1.4379
 2546SOL     OW19273   4.545   2.375   4.866  0.0911 -0.0133  0.1485
 2546SOL    HW119274   4.467   2.430   4.873 -0.8605 -1.4232  0.4995
 2546SOL    HW219275   4.588   2.385   4.950  1.4605  0.3352 -0.5856
 2547SOL     OW19276   2.137   1.273   2.429 -0.5560 -0.1123 -0.5405
 2547SOL    HW119277   2.101   1.356   2.397 -0.3854  0.1025 -0.1775
 2547SOL    HW219278   2.223   1.305   2.457 -0.3777 -0.1153 -1.0833
 2548SOL     OW19279   3.454   1.130  12.683  0.5836 -0.2100 -0.0982
 2548SOL    HW119280   3.500   1.185  12.745 -2.0188 -2.1194  3.4997
 2548SOL    HW219281   3.435   1.203  12.624  0.9430  0.3319  0.4712
 2549SOL     OW19282   0.412   3.817   9.021 -0.2230 -0.1659  0.1677
 2549SOL    HW119283   0.392   3.775   9.105  2.3341 -0.0712  0.8313
 2549SOL    HW219284   0.445   3.899   9.058  0.0915 -0.2950  0.1745
 2550SOL     OW19285   2.405   4.474   8.523  0.7314  0.0343 -0.3228
 2550SOL    HW119286   2.498   4.488   8.506  0.8661 -1.4517 -0.7944
 2550SOL    HW219287   2.361   4.550   8.487  0.9474  0.7980  0.9947
 2551SOL     OW19288   0.844   3.807  10.606  0.8603  0.1035  1.0671
 2551SOL    HW119289   0.928   3.823  10.563 -0.1662 -0.8940 -1.3180
 2551SOL    HW219290   0.817   3.739  10.545  0.4410 -0.0318  1.4079
 2552SOL     OW19291   4.219   3.019   4.846  0.2741 -0.2146  0.1045
 2552SOL    HW119292   4.161   3.090   4.873  1.0647 -0.0408  1.3157
 2552SOL    HW219293   4.298   3.054   4.887 -0.0018  1.0823 -0.4800
 2553SOL     OW19294   1.063   1.843  10.883  0.3896  0.0965  0.1587
 2553SOL    HW119295   1.064   1.870  10.791  1.1358 -0.5369 -0.0230
 2553SOL    HW219296   1.091   1.752  10.870  1.0843  0.3604 -0.1766
 2554SOL     OW19297   3.516   2.595   7.192  0.1966  0.0964  0.1337
 2554SOL    HW119298   3.434   2.548   7.177  0.4905 -0.0562 -0.9874
 2554SOL    HW219299   3.481   2.681   7.169 -1.1213 -0.5745 -0.3808
 2555SOL     OW19300   1.834   0.282   0.354  0.2092  0.3344 -0.5114
 2555SOL    HW119301   1.819   0.197   0.395  2.2707 -0.2851 -1.0235
 2555SOL    HW219302   1.915   0.308   0.399 -1.5773  2.6562  1.3636
 2556SOL     OW19303   3.688   4.352  13.663  0.5429 -0.1220  0.2881
 2556SOL    HW119304   3.749   4.425  13.674 -0.7225  0.8566  0.8180
 2556SOL    HW219305   3.652   4.365  13.576 -2.0099 -3.1321  0.8924
 2557SOL     OW19306   1.715   2.653   6.872  0.1527  0.0367  0.7617
 2557SOL    HW119307   1.805   2.665   6.903 -0.4351  2.6237  1.4604
 2557SOL    HW219308   1.730   2.601   6.793  0.3047 -1.2673  1.6433
 2558SOL     OW19309   0.453   3.774   5.487  0.7516  0.3896 -0.3385
 2558SOL    HW119310   0.468   3.704   5.551  0.7041  0.3793 -0.3388
 2558SOL    HW219311   0.374   3.739   5.445  0.0421  0.8950  0.5720
 2559SOL     OW19312   4.242   2.594   9.721 -0.0278 -0.1056 -0.0028
 2559SOL    HW119313   4.317   2.567   9.668 -0.8564 -1.8093 -0.3168
 2559SOL    HW219314   4.178   2.526   9.698 -0.9479  0.4454  0.9345
 2560SOL     OW19315   1.675   3.987   3.175 -0.9734  0.1218  0.8187
 2560SOL    HW119316   1.700   4.007   3.265  0.6232 -1.7991  0.7903
 2560SOL    HW219317   1.666   3.892   3.174  0.3078  0.0521 -3.1397
 2561SOL     OW19318   2.049   0.198   5.632  0.2772  0.4843 -0.5037
 2561SOL    HW119319   2.050   0.146   5.552  0.8500  2.9055 -2.0793
 2561SOL    HW219320   2.051   0.284   5.589  0.3701  0.5651 -0.3368
 2562SOL     OW19321   2.284   3.045   5.663 -0.1174  0.4172 -0.5049
 2562SOL    HW119322   2.207   2.989   5.678 -0.1752  0.7320  0.3737
 2562SOL    HW219323   2.273   3.090   5.580  1.4025  0.7334 -0.5354
 2563SOL     OW19324   3.779   2.006   9.944  0.1933 -0.2120  0.3222
 2563SOL    HW119325   3.840   2.080   9.943  0.9684 -0.8391  0.9943
 2563SOL    HW219326   3.803   1.947   9.873 -0.1598  1.7678 -1.4299
 2564SOL     OW19327   0.254   3.903   8.065  0.3725  0.0231  0.7102
 2564SOL    HW119328   0.174   3.950   8.043  1.7555  1.6424 -0.8435
 2564SOL    HW219329   0.272   3.852   7.986 -0.5510 -0.2037  0.6457
 2565SOL     OW19330   2.781   1.847   7.596  0.1645  0.2078 -0.7575
 2565SOL    HW119331   2.865   1.801   7.596 -0.0718 -0.2244 -0.9811
 2565SOL    HW219332   2.805   1.934   7.629  1.6820 -0.6141  0.3105
 2566SOL     OW19333   0.872   3.014   3.136  0.0326 -0.1351 -0.0817
 2566SOL    HW119334   0.800   3.059   3.179 -1.9448 -1.2429 -2.2118
 2566SOL    HW219335   0.912   2.976   3.214  0.7542  0.3944 -0.1851
 2567SOL     OW19336   3.447   2.716   2.980 -0.3372  0.2307  0.5415
 2567SOL    HW119337   3.496   2.772   2.920 -0.3484 -1.2050 -0.8029
 2567SOL    HW219338   3.524   2.686   3.030 -0.5065 -0.9415  0.0923
 2568SOL     OW19339   1.553   0.633   5.158  0.7945 -0.1327  0.2940
 2568SOL    HW119340   1.619   0.626   5.226  2.0530  1.9464 -0.7091
 2568SOL    HW219341   1.484   0.682   5.202  0.4711  0.8324 -1.2932
 2569SOL     OW19342   1.877   4.336   6.993  0.0545 -0.3347  0.3480
 2569SOL    HW119343   1.813   4.402   7.018 -0.1186  0.3072 -1.7901
 2569SOL    HW219344   1.957   4.373   7.032 -0.3140 -0.3544  1.1268
 2570SOL     OW19345   3.252   3.226  10.286 -0.3645  0.6763  0.1016
 2570SOL    HW119346   3.241   3.138  10.323 -0.8679 -0.2249 -2.2047
 2570SOL    HW219347   3.336   3.213  10.242 -1.3815 -2.7656 -0.7835
 2571SOL     OW19348   0.155   3.000  16.997  0.3386 -0.3463  0.1631
 2571SOL    HW119349   0.237   2.952  17.008  0.7630 -0.2214 -2.4650
 2571SOL    HW219350   0.124   2.979  16.909  1.5488  1.2798 -0.6548
 2572SOL     OW19351   2.079   4.683  12.106 -0.6734  0.5048 -0.2772
 2572SOL    HW119352   2.127   4.730  12.037 -2.3438 -0.4231 -2.0636
 2572SOL    HW219353   2.025   4.627  12.050 -1.2318  1.2394 -0.4659
 2573SOL     OW19354   4.007   3.268   9.397 -0.0289 -0.1347  0.2146
 2573SOL    HW119355   4.029   3.360   9.405  1.2875 -0.5243  1.1278
 2573SOL    HW219356   4.048   3.253   9.312  1.0238  1.0566  0.5075
 2574SOL     OW19357   4.065   1.132   6.663 -0.2907 -0.4792 -0.5656
 2574SOL    HW119358   4.066   1.049   6.711  0.6997  0.2271  0.6567
 2574SOL    HW219359   4.147   1.169   6.697 -0.6854  1.0391 -1.2580
 2575SOL     OW19360   3.097   4.643  15.223 -0.3882  0.6721  0.2558
 2575SOL    HW119361   3.118   4.658  15.131 -0.3984  0.4935  0.2239
 2575SOL    HW219362   3.186   4.615  15.248 -1.0192 -1.5843 -0.0260
 2576SOL     OW19363   2.267   4.400  12.878  0.1578 -0.2426  0.3871
 2576SOL    HW119364   2.290   4.308  12.880  0.4573 -0.2203 -2.0141
 2576SOL    HW219365   2.328   4.420  12.807  1.6493 -2.1434  1.1406
 2577SOL     OW19366   1.738   1.781   2.620 -0.3438 -0.1131 -0.6470
 2577SOL    HW119367   1.812   1.734   2.659 -0.7346 -0.0463  0.1913
 2577SOL    HW219368   1.744   1.873   2.646  1.3061 -0.6114  0.7663
 2578SOL     OW19369   4.486   2.443  15.855  0.1809 -0.1944  0.2177
 2578SOL    HW119370   4.534   2.514  15.897  1.3146 -0.3067 -0.8870
 2578SOL    HW219371   4.401   2.486  15.849  0.7346  0.4136 -3.8223
 2579SOL     OW19372   0.402   2.718   5.181  0.2594 -0.4175 -0.2872
 2579SOL    HW119373   0.366   2.691   5.096  2.1340 -1.0349 -0.8929
 2579SOL    HW219374   0.479   2.765   5.147  1.9552 -3.5035 -0.7612
 2580SOL     OW19375   3.778   3.217  15.080  0.0395  0.1467 -0.3332
 2580SOL    HW119376   3.816   3.139  15.039 -0.1883 -0.9227  1.4855
 2580SOL    HW219377   3.685   3.193  15.073  0.8603 -3.2158  0.0475
 2581SOL     OW19378   2.741   1.026   1.522 -0.2897  0.0563 -0.2742
 2581SOL    HW119379   2.712   1.104   1.475 -0.7405 -0.0407 -0.1617
 2581SOL    HW219380   2.682   1.039   1.597 -1.7725 -0.1415 -1.4137
 2582SOL     OW19381   2.107   2.889   6.864  0.4549  0.0178 -0.5811
 2582SOL    HW119382   2.017   2.856   6.865 -0.7054  3.1509 -0.2867
 2582SOL    HW219383   2.133   2.841   6.943  0.1444  2.0525  0.7761
 2583SOL     OW19384   4.019   0.521   9.829  0.3027  0.0332 -0.4996
 2583SOL    HW119385   3.936   0.532   9.782 -0.9701 -0.2699  1.7093
 2583SOL    HW219386   4.071   0.596   9.799  1.2693  0.0989  1.3212
 2584SOL     OW19387   0.284   0.732   6.743  0.0076  0.1488  0.3298
 2584SOL    HW119388   0.231   0.710   6.820 -1.7395 -0.4544 -1.0406
 2584SOL    HW219389   0.211   0.755   6.685  1.0840  1.3386 -0.5603
 2585SOL     OW19390   2.993   1.017   4.667  0.1334 -0.3465  0.2400
 2585SOL    HW119391   2.945   1.004   4.585  0.9513  0.1887 -0.3179
 2585SOL    HW219392   3.044   0.936   4.672  1.6802  0.6974  1.3805
 2586SOL     OW19393   1.102   1.127  10.846  0.2694  0.8720  0.0261
 2586SOL    HW119394   1.155   1.207  10.846  0.6035  0.6511 -0.9055
 2586SOL    HW219395   1.029   1.142  10.787  0.1010  1.0050  0.2670
 2587SOL     OW19396   0.635   0.328   2.869 -0.1913 -0.5886 -0.0177
 2587SOL    HW119397   0.727   0.334   2.842  0.6092 -1.0552  2.5928
 2587SOL    HW219398   0.619   0.421   2.885 -2.1277 -0.8876 -0.1515
 2588SOL     OW19399   4.068   1.019   7.560 -0.9418 -0.0614  0.7720
 2588SOL    HW119400   4.063   1.067   7.642  2.6197 -0.9140  1.4804
 2588SOL    HW219401   4.158   1.033   7.532 -1.5897  1.4919 -0.5325
 2589SOL     OW19402   3.269   4.394   2.097  0.0551 -0.9836  0.1449
 2589SOL    HW119403   3.347   4.341   2.112  2.1864  1.4409 -2.2437
 2589SOL    HW219404   3.301   4.484   2.103 -1.1440 -0.5041 -0.6449
 2590SOL     OW19405   4.482   0.112   2.208  0.0389 -0.0251  0.1476
 2590SOL    HW119406   4.394   0.110   2.170  0.3812  1.1881 -0.7048
 2590SOL    HW219407   4.533   0.145   2.134 -1.9197  3.5953  0.3935
 2591SOL     OW19408   2.041   0.960   3.478 -0.1859 -0.1575 -0.3460
 2591SOL    HW119409   2.086   0.920   3.403  1.3583  1.7629 -0.4481
 2591SOL    HW219410   2.061   1.053   3.471 -1.3897  0.0692 -0.7318
 2592SOL     OW19411   1.630   0.322   9.006 -0.0085 -0.2872 -0.1676
 2592SOL    HW119412   1.650   0.302   9.097 -0.4952 -0.5544 -0.1205
 2592SOL    HW219413   1.714   0.361   8.979  0.3327 -1.7074 -1.1552
 2593SOL     OW19414   3.476   2.602  12.197  0.5202 -0.8861  0.3266
 2593SOL    HW119415   3.429   2.562  12.270  0.7269  0.7662  1.3625
 2593SOL    HW219416   3.458   2.540  12.126  1.2762 -1.4754  0.6432
 2594SOL     OW19417   3.409   2.788  10.989  0.1949  0.2315  0.2234
 2594SOL    HW119418   3.383   2.748  11.071 -0.0808  0.7316  0.3814
 2594SOL    HW219419   3.415   2.716  10.926 -0.8507 -1.1255  1.6868
 2595SOL     OW19420   0.445   3.779  16.422  0.3232 -0.2842  0.0488
 2595SOL    HW119421   0.392   3.847  16.463  4.7246  2.8610  0.5332
 2595SOL    HW219422   0.503   3.838  16.374 -1.1587  0.8386 -0.3797
 2596SOL     OW19423   3.150   2.687   8.176  0.3512  0.5265 -0.1108
 2596SOL    HW119424   3.080   2.750   8.193  1.6100  1.8750 -0.0104
 2596SOL    HW219425   3.124   2.652   8.091 -2.0333  0.1042  0.7675
 2597SOL     OW19426   3.708   0.660   4.529  0.7463  0.2292 -0.3168
 2597SOL    HW119427   3.763   0.587   4.558  0.4042  0.3245  0.5940
 2597SOL    HW219428   3.772   0.716   4.487 -0.3158 -0.6792 -3.1387
 2598SOL     OW19429   2.919   4.475   9.510 -0.6578  0.4033  0.0832
 2598SOL    HW119430   2.862   4.469   9.586  1.5051  0.9412  1.7631
 2598SOL    HW219431   3.000   4.444   9.551 -0.4881 -1.0463 -1.3497
 2599SOL     OW19432   3.923   1.002   3.345  0.1608  0.5452  0.0538
 2599SOL    HW119433   3.948   0.947   3.420  0.5416 -0.0779 -0.5390
 2599SOL    HW219434   3.910   1.082   3.396  1.6430  0.5405  0.4177
 2600SOL     OW19435   0.204   0.579   2.302 -0.1475  0.0528  0.8647
 2600SOL    HW119436   0.282   0.560   2.355 -0.5899  3.8360  2.9265
 2600SOL    HW219437   0.227   0.670   2.280 -1.7015 -0.1318 -1.4015
 2601SOL     OW19438   2.737   3.009   9.275 -0.2467 -0.6134 -0.6382
 2601SOL    HW119439   2.669   2.990   9.340  0.4960 -0.5802  0.1405
 2601SOL    HW219440   2.799   2.936   9.278 -0.7601 -0.9737  1.0650
 2602SOL     OW19441   1.311   1.797   3.727  0.1638  0.0892 -0.0859
 2602SOL    HW119442   1.374   1.856   3.769  0.9211  1.1791 -2.7370
 2602SOL    HW219443   1.299   1.741   3.804 -1.5151 -0.2264 -0.5920
 2603SOL     OW19444   2.546   3.482  11.967 -0.2491 -0.1375  0.3646
 2603SOL    HW119445   2.525   3.559  12.019 -0.8920 -0.8236  1.1112
 2603SOL    HW219446   2.509   3.497  11.879  0.8759  1.0982  0.1075
 2604SOL     OW19447   1.002   3.982  15.984 -0.2918  0.1022  0.4481
 2604SOL    HW119448   1.088   3.993  16.025 -0.4846  2.0357  0.2983
 2604SOL    HW219449   0.944   4.007  16.056 -2.1566 -0.2736 -0.9531
 2605SOL     OW19450   2.403   3.745   8.337  0.3769  0.3291  0.1691
 2605SOL    HW119451   2.496   3.719   8.333 -0.0309 -0.8906 -1.5477
 2605SOL    HW219452   2.412   3.819   8.277  2.5503  0.1333  0.2330
 2606SOL     OW19453   1.012   2.106   8.905 -0.2553 -0.5077 -0.2757
 2606SOL    HW119454   0.967   2.190   8.895  1.5215  0.8481  3.3311
 2606SOL    HW219455   0.946   2.040   8.884 -0.3163 -0.6174  0.2804
 2607SOL     OW19456   1.540   0.507   6.709 -0.2177  0.2128 -0.0523
 2607SOL    HW119457   1.628   0.505   6.747 -0.6893 -0.7260  1.0004
 2607SOL    HW219458   1.479   0.479   6.777 -0.8744  1.9005  0.0616
 2608SOL     OW19459   3.974   1.293   5.326 -0.4669 -0.0798 -0.2881
 2608SOL    HW119460   4.042   1.323   5.386 -1.4323  0.0192  0.7620
 2608SOL    HW219461   3.964   1.366   5.264 -0.1803 -2.6623 -3.3837
 2609SOL     OW19462   2.222   0.167   2.219 -0.2486  0.4029 -0.2175
 2609SOL    HW119463   2.127   0.163   2.230 -0.2213  1.5040  0.3854
 2609SOL    HW219464   2.219   0.198   2.129  1.8971  1.8104  0.1984
 2610SOL     OW19465   0.083   4.123   1.470  0.2370 -0.3633  0.1239
 2610SOL    HW119466   0.129   4.066   1.531  0.0866  0.7179  1.2319
 2610SOL    HW219467   0.024   4.058   1.430 -0.5488 -0.7430  1.8940
 2611SOL     OW19468   4.139   4.268  10.120  0.2142 -0.4239 -0.3059
 2611SOL    HW119469   4.121   4.361  10.130  0.0159 -0.8041  2.9269
 2611SOL    HW219470   4.233   4.268  10.102  0.3965  1.3057  0.6809
 2612SOL     OW19471   2.637   1.105   2.601 -0.5413  0.0937 -0.3892
 2612SOL    HW119472   2.712   1.143   2.555 -0.2766  1.8790  1.5091
 2612SOL    HW219473   2.625   1.031   2.541  0.4834 -0.5719  0.2136
 2613SOL     OW19474   0.286   2.492   3.781  0.1367  0.2224 -0.2804
 2613SOL    HW119475   0.234   2.556   3.831  1.2523  1.0918 -0.2177
 2613SOL    HW219476   0.241   2.496   3.697  2.5429 -0.5127 -1.6147
 2614SOL     OW19477   1.018   4.093   5.574 -0.0498 -0.4037 -0.0146
 2614SOL    HW119478   1.054   4.171   5.616  0.1689 -0.6446  0.2456
 2614SOL    HW219479   1.003   4.131   5.487 -0.2387 -0.3463  0.0425
 2615SOL     OW19480   3.064   0.038   5.129 -0.1846 -0.3200 -0.1630
 2615SOL    HW119481   3.089   0.116   5.177  1.1967  0.2057 -1.7644
 2615SOL    HW219482   3.081   4.708   5.196  3.1632 -0.9342 -1.6350
 2616SOL     OW19483   4.561   1.088   0.649 -0.2508  0.2369  0.2695
 2616SOL    HW119484   4.644   1.123   0.681  0.4178 -2.7028  1.7581
 2616SOL    HW219485   4.511   1.167   0.667  1.3743  0.2001  4.8322
 2617SOL     OW19486   2.987   0.271   4.142  0.4147 -0.2068 -0.0482
 2617SOL    HW119487   3.074   0.239   4.118  0.3207 -0.6996  0.2711
 2617SOL    HW219488   2.998   0.366   4.146 -1.7944 -0.1255  3.5326
 2618SOL     OW19489   2.521   4.682  13.263 -0.7642 -0.0148 -0.2416
 2618SOL    HW119490   2.498   0.015  13.324  1.0706 -0.1986  0.6680
 2618SOL    HW219491   2.496   4.598  13.301 -0.9846  1.5560  3.1533
 2619SOL     OW19492   1.750   4.024  12.627  0.5020 -0.1323  0.7018
 2619SOL    HW119493   1.764   4.052  12.537 -0.8986 -0.0499  0.5063
 2619SOL    HW219494   1.817   4.081  12.665  1.3913 -1.2710  0.8544
 2620SOL     OW19495   0.897   1.475   5.561 -0.2317 -0.1250 -0.4813
 2620SOL    HW119496   0.940   1.533   5.624  2.4677 -0.2793 -2.1705
 2620SOL    HW219497   0.826   1.442   5.617  0.3329 -0.9615 -0.2634
 2621SOL     OW19498   3.965   3.308   6.107 -0.5905  0.5451  0.2997
 2621SOL    HW119499   3.885   3.265   6.079  0.8878 -1.1026 -1.4128
 2621SOL    HW219500   4.009   3.238   6.157 -1.9864 -0.5373 -0.0048
 2622SOL     OW19501   0.453   3.365   4.486  0.1251  0.4885  0.0763
 2622SOL    HW119502   0.473   3.367   4.580  3.1984 -1.9389 -0.4927
 2622SOL    HW219503   0.407   3.282   4.478 -0.0031  0.7683 -1.8916
 2623SOL     OW19504   2.681   3.666   8.350 -0.1978  0.3641  0.2974
 2623SOL    HW119505   2.770   3.644   8.322 -0.6054 -1.4535  0.4359
 2623SOL    HW219506   2.705   3.711   8.432 -1.3018 -0.1600  0.9065
 2624SOL     OW19507   0.848   3.354   4.247  0.0863 -0.0456 -0.1752
 2624SOL    HW119508   0.911   3.293   4.285  1.0024  0.0243 -1.5639
 2624SOL    HW219509   0.856   3.432   4.303  0.3704  0.3119 -0.7075
 2625SOL     OW19510   3.568   0.769   7.873 -0.0363  0.2894  0.1480
 2625SOL    HW119511   3.563   0.749   7.966 -0.2333 -1.3850 -0.2200
 2625SOL    HW219512   3.540   0.859   7.893  2.2612  0.9400  0.3960
 2626SOL     OW19513   0.432   2.686   3.253  0.2833 -0.1143  0.1780
 2626SOL    HW119514   0.453   2.697   3.160  3.0765  0.7286  0.8781
 2626SOL    HW219515   0.439   2.777   3.284 -0.4056  0.7401 -2.1307
 2627SOL     OW19516   4.461   2.338   6.192  0.6144 -0.2475 -0.0787
 2627SOL    HW119517   4.387   2.383   6.231  0.5051  0.8939 -1.6210
 2627SOL    HW219518   4.455   2.260   6.248 -2.9576  0.1310  0.0641
 2628SOL     OW19519   2.655   2.152   1.629  0.2241  0.3034 -0.1443
 2628SOL    HW119520   2.568   2.150   1.591 -0.4055  1.4319  1.2256
 2628SOL    HW219521   2.705   2.158   1.548  1.2481  2.6911  0.6554
 2629SOL     OW19522   2.091   2.777   9.279  0.1202  0.1873  0.3274
 2629SOL    HW119523   2.142   2.858   9.270  2.6489 -1.3539  0.5726
 2629SOL    HW219524   2.060   2.771   9.189  1.8299 -0.2534 -0.2439
 2630SOL     OW19525   1.411   4.275   8.602 -0.0217 -0.1755 -0.0858
 2630SOL    HW119526   1.438   4.204   8.659  0.4028  0.8775  1.0138
 2630SOL    HW219527   1.368   4.233   8.527 -0.9533  1.4811 -0.4796
 2631SOL     OW19528   3.210   2.726  12.859  0.2301  1.4115 -0.2019
 2631SOL    HW119529   3.249   2.750  12.943  0.2496  0.9189 -0.0692
 2631SOL    HW219530   3.283   2.679  12.818  0.9167 -0.9302  3.7443
 2632SOL     OW19531   1.547   4.157   1.762 -0.1405  0.2227  0.1908
 2632SOL    HW119532   1.581   4.087   1.707 -2.0128 -0.8577  0.4062
 2632SOL    HW219533   1.467   4.115   1.794  0.3371 -0.3805  0.5875
 2633SOL     OW19534   3.392   3.536   3.961  0.2287 -0.0085 -0.2248
 2633SOL    HW119535   3.360   3.616   3.919 -1.1464  0.6027  2.0202
 2633SOL    HW219536   3.407   3.482   3.883  0.3860  1.9270 -1.5338
 2634SOL     OW19537   1.495   2.270   5.991 -0.2246 -0.3588  0.9774
 2634SOL    HW119538   1.573   2.310   6.029  0.5819 -1.3938  0.4283
 2634SOL    HW219539   1.442   2.269   6.071 -1.7863  1.7144 -0.0433
 2635SOL     OW19540   2.090   1.630  10.376 -0.9430 -0.5905  0.4558
 2635SOL    HW119541   2.039   1.616  10.455 -0.5229 -0.8665  0.6776
 2635SOL    HW219542   2.081   1.725  10.366  1.8985 -0.4744 -1.0401
 2636SOL     OW19543   4.080   0.616  11.545 -0.4763  0.1348 -0.7006
 2636SOL    HW119544   4.144   0.684  11.565 -2.2592  1.5189  0.3146
 2636SOL    HW219545   4.139   0.550  11.509  2.8468  2.5660  0.3034
 2637SOL     OW19546   1.565   2.368   3.294  0.2045 -0.3574 -0.0548
 2637SOL    HW119547   1.569   2.383   3.200 -2.0261  1.3966  0.1052
 2637SOL    HW219548   1.476   2.400   3.308  0.4589 -0.0231  0.8190
 2638SOL     OW19549   1.270   2.689   6.732  0.6275 -0.0179 -0.3944
 2638SOL    HW119550   1.362   2.711   6.720  0.9217 -1.8947 -1.6956
 2638SOL    HW219551   1.239   2.753   6.796  1.4519  0.5726 -0.5914
 2639SOL     OW19552   3.925   3.563   8.486 -0.5900 -0.6877  0.1318
 2639SOL    HW119553   3.933   3.469   8.502  2.3733 -0.4294  0.2196
 2639SOL    HW219554   3.872   3.559   8.407  0.7225  0.6566 -0.8218
 2640SOL     OW19555   1.841   3.534   3.405  0.2538 -0.3438 -0.1177
 2640SOL    HW119556   1.821   3.497   3.491  0.2459  0.6281  0.3007
 2640SOL    HW219557   1.904   3.475   3.363  2.9989  1.2778  1.6493
 2641SOL     OW19558   2.493   1.119   5.419  0.3635 -0.1694  0.4878
 2641SOL    HW119559   2.565   1.178   5.440  2.3261 -2.2787 -0.2096
 2641SOL    HW219560   2.517   1.038   5.465  3.0766  0.3186 -0.0995
 2642SOL     OW19561   4.191   1.796   1.437  0.0810 -0.8352 -0.2651
 2642SOL    HW119562   4.236   1.713   1.419  1.2626 -0.7836  2.5286
 2642SOL    HW219563   4.186   1.817   1.530  1.2837 -2.1384  0.0934
 2643SOL     OW19564   1.968   0.570  14.549 -0.0980  0.2578  0.2986
 2643SOL    HW119565   1.938   0.486  14.585  3.1564 -1.0888 -0.1157
 2643SOL    HW219566   2.060   0.573  14.577  0.2149  0.1561 -0.7259
 2644SOL     OW19567   2.941   1.584  12.122 -0.0737  0.2688 -0.1620
 2644SOL    HW119568   2.943   1.675  12.093 -1.8783 -0.4341 -2.4449
 2644SOL    HW219569   2.865   1.587  12.180 -0.2437  1.0878 -0.4289
 2645SOL     OW19570   0.443   0.235   7.429  0.1334  0.5984 -0.0413
 2645SOL    HW119571   0.536   0.245   7.449 -0.3688  3.1635  1.0729
 2645SOL    HW219572   0.425   0.143   7.448 -0.7610  0.7736 -0.0156
 2646SOL     OW19573   3.807   4.218   1.313 -0.6977 -0.0208 -0.1773
 2646SOL    HW119574   3.783   4.311   1.320 -0.4381  0.0375 -0.0370
 2646SOL    HW219575   3.784   4.198   1.223  2.5121  0.2945 -1.0619
 2647SOL     OW19576   0.323   4.223   5.512  0.0504 -0.4225  0.9285
 2647SOL    HW119577   0.231   4.225   5.488  0.8505  0.2039 -2.2011
 2647SOL    HW219578   0.317   4.259   5.600 -3.0124 -0.8049  0.8509
 2648SOL     OW19579   3.536   0.978  12.249  0.1069  0.2429 -0.4635
 2648SOL    HW119580   3.549   0.976  12.343  1.3181 -1.2705 -0.6663
 2648SOL    HW219581   3.441   0.968  12.250  0.2315 -0.8254  0.0115
 2649SOL     OW19582   1.013   4.431   4.015 -0.3682  0.3464 -0.2387
 2649SOL    HW119583   0.954   4.435   4.090 -2.1908 -1.6202 -1.5411
 2649SOL    HW219584   1.096   4.454   4.055 -1.2135  1.1443  1.0664
 2650SOL     OW19585   1.580   0.651   9.142 -0.2820  0.2507  0.1927
 2650SOL    HW119586   1.584   0.596   9.221  0.0778  0.8848  0.6178
 2650SOL    HW219587   1.578   0.741   9.175  1.5704  0.2903  0.2187
 2651SOL     OW19588   3.148   3.098  17.286  0.3259 -0.0708  0.7801
 2651SOL    HW119589   3.123   3.182  17.326 -0.4207 -0.1042  0.3984
 2651SOL    HW219590   3.100   3.036  17.341 -2.1471  0.1076 -1.1406
 2652SOL     OW19591   1.817   2.845   7.477  0.4032  0.3260 -0.3870
 2652SOL    HW119592   1.801   2.911   7.544 -1.5002 -0.2442 -0.2638
 2652SOL    HW219593   1.790   2.766   7.524 -1.0063  1.5297  0.8054
 2653SOL     OW19594   1.550   4.371   7.132 -0.0842  0.2820 -0.4881
 2653SOL    HW119595   1.463   4.408   7.118 -0.3433 -0.3869 -0.6286
 2653SOL    HW219596   1.533   4.292   7.081  1.7659 -0.6381  0.3416
 2654SOL     OW19597   3.753   3.002   0.607  0.0038 -0.3288  0.1563
 2654SOL    HW119598   3.757   3.096   0.592  1.2370 -0.6109 -1.2471
 2654SOL    HW219599   3.839   2.967   0.584 -1.5698 -3.5733 -0.7382
 2655SOL     OW19600   1.632   2.309   8.301 -0.2814 -0.1619  0.1128
 2655SOL    HW119601   1.539   2.325   8.288  0.2015  1.2157 -1.5431
 2655SOL    HW219602   1.632   2.217   8.325  1.2151 -0.6712 -1.8696
 2656SOL     OW19603   0.094   0.795   3.974 -0.6119  0.6476 -0.1965
 2656SOL    HW119604   0.084   0.701   3.986  0.8087  0.4383 -0.6290
 2656SOL    HW219605   0.182   0.809   4.009  0.0098 -1.4144 -0.9639
 2657SOL     OW19606   2.922   0.663   4.981  0.0344  0.0123  0.0517
 2657SOL    HW119607   2.980   0.738   4.993 -0.4534  0.5038 -0.6539
 2657SOL    HW219608   2.986   0.602   4.944 -0.3089 -0.6845  0.6075
 2658SOL     OW19609   0.181   1.765   4.853 -0.2108  0.1824 -0.1189
 2658SOL    HW119610   0.196   1.671   4.854 -2.0775 -0.1331 -1.3638
 2658SOL    HW219611   0.270   1.793   4.832  0.0649  0.0173  0.8511
 2659SOL     OW19612   0.941   4.481   2.492 -0.1885 -0.2295 -0.1639
 2659SOL    HW119613   0.915   4.522   2.574  3.0855  0.0132  0.7479
 2659SOL    HW219614   1.028   4.448   2.513 -1.3996 -4.5964 -2.0099
 2660SOL     OW19615   2.330   1.849   4.785  0.2886  0.3151 -0.3163
 2660SOL    HW119616   2.406   1.891   4.744  0.3710  0.6430  0.1693
 2660SOL    HW219617   2.257   1.900   4.749  0.0070 -1.1750 -1.8726
 2661SOL     OW19618   3.604   3.453   7.894 -0.0729 -0.8227 -0.0951
 2661SOL    HW119619   3.611   3.506   7.815 -0.9669  1.7418  1.5776
 2661SOL    HW219620   3.510   3.434   7.891 -0.2283 -0.0255 -0.0224
 2662SOL     OW19621   1.746   0.626   4.004 -0.1062 -0.3960  0.0362
 2662SOL    HW119622   1.695   0.706   4.012 -1.8574 -1.6280  1.1404
 2662SOL    HW219623   1.833   0.655   4.032 -0.8911  0.5602  1.4544
 2663SOL     OW19624   0.960   3.998   3.517  0.0371  0.5817  0.6126
 2663SOL    HW119625   1.048   3.993   3.480 -1.4178 -0.5185 -2.6515
 2663SOL    HW219626   0.901   3.971   3.447 -0.7141  2.2073  0.6211
 2664SOL     OW19627   3.590   0.423   3.083 -0.5778  0.2782  0.4089
 2664SOL    HW119628   3.677   0.445   3.050  0.1451 -1.0707  1.3901
 2664SOL    HW219629   3.577   0.331   3.061 -2.4764  1.1343 -2.0708
 2665SOL     OW19630   1.302   3.246   8.076  0.3425 -0.3309 -0.2365
 2665SOL    HW119631   1.386   3.224   8.117  0.5717 -0.1753 -0.6263
 2665SOL    HW219632   1.316   3.288   7.992  1.1810  0.7846  0.4555
 2666SOL     OW19633   2.928   3.915   8.244  0.0029 -0.3644  0.9231
 2666SOL    HW119634   3.002   3.894   8.301  1.3819  0.2683 -0.6419
 2666SOL    HW219635   2.935   4.010   8.234 -0.2422 -0.2519  1.7671
 2667SOL     OW19636   4.084   2.032   5.207 -0.6951  0.0900 -0.2956
 2667SOL    HW119637   4.080   1.987   5.123 -0.8036 -0.9173  0.2555
 2667SOL    HW219638   4.027   1.975   5.259  0.7090 -0.6475  0.4297
 2668SOL     OW19639   0.953   0.806   3.651  0.0226 -0.2225 -0.5300
 2668SOL    HW119640   0.949   0.786   3.558  1.0363  0.2647 -0.6798
 2668SOL    HW219641   0.869   0.773   3.684 -0.6033  1.6204 -0.2898
 2669SOL     OW19642   4.689   4.710   4.930 -0.0118  0.4030 -0.0177
 2669SOL    HW119643   4.681   0.035   5.002  1.6801  0.0583  0.4661
 2669SOL    HW219644   4.650   0.025   4.860 -1.5869 -2.7165 -1.4856
 2670SOL     OW19645   3.406   1.920   5.484 -0.3211 -0.3501 -0.2158
 2670SOL    HW119646   3.356   1.930   5.403 -0.0906 -1.9429 -0.5571
 2670SOL    HW219647   3.353   1.862   5.537 -0.1079  2.2419  2.8401
 2671SOL     OW19648   1.500   1.926   5.253 -0.2248  0.1771 -0.4307
 2671SOL    HW119649   1.517   2.009   5.208 -0.2097  0.2134 -0.3571
 2671SOL    HW219650   1.502   1.867   5.177 -2.6353 -1.2272  0.5872
 2672SOL     OW19651   2.021   2.040   9.854  0.8039 -0.7252 -0.3068
 2672SOL    HW119652   2.040   2.123   9.899  0.3039 -0.9056  0.2246
 2672SOL    HW219653   2.109   2.016   9.824  1.3831  2.7278 -1.4402
 2673SOL     OW19654   4.519   3.451  16.191  0.3868  0.6285 -0.3256
 2673SOL    HW119655   4.549   3.405  16.112  0.8424  1.7061 -0.7825
 2673SOL    HW219656   4.427   3.428  16.200  0.4233  0.0374 -1.4524
 2674SOL     OW19657   1.147   3.202  13.883 -0.0134  0.3677 -0.4008
 2674SOL    HW119658   1.220   3.198  13.944  0.1649 -0.9889 -0.6960
 2674SOL    HW219659   1.084   3.135  13.910 -0.7626  0.8782 -0.8627
 2675SOL     OW19660   3.355   4.434   9.271 -0.6639 -0.2745 -0.2444
 2675SOL    HW119661   3.382   4.423   9.180 -2.3755 -2.0320 -0.5541
 2675SOL    HW219662   3.273   4.483   9.264 -0.7975 -0.6494 -1.3301
 2676SOL     OW19663   4.639   3.859   5.818 -0.3961 -0.1502 -0.5684
 2676SOL    HW119664   4.610   3.865   5.909 -0.7040  0.7035 -0.7306
 2676SOL    HW219665   4.569   3.808   5.777  1.2374 -2.6164 -0.2929
 2677SOL     OW19666   2.876   1.665   8.441 -0.4977 -0.2595  0.1071
 2677SOL    HW119667   2.913   1.751   8.457  1.2058 -0.6918 -1.4542
 2677SOL    HW219668   2.784   1.685   8.426 -0.1942  1.4204  0.5599
 2678SOL     OW19669   1.858   0.987   1.345 -0.0742  0.3730 -0.4894
 2678SOL    HW119670   1.925   1.052   1.326 -0.3781  0.8328  0.0189
 2678SOL    HW219671   1.803   1.003   1.268  0.7374 -1.3788 -1.4376
 2679SOL     OW19672   1.479   2.501  13.702  0.7483  0.2424  0.2157
 2679SOL    HW119673   1.411   2.505  13.769  0.5374  0.0021  0.0141
 2679SOL    HW219674   1.465   2.583  13.655  2.4474  0.9591  0.9649
 2680SOL     OW19675   0.881   0.107   6.341 -0.6449  0.2115 -0.1720
 2680SOL    HW119676   0.862   0.190   6.298  0.3830  0.8321  0.5567
 2680SOL    HW219677   0.909   0.058   6.264 -1.1500  1.0680 -0.8997
 2681SOL     OW19678   2.459   2.921   8.538 -0.7406  0.4019  0.5758
 2681SOL    HW119679   2.450   2.919   8.634 -0.9097  0.8339  0.5683
 2681SOL    HW219680   2.481   3.013   8.526  0.2640  0.1002  0.1230
 2682SOL     OW19681   0.851   4.084  16.175 -0.0039  0.2513 -0.1734
 2682SOL    HW119682   0.760   4.110  16.160 -0.3160 -1.0272 -0.4741
 2682SOL    HW219683   0.842   4.047  16.262 -2.8445  3.4796  0.9031
 2683SOL     OW19684   4.445   2.440  11.015  0.2399 -0.1869  0.2272
 2683SOL    HW119685   4.475   2.391  10.939 -1.8409  0.4459 -0.9895
 2683SOL    HW219686   4.390   2.514  10.988  0.2973 -0.5215 -0.7839
 2684SOL     OW19687   0.773   1.822   8.247 -0.4739 -0.6634  0.8171
 2684SOL    HW119688   0.857   1.780   8.266 -0.2275 -0.8036 -0.6294
 2684SOL    HW219689   0.780   1.834   8.153  1.3257 -2.2374  0.7495
 2685SOL     OW19690   4.162   1.140   6.393 -0.2141  0.5504 -0.7204
 2685SOL    HW119691   4.251   1.108   6.410 -0.7417 -0.6581 -0.2135
 2685SOL    HW219692   4.139   1.155   6.485  0.3188 -0.8704 -0.3525
 2686SOL     OW19693   1.565   0.011   7.356 -0.2688 -0.0782 -0.7370
 2686SOL    HW119694   1.605   0.082   7.305 -0.3378  0.1840 -0.4208
 2686SOL    HW219695   1.626   4.674   7.362 -0.4267 -0.0341  1.2562
 2687SOL     OW19696   1.444   1.307   0.962 -0.6483  0.2173  0.0708
 2687SOL    HW119697   1.479   1.325   1.050  1.3672  0.2844 -0.7394
 2687SOL    HW219698   1.449   1.395   0.924 -3.1349  0.1750 -0.3063
 2688SOL     OW19699   3.130   2.837  13.107  0.4848  0.1821 -0.5299
 2688SOL    HW119700   3.222   2.834  13.084  0.5909  0.7160 -0.1788
 2688SOL    HW219701   3.123   2.751  13.147 -1.1165  1.8006  2.7182
 2689SOL     OW19702   4.338   2.954   5.175  0.3906 -0.1794 -0.0141
 2689SOL    HW119703   4.347   2.896   5.250  0.6692 -2.5862 -1.8701
 2689SOL    HW219704   4.429   2.951   5.146 -0.4629 -2.5360 -2.5855
 2690SOL     OW19705   2.037   3.523  11.007 -0.0470  0.2205 -0.4937
 2690SOL    HW119706   2.020   3.550  10.917 -1.0600  1.2823  0.0122
 2690SOL    HW219707   2.131   3.539  11.002  0.1945 -1.0704  0.0251
 2691SOL     OW19708   2.423   2.061   9.484 -0.3381 -1.0827 -0.2717
 2691SOL    HW119709   2.442   1.967   9.483 -1.0050 -1.2094 -0.6132
 2691SOL    HW219710   2.512   2.096   9.474 -1.4754  1.6469 -0.7400
 2692SOL     OW19711   1.684   1.519  14.284 -0.7358  0.0782  0.3355
 2692SOL    HW119712   1.697   1.473  14.201  1.2963 -0.1154  0.7790
 2692SOL    HW219713   1.765   1.567  14.299 -0.6637 -0.6362  2.1620
 2693SOL     OW19714   2.837   2.664   4.942  0.3351  0.4984  0.1143
 2693SOL    HW119715   2.901   2.634   4.878  1.1379 -0.9359  1.5910
 2693SOL    HW219716   2.772   2.693   4.878 -1.0046 -0.3980  1.0627
 2694SOL     OW19717   3.168   3.752   2.771 -0.4749  0.2417 -0.4476
 2694SOL    HW119718   3.259   3.770   2.745  0.1489 -3.1747 -0.5841
 2694SOL    HW219719   3.133   3.699   2.700 -1.1993  0.8923 -0.5673
 2695SOL     OW19720   1.103   1.064   4.226 -0.3718 -0.2172 -0.5886
 2695SOL    HW119721   1.160   0.998   4.265  2.5242  3.1725  0.8600
 2695SOL    HW219722   1.082   1.034   4.138 -0.5300  0.0960 -0.6563
 2696SOL     OW19723   1.718   3.903  12.259  0.9491  0.4253 -0.4501
 2696SOL    HW119724   1.756   3.834  12.313  0.3683  0.3287 -0.1656
 2696SOL    HW219725   1.742   3.979  12.311  0.4400 -0.8190  1.5788
 2697SOL     OW19726   3.463   4.190   4.709 -0.2169 -0.2028 -0.1607
 2697SOL    HW119727   3.480   4.258   4.774  0.5739  1.1281 -1.7587
 2697SOL    HW219728   3.457   4.244   4.630  1.0392  1.0508  0.6106
 2698SOL     OW19729   2.452   1.116  12.024 -0.2609  0.4239  0.2556
 2698SOL    HW119730   2.465   1.166  11.943  0.0515  0.5565  0.3881
 2698SOL    HW219731   2.539   1.104  12.060 -0.4575  1.8257  1.2067
 2699SOL     OW19732   4.234   2.038   7.206 -0.9104  0.0656 -0.5503
 2699SOL    HW119733   4.226   1.944   7.220 -1.2306  0.0808 -0.6245
 2699SOL    HW219734   4.178   2.070   7.276 -0.9996 -1.0504 -0.1077
 2700SOL     OW19735   2.607   3.135   4.101 -0.3156  0.4032  0.2003
 2700SOL    HW119736   2.700   3.156   4.106 -0.3610  0.3307  1.3653
 2700SOL    HW219737   2.591   3.173   4.014 -0.5659  2.7288  1.2759
 2701SOL     OW19738   2.291   3.514  15.309 -0.2917 -0.0935  0.3101
 2701SOL    HW119739   2.222   3.481  15.366  0.7939 -1.3184  0.9164
 2701SOL    HW219740   2.316   3.431  15.269 -0.6005  0.1528 -0.3966
 2702SOL     OW19741   3.302   1.032   8.228 -0.6878 -0.6965  0.3303
 2702SOL    HW119742   3.376   1.016   8.169 -0.8894 -1.5641  0.3223
 2702SOL    HW219743   3.241   1.075   8.167  1.3738  1.1956 -0.4058
 2703SOL     OW19744   1.607   3.561   3.961 -0.3509  0.1861  0.1602
 2703SOL    HW119745   1.634   3.651   3.942  0.2404  0.2484  1.3200
 2703SOL    HW219746   1.511   3.566   3.958 -0.3421  1.5544  2.4979
 2704SOL     OW19747   2.607   1.731   8.405  0.0717 -0.0573 -0.2226
 2704SOL    HW119748   2.552   1.803   8.374 -0.7042 -0.0439  1.1726
 2704SOL    HW219749   2.581   1.714   8.496 -0.0250  1.1294 -0.0306
 2705SOL     OW19750   4.104   2.429   5.096 -0.1714  0.2370  0.3228
 2705SOL    HW119751   4.033   2.491   5.082 -1.0006 -0.5825  0.8468
 2705SOL    HW219752   4.062   2.375   5.163 -0.4438 -1.1348 -0.9497
 2706SOL     OW19753   0.176   0.603   5.528  0.6148  0.0009  0.1611
 2706SOL    HW119754   0.162   0.697   5.541  0.0595 -0.3873  2.3442
 2706SOL    HW219755   0.254   0.610   5.472 -0.6440  3.7218 -1.1197
 2707SOL     OW19756   4.592   2.792   7.861  0.1516  0.1517 -0.1545
 2707SOL    HW119757   4.604   2.699   7.879  1.0670  0.1313 -0.8545
 2707SOL    HW219758   4.599   2.793   7.766 -2.2938 -3.4962 -0.3257
 2708SOL     OW19759   0.322   1.781  11.014  0.0267 -0.4412  0.3925
 2708SOL    HW119760   0.260   1.709  11.022  1.6984 -1.6520  2.3243
 2708SOL    HW219761   0.339   1.789  11.108  0.4705  1.1300  0.1739
 2709SOL     OW19762   2.225   0.809   5.520 -0.0472  0.1437 -0.0754
 2709SOL    HW119763   2.232   0.864   5.442  2.0648  0.2134  0.1510
 2709SOL    HW219764   2.312   0.805   5.559  0.6147  3.3239 -1.2507
 2710SOL     OW19765   1.850   0.438   6.963  0.3660 -0.1432  0.1547
 2710SOL    HW119766   1.855   0.507   7.029  4.2833  0.8179 -1.1552
 2710SOL    HW219767   1.783   0.383   7.003  1.4443 -0.9373  0.8665
 2711SOL     OW19768   0.611   3.845   3.443 -0.1025 -0.8224 -0.2633
 2711SOL    HW119769   0.646   3.801   3.520  0.1315  0.6244  0.4559
 2711SOL    HW219770   0.685   3.862   3.385 -1.5734  0.8609 -1.6738
 2712SOL     OW19771   3.417   3.084   1.702 -0.3240 -0.5489  0.7475
 2712SOL    HW119772   3.469   3.154   1.742  0.2585 -0.2812 -0.4528
 2712SOL    HW219773   3.394   3.121   1.616  2.4696  3.7424  1.8386
 2713SOL     OW19774   2.866   4.617  15.671  0.5613 -0.1270 -0.1923
 2713SOL    HW119775   2.900   4.675  15.603 -0.6155  0.0540 -0.6331
 2713SOL    HW219776   2.799   4.564  15.628  1.3582 -0.2872 -1.2099
 2714SOL     OW19777   3.771   2.265   9.443  0.6870  0.3065 -0.4120
 2714SOL    HW119778   3.695   2.269   9.385  0.0319 -0.1649  0.4336
 2714SOL    HW219779   3.780   2.356   9.472  0.0571  0.2050  0.0859
 2715SOL     OW19780   3.988   2.923   3.727 -0.5666 -0.2711  0.1948
 2715SOL    HW119781   4.077   2.909   3.760 -0.5685 -0.1409  0.2547
 2715SOL    HW219782   3.944   2.899   3.808  2.0795  0.3912  1.8203
 2716SOL     OW19783   3.204   1.396   2.862  0.1787 -0.4392  0.1376
 2716SOL    HW119784   3.194   1.401   2.957  0.7816  0.6219  0.1458
 2716SOL    HW219785   3.269   1.327   2.855  0.2843 -0.2164 -1.1267
 2717SOL     OW19786   2.843   0.858   2.702 -0.1990 -0.5875  0.1698
 2717SOL    HW119787   2.918   0.905   2.740 -1.8724  1.7452  0.5686
 2717SOL    HW219788   2.802   0.925   2.648 -0.2458 -0.2774  0.5888
 2718SOL     OW19789   0.621   2.968   8.757  0.7265  0.0815  0.1393
 2718SOL    HW119790   0.579   3.051   8.736 -0.0246 -0.0066  1.2997
 2718SOL    HW219791   0.596   2.961   8.849  0.4672  0.8551  0.1220
 2719SOL     OW19792   3.769   4.357   3.808 -0.0124  0.4130  0.8130
 2719SOL    HW119793   3.837   4.335   3.744  0.2573 -0.4197  1.3901
 2719SOL    HW219794   3.745   4.265   3.819  0.0621  0.4269  1.0784
 2720SOL     OW19795   4.495   0.643   2.579 -0.7010 -0.6255 -0.2681
 2720SOL    HW119796   4.467   0.642   2.488  1.6956 -1.1098 -0.9931
 2720SOL    HW219797   4.564   0.708   2.575  1.8846 -3.1755  2.3852
 2721SOL     OW19798   1.310   3.712   2.129  0.2161  0.2886 -0.0757
 2721SOL    HW119799   1.292   3.635   2.076  1.4204  0.9406 -1.4244
 2721SOL    HW219800   1.226   3.722   2.175  0.4035 -0.2071  0.3811
 2722SOL     OW19801   1.509   0.880   4.863 -0.3343 -0.4335  0.0668
 2722SOL    HW119802   1.505   0.809   4.798 -0.0048  0.0522 -0.4853
 2722SOL    HW219803   1.601   0.865   4.887 -0.0981  0.4050 -0.3189
 2723SOL     OW19804   1.640   1.309   3.160 -0.4526 -0.4521  0.0211
 2723SOL    HW119805   1.547   1.287   3.170 -0.5230 -1.2719 -2.3725
 2723SOL    HW219806   1.670   1.218   3.167 -0.4995 -0.5280 -0.7000
 2724SOL     OW19807   4.720   1.557  16.361 -0.1268 -0.1960  0.4267
 2724SOL    HW119808   4.732   1.632  16.301  2.5408  1.7506  3.3706
 2724SOL    HW219809   0.040   1.585  16.433 -0.4891  0.4358  0.4658
 2725SOL     OW19810   1.168   3.422   8.785 -0.0076  0.7331  0.0624
 2725SOL    HW119811   1.151   3.420   8.691  1.0533 -1.5054 -0.0856
 2725SOL    HW219812   1.101   3.358   8.809 -1.1274  2.5785  1.8118
 2726SOL     OW19813   3.664   2.261   3.274  0.8311 -0.6120 -0.1611
 2726SOL    HW119814   3.570   2.257   3.253  1.3912 -1.3610 -2.5241
 2726SOL    HW219815   3.698   2.285   3.187 -1.7991 -0.6238 -1.2078
 2727SOL     OW19816   3.179   3.121   3.038 -0.2549  0.3702  0.1843
 2727SOL    HW119817   3.209   3.180   3.107  1.7474 -0.0431 -0.3456
 2727SOL    HW219818   3.089   3.124   3.070 -0.4358  0.4142 -0.3343
 2728SOL     OW19819   2.363   1.236  17.186  0.4070 -0.3992 -0.4672
 2728SOL    HW119820   2.411   1.301  17.135 -1.1068  1.1612  0.1198
 2728SOL    HW219821   2.271   1.259  17.171 -0.3075 -2.1812  1.0673
 2729SOL     OW19822   1.360   2.868   5.421  0.1054 -0.0769 -0.1657
 2729SOL    HW119823   1.283   2.839   5.471  0.7258 -1.9420 -0.2923
 2729SOL    HW219824   1.408   2.902   5.496  0.3332  0.3753 -0.5139
 2730SOL     OW19825   4.581   3.122   1.030 -0.0421  0.6636  0.1202
 2730SOL    HW119826   4.518   3.136   0.959 -0.3112  1.8725  0.5929
 2730SOL    HW219827   4.628   3.054   0.982  1.1890  1.1719  0.5902
 2731SOL     OW19828   2.620   4.507   4.040  0.3594  0.2950  0.4186
 2731SOL    HW119829   2.566   4.545   3.971  0.1022 -1.4359 -0.3553
 2731SOL    HW219830   2.551   4.471   4.096  1.3069 -0.9632  0.8091
 2732SOL     OW19831   1.728   2.940   4.861  0.0122 -0.0779 -0.0925
 2732SOL    HW119832   1.681   2.862   4.891 -1.2132  0.2820 -1.1268
 2732SOL    HW219833   1.816   2.917   4.891  0.3276  1.1108 -0.1026
 2733SOL     OW19834   0.641   0.916   4.994  0.8564 -0.3022  0.2532
 2733SOL    HW119835   0.622   0.907   4.901  0.1186 -1.4618  0.5164
 2733SOL    HW219836   0.667   0.825   5.008 -0.0527 -0.5748  0.1478
 2734SOL     OW19837   2.012   2.842   5.361 -0.5871  0.3414  0.2969
 2734SOL    HW119838   1.990   2.918   5.307  0.8763 -0.2777 -1.1922
 2734SOL    HW219839   1.931   2.792   5.367  0.7616 -1.7445  1.1860
 2735SOL     OW19840   2.412   1.656  12.538  0.3276  0.3484  0.1538
 2735SOL    HW119841   2.451   1.710  12.469  2.6774 -2.4590 -0.7089
 2735SOL    HW219842   2.471   1.581  12.542 -0.3521 -0.4116 -3.5765
 2736SOL     OW19843   0.980   1.785   2.958 -0.5999 -0.2436 -0.4559
 2736SOL    HW119844   0.998   1.850   2.889  0.1017 -2.1866 -2.0974
 2736SOL    HW219845   1.008   1.834   3.036  1.1884 -1.8366 -0.0966
 2737SOL     OW19846   2.310   2.103   2.766  0.2614 -0.2387  0.3426
 2737SOL    HW119847   2.266   2.031   2.721 -2.2965  1.1120  0.6962
 2737SOL    HW219848   2.252   2.121   2.840  1.7331 -1.3102  1.7525
 2738SOL     OW19849   1.213   1.876   1.688  0.5358 -0.5553 -0.1288
 2738SOL    HW119850   1.257   1.945   1.638 -0.0602 -0.0356  0.0710
 2738SOL    HW219851   1.123   1.889   1.658 -0.1002 -3.1211  0.7249
 2739SOL     OW19852   1.956   2.082   3.495 -0.1272  0.6170 -0.7941
 2739SOL    HW119853   1.989   2.158   3.449  0.3682  1.3773  0.8099
 2739SOL    HW219854   1.861   2.099   3.498 -0.0728  0.3679  3.1215
 2740SOL     OW19855   1.716   3.430   3.660  0.2816  0.4455 -0.4999
 2740SOL    HW119856   1.623   3.438   3.638  0.3468 -2.2382 -1.7008
 2740SOL    HW219857   1.705   3.364   3.728 -0.2035  0.2180 -0.8006
 2741SOL     OW19858   2.260   0.899   6.375 -0.1050  0.3375  0.0933
 2741SOL    HW119859   2.348   0.931   6.359  0.1615 -0.5344 -0.1924
 2741SOL    HW219860   2.221   0.969   6.427 -0.4540 -0.7441  1.2720
 2742SOL     OW19861   2.731   3.788   8.938  0.3120 -0.0239  0.5545
 2742SOL    HW119862   2.734   3.827   9.026 -0.2270  1.4148 -0.0715
 2742SOL    HW219863   2.638   3.765   8.949  0.5424 -0.6992  1.0836
 2743SOL     OW19864   1.992   4.343   2.938 -0.6223 -0.0289  0.9255
 2743SOL    HW119865   1.951   4.392   2.867  0.0458 -1.0721 -0.1829
 2743SOL    HW219866   1.928   4.347   3.008 -1.7998 -0.3533 -0.1262
 2744SOL     OW19867   0.548   0.814  13.104 -0.1437  0.4979 -0.3971
 2744SOL    HW119868   0.605   0.799  13.028  0.7938  0.3439  0.3288
 2744SOL    HW219869   0.601   0.877  13.152  1.3440 -0.5695 -0.6307
 2745SOL     OW19870   0.805   3.942   1.641  0.4664 -0.4861 -0.3854
 2745SOL    HW119871   0.716   3.921   1.613  0.0099 -0.6164  1.1667
 2745SOL    HW219872   0.852   3.927   1.559  2.3155  0.9662  0.4158
 2746SOL     OW19873   4.053   2.793   9.592 -0.2790 -0.2256 -0.0136
 2746SOL    HW119874   3.992   2.780   9.665 -0.5811  1.6357  0.0567
 2746SOL    HW219875   4.126   2.737   9.620 -0.0139  0.9611  1.6935
 2747SOL     OW19876   3.102   2.752  14.867  0.3204 -0.5408  0.9020
 2747SOL    HW119877   3.174   2.778  14.925 -0.5818 -1.5262  2.4813
 2747SOL    HW219878   3.139   2.769  14.781  0.0030 -0.7013  0.7332
 2748SOL     OW19879   0.914   0.115  16.158 -0.2775  0.5395 -0.4225
 2748SOL    HW119880   0.909   0.058  16.081  0.6231  1.1043 -0.8922
 2748SOL    HW219881   0.957   0.184  16.108 -0.8186  0.4555 -0.9903
 2749SOL     OW19882   0.576   0.283   6.851  0.3466 -0.3634  0.6204
 2749SOL    HW119883   0.574   0.353   6.915 -2.8339 -1.1293  1.3642
 2749SOL    HW219884   0.653   0.294   6.795 -0.6616  1.3215 -0.4228
 2750SOL     OW19885   0.727   3.925   8.128 -0.8321  0.3157  0.1361
 2750SOL    HW119886   0.780   3.997   8.163 -1.6041  0.8209  0.2715
 2750SOL    HW219887   0.794   3.864   8.096  0.6218  0.8064  2.3101
 2751SOL     OW19888   3.422   2.245  15.578 -0.5220 -0.5460 -0.3620
 2751SOL    HW119889   3.423   2.265  15.485 -1.0314  0.3743 -0.1687
 2751SOL    HW219890   3.330   2.260  15.601 -0.8289  2.2499 -3.4084
 2752SOL     OW19891   2.369   1.263   1.837  0.1583  0.3946  0.2299
 2752SOL    HW119892   2.391   1.305   1.920  1.3309 -0.9534  0.6119
 2752SOL    HW219893   2.344   1.337   1.782 -1.1101 -0.2339 -0.0323
 2753SOL     OW19894   1.781   3.653  11.680 -0.2748 -0.3268  0.1090
 2753SOL    HW119895   1.821   3.663  11.767 -1.5503 -3.1272  1.0016
 2753SOL    HW219896   1.831   3.577  11.651 -0.4509 -0.3428 -0.1545
 2754SOL     OW19897   0.621   2.117   8.883  0.0907 -0.1874  0.0386
 2754SOL    HW119898   0.565   2.047   8.849  0.1349 -0.3579  0.3097
 2754SOL    HW219899   0.599   2.189   8.824  1.6659 -0.1531 -0.5137
 2755SOL     OW19900   2.730   1.416   1.762 -0.8616  0.0854 -0.1038
 2755SOL    HW119901   2.728   1.398   1.668  1.0089 -0.8702  0.0534
 2755SOL    HW219902   2.824   1.407   1.778 -0.7155 -1.6367 -2.0250
 2756SOL     OW19903   3.165   2.965   4.625  0.2691  0.4663  0.2278
 2756SOL    HW119904   3.235   3.001   4.679  0.2596 -1.3220  1.4450
 2756SOL    HW219905   3.083   3.008   4.652  1.3926  1.7543  1.5809
 2757SOL     OW19906   3.176   4.291   2.324 -0.2566 -0.0543  0.4628
 2757SOL    HW119907   3.097   4.333   2.357  0.3515  0.0578  1.7845
 2757SOL    HW219908   3.180   4.339   2.241 -1.3692  0.2237  0.5667
 2758SOL     OW19909   3.929   0.996  15.185  0.3584  0.2523  0.1347
 2758SOL    HW119910   3.886   0.927  15.134  0.1371 -0.3424  1.1228
 2758SOL    HW219911   3.960   1.050  15.113 -0.6993 -0.1281 -0.6097
 2759SOL     OW19912   3.368   1.896   6.524  0.0399  0.0380  0.6960
 2759SOL    HW119913   3.328   1.811   6.506  1.9837 -1.0665  1.5285
 2759SOL    HW219914   3.352   1.900   6.619  0.2276 -0.7216  0.7588
 2760SOL     OW19915   2.948   2.321   8.575 -0.2411 -0.0092 -0.3256
 2760SOL    HW119916   2.933   2.364   8.491 -2.5493  0.2265  0.1934
 2760SOL    HW219917   3.038   2.291   8.565 -0.8269 -2.0687  0.5622
 2761SOL     OW19918   2.475   2.614  10.602  0.0610 -0.1241  0.1462
 2761SOL    HW119919   2.497   2.558  10.527 -0.6948  1.1897 -1.0693
 2761SOL    HW219920   2.532   2.687  10.579 -0.7639  1.3649  2.8082
 2762SOL     OW19921   3.862   0.207   7.538 -0.0914  0.1103 -0.5396
 2762SOL    HW119922   3.859   0.117   7.507 -2.5846 -0.1652  0.5050
 2762SOL    HW219923   3.769   0.213   7.561 -0.1536 -0.2819 -0.6987
 2763SOL     OW19924   0.400   1.261  13.406  0.5180  0.1825 -0.8141
 2763SOL    HW119925   0.468   1.253  13.339  0.7726 -0.6987 -0.4526
 2763SOL    HW219926   0.384   1.355  13.404  0.1947  0.1926  1.8374
 2764SOL     OW19927   2.010   0.669   5.646  0.2211 -0.0186 -0.5312
 2764SOL    HW119928   2.030   0.694   5.736 -1.3867 -1.2193  0.1719
 2764SOL    HW219929   2.082   0.711   5.599  0.1332  1.0316  0.2672
 2765SOL     OW19930   3.702   3.921   2.918  0.3833 -0.0592  1.1062
 2765SOL    HW119931   3.788   3.895   2.951  0.1623 -1.4652  0.5983
 2765SOL    HW219932   3.692   3.884   2.830 -0.5047  1.1600  0.7094
 2766SOL     OW19933   1.655   2.168  12.889  0.0461 -0.1892 -0.3940
 2766SOL    HW119934   1.608   2.126  12.817  0.8047 -3.0923  0.8195
 2766SOL    HW219935   1.685   2.087  12.928  0.7307  0.1651 -0.1970
 2767SOL     OW19936   3.401   0.270   6.298  0.6949  0.4899 -0.4813
 2767SOL    HW119937   3.368   0.264   6.387 -0.0530  0.4965 -0.7559
 2767SOL    HW219938   3.447   0.187   6.287  0.4650  0.1935  0.8302
 2768SOL     OW19939   0.082   0.745   8.574  0.0447 -0.4998 -0.1990
 2768SOL    HW119940   0.064   0.804   8.648 -2.0957 -1.2964 -0.0912
 2768SOL    HW219941   0.157   0.795   8.539 -0.7348 -0.0771 -1.2573
 2769SOL     OW19942   3.952   2.192   5.737 -0.3271 -0.3865 -0.2242
 2769SOL    HW119943   3.904   2.144   5.805 -0.3713  3.1186  2.1574
 2769SOL    HW219944   3.968   2.279   5.773 -1.9146 -0.3178  0.3148
 2770SOL     OW19945   3.993   2.550   3.988 -0.7139 -0.0542 -0.1975
 2770SOL    HW119946   3.996   2.645   4.000 -1.4035 -0.1232  0.5429
 2770SOL    HW219947   3.969   2.525   4.077  1.9038 -2.4134 -0.1662
 2771SOL     OW19948   0.949   1.520   2.923 -0.2280  0.4437 -0.4024
 2771SOL    HW119949   0.923   1.524   2.831 -0.7892 -0.3195 -0.2829
 2771SOL    HW219950   0.953   1.613   2.942  0.5631  0.5705 -1.1722
 2772SOL     OW19951   1.052   1.717   5.444  0.5393 -0.6056  0.1244
 2772SOL    HW119952   0.959   1.739   5.435  0.9399  0.5944 -1.1124
 2772SOL    HW219953   1.045   1.622   5.448  0.3353 -0.5491  1.1897
 2773SOL     OW19954   1.337   0.565  14.090  0.0160  0.2304 -0.6474
 2773SOL    HW119955   1.275   0.628  14.053 -0.8462  0.0952  0.5331
 2773SOL    HW219956   1.283   0.487  14.104  2.2266 -1.0898  0.4428
 2774SOL     OW19957   4.375   2.666   6.202  0.1221  0.5286  0.4004
 2774SOL    HW119958   4.330   2.603   6.259  1.5383 -2.0042 -1.2995
 2774SOL    HW219959   4.394   2.739   6.261  1.4584 -0.0540  0.6969
 2775SOL     OW19960   4.076   0.687   6.533  0.1120 -0.1391  0.0390
 2775SOL    HW119961   3.982   0.698   6.524  0.7020  3.6808 -1.4835
 2775SOL    HW219962   4.086   0.700   6.628 -2.6583  1.1671  0.1200
 2776SOL     OW19963   0.677   1.353   1.095 -0.2029  0.7109  0.0447
 2776SOL    HW119964   0.594   1.400   1.082 -0.5210  0.3250  0.6529
 2776SOL    HW219965   0.729   1.357   1.016  1.0193 -2.3748  0.7292
 2777SOL     OW19966   0.435   3.380   7.783 -0.0570  0.4439 -0.0865
 2777SOL    HW119967   0.413   3.294   7.819  1.2435 -0.5512 -1.6847
 2777SOL    HW219968   0.353   3.429   7.773 -0.7273 -0.4094  1.2077
 2778SOL     OW19969   4.130   4.581   7.449  0.0162 -0.1897 -0.7224
 2778SOL    HW119970   4.170   4.496   7.430  0.6333  0.1031 -0.7130
 2778SOL    HW219971   4.177   4.644   7.395 -0.6039  0.5075 -0.4488
 2779SOL     OW19972   4.079   2.068   6.980  0.4055  0.1831 -0.3320
 2779SOL    HW119973   3.999   2.113   7.008  1.5266  1.3467  1.0224
 2779SOL    HW219974   4.119   2.055   7.066  0.7366  4.2065  0.1284
 2780SOL     OW19975   4.653   1.861  14.080  0.3525  0.1144 -0.8292
 2780SOL    HW119976   4.629   1.783  14.031  0.0771 -0.4719  0.2522
 2780SOL    HW219977   4.735   1.827  14.118  0.6805 -1.0500 -2.5850
 2781SOL     OW19978   0.726   2.787  13.296 -0.1020  0.3525  0.0687
 2781SOL    HW119979   0.764   2.842  13.228  0.1858 -1.0002 -0.8667
 2781SOL    HW219980   0.744   2.852  13.364 -0.4133 -0.6196  1.0874
 2782SOL     OW19981   0.739   1.767   1.607  0.3909  0.4255 -0.1399
 2782SOL    HW119982   0.715   1.830   1.540  2.8918 -0.0917 -1.5042
 2782SOL    HW219983   0.670   1.703   1.594  0.3474  0.1284  1.4680
 2783SOL     OW19984   1.038   0.586  11.562  0.3744 -0.6419 -0.0492
 2783SOL    HW119985   1.009   0.576  11.472  1.3890 -2.5531 -0.1607
 2783SOL    HW219986   1.130   0.609  11.554  0.0949  0.2996 -0.6512
 2784SOL     OW19987   1.786   4.098   7.579  0.0514  0.2595  0.1248
 2784SOL    HW119988   1.755   4.016   7.540  2.7789 -1.0403  0.7123
 2784SOL    HW219989   1.720   4.111   7.647 -1.2259 -3.4412 -0.3960
 2785SOL     OW19990   3.819   0.550  14.198 -0.0779 -0.1717 -0.3017
 2785SOL    HW119991   3.808   0.515  14.109 -1.2128 -2.4927  0.7668
 2785SOL    HW219992   3.807   0.645  14.197  0.0949 -0.1561 -1.8242
 2786SOL     OW19993   2.240   2.120  16.866  0.1585 -0.0814 -0.7061
 2786SOL    HW119994   2.214   2.212  16.858 -1.2243 -0.4562 -0.5721
 2786SOL    HW219995   2.307   2.110  16.799  0.4355  1.2411 -0.6330
 2787SOL     OW19996   1.914   3.659   4.579 -0.0751 -0.2437  0.4329
 2787SOL    HW119997   1.894   3.739   4.629  1.0265  0.6576 -0.5738
 2787SOL    HW219998   1.942   3.604   4.652 -3.4669 -2.1580  0.2953
 2788SOL     OW19999   2.423   1.172   2.206 -0.2259 -0.0305 -0.0449
 2788SOL    HW120000   2.352   1.213   2.157  0.0037 -1.7472 -1.8357
 2788SOL    HW220001   2.473   1.243   2.245  0.3901 -0.6345  0.2629
 2789SOL     OW20002   1.712   3.656   5.018 -0.3895 -0.0076 -0.7158
 2789SOL    HW120003   1.704   3.611   4.934  2.5860 -0.9515 -0.4991
 2789SOL    HW220004   1.784   3.603   5.053 -1.4411 -0.0255  1.3860
 2790SOL     OW20005   1.015   2.582   8.145 -0.2353 -0.5338 -0.3729
 2790SOL    HW120006   1.000   2.503   8.197 -1.7300 -0.9192 -1.3836
 2790SOL    HW220007   0.974   2.649   8.200  0.7384  0.0474 -0.3673
 2791SOL     OW20008   3.026   2.614  16.121  0.2211  0.1619 -0.2065
 2791SOL    HW120009   2.988   2.700  16.134 -0.9411 -0.7127  2.2351
 2791SOL    HW220010   3.099   2.611  16.183 -0.3317 -1.5232  0.3780
 2792SOL     OW20011   2.766   2.874  13.127 -0.0925 -0.7642 -0.4224
 2792SOL    HW120012   2.792   2.814  13.057 -1.3233 -1.4974 -0.2682
 2792SOL    HW220013   2.804   2.947  13.079  0.3807  0.3818  1.7049
 2793SOL     OW20014   0.019   2.010   7.708 -0.3379 -0.3339  0.5795
 2793SOL    HW120015   4.689   1.992   7.773 -1.3428 -0.7361 -0.5588
 2793SOL    HW220016   4.730   2.098   7.682  2.5545  0.5622  0.7262
 2794SOL     OW20017   4.331   4.692   6.501 -0.8368 -0.1586  0.2446
 2794SOL    HW120018   4.299   4.647   6.423  1.1270  3.1032 -2.4504
 2794SOL    HW220019   4.424   4.696   6.477 -1.2358 -0.0368 -1.2873
 2795SOL     OW20020   3.524   0.751   0.160 -0.2979 -0.1164 -0.0867
 2795SOL    HW120021   3.520   0.837   0.202 -0.3182 -1.0522  1.8237
 2795SOL    HW220022   3.525   0.700   0.241 -0.9701  2.3071  1.4518
 2796SOL     OW20023   1.098   4.040  15.541  0.0604  0.1939 -0.2057
 2796SOL    HW120024   1.046   4.104  15.590  0.1629  0.2973 -0.2329
 2796SOL    HW220025   1.177   4.030  15.594 -0.8012 -0.9936  0.8681
 2797SOL     OW20026   0.330   1.517   4.300 -0.0320  0.2523  0.6875
 2797SOL    HW120027   0.255   1.536   4.357 -0.7728 -0.4801 -0.0415
 2797SOL    HW220028   0.340   1.596   4.245 -1.3963 -0.3008 -0.3794
 2798SOL     OW20029   3.096   0.468   2.499  0.0481 -0.1320 -0.1240
 2798SOL    HW120030   3.136   0.495   2.416 -3.2858  2.7345 -0.7726
 2798SOL    HW220031   3.009   0.449   2.464  0.0442 -2.7498  1.2864
 2799SOL     OW20032   0.709   0.011   1.417  0.9046  0.3980  0.1814
 2799SOL    HW120033   0.744   0.094   1.449  1.3200  0.1806  0.3015
 2799SOL    HW220034   0.743   4.692   1.487  1.2678 -2.9373 -2.6372
 2800SOL     OW20035   4.358   0.005   5.072  0.1071 -0.5507  0.2049
 2800SOL    HW120036   4.353   0.037   5.162  0.4027 -1.7192  0.6301
 2800SOL    HW220037   4.271   0.026   5.038  0.9201 -0.5849 -1.9068
 2801SOL     OW20038   0.236   0.762  16.612 -0.5264  0.8075 -0.3080
 2801SOL    HW120039   0.176   0.810  16.668  0.3700  0.9154  0.5482
 2801SOL    HW220040   0.195   0.778  16.527 -0.0591  0.2736 -0.6341
 2802SOL     OW20041   3.946   4.737   2.098  0.3952  0.0319  0.1115
 2802SOL    HW120042   3.926   4.690   2.017  1.3361  0.3802 -0.3132
 2802SOL    HW220043   3.886   0.074   2.090  0.7343  0.5650  2.3686
 2803SOL     OW20044   3.585   1.396   4.445  0.0815 -0.2136  0.0004
 2803SOL    HW120045   3.646   1.469   4.456 -0.1613 -0.1043  0.6514
 2803SOL    HW220046   3.500   1.440   4.456 -0.8296 -1.8630 -0.5318
 2804SOL     OW20047   1.928   2.582   1.237  0.0025 -0.3368 -0.0613
 2804SOL    HW120048   1.945   2.548   1.149  1.8601  0.1487  0.1001
 2804SOL    HW220049   2.011   2.584   1.286 -0.2413 -1.0147  0.3884
 2805SOL     OW20050   2.582   4.714   9.952 -0.2943  0.3700  0.7698
 2805SOL    HW120051   2.552   4.671   9.872 -1.3584 -2.6478  2.7749
 2805SOL    HW220052   2.506   4.696  10.007 -1.0139  2.0746  0.3443
 2806SOL     OW20053   1.692   0.248   9.273  0.2265 -0.0629  0.4465
 2806SOL    HW120054   1.714   0.321   9.331  1.0020 -0.8210  1.1124
 2806SOL    HW220055   1.596   0.250   9.275  0.1564 -0.6871 -2.4959
 2807SOL     OW20056   4.617   4.461   7.038  0.6028 -0.1659 -1.1812
 2807SOL    HW120057   4.683   4.397   7.065 -2.9143 -2.1727  2.5764
 2807SOL    HW220058   4.635   4.537   7.093  0.1288 -1.2487  0.4540
 2808SOL     OW20059   1.589   1.566  10.120 -0.2205  0.2528  0.0457
 2808SOL    HW120060   1.513   1.619  10.140 -0.7750 -0.9978  1.2606
 2808SOL    HW220061   1.626   1.594  10.036 -1.8768 -0.5632 -0.9471
 2809SOL     OW20062   0.443   2.859  10.639 -0.4135  0.8229 -0.6542
 2809SOL    HW120063   0.519   2.809  10.609  2.8285  3.7413  2.7777
 2809SOL    HW220064   0.476   2.948  10.631 -1.4852  1.1606 -1.3448
 2810SOL     OW20065   4.691   2.185   6.767 -0.0553 -0.3234 -0.1304
 2810SOL    HW120066   4.698   2.129   6.690  2.2052 -1.2397  0.7349
 2810SOL    HW220067   0.039   2.229   6.772 -0.3674  0.4008 -1.2931
 2811SOL     OW20068   3.325   3.403   7.906 -0.5870  0.2029 -0.2240
 2811SOL    HW120069   3.314   3.313   7.937 -0.9832  0.6689  0.9836
 2811SOL    HW220070   3.252   3.418   7.846  0.8765 -1.2159 -2.3671
 2812SOL     OW20071   0.399   2.109   7.702  0.0575  0.0200 -0.1073
 2812SOL    HW120072   0.456   2.185   7.713 -0.6337  0.6713 -1.0491
 2812SOL    HW220073   0.309   2.140   7.692 -0.5349 -1.4701  0.6234
 2813SOL     OW20074   1.195   2.006   7.882  0.2022 -0.1584 -0.0794
 2813SOL    HW120075   1.201   2.075   7.816 -2.7673  0.7268  0.5910
 2813SOL    HW220076   1.180   2.053   7.964 -1.2918 -0.7014 -0.0365
 2814SOL     OW20077   2.622   2.752  16.319 -0.6910  0.0545 -0.0867
 2814SOL    HW120078   2.667   2.674  16.349 -0.5458 -0.2690 -1.1371
 2814SOL    HW220079   2.669   2.820  16.368  1.1148  0.4572 -2.4127
 2815SOL     OW20080   3.537   2.905   7.349  0.7583  0.5115 -0.0116
 2815SOL    HW120081   3.488   2.885   7.270  0.4426  0.0542  0.3024
 2815SOL    HW220082   3.570   2.993   7.328  1.2661 -0.1909 -2.1400
 2816SOL     OW20083   4.591   3.499   8.931  0.2627 -0.1255  0.7989
 2816SOL    HW120084   4.620   3.516   8.841  2.0468  1.2455  1.6476
 2816SOL    HW220085   4.546   3.415   8.920 -1.0275  1.0557 -3.1608
 2817SOL     OW20086   4.369   4.717   5.920  0.7445 -0.1766  0.3537
 2817SOL    HW120087   4.289   4.681   5.959 -0.3430  1.6889 -0.1844
 2817SOL    HW220088   4.363   0.073   5.939 -0.2819 -0.4206  1.2184
 2818SOL     OW20089   1.389   4.705   2.086  0.4042  0.0223 -0.1444
 2818SOL    HW120090   1.331   4.725   2.013  1.4835 -0.2120 -1.0725
 2818SOL    HW220091   1.354   4.618   2.105 -0.1771  0.7795  2.1723
 2819SOL     OW20092   2.837   4.685   5.812 -0.0551  0.0129 -0.5466
 2819SOL    HW120093   2.867   4.646   5.730 -0.6998  2.2128 -1.8257
 2819SOL    HW220094   2.765   4.624   5.829  3.3949 -3.9774 -0.2907
 2820SOL     OW20095   3.075   2.088   5.455 -0.3992 -0.4626  0.1601
 2820SOL    HW120096   2.999   2.031   5.471 -0.0982 -0.8710  0.1163
 2820SOL    HW220097   3.118   2.054   5.377 -0.7092 -1.3829  0.3952
 2821SOL     OW20098   1.329   1.296   0.000  0.0078 -0.6112  0.1787
 2821SOL    HW120099   1.380   1.317   0.079  0.6499 -1.1350 -0.0938
 2821SOL    HW220100   1.373   1.217  17.715 -0.7238 -1.2286  0.6992
 2822SOL     OW20101   3.115   1.932   1.333 -0.0834  0.4267 -0.4343
 2822SOL    HW120102   3.158   1.967   1.255  0.3225  1.2348  0.1629
 2822SOL    HW220103   3.058   1.874   1.283  0.0930 -0.2497  0.1516
 2823SOL     OW20104   4.103   3.260  11.461  0.1594  0.3401  0.3975
 2823SOL    HW120105   4.142   3.314  11.392  2.0172  0.0307  1.1840
 2823SOL    HW220106   4.062   3.325  11.518  2.0294  1.8806 -0.0217
 2824SOL     OW20107   3.760   2.776   8.771 -0.2652 -0.0526  0.3535
 2824SOL    HW120108   3.825   2.737   8.830 -2.4837  0.0033  2.8592
 2824SOL    HW220109   3.785   2.736   8.688 -2.9676 -1.8302  0.4072
 2825SOL     OW20110   1.546   0.077   7.830  0.4320  0.0455  0.1999
 2825SOL    HW120111   1.638   0.066   7.856  0.2734  0.4981  0.9468
 2825SOL    HW220112   1.531   0.145   7.895 -0.6315 -0.6354  0.6683
 2826SOL     OW20113   3.559   3.807   4.570  0.4566 -0.6830  0.6914
 2826SOL    HW120114   3.515   3.746   4.511 -1.4756 -1.3531  2.8132
 2826SOL    HW220115   3.589   3.875   4.510 -0.8474 -1.3068 -0.6779
 2827SOL     OW20116   0.411   1.896  16.767 -0.5850 -0.0486 -0.8485
 2827SOL    HW120117   0.339   1.866  16.711 -1.5440  2.4812 -0.9872
 2827SOL    HW220118   0.391   1.852  16.849 -0.9218 -0.4673 -1.1559
 2828SOL     OW20119   3.482   3.771  15.265 -0.1798 -0.1217  0.2248
 2828SOL    HW120120   3.420   3.810  15.326 -2.0490 -2.5070 -0.1639
 2828SOL    HW220121   3.532   3.716  15.326  2.6364  0.8979 -1.1556
 2829SOL     OW20122   1.633   2.556   7.894 -0.1056  0.0458 -0.0148
 2829SOL    HW120123   1.689   2.600   7.831 -0.4944  1.2111  0.4609
 2829SOL    HW220124   1.662   2.593   7.977 -2.1310  1.1992  0.1852
 2830SOL     OW20125   4.344   4.008   4.187 -0.0348  0.0306 -0.1928
 2830SOL    HW120126   4.335   4.082   4.247  0.4165  1.0416 -1.3664
 2830SOL    HW220127   4.436   3.984   4.188  0.1870  0.8921  1.1902
 2831SOL     OW20128   2.952   2.007   6.959 -0.4675 -0.0258 -0.4934
 2831SOL    HW120129   2.869   2.055   6.962  1.1861  2.7847  1.0698
 2831SOL    HW220130   2.926   1.915   6.953  1.6049 -0.7403  1.4569
 2832SOL     OW20131   0.989   2.337   4.842  0.0275  0.2872 -0.3214
 2832SOL    HW120132   1.043   2.375   4.773  1.9767 -2.9525 -0.5931
 2832SOL    HW220133   1.003   2.242   4.833  0.5862  0.3663 -0.2701
 2833SOL     OW20134   1.224   4.278  10.896  0.5827 -0.3915  0.6092
 2833SOL    HW120135   1.315   4.251  10.898  0.2319 -1.6137  0.2075
 2833SOL    HW220136   1.194   4.246  10.982  1.5213  2.5248  2.0127
 2834SOL     OW20137   0.194   2.439   8.583 -0.1547  0.0589 -0.3215
 2834SOL    HW120138   0.118   2.482   8.622 -0.5189  1.3853 -2.5248
 2834SOL    HW220139   0.217   2.377   8.652 -1.0464 -0.5458 -0.5611
 2835SOL     OW20140   2.072   1.550  11.477 -0.2049  0.2293 -0.3558
 2835SOL    HW120141   2.122   1.469  11.486 -1.4878 -0.4734  0.3769
 2835SOL    HW220142   2.003   1.518  11.420 -0.6933  1.6707 -0.5885
 2836SOL     OW20143   4.384   0.417   5.182 -0.0876 -0.6583  0.8550
 2836SOL    HW120144   4.412   0.474   5.109 -0.6523 -1.4712  0.0116
 2836SOL    HW220145   4.415   0.472   5.254  1.5114 -0.2860 -0.1047
 2837SOL     OW20146   4.462   1.959   9.745  0.0624  0.1805  0.6418
 2837SOL    HW120147   4.473   1.865   9.760 -0.1816  0.1174  0.4427
 2837SOL    HW220148   4.367   1.968   9.737  0.0550 -0.4655  0.0457
 2838SOL     OW20149   0.442   3.034   1.972 -0.6303 -0.1384 -0.0625
 2838SOL    HW120150   0.428   3.128   1.981 -0.6564 -0.1579  0.1144
 2838SOL    HW220151   0.358   2.999   2.003 -0.6594 -0.0756 -0.0698
 2839SOL     OW20152   1.891   1.007   8.482 -0.6982  0.0022  0.1753
 2839SOL    HW120153   1.815   0.977   8.532 -0.2296  1.3345  1.6586
 2839SOL    HW220154   1.848   0.997   8.397  0.5890 -1.2311 -0.3413
 2840SOL     OW20155   4.506   1.004  13.721 -0.0859 -0.8429  0.3035
 2840SOL    HW120156   4.512   0.909  13.729  0.8850 -0.7836  0.3020
 2840SOL    HW220157   4.423   1.016  13.676  0.5331 -2.7264 -1.3295
 2841SOL     OW20158   3.560   0.497  12.735  0.1110  1.0861 -0.2645
 2841SOL    HW120159   3.567   0.437  12.810  3.7862 -3.0931 -3.9665
 2841SOL    HW220160   3.558   0.431  12.665 -0.3057  1.1723 -0.3337
 2842SOL     OW20161   3.570   0.526   1.724 -0.4003  0.3538  0.2732
 2842SOL    HW120162   3.626   0.463   1.769  0.2314  0.4309 -0.4032
 2842SOL    HW220163   3.554   0.590   1.794  1.2994  1.3995 -0.2973
 2843SOL     OW20164   2.680   2.101  14.141 -0.8163 -0.5497 -0.2812
 2843SOL    HW120165   2.672   2.086  14.235 -0.5771 -3.0194 -0.6404
 2843SOL    HW220166   2.774   2.105  14.125 -0.9754  1.1526 -0.7681
 2844SOL     OW20167   2.208   4.681   8.642 -0.2745 -0.3630  0.1159
 2844SOL    HW120168   2.251   4.700   8.559  0.3560 -0.2467  0.4650
 2844SOL    HW220169   2.164   0.027   8.662  0.6774  0.0515  0.5202
 2845SOL     OW20170   1.862   0.135   3.535 -1.3317  0.2946  0.5777
 2845SOL    HW120171   1.809   0.200   3.582 -1.2412  0.7116  0.1007
 2845SOL    HW220172   1.885   0.184   3.456 -0.5883  2.2680  2.0073
 2846SOL     OW20173   0.144   3.580   6.999  0.4455 -0.3165 -0.4987
 2846SOL    HW120174   0.115   3.527   6.924  0.8970  0.5738 -1.3069
 2846SOL    HW220175   0.239   3.583   6.986  0.5838  0.1812  0.6798
 2847SOL     OW20176   1.817   2.286   7.116 -0.0768 -0.7285  0.3572
 2847SOL    HW120177   1.782   2.249   7.035 -2.5332 -0.8992  1.4963
 2847SOL    HW220178   1.777   2.373   7.107  0.4985 -0.3347  1.7165
 2848SOL     OW20179   3.860   1.005   6.432  0.4035  0.3428  0.0225
 2848SOL    HW120180   3.804   1.074   6.396 -0.9387 -0.0683  1.3016
 2848SOL    HW220181   3.946   1.046   6.441 -0.0900  1.1109  1.2727
 2849SOL     OW20182   2.921   0.679   2.279  0.0165  0.1783 -0.6275
 2849SOL    HW120183   2.873   0.704   2.200 -0.3148  0.2652 -0.4009
 2849SOL    HW220184   2.871   0.603   2.311 -0.1094  0.8736  0.8128
 2850SOL     OW20185   2.151   3.889   5.325 -0.5492  0.0236  0.1415
 2850SOL    HW120186   2.067   3.924   5.356 -0.8342  0.2379 -0.8640
 2850SOL    HW220187   2.136   3.900   5.231 -3.2873  1.8634  0.7977
 2851SOL     OW20188   3.368   4.475   5.198  0.5194 -0.1428  0.3155
 2851SOL    HW120189   3.446   4.497   5.249  0.5936 -0.2244  0.2360
 2851SOL    HW220190   3.307   4.534   5.242 -0.2399  0.8953 -2.1354
 2852SOL     OW20191   1.907   0.759   1.680 -0.6088 -0.1912  0.2317
 2852SOL    HW120192   1.976   0.781   1.618 -3.2258  3.2236 -1.4490
 2852SOL    HW220193   1.868   0.846   1.689  0.1918  0.5266 -3.2395
 2853SOL     OW20194   3.343   3.717   3.036  0.0836  0.2801  0.3366
 2853SOL    HW120195   3.370   3.734   2.945 -0.0937  1.4157  0.4953
 2853SOL    HW220196   3.340   3.621   3.029  1.2672  0.1522  1.5797
 2854SOL     OW20197   2.374   3.757   4.230 -0.2302 -0.0496  0.5905
 2854SOL    HW120198   2.320   3.737   4.307 -1.4207  1.6648  0.1944
 2854SOL    HW220199   2.440   3.817   4.264 -0.8905  0.4452  0.9958
 2855SOL     OW20200   1.075   3.262   2.825  0.4623  0.1508 -0.3942
 2855SOL    HW120201   1.065   3.301   2.912  1.0420  0.0248 -0.2745
 2855SOL    HW220202   1.072   3.168   2.839 -1.9786  0.3201  0.2370
 2856SOL     OW20203   0.644   3.170   5.156  0.1811 -0.0636  0.5596
 2856SOL    HW120204   0.685   3.221   5.086  0.5936 -1.6412 -0.3414
 2856SOL    HW220205   0.597   3.232   5.212  1.1359  2.2527 -1.1845
 2857SOL     OW20206   0.513   2.166   3.115  0.5553  0.2552  0.7827
 2857SOL    HW120207   0.520   2.112   3.193 -3.9836 -1.9035 -0.3509
 2857SOL    HW220208   0.527   2.249   3.161  2.9359 -0.2593  0.9972
 2858SOL     OW20209   2.779   4.142   5.011  0.1023 -0.4638  0.3349
 2858SOL    HW120210   2.855   4.199   5.016  0.6529 -1.1350 -0.4333
 2858SOL    HW220211   2.747   4.149   5.101 -1.2141 -0.3627 -0.1349
 2859SOL     OW20212   3.773   4.578   2.604 -0.4933 -0.3306 -0.1151
 2859SOL    HW120213   3.794   4.655   2.657 -1.3916 -0.6108  0.6394
 2859SOL    HW220214   3.784   4.613   2.516  0.1302 -3.0313 -1.1001
 2860SOL     OW20215   1.193   4.473   4.239  0.1392 -0.0820  0.1726
 2860SOL    HW120216   1.136   4.475   4.316  0.3252 -1.1521  0.3475
 2860SOL    HW220217   1.240   4.390   4.244  0.6416  0.3308  2.2569
 2861SOL     OW20218   1.114   3.297   3.403  0.6780  0.8865 -0.7579
 2861SOL    HW120219   1.052   3.361   3.368 -0.7302 -0.1277 -0.1182
 2861SOL    HW220220   1.123   3.314   3.497 -3.3032 -0.2049 -0.2233
 2862SOL     OW20221   0.775   1.242   3.430 -0.2714  0.3242  0.3220
 2862SOL    HW120222   0.795   1.335   3.443 -2.9969  0.8326  0.8879
 2862SOL    HW220223   0.844   1.218   3.368 -0.7022 -0.1212  0.0259
 2863SOL     OW20224   0.460   1.670   8.691  0.0242  0.2107 -0.6051
 2863SOL    HW120225   0.511   1.696   8.614  2.8186 -0.3844  1.0557
 2863SOL    HW220226   0.372   1.650   8.658 -0.1180 -0.4762  0.2020
 2864SOL     OW20227   0.980   1.810   1.196  0.0051  0.2763  0.6164
 2864SOL    HW120228   1.039   1.826   1.122 -1.5094 -1.4401 -0.9745
 2864SOL    HW220229   0.921   1.746   1.157  1.3097 -0.1718 -0.6243
 2865SOL     OW20230   3.140   1.999   7.328 -0.1246  0.0800 -0.1972
 2865SOL    HW120231   3.053   2.021   7.294 -0.4782  1.9937  1.8636
 2865SOL    HW220232   3.194   2.061   7.280 -0.5190 -0.2798 -1.1020
 2866SOL     OW20233   0.283   0.821  13.451 -0.0837 -0.8579 -0.4562
 2866SOL    HW120234   0.378   0.823  13.464 -0.1243 -2.4318  0.1570
 2866SOL    HW220235   0.248   0.906  13.477  2.2882 -0.6059  1.9270
 2867SOL     OW20236   1.691   2.026   2.960 -0.0054  0.0619 -0.5585
 2867SOL    HW120237   1.700   1.931   2.947 -1.4766 -0.0960 -0.4248
 2867SOL    HW220238   1.759   2.045   3.023 -0.2499 -1.6506  0.2135
 2868SOL     OW20239   3.498   1.630  12.972  0.6297 -0.9610 -0.5931
 2868SOL    HW120240   3.414   1.587  12.964  1.1893 -1.7676 -2.1605
 2868SOL    HW220241   3.528   1.638  12.881 -1.7214  0.8431 -1.2204
 2869SOL     OW20242   1.149   0.357   9.985  0.3003 -0.2618  0.5562
 2869SOL    HW120243   1.238   0.392   9.989  0.0973  0.2308  0.7688
 2869SOL    HW220244   1.096   0.437   9.990  0.3416 -0.1371 -1.0417
 2870SOL     OW20245   2.912   3.750   2.232 -0.6890 -0.0161 -0.4748
 2870SOL    HW120246   2.947   3.836   2.209  0.9082  0.1087  2.3256
 2870SOL    HW220247   2.894   3.759   2.326 -3.2013  0.3080 -0.9813
 2871SOL     OW20248   3.856   2.419  12.200 -0.3872  0.1292  0.2371
 2871SOL    HW120249   3.794   2.347  12.203 -0.2588 -0.1165 -2.7718
 2871SOL    HW220250   3.792   2.477  12.160  0.8489  2.1152  1.1028
 2872SOL     OW20251   0.156   1.548  12.162 -0.2040  0.3867  0.0244
 2872SOL    HW120252   0.148   1.643  12.164  1.1142  0.5272 -2.2618
 2872SOL    HW220253   0.136   1.521  12.252 -1.5518  2.1485  0.2578
 2873SOL     OW20254   1.994   0.050  13.883  0.1897  0.3522 -0.2420
 2873SOL    HW120255   1.980   0.012  13.970 -2.0502  3.2542  0.6491
 2873SOL    HW220256   2.088   0.070  13.890 -0.0686  1.5555 -0.0991
 2874SOL     OW20257   1.250   3.658   7.066  0.1640  0.2497  0.6567
 2874SOL    HW120258   1.184   3.615   7.119  0.5925 -0.0647  0.9388
 2874SOL    HW220259   1.330   3.648   7.119  0.0568 -2.6170  0.3013
 2875SOL     OW20260   4.639   3.502   6.560  0.3739  0.0835  0.2534
 2875SOL    HW120261   4.546   3.480   6.572  0.5084 -1.1862 -1.1218
 2875SOL    HW220262   4.637   3.596   6.580 -1.6383  0.3334 -1.1372
 2876SOL     OW20263   3.084   3.714   4.105 -0.5046  0.2579 -0.0236
 2876SOL    HW120264   3.169   3.753   4.084 -0.2271 -0.9812 -1.2251
 2876SOL    HW220265   3.028   3.768   4.048  1.2182 -0.2576 -2.2320
 2877SOL     OW20266   3.090   3.310   2.348 -0.5117  0.3965  0.2034
 2877SOL    HW120267   3.016   3.357   2.310  0.0581  2.5000  1.6427
 2877SOL    HW220268   3.160   3.376   2.345  1.9712 -2.3760 -2.6354
 2878SOL     OW20269   3.672   1.684   7.371  0.6683 -0.0638 -0.4695
 2878SOL    HW120270   3.601   1.639   7.325  0.6763 -0.7236  0.1611
 2878SOL    HW220271   3.740   1.616   7.376 -0.0747 -0.6953  1.0810
 2879SOL     OW20272   4.627   2.961  14.015 -0.2788  0.2265 -0.0717
 2879SOL    HW120273   4.715   2.924  14.020 -1.4702 -2.4823  1.1510
 2879SOL    HW220274   4.609   2.926  14.102  0.2255  0.7996  0.2673
 2880SOL     OW20275   3.501   1.266   7.349 -0.6408 -0.0807 -0.4620
 2880SOL    HW120276   3.478   1.183   7.390 -0.3988 -1.2605 -2.7206
 2880SOL    HW220277   3.502   1.322   7.427  0.8645  0.6576 -1.0027
 2881SOL     OW20278   1.943   3.619   6.348  0.4029  0.0010  0.9205
 2881SOL    HW120279   1.926   3.707   6.316  0.1493 -0.1189  0.7302
 2881SOL    HW220280   2.030   3.630   6.387 -0.1207 -0.4368  2.2248
 2882SOL     OW20281   3.477   4.410   3.602 -0.0213  0.6189  0.0290
 2882SOL    HW120282   3.461   4.316   3.597  4.0929 -0.0507 -0.5139
 2882SOL    HW220283   3.555   4.415   3.547  0.6350 -0.3838  0.8660
 2883SOL     OW20284   4.480   3.679   2.396 -0.2594 -0.1105 -0.3970
 2883SOL    HW120285   4.405   3.739   2.389 -0.6554 -0.6746 -1.0705
 2883SOL    HW220286   4.457   3.589   2.370  1.1953 -0.7741  0.6567
 2884SOL     OW20287   2.705   0.613   5.127 -0.2383 -0.5768  0.0479
 2884SOL    HW120288   2.775   0.617   5.062 -1.9117 -2.1355 -1.8520
 2884SOL    HW220289   2.622   0.613   5.080  0.1375 -2.3795 -0.6186
 2885SOL     OW20290   1.183   4.727   4.789  0.4938 -0.5994  0.4440
 2885SOL    HW120291   1.269   0.004   4.828 -0.2327 -0.4200  2.0013
 2885SOL    HW220292   1.201   0.016   4.699  0.7806 -0.0459  0.6671
 2886SOL     OW20293   4.717   1.693   5.827  0.2298 -0.4772  0.0998
 2886SOL    HW120294   4.627   1.715   5.850 -0.0042 -0.6299 -0.6833
 2886SOL    HW220295   4.722   1.726   5.737  1.8115  0.8877  0.6832
 2887SOL     OW20296   0.279   3.767   1.447  0.2351 -0.3330  0.0097
 2887SOL    HW120297   0.274   3.672   1.457 -3.1188 -0.1668 -0.0997
 2887SOL    HW220298   0.226   3.787   1.369  0.1629 -1.4962 -0.2341
 2888SOL     OW20299   4.181   4.357  12.302 -0.2127  0.4819 -0.4555
 2888SOL    HW120300   4.224   4.386  12.382  0.6813 -1.0231 -0.3950
 2888SOL    HW220301   4.109   4.420  12.296  0.3846  1.4598  2.9508
 2889SOL     OW20302   0.778   2.830   6.283  0.1866 -0.0618 -0.2224
 2889SOL    HW120303   0.702   2.806   6.229  0.2115  0.1330 -0.3458
 2889SOL    HW220304   0.744   2.821   6.372 -0.4027  1.8549 -0.2560
 2890SOL     OW20305   1.462   3.770   7.519  0.0696 -0.5902  0.1213
 2890SOL    HW120306   1.552   3.803   7.525  0.0013 -0.5336  0.8085
 2890SOL    HW220307   1.416   3.840   7.566 -0.7877  0.0509 -1.6685
 2891SOL     OW20308   1.149   2.133   9.452 -0.4238  0.4928  0.1574
 2891SOL    HW120309   1.199   2.199   9.404 -0.0544  0.4669  0.5103
 2891SOL    HW220310   1.075   2.116   9.393 -0.4249 -2.1539  0.9197
 2892SOL     OW20311   4.303   3.813   5.064 -0.0568 -0.8559 -0.3818
 2892SOL    HW120312   4.315   3.811   5.159 -0.2505 -1.7023 -0.3786
 2892SOL    HW220313   4.393   3.845   5.060 -0.3408 -0.1243 -1.0274
 2893SOL     OW20314   3.353   2.256   5.149 -0.5867  0.8375  0.7834
 2893SOL    HW120315   3.371   2.165   5.127  0.8108  1.3232 -0.1066
 2893SOL    HW220316   3.400   2.263   5.232  0.1968 -0.1272  0.4240
 2894SOL     OW20317   2.027   1.134   3.764 -0.4893  0.5494  0.1833
 2894SOL    HW120318   2.088   1.208   3.766  1.6726 -1.2263  0.3905
 2894SOL    HW220319   1.940   1.174   3.764 -0.4142  0.6813 -3.4037
 2895SOL     OW20320   0.660   2.897   2.077 -0.6102  0.0161  0.3455
 2895SOL    HW120321   0.620   2.874   2.161  2.3837 -2.0303  1.2240
 2895SOL    HW220322   0.587   2.937   2.029  1.4847  1.4915 -1.5974
 2896SOL     OW20323   2.847   2.718  13.730  0.1914 -0.0272  0.4818
 2896SOL    HW120324   2.760   2.690  13.700  0.2879  0.1899  0.0143
 2896SOL    HW220325   2.850   2.811  13.705  1.1967 -0.4815 -1.0273
 2897SOL     OW20326   4.115   1.117   5.601 -0.1103  0.0666  0.2264
 2897SOL    HW120327   4.162   1.180   5.546  0.9695  0.2673  1.3830
 2897SOL    HW220328   4.130   1.034   5.556 -0.9983  0.4384 -0.7583
 2898SOL     OW20329   0.090   2.558  13.236  0.4137  0.0872  0.4348
 2898SOL    HW120330   0.001   2.594  13.238  0.4316  0.0086  2.9519
 2898SOL    HW220331   0.122   2.576  13.324 -2.0210  2.1968  0.8768
 2899SOL     OW20332   2.179   2.100   9.405  0.0884  0.1807 -0.0075
 2899SOL    HW120333   2.267   2.075   9.432  0.3467  0.5544 -0.5028
 2899SOL    HW220334   2.152   2.151   9.482  0.6505 -1.5455  1.3508
 2900SOL     OW20335   1.290   0.372   6.830 -0.5702  0.1605 -0.0886
 2900SOL    HW120336   1.250   0.398   6.747 -0.4036 -2.7284 -1.1031
 2900SOL    HW220337   1.338   0.299   6.790  1.5305  1.7056 -0.4243
 2901SOL     OW20338   2.400   2.621   5.843 -0.6396  0.1453 -0.7450
 2901SOL    HW120339   2.420   2.651   5.754 -0.7192 -0.4166 -0.9512
 2901SOL    HW220340   2.360   2.537   5.820  3.0923 -1.2574 -2.1739
 2902SOL     OW20341   3.167   1.529   4.173 -0.5759  0.3313 -0.0854
 2902SOL    HW120342   3.207   1.469   4.110 -0.0565  1.2743 -0.6492
 2902SOL    HW220343   3.216   1.608   4.155 -0.0193  0.1895  0.8004
 2903SOL     OW20344   2.288   4.492   1.608 -0.3213  0.0670 -0.1841
 2903SOL    HW120345   2.216   4.545   1.642 -0.4326  0.9081 -1.7398
 2903SOL    HW220346   2.249   4.405   1.609  0.7020 -0.3908  0.3305
 2904SOL     OW20347   2.493   3.203   6.856  0.3481 -0.3447 -0.1477
 2904SOL    HW120348   2.548   3.241   6.925  0.4323  0.1692 -0.4971
 2904SOL    HW220349   2.549   3.201   6.779  0.0486 -0.8079 -0.3534
 2905SOL     OW20350   0.256   1.433   1.273 -0.2219 -0.1877 -0.3595
 2905SOL    HW120351   0.217   1.505   1.223  1.5472 -0.4730 -2.1610
 2905SOL    HW220352   0.211   1.437   1.357  0.9547  1.7893  0.1452
 2906SOL     OW20353   3.018   3.913   5.109  0.3176 -0.0707  0.0534
 2906SOL    HW120354   2.953   3.942   5.046  0.9173 -0.9170 -0.9750
 2906SOL    HW220355   3.079   3.866   5.051 -1.5600 -1.0582 -1.1028
 2907SOL     OW20356   2.831   4.717   8.979  0.3228  0.2684 -0.0009
 2907SOL    HW120357   2.915   4.690   9.016  1.7066 -0.2314 -3.4373
 2907SOL    HW220358   2.778   4.646   9.014  3.0525 -1.5808  0.4194
 2908SOL     OW20359   4.176   3.611   4.555  0.1562 -0.1892  0.3801
 2908SOL    HW120360   4.196   3.661   4.634  1.0998 -2.1765  1.4126
 2908SOL    HW220361   4.123   3.677   4.511 -0.3095 -0.7486  0.1021
 2909SOL     OW20362   4.358   3.676  10.420 -0.2029 -0.2189 -0.3411
 2909SOL    HW120363   4.293   3.692  10.351  0.3388 -1.7449 -1.2114
 2909SOL    HW220364   4.411   3.610  10.375  0.2077  0.7992 -1.3610
 2910SOL     OW20365   1.309   1.812   2.815  0.1531  0.7966  0.0780
 2910SOL    HW120366   1.289   1.852   2.730  3.3375 -0.0533 -1.0434
 2910SOL    HW220367   1.303   1.723   2.781  0.6431  0.7009  0.2405
 2911SOL     OW20368   1.452   2.128   5.465 -0.0633 -0.0129 -0.0643
 2911SOL    HW120369   1.388   2.168   5.524 -0.4205 -0.8699  0.1339
 2911SOL    HW220370   1.466   2.197   5.400  2.0493 -2.6022 -2.3582
 2912SOL     OW20371   0.789   1.768   0.974 -0.8055  0.6966 -0.3884
 2912SOL    HW120372   0.736   1.742   1.050  1.9107  4.1391  2.6675
 2912SOL    HW220373   0.798   1.861   0.994 -2.9859  0.5019  1.6317
 2913SOL     OW20374   1.292   0.594   4.150  0.5755 -0.6085 -0.6347
 2913SOL    HW120375   1.210   0.559   4.186  0.5929 -0.5415 -0.5287
 2913SOL    HW220376   1.327   0.531   4.087  0.2826  0.6953 -2.0960
 2914SOL     OW20377   0.161   1.384   4.043  0.7275  0.0027 -0.5811
 2914SOL    HW120378   0.206   1.435   4.110 -1.7861 -2.5844  3.1199
 2914SOL    HW220379   0.112   1.458   4.007  0.7578 -0.6250 -1.9202
 2915SOL     OW20380   0.654   0.969   2.185  0.3288 -0.4296 -0.7367
 2915SOL    HW120381   0.726   1.028   2.161 -0.3709  1.4621  1.8085
 2915SOL    HW220382   0.642   0.971   2.280  2.6217 -0.8029 -0.4234
 2916SOL     OW20383   4.702   1.569   7.840 -0.0757 -0.2647  0.4239
 2916SOL    HW120384   4.651   1.521   7.774  0.2702 -2.1434  1.5280
 2916SOL    HW220385   0.025   1.499   7.864  1.0441  0.8146  0.7884
 2917SOL     OW20386   3.591   2.328   3.528 -0.3826  0.4856  0.6105
 2917SOL    HW120387   3.515   2.270   3.531  0.9244 -1.1031  2.2547
 2917SOL    HW220388   3.627   2.332   3.439  0.3166  2.1499  0.9557
 2918SOL     OW20389   1.006   0.594   8.552 -0.6618 -0.0968  0.1128
 2918SOL    HW120390   0.962   0.544   8.485  1.1032 -0.5112 -0.7436
 2918SOL    HW220391   1.067   0.644   8.497  0.3281 -0.0102  1.2647
 2919SOL     OW20392   0.581   4.222   8.126 -0.2473 -0.1658  0.1368
 2919SOL    HW120393   0.558   4.192   8.214  0.6280  1.2733  0.8661
 2919SOL    HW220394   0.662   4.272   8.138 -2.8633  3.6615  1.9729
 2920SOL     OW20395   1.012   4.545   8.793  0.7048 -0.1825  0.0767
 2920SOL    HW120396   0.958   4.623   8.799  0.9875  0.1940 -2.1347
 2920SOL    HW220397   1.101   4.578   8.778 -0.0110  1.7239  0.0878
 2921SOL     OW20398   2.568   2.936  13.811  0.2753 -0.7248  0.4205
 2921SOL    HW120399   2.482   2.918  13.774  0.3714  0.6164 -0.4564
 2921SOL    HW220400   2.611   2.943  13.726 -0.8111  0.3473 -0.0375
 2922SOL     OW20401   1.823   3.867  14.782 -0.3150 -0.3795  0.0750
 2922SOL    HW120402   1.858   3.810  14.850 -2.2792 -1.4160  0.2089
 2922SOL    HW220403   1.734   3.857  14.815 -1.2730 -0.2689 -2.4403
 2923SOL     OW20404   4.164   1.335   6.160  0.8214 -0.6365  0.6375
 2923SOL    HW120405   4.223   1.401   6.197  1.2351 -1.2345  1.0575
 2923SOL    HW220406   4.156   1.279   6.237  0.1033 -0.9671  0.3263
 2924SOL     OW20407   0.729   2.836   7.607 -0.4921  0.3850 -0.8468
 2924SOL    HW120408   0.676   2.831   7.687 -0.4045 -0.3458 -0.8263
 2924SOL    HW220409   0.768   2.923   7.612  0.9207 -0.3767  1.4719
 2925SOL     OW20410   0.305   0.738   2.785 -0.1096  0.4028  0.8734
 2925SOL    HW120411   0.295   0.645   2.807 -1.3327  0.3600  0.1103
 2925SOL    HW220412   0.261   0.772   2.863 -1.3386  1.5685 -0.3365
 2926SOL     OW20413   1.844   2.698   9.320 -0.1140 -0.0601 -0.3228
 2926SOL    HW120414   1.930   2.739   9.318 -0.4812  0.7987  1.2658
 2926SOL    HW220415   1.878   2.610   9.334  0.3719  0.6108  2.7732
 2927SOL     OW20416   4.224   1.684   3.743 -0.4267 -0.3972 -0.4822
 2927SOL    HW120417   4.164   1.756   3.723  1.0237  0.1998 -2.7199
 2927SOL    HW220418   4.311   1.722   3.756 -1.0435  0.5734  0.8431
 2928SOL     OW20419   0.447   1.952   2.930  0.4690 -0.1488 -0.2015
 2928SOL    HW120420   0.506   1.877   2.918  0.2457 -0.4587  0.6430
 2928SOL    HW220421   0.501   2.011   2.982  1.0325 -2.1609  1.4938
 2929SOL     OW20422   2.975   3.479  14.902  0.5447  0.0840 -0.5533
 2929SOL    HW120423   3.017   3.548  14.954 -1.2839  1.4969 -0.9510
 2929SOL    HW220424   2.890   3.518  14.881  0.4763 -0.5800 -1.5204
 2930SOL     OW20425   3.273   3.241  15.075  0.5696 -0.2293  0.5402
 2930SOL    HW120426   3.330   3.311  15.042 -0.3959 -0.9873 -2.7303
 2930SOL    HW220427   3.237   3.281  15.154 -0.4640 -0.0165 -0.0432
 2931SOL     OW20428   3.937   3.324  17.291  0.0956 -0.5641  0.2570
 2931SOL    HW120429   3.891   3.321  17.207 -1.4635  1.5072  1.0129
 2931SOL    HW220430   3.880   3.266  17.342 -1.7989 -0.7533 -2.0690
 2932SOL     OW20431   0.988   3.187   8.796 -0.4032  0.2555 -0.7480
 2932SOL    HW120432   0.961   3.225   8.712 -0.8293  1.5075 -0.0319
 2932SOL    HW220433   0.902   3.201   8.837 -0.1254  0.9239 -0.4090
 2933SOL     OW20434   4.035   0.192  14.665 -0.0627 -0.6300  0.2197
 2933SOL    HW120435   4.061   0.157  14.750  0.2242  1.5682  1.0282
 2933SOL    HW220436   3.983   0.120  14.628 -0.8275 -0.0896  0.2449
 2934SOL     OW20437   0.396   0.307  12.795 -0.6781  0.0473  0.1292
 2934SOL    HW120438   0.433   0.361  12.865 -1.0825  3.1525 -2.0752
 2934SOL    HW220439   0.309   0.287  12.829 -0.2573  0.0722  1.2327
 2935SOL     OW20440   4.567   0.091   3.668 -0.1869  0.5063 -0.1334
 2935SOL    HW120441   4.575   4.735   3.690 -1.7633  0.5224  0.4947
 2935SOL    HW220442   4.610   0.125   3.747 -0.4470 -2.5902  1.3616
 2936SOL     OW20443   3.789   1.303   3.965 -0.3624  0.4252 -0.6631
 2936SOL    HW120444   3.736   1.236   3.921 -0.5184 -1.2997  2.2030
 2936SOL    HW220445   3.715   1.357   3.994 -0.0942  0.7218 -0.5332
 2937SOL     OW20446   3.175   4.354   6.981 -0.0656  0.2184  0.1198
 2937SOL    HW120447   3.245   4.412   7.011 -1.3270  2.1250 -0.5780
 2937SOL    HW220448   3.201   4.278   7.033  1.3062 -0.3800 -1.4571
 2938SOL     OW20449   4.060   4.144   7.853  0.2314 -0.4690  0.3130
 2938SOL    HW120450   4.040   4.190   7.934  1.7319  0.4901  0.1338
 2938SOL    HW220451   4.124   4.196   7.804  1.1013 -0.1600  1.7839
 2939SOL     OW20452   3.479   3.788  12.068  0.3568 -0.8867 -0.0149
 2939SOL    HW120453   3.455   3.740  11.988 -0.8485  0.8386 -0.6826
 2939SOL    HW220454   3.526   3.721  12.118  2.4494  1.7066  1.5048
 2940SOL     OW20455   1.274   3.292   7.259 -0.1544 -0.1221  0.1601
 2940SOL    HW120456   1.301   3.204   7.287  1.0554  0.3179  0.3616
 2940SOL    HW220457   1.319   3.350   7.320 -1.9994  2.4326 -0.9116
 2941SOL     OW20458   0.831   1.713   4.737 -0.4355 -0.0231  0.3183
 2941SOL    HW120459   0.849   1.801   4.705 -3.1014  0.6067  0.5955
 2941SOL    HW220460   0.805   1.672   4.655  0.7225 -2.1077  0.9900
 2942SOL     OW20461   4.278   3.319   1.058 -0.5066 -0.4902  0.0301
 2942SOL    HW120462   4.310   3.256   0.994 -0.7727 -1.7441  1.1408
 2942SOL    HW220463   4.195   3.272   1.065 -1.1837  0.9176  1.4896
 2943SOL     OW20464   4.444   0.761  12.397  0.1671 -0.8413  0.5760
 2943SOL    HW120465   4.418   0.850  12.422  0.9398 -0.4057 -0.2060
 2943SOL    HW220466   4.503   0.740  12.470  0.5373 -1.8107 -0.0049
 2944SOL     OW20467   3.009   1.036   8.657 -0.4868 -0.2466 -0.5376
 2944SOL    HW120468   2.980   0.995   8.576 -0.7059 -1.1160 -0.0155
 2944SOL    HW220469   3.064   0.973   8.703  0.4932  0.2255 -1.0701
 2945SOL     OW20470   2.056   3.573   8.189 -0.1552  0.6993  0.2641
 2945SOL    HW120471   2.068   3.666   8.166  2.0972  0.1750 -0.7067
 2945SOL    HW220472   2.112   3.527   8.126  1.5777  0.9729  1.6161
 2946SOL     OW20473   3.264   0.009   2.226 -0.8163 -0.6292  0.0083
 2946SOL    HW120474   3.202   4.694   2.277  0.5668 -1.6132  0.7231
 2946SOL    HW220475   3.219   0.092   2.215 -0.4542 -0.2966  1.0243
 2947SOL     OW20476   1.671   3.561   4.510  0.4433  0.0899  0.1171
 2947SOL    HW120477   1.665   3.619   4.434 -1.1345  0.1371  0.2855
 2947SOL    HW220478   1.764   3.577   4.528  0.4896  0.1751 -0.1868
 2948SOL     OW20479   2.680   3.388   8.397 -0.3259  0.0246  0.1937
 2948SOL    HW120480   2.739   3.367   8.469 -0.2252  2.9409  0.9574
 2948SOL    HW220481   2.672   3.482   8.414  1.2422  0.1487  0.1973
 2949SOL     OW20482   0.725   1.376   9.772 -0.0349  0.4344  0.4105
 2949SOL    HW120483   0.786   1.412   9.708 -0.0049 -0.5508 -0.1182
 2949SOL    HW220484   0.782   1.345   9.842  1.2963  0.1236 -0.8148
 2950SOL     OW20485   4.436   2.310   6.750 -0.2649  0.7847 -0.0390
 2950SOL    HW120486   4.421   2.346   6.837 -0.5686 -0.5794  0.4773
 2950SOL    HW220487   4.528   2.284   6.755 -0.2505  0.9009  0.2991
 2951SOL     OW20488   3.971   0.481  17.544 -0.4398  0.0086  0.1727
 2951SOL    HW120489   3.905   0.411  17.541  1.3611 -1.6056 -2.0118
 2951SOL    HW220490   4.051   0.436  17.518 -0.6478 -1.1772  1.5519
 2952SOL     OW20491   0.397   0.134   6.692 -0.2123 -0.3353 -0.4114
 2952SOL    HW120492   0.446   0.206   6.731  0.8878 -1.3008 -0.0257
 2952SOL    HW220493   0.466   0.075   6.662  0.0271 -0.1917 -0.1415
 2953SOL     OW20494   1.834   2.130   1.990  0.4937 -0.0275  0.5643
 2953SOL    HW120495   1.859   2.174   2.072 -0.3262 -1.4412  1.5795
 2953SOL    HW220496   1.778   2.199   1.955  1.6947 -0.6206 -2.5057
 2954SOL     OW20497   2.581   4.300   5.527  0.2700 -0.3060  0.5613
 2954SOL    HW120498   2.536   4.328   5.448  2.2805 -1.0507 -0.8537
 2954SOL    HW220499   2.595   4.385   5.569 -2.8305 -0.1977  1.3092
 2955SOL     OW20500   4.673   4.698  17.619 -0.0949  0.1624  0.1998
 2955SOL    HW120501   4.659   0.048  17.583 -1.0889 -0.0910 -0.0273
 2955SOL    HW220502   0.024   4.706  17.656  1.1576 -1.0703 -2.4311
 2956SOL     OW20503   1.272   3.386   9.144  0.3043 -0.0415  0.0056
 2956SOL    HW120504   1.266   3.310   9.085  0.8927  0.8739 -1.2380
 2956SOL    HW220505   1.189   3.382   9.191  1.4867  0.1657  2.0921
 2957SOL     OW20506   2.919   3.546   2.824  0.0622 -0.0902 -0.0925
 2957SOL    HW120507   2.965   3.625   2.851 -0.5113  0.2134 -0.0162
 2957SOL    HW220508   2.868   3.527   2.903  0.0922  1.1819  0.2211
 2958SOL     OW20509   0.618   4.366   9.093  0.3453 -0.3996  0.0496
 2958SOL    HW120510   0.709   4.366   9.064  0.4566  0.2154  0.4115
 2958SOL    HW220511   0.596   4.275   9.072  0.4163 -0.3308 -0.3165
 2959SOL     OW20512   2.165   2.503   4.823 -0.0112  0.1435  0.6028
 2959SOL    HW120513   2.260   2.512   4.816 -0.1387  1.4463  0.5129
 2959SOL    HW220514   2.151   2.412   4.847  1.2465 -0.5606 -1.2534
 2960SOL     OW20515   4.434   2.445   7.558 -0.3563 -0.3340 -0.2194
 2960SOL    HW120516   4.346   2.468   7.528 -0.8151 -1.7343  0.0594
 2960SOL    HW220517   4.418   2.433   7.652  0.3019  0.9213  0.0460
 2961SOL     OW20518   4.370   4.116   6.343  0.4584  0.2712 -0.3781
 2961SOL    HW120519   4.451   4.072   6.317 -0.1615 -0.8118 -0.4731
 2961SOL    HW220520   4.315   4.096   6.267 -0.2755  2.9060 -0.5453
 2962SOL     OW20521   4.452   2.212   5.534 -0.3276  0.0981  0.8138
 2962SOL    HW120522   4.395   2.288   5.549  0.9987  1.5395 -1.2891
 2962SOL    HW220523   4.422   2.161   5.608  2.2166  0.5263  2.1243
 2963SOL     OW20524   1.398   2.004   3.329  0.0196  0.2075  0.0549
 2963SOL    HW120525   1.394   1.911   3.305  4.3047 -0.4432  1.8797
 2963SOL    HW220526   1.360   2.053   3.256 -0.0460  1.9815  1.3091
 2964SOL     OW20527   0.209   0.797  13.768  0.0464  0.1673 -0.1559
 2964SOL    HW120528   0.291   0.838  13.796 -0.6413 -0.1939  2.3615
 2964SOL    HW220529   0.159   0.874  13.742 -1.2843 -0.7543 -0.2788
 2965SOL     OW20530   0.599   2.212   0.025  0.1554 -0.1192 -0.2989
 2965SOL    HW120531   0.586   2.158   0.102 -2.2034 -0.1528 -0.7015
 2965SOL    HW220532   0.694   2.208   0.017  0.2268 -0.4006  0.8308
 2966SOL     OW20533   2.188   0.234   5.940 -0.2574 -0.1300  0.3420
 2966SOL    HW120534   2.151   0.319   5.918  1.7347  0.2782 -1.4609
 2966SOL    HW220535   2.137   0.175   5.885  0.1330  0.1067 -0.2803
 2967SOL     OW20536   1.317   0.099   0.538 -0.3105  0.0717 -0.2751
 2967SOL    HW120537   1.320   0.069   0.629 -0.1585  1.3280  0.1287
 2967SOL    HW220538   1.299   0.193   0.543 -0.2802  0.0671 -0.1088
 2968SOL     OW20539   3.252   4.475   2.919 -0.2563  0.2459 -0.4259
 2968SOL    HW120540   3.309   4.507   2.989  1.9354 -1.4718 -1.4649
 2968SOL    HW220541   3.194   4.552   2.914  0.3959  0.7046 -0.9153
 2969SOL     OW20542   3.538   0.322  17.587 -0.3300 -0.1206 -0.4619
 2969SOL    HW120543   3.473   0.256  17.610  0.6685 -0.2701  1.9711
 2969SOL    HW220544   3.507   0.402  17.631 -1.3904 -0.5735 -0.3956
 2970SOL     OW20545   4.380   2.950  10.559 -0.2299  0.1716 -0.1415
 2970SOL    HW120546   4.437   2.902  10.499  0.2340  0.4026  0.1188
 2970SOL    HW220547   4.404   2.909  10.642  0.1828  0.4650 -0.1197
 2971SOL     OW20548   3.787   2.373   2.047  0.2522 -0.6016  0.4668
 2971SOL    HW120549   3.812   2.446   2.102 -4.2608  1.7550 -0.5677
 2971SOL    HW220550   3.875   2.339   2.032  0.4192  0.7912 -1.7282
 2972SOL     OW20551   0.721   1.001   0.570  0.1716 -0.2571  0.0364
 2972SOL    HW120552   0.809   1.028   0.595  0.8392 -1.3003 -1.1128
 2972SOL    HW220553   0.699   0.954   0.650  1.2334  1.8275  1.5408
 2973SOL     OW20554   1.703   3.682   2.334  0.0182 -0.3123 -0.2401
 2973SOL    HW120555   1.734   3.765   2.298  0.7916 -0.1331  0.8199
 2973SOL    HW220556   1.737   3.630   2.261  1.1499 -0.4533  0.3809
 2974SOL     OW20557   0.656   3.637   6.063 -0.2353  0.8889 -0.4716
 2974SOL    HW120558   0.741   3.603   6.033  0.0651 -1.0546  2.6389
 2974SOL    HW220559   0.633   3.708   6.002 -0.9069  0.0718 -1.1597
 2975SOL     OW20560   2.315   2.931   7.879  0.4075  0.6782  0.5053
 2975SOL    HW120561   2.227   2.936   7.843  0.4861  0.3257  0.2639
 2975SOL    HW220562   2.365   2.891   7.808  0.7730  0.6510  0.7732
 2976SOL     OW20563   4.184   3.495   6.086  0.4180 -0.0674 -0.1450
 2976SOL    HW120564   4.255   3.433   6.103  0.5713 -0.2605 -1.4887
 2976SOL    HW220565   4.108   3.438   6.096 -0.1652  0.3884 -1.9676
 2977SOL     OW20566   3.633   0.716   8.534  0.2325 -0.2989  0.3330
 2977SOL    HW120567   3.676   0.676   8.610  2.2674  0.1504 -0.6010
 2977SOL    HW220568   3.583   0.639   8.505  0.1333 -0.0781 -0.0829
 2978SOL     OW20569   2.754   1.454   2.163 -0.2836  0.5617 -0.1319
 2978SOL    HW120570   2.839   1.450   2.118 -1.3293 -1.3669 -1.9561
 2978SOL    HW220571   2.688   1.481   2.099 -0.3340  0.4888 -0.1111
 2979SOL     OW20572   2.179   4.541  10.327  0.2464  0.2189 -0.2779
 2979SOL    HW120573   2.106   4.536  10.265  0.0833 -0.7348 -0.0059
 2979SOL    HW220574   2.141   4.574  10.408 -1.8120  0.4493 -1.3393
 2980SOL     OW20575   4.581   2.075   8.437 -0.1349 -0.5053 -0.1564
 2980SOL    HW120576   4.499   2.079   8.388 -0.5196  1.1369  0.6284
 2980SOL    HW220577   4.591   2.166   8.464  0.2296 -0.3175 -0.9196
 2981SOL     OW20578   3.151   4.350   5.827 -0.1759 -0.5528  0.7189
 2981SOL    HW120579   3.194   4.311   5.751 -1.0897 -1.3591  0.6147
 2981SOL    HW220580   3.152   4.439   5.793 -0.9526  0.3062  2.9535
 2982SOL     OW20581   1.041   1.346   3.997  0.2501  0.0175  0.6412
 2982SOL    HW120582   1.038   1.369   4.090  2.0740  0.6659  0.5433
 2982SOL    HW220583   0.999   1.260   3.998  0.5363 -0.1386 -0.5454
 2983SOL     OW20584   0.379   4.382  16.697  0.2346 -0.4563 -0.0560
 2983SOL    HW120585   0.358   4.431  16.776 -2.4858  0.1479 -1.1481
 2983SOL    HW220586   0.333   4.432  16.629  0.6415  1.8639  1.3793
 2984SOL     OW20587   2.062   0.031  11.389 -0.1979 -0.2530  0.0252
 2984SOL    HW120588   2.041   4.675  11.392  1.3716 -0.5106  2.7757
 2984SOL    HW220589   2.007   0.065  11.318 -0.9882 -1.4884  0.0413
 2985SOL     OW20590   1.240   2.918   1.093  0.3657  0.3422 -0.1137
 2985SOL    HW120591   1.148   2.906   1.070  0.1590  2.1470 -0.2158
 2985SOL    HW220592   1.239   2.965   1.177  0.9609  1.7621 -0.9001
 2986SOL     OW20593   1.270   2.277   9.261  0.3039 -1.1394 -0.5388
 2986SOL    HW120594   1.201   2.291   9.195 -0.7962  1.3148  1.1132
 2986SOL    HW220595   1.343   2.249   9.206  0.0280  1.2087 -2.1223
 2987SOL     OW20596   0.370   1.003   7.665 -0.0756  0.0004 -0.3666
 2987SOL    HW120597   0.435   0.943   7.629 -0.4636 -0.9238  0.4839
 2987SOL    HW220598   0.422   1.082   7.676 -0.6938  0.6722 -2.2188
 2988SOL     OW20599   3.959   3.111  16.849  0.2332  0.0681  0.2020
 2988SOL    HW120600   3.949   3.106  16.754 -1.3174 -0.4736  0.4025
 2988SOL    HW220601   3.938   3.205  16.855  1.4473  0.2930  0.8543
 2989SOL     OW20602   4.251   3.739   4.788  0.0773  0.3351  0.1433
 2989SOL    HW120603   4.266   3.757   4.881  0.0310 -0.8336  0.3806
 2989SOL    HW220604   4.288   3.814   4.742 -0.3287  0.2811 -0.2661
 2990SOL     OW20605   0.394   0.231   3.577 -0.3877  0.3572 -0.5919
 2990SOL    HW120606   0.406   0.199   3.487 -1.8460 -0.8543 -0.3602
 2990SOL    HW220607   0.476   0.277   3.592 -0.1622  0.6082 -2.6216
 2991SOL     OW20608   3.927   2.475   2.698 -0.3494 -0.0573  0.7360
 2991SOL    HW120609   3.954   2.384   2.695  0.0900  0.1081 -0.1254
 2991SOL    HW220610   4.009   2.517   2.722  0.5219 -1.7205  0.6588
 2992SOL     OW20611   1.585   2.503   7.412 -0.0805  0.1290 -0.0597
 2992SOL    HW120612   1.503   2.461   7.435 -0.1050  1.5569  2.4668
 2992SOL    HW220613   1.591   2.494   7.317 -0.0162  0.9507 -0.1377
 2993SOL     OW20614   2.482   2.257   5.883  0.3392 -0.1631 -0.4446
 2993SOL    HW120615   2.401   2.287   5.924  0.5598  2.3096 -1.8418
 2993SOL    HW220616   2.479   2.170   5.924  0.7334 -0.2161 -0.5330
 2994SOL     OW20617   1.954   3.239  12.306 -0.3940  0.3789  0.4562
 2994SOL    HW120618   1.983   3.148  12.316  1.3657  0.9564  0.5463
 2994SOL    HW220619   1.877   3.236  12.249  0.1869 -1.0673 -0.2623
 2995SOL     OW20620   2.553   3.817   7.370  0.3929 -0.8359 -0.3080
 2995SOL    HW120621   2.583   3.784   7.285  1.4369  0.7180 -0.5428
 2995SOL    HW220622   2.469   3.777   7.390  0.0683 -0.4276 -0.8518
 2996SOL     OW20623   1.002   0.827  10.825 -0.3991  0.0947  0.1414
 2996SOL    HW120624   1.068   0.865  10.767  0.0031  0.0553  0.5826
 2996SOL    HW220625   0.985   0.740  10.787 -1.5110  1.1964 -1.8964
 2997SOL     OW20626   0.544   4.046   0.693  0.4579  0.6599 -0.2626
 2997SOL    HW120627   0.550   4.024   0.600 -0.7540  0.2231 -0.2485
 2997SOL    HW220628   0.460   4.002   0.709  0.6252  0.6216  0.5083
 2998SOL     OW20629   1.224   1.982  16.570  0.2966 -0.5415 -0.0914
 2998SOL    HW120630   1.214   1.933  16.489  2.2000 -0.4724 -0.3763
 2998SOL    HW220631   1.319   1.979  16.578  0.3756  0.8406 -0.5521
 2999SOL     OW20632   1.107   1.487   7.932 -0.5117  0.5781 -0.1816
 2999SOL    HW120633   1.104   1.463   7.839  1.0748  1.3502 -0.4391
 2999SOL    HW220634   1.169   1.560   7.927  2.3053 -1.7722  0.6551
 3000SOL     OW20635   4.361   2.100   0.194 -0.1989 -0.1017  0.0945
 3000SOL    HW120636   4.454   2.126   0.194 -0.4591  0.8466 -1.1972
 3000SOL    HW220637   4.349   2.054   0.277 -1.5059  0.5550  0.2737
 3001SOL     OW20638   1.771   4.432   4.307 -0.2375  0.6966 -0.4419
 3001SOL    HW120639   1.796   4.520   4.334  0.7049 -0.7643  3.5521
 3001SOL    HW220640   1.694   4.414   4.361  1.6185  0.0081  1.9803
 3002SOL     OW20641   3.646   3.985   4.926  0.0116  0.2941  0.2780
 3002SOL    HW120642   3.597   3.998   4.845  2.9821  1.0389 -1.4204
 3002SOL    HW220643   3.585   4.027   4.987  0.6743  3.0749 -0.9441
 3003SOL     OW20644   1.986   1.055   7.480  0.3978  0.3590  0.0857
 3003SOL    HW120645   2.045   1.106   7.535 -0.1369  1.1214 -0.0456
 3003SOL    HW220646   1.895   1.076   7.504  1.8573  2.1719  3.9936
 3004SOL     OW20647   0.865   4.735   5.239 -0.1963  0.1161 -0.5901
 3004SOL    HW120648   0.933   0.026   5.300 -1.8383 -0.6368  1.5582
 3004SOL    HW220649   0.884   4.642   5.229  1.0430  0.1110  1.8719
 3005SOL     OW20650   3.142   4.522   3.437  0.2630  0.1094  0.6925
 3005SOL    HW120651   3.141   4.599   3.380 -0.4964 -1.9555 -2.0289
 3005SOL    HW220652   3.217   4.469   3.411 -0.8778  0.1959 -2.6824
 3006SOL     OW20653   3.395   0.171   3.454  0.3293 -0.5112  0.0232
 3006SOL    HW120654   3.446   0.115   3.512  1.6460  0.8526  0.2037
 3006SOL    HW220655   3.462   0.233   3.426 -0.3702 -0.3986 -1.3969
 3007SOL     OW20656   1.813   1.993   6.043 -0.0513  0.1229  0.3969
 3007SOL    HW120657   1.727   1.959   6.017 -0.5779  1.6295  0.1593
 3007SOL    HW220658   1.874   1.921   6.027 -0.7314 -0.5159  0.6587
 3008SOL     OW20659   0.876   3.396   1.983 -0.0951  0.2912  0.1139
 3008SOL    HW120660   0.968   3.369   1.989 -0.6585 -1.6236  0.2976
 3008SOL    HW220661   0.842   3.326   2.038 -1.2133 -0.0626 -1.0437
 3009SOL     OW20662   2.936   3.295   0.961 -0.3343 -0.1926 -0.2168
 3009SOL    HW120663   3.019   3.251   0.982 -0.8989 -0.3655  1.6923
 3009SOL    HW220664   2.928   3.282   0.867  0.9806  0.2027 -0.3724
 3010SOL     OW20665   1.924   2.267  14.596 -0.5654 -0.1476  0.2132
 3010SOL    HW120666   1.867   2.342  14.614 -1.4117 -1.0168  1.1243
 3010SOL    HW220667   1.929   2.220  14.679  0.4467 -0.8057 -0.2179
 3011SOL     OW20668   2.637   4.470   6.470 -0.5040  0.0862 -0.8510
 3011SOL    HW120669   2.641   4.553   6.423  2.0577  1.1305  1.2053
 3011SOL    HW220670   2.588   4.491   6.550 -1.5418 -2.3890 -0.8212
 3012SOL     OW20671   4.002   1.586  16.897 -0.3813  0.2180  0.5805
 3012SOL    HW120672   4.075   1.628  16.943 -1.6829 -1.0359  3.7637
 3012SOL    HW220673   4.045   1.561  16.815  0.5295  1.5367  0.6567
 3013SOL     OW20674   3.982   0.530  12.595 -0.3644 -0.2151 -0.6216
 3013SOL    HW120675   3.982   0.578  12.512 -2.2999 -1.5241 -1.4012
 3013SOL    HW220676   4.046   0.459  12.588 -0.5847 -0.3388 -1.5291
 3014SOL     OW20677   4.540   0.932   8.506  0.4288 -0.7193  0.0660
 3014SOL    HW120678   4.474   0.897   8.447  0.1531 -0.5728  0.2888
 3014SOL    HW220679   4.539   1.026   8.485 -1.0648 -0.4086  1.6010
 3015SOL     OW20680   2.452   4.555   9.499 -0.0613 -0.3617  0.1357
 3015SOL    HW120681   2.392   4.514   9.437  0.9473 -1.5496 -0.0546
 3015SOL    HW220682   2.540   4.546   9.463 -1.1835 -2.3389 -2.0972
 3016SOL     OW20683   1.790   0.022   8.614 -0.7267  0.2294  0.0015
 3016SOL    HW120684   1.764   0.018   8.522 -0.2571  0.5130 -0.1424
 3016SOL    HW220685   1.832   4.673   8.615  2.8912  2.0109  1.6378
 3017SOL     OW20686   1.700   3.992   3.455 -0.2201  0.5196 -0.3878
 3017SOL    HW120687   1.736   3.946   3.531 -2.7098 -1.5056 -0.4128
 3017SOL    HW220688   1.608   3.964   3.449 -0.8361  2.5926 -0.7921
 3018SOL     OW20689   1.850   1.257  16.704  0.1977 -0.1170  0.4369
 3018SOL    HW120690   1.860   1.246  16.799 -1.4524 -0.5627  0.5661
 3018SOL    HW220691   1.792   1.333  16.705  0.4291  0.0748 -0.3818
 3019SOL     OW20692   0.650   3.523   1.357  0.3144  0.4701 -0.0835
 3019SOL    HW120693   0.605   3.555   1.435 -0.7395 -1.1038 -0.0607
 3019SOL    HW220694   0.637   3.429   1.361  1.6028  0.2751 -0.4952
 3020SOL     OW20695   4.558   4.572   3.768 -0.7397  0.0304 -0.0721
 3020SOL    HW120696   4.512   4.498   3.809  1.2714 -1.1560  0.0251
 3020SOL    HW220697   4.598   4.524   3.695 -2.0288 -0.2235 -0.6189
 3021SOL     OW20698   1.048   0.756   6.147  0.0486  0.4565 -0.8106
 3021SOL    HW120699   0.970   0.802   6.178 -0.9570  1.1160 -4.3188
 3021SOL    HW220700   1.116   0.821   6.164  0.0867 -0.6151  3.2727
 3022SOL     OW20701   2.496   1.397  13.409 -0.2499 -0.6917 -0.0646
 3022SOL    HW120702   2.588   1.399  13.383  0.0988  2.9766  1.4833
 3022SOL    HW220703   2.500   1.408  13.504 -0.6723  0.3500 -0.1648
 3023SOL     OW20704   4.434   4.008  10.724 -0.3559  0.1674 -0.6337
 3023SOL    HW120705   4.361   3.999  10.786  0.7661 -0.9390  0.5199
 3023SOL    HW220706   4.397   3.989  10.638 -2.1777 -1.7090  0.5634
 3024SOL     OW20707   0.591   1.413   4.003  0.2954  0.1628 -0.0775
 3024SOL    HW120708   0.659   1.346   3.997  1.3268  1.1955  0.0299
 3024SOL    HW220709   0.585   1.409   4.099 -1.0457 -1.2091 -0.2172
 3025SOL     OW20710   1.878   4.219   3.409 -0.3970 -0.2784  0.6718
 3025SOL    HW120711   1.831   4.142   3.442 -2.6769  1.4319  1.3673
 3025SOL    HW220712   1.886   4.273   3.487 -0.0862  0.7364 -0.0752
 3026SOL     OW20713   2.432   4.668  12.964  0.1258 -0.4341 -0.1110
 3026SOL    HW120714   2.497   4.615  12.920  1.1940  0.9074 -0.1585
 3026SOL    HW220715   2.466   4.667  13.054 -1.7535  0.3555  0.6199
 3027SOL     OW20716   0.366   0.612  11.013 -0.4110 -0.6055  0.1644
 3027SOL    HW120717   0.347   0.601  11.106 -0.4418  1.6932  0.4271
 3027SOL    HW220718   0.449   0.659  11.022 -0.0831 -1.0435 -0.5157
 3028SOL     OW20719   0.879   3.056   8.014 -0.5518  0.5300  0.5873
 3028SOL    HW120720   0.800   3.038   7.964  0.0448 -0.4448 -0.0024
 3028SOL    HW220721   0.934   3.098   7.947  0.5978  0.1162  1.2738
 3029SOL     OW20722   2.691   3.281   1.841 -0.2176 -0.0685  0.1260
 3029SOL    HW120723   2.778   3.277   1.881  1.4749  1.4793 -3.4013
 3029SOL    HW220724   2.630   3.271   1.914 -2.1256  0.5682 -1.4008
 3030SOL     OW20725   3.914   1.580   4.660 -0.3020 -0.1156  0.0959
 3030SOL    HW120726   3.842   1.531   4.699  0.6054 -0.4643  1.3298
 3030SOL    HW220727   3.876   1.586   4.572  1.3791  0.3472 -0.5965
 3031SOL     OW20728   3.460   4.452   7.886  0.1528 -0.2330  0.2463
 3031SOL    HW120729   3.544   4.420   7.854  0.9949 -0.2342  2.4026
 3031SOL    HW220730   3.476   4.547   7.885  0.9218 -0.3514  0.9323
 3032SOL     OW20731   3.166   3.940   5.319  0.2159  0.0157  0.0099
 3032SOL    HW120732   3.122   3.993   5.385  1.4282 -1.2582  1.8315
 3032SOL    HW220733   3.107   3.942   5.243 -0.3257 -2.0296  0.3653
 3033SOL     OW20734   1.666   2.213  13.825 -0.5006 -0.3122 -0.2786
 3033SOL    HW120735   1.608   2.160  13.771  0.2409 -1.9945  0.5849
 3033SOL    HW220736   1.629   2.193  13.911  0.3665  0.3904  0.2667
 3034SOL     OW20737   1.958   3.795   8.842 -0.1598 -0.0832 -0.4307
 3034SOL    HW120738   2.001   3.798   8.756 -1.1627  1.7304 -0.8713
 3034SOL    HW220739   1.987   3.706   8.862  2.6803  1.4196  2.0618
 3035SOL     OW20740   1.108   0.379   1.891  0.2872 -0.2549 -0.0088
 3035SOL    HW120741   1.099   0.315   1.961  2.5719 -2.6594 -1.9244
 3035SOL    HW220742   1.142   0.454   1.940  1.1629 -0.1275 -0.7958
 3036SOL     OW20743   4.291   2.810   6.507  0.0622  0.3031 -0.4398
 3036SOL    HW120744   4.310   2.717   6.516 -0.5597  0.0299 -1.9458
 3036SOL    HW220745   4.248   2.822   6.592 -1.7992 -0.3048 -1.2931
 3037SOL     OW20746   3.270   1.626   6.538 -0.0157  0.1084 -0.3338
 3037SOL    HW120747   3.295   1.541   6.576 -0.7275  0.3376  0.6591
 3037SOL    HW220748   3.264   1.615   6.444  0.4333 -0.5274 -0.2905
 3038SOL     OW20749   0.073   2.019  16.763  0.4504  0.4916 -0.1157
 3038SOL    HW120750   0.093   2.046  16.852  0.8195 -2.0570  0.5803
 3038SOL    HW220751   0.133   2.066  16.705 -0.4503 -0.5527 -1.8877
 3039SOL     OW20752   1.780   3.797   3.816 -0.5891  0.0777  0.2138
 3039SOL    HW120753   1.806   3.797   3.724 -1.6471 -0.2779 -0.0811
 3039SOL    HW220754   1.852   3.756   3.865 -0.4519 -1.4588 -1.2714
 3040SOL     OW20755   1.493   1.110   2.507 -0.1957 -0.6105  0.3693
 3040SOL    HW120756   1.447   1.194   2.507  0.6351 -0.1659 -1.5167
 3040SOL    HW220757   1.463   1.080   2.593  1.2416  1.2063  1.5263
 3041SOL     OW20758   0.246   0.197   2.611 -0.0505  0.4607 -0.2253
 3041SOL    HW120759   0.250   0.113   2.565  2.6686  0.4010  0.1485
 3041SOL    HW220760   0.328   0.196   2.659  0.1739 -0.3325 -0.6261
 3042SOL     OW20761   0.685   1.602  10.205  0.3019 -0.7766 -0.4811
 3042SOL    HW120762   0.647   1.598  10.117  2.0266 -1.6106 -1.1820
 3042SOL    HW220763   0.708   1.510  10.209 -0.7349 -0.9967  0.2262
 3043SOL     OW20764   0.337   0.970  17.687  0.8179  0.1095  0.1371
 3043SOL    HW120765   0.407   0.975   0.004  0.9058  3.1148 -0.1674
 3043SOL    HW220766   0.343   0.875  17.691  1.0543  0.1043 -0.3108
 3044SOL     OW20767   1.030   2.445   1.152 -0.1536 -0.7475  1.1207
 3044SOL    HW120768   1.020   2.523   1.207 -0.7484 -0.4602  0.6094
 3044SOL    HW220769   1.125   2.441   1.144 -0.1456 -1.5142  1.6315
 3045SOL     OW20770   4.313   1.304   5.351 -0.4270 -0.0109  0.1405
 3045SOL    HW120771   4.236   1.288   5.297 -0.2946  0.3368 -0.1576
 3045SOL    HW220772   4.280   1.361   5.420 -0.1444 -0.3448  0.5460
 3046SOL     OW20773   3.945   1.727  13.350 -0.2139  0.3017 -0.4044
 3046SOL    HW120774   4.020   1.670  13.365 -0.3282  0.4427  0.6887
 3046SOL    HW220775   3.981   1.813  13.375 -0.6436  0.8055 -1.5103
 3047SOL     OW20776   0.881   0.770   6.380  0.0202 -0.3760 -0.2213
 3047SOL    HW120777   0.786   0.763   6.389 -0.0789  2.5422  0.7902
 3047SOL    HW220778   0.905   0.678   6.394  1.6246 -0.3035 -2.5048
 3048SOL     OW20779   4.182   1.890   4.412  0.5105  0.1068  0.7801
 3048SOL    HW120780   4.205   1.832   4.485 -1.9337 -1.3068  0.4152
 3048SOL    HW220781   4.259   1.882   4.356  0.6289 -0.8268  1.0858
 3049SOL     OW20782   0.470   2.868   9.755  0.3178  0.0793 -0.5797
 3049SOL    HW120783   0.392   2.919   9.775  1.1137  1.1578 -0.2808
 3049SOL    HW220784   0.482   2.895   9.664  0.3539 -1.5291 -1.0528
 3050SOL     OW20785   0.096   4.073   0.947 -0.1499 -0.1305 -0.4020
 3050SOL    HW120786   0.046   4.131   0.891 -2.8989 -0.9994  1.1089
 3050SOL    HW220787   0.092   4.123   1.029 -0.3238 -0.0220 -0.4779
 3051SOL     OW20788   3.517   2.534   8.521 -0.3510  0.5305 -0.1851
 3051SOL    HW120789   3.426   2.535   8.491 -0.2599 -1.5105 -0.5464
 3051SOL    HW220790   3.498   2.536   8.615  0.7507  2.4251 -0.0177
 3052SOL     OW20791   2.609   4.606   9.098 -0.1861  0.5130  0.1757
 3052SOL    HW120792   2.628   4.610   9.192  1.2211 -0.9154 -0.0528
 3052SOL    HW220793   2.517   4.633   9.099  0.0524  1.3691 -0.9535
 3053SOL     OW20794   0.152   3.327  11.641 -0.5567 -0.1235  0.6627
 3053SOL    HW120795   0.140   3.412  11.683 -1.5939  0.3665 -0.6459
 3053SOL    HW220796   0.219   3.288  11.698  0.5270 -0.7046 -1.0094
 3054SOL     OW20797   0.523   3.258   7.548  0.1754 -0.3356  0.1843
 3054SOL    HW120798   0.545   3.317   7.620 -1.9705  2.2073 -1.2388
 3054SOL    HW220799   0.431   3.255   7.576  0.3971 -1.2021  0.8112
 3055SOL     OW20800   1.579   0.441  10.665  0.3582 -0.1644 -0.3919
 3055SOL    HW120801   1.535   0.397  10.592  1.5497 -2.6227  0.3738
 3055SOL    HW220802   1.575   0.372  10.732 -1.3455 -0.2013 -0.5088
 3056SOL     OW20803   2.113   3.309   7.167 -0.0260 -1.0126 -0.1608
 3056SOL    HW120804   2.170   3.291   7.092  0.1846 -0.1975 -0.1991
 3056SOL    HW220805   2.084   3.398   7.147 -0.5682 -1.0405  0.4940
 3057SOL     OW20806   4.564   3.439  11.574 -0.5099  0.2244 -0.6171
 3057SOL    HW120807   4.494   3.373  11.578 -0.0882 -0.2200 -0.6796
 3057SOL    HW220808   4.594   3.422  11.663  1.8949  0.0490 -1.4617
 3058SOL     OW20809   2.436   3.662   2.225 -0.4440 -0.7231  0.1673
 3058SOL    HW120810   2.346   3.694   2.220 -0.0749  0.1671 -0.6875
 3058SOL    HW220811   2.478   3.740   2.260  0.6990 -0.9814 -0.6342
 3059SOL     OW20812   2.197   0.193   1.137 -0.4581 -0.6828 -0.0863
 3059SOL    HW120813   2.125   0.175   1.076  1.7421  0.2706 -2.9559
 3059SOL    HW220814   2.144   0.230   1.208 -1.0129  0.0390 -0.8750
 3060SOL     OW20815   2.571   2.641   6.492  0.2941 -0.3676 -0.1664
 3060SOL    HW120816   2.516   2.714   6.523 -0.3600 -1.5631  1.5052
 3060SOL    HW220817   2.611   2.680   6.414 -2.2362  1.7404 -0.4142
 3061SOL     OW20818   4.168   0.801  12.228 -0.5678 -0.3084  0.1668
 3061SOL    HW120819   4.236   0.794  12.161  0.0514 -1.1443  0.8825
 3061SOL    HW220820   4.208   0.850  12.299 -1.2888  0.5428 -0.0111
 3062SOL     OW20821   1.161   1.812   0.957 -0.6943 -0.2020  0.3959
 3062SOL    HW120822   1.081   1.767   0.928 -1.2542  1.8848 -1.2962
 3062SOL    HW220823   1.172   1.872   0.884 -0.0798  0.2389  0.8473
 3063SOL     OW20824   2.892   3.781   8.703  0.1493 -0.0752  0.0190
 3063SOL    HW120825   2.832   3.787   8.777 -0.1583  0.4103 -0.2696
 3063SOL    HW220826   2.975   3.775   8.750  0.0859  0.0513  0.1455
 3064SOL     OW20827   0.670   3.083  10.238  0.2917 -0.3089  0.3852
 3064SOL    HW120828   0.661   2.991  10.262 -1.5593  0.3896  2.3614
 3064SOL    HW220829   0.682   3.069  10.144  0.5524 -0.2717  0.4143
 3065SOL     OW20830   1.877   0.849   5.084  0.4756 -0.6972  0.3826
 3065SOL    HW120831   1.861   0.895   5.167 -0.8294 -0.5127  0.0195
 3065SOL    HW220832   1.902   0.761   5.113  1.2974 -0.7212 -0.4198
 3066SOL     OW20833   3.428   0.270   7.113  0.2466 -0.1459 -0.3732
 3066SOL    HW120834   3.423   0.175   7.117 -0.2007 -0.0068  2.4259
 3066SOL    HW220835   3.337   0.300   7.121  0.6253  0.2391  2.3693
 3067SOL     OW20836   3.236   0.823   8.623 -0.0532 -0.0669 -0.1944
 3067SOL    HW120837   3.198   0.828   8.535 -0.9558 -1.0910  0.1452
 3067SOL    HW220838   3.167   0.782   8.675 -0.0981  0.1941 -0.0499
 3068SOL     OW20839   0.553   3.170   2.270  0.2087  0.0894  0.4209
 3068SOL    HW120840   0.509   3.243   2.226 -1.0134 -0.4023  0.8492
 3068SOL    HW220841   0.480   3.124   2.309  1.0458 -0.4293  1.3730
 3069SOL     OW20842   1.190   1.404  10.153  0.1210 -0.8381 -0.4703
 3069SOL    HW120843   1.221   1.463  10.083  0.6933 -0.1848  0.3285
 3069SOL    HW220844   1.155   1.459  10.223  1.1162  0.4399 -0.9638
 3070SOL     OW20845   2.232   1.948   6.176 -0.0200  0.0505  0.5610
 3070SOL    HW120846   2.198   1.943   6.266 -3.2164  2.7363 -0.4703
 3070SOL    HW220847   2.317   1.906   6.187  1.2511  2.7064  0.8703
 3071SOL     OW20848   3.145   2.471   8.788 -0.2079  0.0733 -0.6425
 3071SOL    HW120849   3.158   2.385   8.749  1.0182 -0.1861  0.3483
 3071SOL    HW220850   3.153   2.446   8.880 -1.9364  2.6491  0.2038
 3072SOL     OW20851   1.822   4.698   8.910  0.4852  0.0176  0.0037
 3072SOL    HW120852   1.773   4.713   8.991  1.2258  0.5107  0.3517
 3072SOL    HW220853   1.756   4.675   8.844  0.1720 -1.3599  0.7886
 3073SOL     OW20854   1.274   1.491   6.336  0.4999  0.0408 -0.2482
 3073SOL    HW120855   1.364   1.471   6.309  0.8284  1.5786 -0.3413
 3073SOL    HW220856   1.218   1.433   6.285  0.8741  0.9430 -1.6905
 3074SOL     OW20857   1.150   1.015   4.774  0.5763  0.5332 -0.2680
 3074SOL    HW120858   1.219   1.019   4.708 -1.3859  1.4673 -2.2438
 3074SOL    HW220859   1.196   1.026   4.857  0.2088  0.5952 -0.0735
 3075SOL     OW20860   1.711   0.866   1.978  0.2637 -0.0677 -0.5348
 3075SOL    HW120861   1.740   0.957   1.992  0.8674 -0.2913 -0.3413
 3075SOL    HW220862   1.616   0.875   1.970  0.0265 -2.8270 -0.7355
 3076SOL     OW20863   4.060   2.591  12.255 -0.1976 -0.0859  0.5449
 3076SOL    HW120864   4.002   2.516  12.241  0.6919 -0.3463 -1.8232
 3076SOL    HW220865   4.005   2.645  12.311  1.0352 -0.3851  2.0481
 3077SOL     OW20866   0.501   2.914   7.036  0.0952 -0.2637  0.1473
 3077SOL    HW120867   0.540   2.862   6.966  0.9025 -0.4362  0.7234
 3077SOL    HW220868   0.535   3.003   7.026  0.1879 -0.2931  0.2005
 3078SOL     OW20869   2.622   3.746   2.729  0.5791  0.2411  0.0656
 3078SOL    HW120870   2.648   3.695   2.805 -2.0126 -1.0322  0.0890
 3078SOL    HW220871   2.540   3.703   2.706  0.7969 -0.2541  0.2119
 3079SOL     OW20872   2.942   3.328   1.943 -0.2251 -0.2042 -0.0396
 3079SOL    HW120873   2.993   3.346   1.864  1.4399 -0.5056  0.9641
 3079SOL    HW220874   2.980   3.402   1.990  0.0461 -0.8768  0.8035
 3080SOL     OW20875   0.596   4.207   6.602  0.1314 -0.6099 -0.3738
 3080SOL    HW120876   0.676   4.155   6.596  1.1412  0.8373  0.3078
 3080SOL    HW220877   0.616   4.289   6.557 -1.5346 -0.4388 -0.7861
 3081SOL     OW20878   4.473   2.623  10.048 -0.0375 -0.1329  0.3995
 3081SOL    HW120879   4.522   2.585   9.975  0.5747 -0.1951  0.8457
 3081SOL    HW220880   4.531   2.688  10.085  1.1808 -1.1504  0.2721
 3082SOL     OW20881   3.181   0.067   6.671 -0.3203 -0.0340  0.1414
 3082SOL    HW120882   3.087   0.080   6.667 -0.4515 -0.0764  2.7796
 3082SOL    HW220883   3.194   4.710   6.684 -0.2094  0.0235  0.4589
 3083SOL     OW20884   0.725   0.682   3.703 -0.1596  0.0084  0.5529
 3083SOL    HW120885   0.661   0.617   3.733 -1.0890  0.3945 -0.5687
 3083SOL    HW220886   0.801   0.624   3.709 -0.6045 -0.7272 -0.9324
 3084SOL     OW20887   4.170   0.312   6.665  0.4954 -0.5916 -0.3041
 3084SOL    HW120888   4.090   0.352   6.698 -0.4127 -2.0000 -0.7907
 3084SOL    HW220889   4.227   0.346   6.734  1.3127 -0.1943 -1.1807
 3085SOL     OW20890   0.594   0.587   2.907  0.3741 -0.0453  0.4665
 3085SOL    HW120891   0.608   0.637   2.987 -0.4739  1.8691 -0.5646
 3085SOL    HW220892   0.610   0.655   2.842  1.2950 -1.1149 -0.4175
 3086SOL     OW20893   0.552   4.665  16.633 -0.3107 -0.0399 -0.2037
 3086SOL    HW120894   0.622   4.619  16.586 -0.7662 -1.7273  0.7800
 3086SOL    HW220895   0.598   4.694  16.711 -2.1094 -0.8832  1.1587
 3087SOL     OW20896   1.185   1.096   5.239  0.0035  0.1884  0.1741
 3087SOL    HW120897   1.224   1.053   5.163 -0.8099  1.0090 -0.7121
 3087SOL    HW220898   1.120   1.154   5.200 -0.5287 -0.3760  0.2161
 3088SOL     OW20899   4.286   2.944  17.055  0.0969 -0.4905  0.6472
 3088SOL    HW120900   4.292   2.895  17.137 -0.6627  0.1200  1.0771
 3088SOL    HW220901   4.348   3.015  17.071 -0.1737 -0.2477  0.6224
 3089SOL     OW20902   0.904   1.526   2.654 -1.0349  0.1000  1.2283
 3089SOL    HW120903   0.935   1.611   2.623  0.8691 -0.7050  0.9544
 3089SOL    HW220904   0.813   1.525   2.624 -0.9647 -1.8164  1.1146
 3090SOL     OW20905   3.396   4.668   5.012  0.1530 -0.2619  0.3218
 3090SOL    HW120906   3.491   4.667   5.004  0.0525  0.4335 -1.0665
 3090SOL    HW220907   3.374   4.597   5.071  0.9656 -0.4395  0.3949
 3091SOL     OW20908   1.971   4.393   3.929 -0.4069  0.4872 -0.1631
 3091SOL    HW120909   1.944   4.303   3.911 -0.3798  0.3036  0.6865
 3091SOL    HW220910   2.066   4.381   3.939 -0.6178 -2.4795 -1.8425
 3092SOL     OW20911   4.427   0.288  13.021 -0.1914  0.0233  0.0262
 3092SOL    HW120912   4.399   0.337  12.944 -0.4670 -1.8594 -1.0664
 3092SOL    HW220913   4.392   0.203  12.995  1.4164 -0.2053 -1.3870
 3093SOL     OW20914   3.251   1.635   2.766 -0.1557 -0.5370 -0.4754
 3093SOL    HW120915   3.329   1.677   2.800 -0.2206 -0.0286 -0.9568
 3093SOL    HW220916   3.261   1.547   2.803 -0.5829 -0.6252 -0.5616
 3094SOL     OW20917   1.407   2.063  10.630  0.0658  0.8717 -0.4202
 3094SOL    HW120918   1.461   2.107  10.696 -2.0068  0.9899  1.2348
 3094SOL    HW220919   1.407   2.131  10.563 -1.6285  0.0700 -1.2357
 3095SOL     OW20920   0.352   1.626   9.265 -0.1930  0.2197  0.5767
 3095SOL    HW120921   0.443   1.653   9.271  0.2906 -0.2522 -3.9387
 3095SOL    HW220922   0.365   1.531   9.258  0.3859  0.0003  4.9075
 3096SOL     OW20923   3.022   4.433  16.391  0.0651  0.2691 -0.4505
 3096SOL    HW120924   2.996   4.452  16.301 -1.6016  1.2315  0.2188
 3096SOL    HW220925   2.960   4.487  16.440  0.3656  0.6952 -0.5430
 3097SOL     OW20926   4.540   4.340  16.053  0.1763  0.5580 -0.1177
 3097SOL    HW120927   4.526   4.357  16.146  2.2054 -2.3064  0.7075
 3097SOL    HW220928   4.592   4.418  16.035  0.0479  0.8184  0.6624
 3098SOL     OW20929   3.077   4.647   9.062  0.1176  0.0882 -0.6664
 3098SOL    HW120930   3.150   4.706   9.044  0.4087  0.5806  2.0012
 3098SOL    HW220931   3.092   4.633   9.156  1.5403  1.3387 -0.6982
 3099SOL     OW20932   4.670   3.844   2.299 -0.2379 -0.2691 -0.0214
 3099SOL    HW120933   4.678   3.887   2.385  0.5265  1.9386 -1.2131
 3099SOL    HW220934   4.597   3.785   2.316  1.2227 -2.0089  0.2048
 3100SOL     OW20935   3.731   3.657   2.141 -0.3467  0.4569  0.5069
 3100SOL    HW120936   3.764   3.587   2.196 -1.1944  0.8875  1.5538
 3100SOL    HW220937   3.721   3.724   2.209 -2.5848  0.0811  0.5159
 3101SOL     OW20938   3.543   2.806   7.599 -0.0546 -0.1895 -0.2031
 3101SOL    HW120939   3.557   2.838   7.510 -0.8099  1.2175  0.1860
 3101SOL    HW220940   3.523   2.713   7.588 -0.2310 -0.3620  1.5533
 3102SOL     OW20941   2.846   1.008  16.560  0.4790 -0.0854  0.1023
 3102SOL    HW120942   2.936   1.018  16.529  0.5442  0.2611  0.4117
 3102SOL    HW220943   2.858   0.997  16.654 -1.3020  1.3342  0.4774
 3103SOL     OW20944   0.466   3.293   4.740  0.3227 -0.8462  0.6262
 3103SOL    HW120945   0.446   3.231   4.810  1.6133 -1.6001  0.3355
 3103SOL    HW220946   0.556   3.321   4.757 -0.7845  3.2045 -0.1728
 3104SOL     OW20947   1.945   0.119   4.320 -0.1435  0.0139  0.9657
 3104SOL    HW120948   1.951   0.061   4.245 -0.2833  0.5067  0.5715
 3104SOL    HW220949   1.865   0.087   4.363 -0.8593  0.3045 -0.1606
 3105SOL     OW20950   3.990   1.085  17.600 -0.3843 -0.0915 -0.6158
 3105SOL    HW120951   3.952   1.172  17.606  1.5155  0.8542 -2.3491
 3105SOL    HW220952   3.931   1.028  17.650 -0.1229  0.6379  0.5240
 3106SOL     OW20953   1.278   3.852  13.115  0.1876  0.1818  0.0298
 3106SOL    HW120954   1.339   3.797  13.165 -2.2441 -2.4009  0.1810
 3106SOL    HW220955   1.203   3.795  13.132  0.3348  0.3289  1.1501
 3107SOL     OW20956   4.138   3.546   7.000 -0.2371 -0.2616  0.1240
 3107SOL    HW120957   4.217   3.523   7.049  0.1299 -1.0025 -0.8171
 3107SOL    HW220958   4.172   3.540   6.911  1.4150  0.1925  0.7398
 3108SOL     OW20959   3.434   4.618   2.069  0.3213  0.3420  0.5905
 3108SOL    HW120960   3.468   4.693   2.020  0.9647 -0.8005 -0.7424
 3108SOL    HW220961   3.380   4.667   2.130  0.3582  0.2308  0.7122
 3109SOL     OW20962   4.230   1.936   7.739 -0.0367  0.1215 -0.0585
 3109SOL    HW120963   4.269   1.850   7.720  1.8557  0.5701  1.7565
 3109SOL    HW220964   4.251   1.986   7.661 -2.5653 -0.7589 -1.3085
 3110SOL     OW20965   0.876   2.215  14.403 -0.1920  0.3530 -0.7271
 3110SOL    HW120966   0.850   2.135  14.450  0.9768  1.8209  2.4079
 3110SOL    HW220967   0.904   2.263  14.480 -0.0855  0.5073 -0.8641
 3111SOL     OW20968   1.134   1.298   1.773  0.3860 -1.1389  0.2148
 3111SOL    HW120969   1.087   1.354   1.712  0.0880 -2.0118 -0.3540
 3111SOL    HW220970   1.087   1.330   1.851 -0.3895 -0.2372 -0.6268
 3112SOL     OW20971   2.778   3.465   6.475 -0.6501  0.3740 -0.2586
 3112SOL    HW120972   2.840   3.522   6.430 -1.5929 -0.3105 -2.4371
 3112SOL    HW220973   2.834   3.431   6.544  1.1763  0.9800 -1.4436
 3113SOL     OW20974   3.343   3.343   3.559 -0.2647 -0.4341  0.6108
 3113SOL    HW120975   3.352   3.342   3.655  1.1842  1.9216  0.4897
 3113SOL    HW220976   3.251   3.319   3.550 -0.2402 -0.5163  0.5856
 3114SOL     OW20977   3.017   1.698  14.124 -0.5935  0.0110  0.3008
 3114SOL    HW120978   3.093   1.715  14.179 -0.7555  2.0513 -0.1037
 3114SOL    HW220979   3.040   1.709  14.031  0.3328 -1.5596  0.3437
 3115SOL     OW20980   3.874   0.990   5.620 -0.1872  0.7631  0.0505
 3115SOL    HW120981   3.948   1.045   5.646 -0.5697  0.8137  1.0109
 3115SOL    HW220982   3.847   0.972   5.710  0.9936  0.7644  0.4146
 3116SOL     OW20983   0.181   4.046  13.892 -0.6128 -0.7173  0.3133
 3116SOL    HW120984   0.264   4.003  13.909 -0.3345 -1.2286 -2.3017
 3116SOL    HW220985   0.180   4.118  13.955  1.1059  0.7583 -1.3581
 3117SOL     OW20986   1.218   4.711   5.681  0.1835  0.0802  0.1353
 3117SOL    HW120987   1.141   4.683   5.731  0.2949 -1.8513 -0.7717
 3117SOL    HW220988   1.284   4.656   5.722  0.8409 -0.5507 -1.7750
 3118SOL     OW20989   4.506   2.580   5.777  0.2170  0.3857  0.2061
 3118SOL    HW120990   4.468   2.496   5.803 -0.4273  0.7450  0.4502
 3118SOL    HW220991   4.588   2.582   5.827  0.1309 -1.7935  0.4011
 3119SOL     OW20992   3.174   0.342   7.156 -0.0868 -0.1706 -0.0810
 3119SOL    HW120993   3.113   0.348   7.230 -0.0924 -3.4033  0.1643
 3119SOL    HW220994   3.115   0.328   7.082 -1.5334  0.8052  0.8810
 3120SOL     OW20995   0.205   1.967   2.773  0.4751  0.5434  0.2942
 3120SOL    HW120996   0.208   2.063   2.783  1.2122  0.8392 -2.7347
 3120SOL    HW220997   0.282   1.952   2.827  0.5302  0.5054  0.2049
 3121SOL     OW20998   3.342   3.817   4.078  0.3970  0.6087  0.0679
 3121SOL    HW120999   3.428   3.805   4.117 -0.2534 -0.7289  1.0992
 3121SOL    HW221000   3.367   3.841   3.989  1.9928  0.7684  0.5736
 3122SOL     OW21001   3.576   1.661   0.335  0.5631  0.1905 -0.3955
 3122SOL    HW121002   3.500   1.648   0.279 -1.1446 -1.3139  2.2520
 3122SOL    HW221003   3.549   1.597   0.401 -0.1900  1.4210  0.4949
 3123SOL     OW21004   0.379   1.073   3.092 -0.1001  0.1331 -0.7864
 3123SOL    HW121005   0.354   1.121   3.171  2.1190 -1.2959  0.8071
 3123SOL    HW221006   0.471   1.096   3.078  0.2991 -1.0738 -0.1409
 3124SOL     OW21007   2.637   0.843   1.822 -0.1379  1.3332 -0.5205
 3124SOL    HW121008   2.617   0.820   1.913 -0.7171 -1.6580 -1.3968
 3124SOL    HW221009   2.610   0.935   1.821 -0.7313  1.1419 -2.0773
 3125SOL     OW21010   2.681   2.363   6.040 -0.6446  0.2065  0.1206
 3125SOL    HW121011   2.767   2.326   6.021 -0.7765 -0.0392 -0.0010
 3125SOL    HW221012   2.634   2.325   5.966  0.0575 -0.6832  0.1333
 3126SOL     OW21013   0.699   2.647   8.766 -0.4017 -0.1588  0.0463
 3126SOL    HW121014   0.726   2.622   8.678 -1.0359 -0.1599 -0.1469
 3126SOL    HW221015   0.606   2.669   8.758 -0.0362  1.1976 -0.4528
 3127SOL     OW21016   3.852   0.466   4.674 -0.1604 -0.2461  0.3208
 3127SOL    HW121017   3.843   0.483   4.768 -1.2927 -2.3086  0.5956
 3127SOL    HW221018   3.922   0.401   4.667 -0.2103 -0.0403 -2.1043
 3128SOL     OW21019   2.018   3.960   8.341 -0.6005 -0.2363  0.6539
 3128SOL    HW121020   1.966   3.917   8.409 -0.2877 -0.6754  0.6138
 3128SOL    HW221021   2.050   4.036   8.390 -0.0917  0.8497 -1.3595
 3129SOL     OW21022   4.663   1.654   3.323 -0.4685 -0.1104  0.0061
 3129SOL    HW121023   4.688   1.732   3.371  0.2088  0.5564 -1.4155
 3129SOL    HW221024   4.735   1.651   3.259 -0.9041  0.6061 -0.5165
 3130SOL     OW21025   3.392   2.620   6.906  0.3126 -0.2571 -0.2368
 3130SOL    HW121026   3.320   2.628   6.969 -1.8297  1.5141 -2.9507
 3130SOL    HW221027   3.401   2.529   6.877 -0.7146  0.3561 -2.4339
 3131SOL     OW21028   1.990   2.845  12.960  0.9563 -0.1306  0.1841
 3131SOL    HW121029   1.941   2.817  13.038  2.1414  0.7160  1.2323
 3131SOL    HW221030   2.061   2.781  12.952  1.7807  0.9414 -0.9995
 3132SOL     OW21031   0.959   2.050   0.626  0.2583 -0.1159 -0.2304
 3132SOL    HW121032   0.962   2.115   0.557 -1.3343  0.2042 -0.0102
 3132SOL    HW221033   0.865   2.031   0.635 -0.1315  2.1579  0.5477
 3133SOL     OW21034   1.685   2.370   1.972  0.0964  0.2386  0.1242
 3133SOL    HW121035   1.751   2.436   1.993 -1.3439  1.1415  1.7885
 3133SOL    HW221036   1.609   2.429   1.970  0.3149  0.5437  1.0664
 3134SOL     OW21037   3.462   2.523  16.817  0.2529 -0.2479 -0.7937
 3134SOL    HW121038   3.482   2.429  16.816  1.4051 -0.0112  1.4193
 3134SOL    HW221039   3.368   2.517  16.832  0.1111 -1.6883 -2.2638
 3135SOL     OW21040   0.232   4.364   4.762 -0.3521  0.2554 -0.0131
 3135SOL    HW121041   0.183   4.423   4.706  0.4427  1.4248  0.5160
 3135SOL    HW221042   0.275   4.429   4.818 -0.4326  0.7591 -0.5338
 3136SOL     OW21043   3.163   4.732   2.882  0.2913 -0.0447  0.1684
 3136SOL    HW121044   3.141   0.084   2.910  1.0994  0.0968  0.3404
 3136SOL    HW221045   3.223   0.018   2.811  2.4444 -0.5737  1.8548
 3137SOL     OW21046   0.426   2.684   9.500  0.3638  0.1742 -0.1173
 3137SOL    HW121047   0.464   2.769   9.524  1.9483 -0.6228  0.1666
 3137SOL    HW221048   0.490   2.620   9.531 -1.7144 -0.7575  2.2221
 3138SOL     OW21049   3.034   2.190   8.852 -0.5528 -0.0782 -0.2904
 3138SOL    HW121050   3.118   2.234   8.858 -0.2266 -0.8916  1.1088
 3138SOL    HW221051   3.039   2.129   8.926 -0.5612 -0.9220 -0.9839
 3139SOL     OW21052   2.801   4.268  13.692 -0.3619  0.1731  0.1241
 3139SOL    HW121053   2.855   4.276  13.770  0.1830  1.9488 -0.4410
 3139SOL    HW221054   2.715   4.288  13.729 -0.2796  1.5072 -0.4219
 3140SOL     OW21055   1.652   0.762   7.757  0.0036  0.5496 -0.0562
 3140SOL    HW121056   1.682   0.720   7.676 -0.9244  0.9303 -0.6048
 3140SOL    HW221057   1.557   0.763   7.743 -0.1038  0.7081  0.6830
 3141SOL     OW21058   2.707   2.540   9.314  0.2178 -0.1238 -0.4856
 3141SOL    HW121059   2.761   2.607   9.355 -2.1582  0.6663  1.3504
 3141SOL    HW221060   2.637   2.544   9.378  1.2642 -0.3222  0.6716
 3142SOL     OW21061   1.732   4.651   3.102 -0.3680  0.2123 -0.0924
 3142SOL    HW121062   1.757   4.603   3.181  0.8012 -0.3909 -0.8326
 3142SOL    HW221063   1.818   4.663   3.061 -0.7891  1.8422 -0.4979
 3143SOL     OW21064   1.811   1.914   9.520  0.0803  0.2919  0.4378
 3143SOL    HW121065   1.726   1.871   9.512 -0.5431  1.8394 -1.1896
 3143SOL    HW221066   1.834   1.875   9.604 -0.2659  1.7773  1.2315
 3144SOL     OW21067   0.914   4.168   6.310 -0.5983 -0.2377  0.0045
 3144SOL    HW121068   1.006   4.153   6.332 -0.7067  0.3776  0.8724
 3144SOL    HW221069   0.866   4.144   6.390  0.6758  0.8888  1.1077
 3145SOL     OW21070   2.668   4.067  10.381 -0.8408 -0.2229  0.5355
 3145SOL    HW121071   2.642   4.146  10.427  2.9215  1.1680  0.2367
 3145SOL    HW221072   2.602   4.004  10.410 -0.4707  0.0270  1.9262
 3146SOL     OW21073   0.333   2.154  15.460  0.1648  0.4966 -0.0219
 3146SOL    HW121074   0.391   2.127  15.389 -2.7256 -1.4761 -1.5891
 3146SOL    HW221075   0.266   2.086  15.466 -1.9163  2.5327  0.1423
 3147SOL     OW21076   2.340   3.431  12.664 -0.2770  0.0176 -0.0619
 3147SOL    HW121077   2.286   3.394  12.733 -2.2294  0.3142 -1.4254
 3147SOL    HW221078   2.274   3.476  12.611 -1.7169 -0.8999  0.9499
 3148SOL     OW21079   1.152   3.468  16.589  0.1886  0.1959  0.3276
 3148SOL    HW121080   1.078   3.432  16.539  0.1967  1.6962 -0.7456
 3148SOL    HW221081   1.114   3.489  16.675  0.6865  3.8470 -0.3848
 3149SOL     OW21082   2.137   3.090   2.414  0.0852 -0.1595  0.0211
 3149SOL    HW121083   2.061   3.032   2.422  1.0169 -1.0786  2.1386
 3149SOL    HW221084   2.124   3.125   2.502  0.9238 -1.6977  0.7677
 3150SOL     OW21085   3.075   2.576   6.470  0.3569 -0.4040 -0.0025
 3150SOL    HW121086   3.149   2.517   6.457 -0.5954 -2.0515  2.1643
 3150SOL    HW221087   3.112   2.665   6.473 -0.8690  0.1939 -2.0889
 3151SOL     OW21088   1.811   1.692   8.233 -0.2612  0.3396  0.0890
 3151SOL    HW121089   1.730   1.718   8.276 -1.6028 -2.8241 -0.5086
 3151SOL    HW221090   1.775   1.650   8.154  0.8704  0.2742 -0.3935
 3152SOL     OW21091   2.752   1.251   5.465 -0.2003  0.1298  0.0220
 3152SOL    HW121092   2.799   1.175   5.500  0.8592  0.8398  0.1253
 3152SOL    HW221093   2.824   1.314   5.460 -0.4603  0.5501  1.5571
 3153SOL     OW21094   0.086   1.709   2.596 -0.3307  0.2352 -0.2399
 3153SOL    HW121095   0.088   1.802   2.577  0.4514  0.1569 -0.5423
 3153SOL    HW221096   0.089   1.684   2.504 -1.0005  2.9651 -0.9734
 3154SOL     OW21097   2.393   2.026   8.724 -0.4031 -0.1265  0.0862
 3154SOL    HW121098   2.327   1.958   8.711 -1.2099  0.7931 -0.6978
 3154SOL    HW221099   2.470   1.975   8.748 -0.9424 -1.8565 -1.8871
 3155SOL     OW21100   1.188   0.500  11.092 -0.2994  0.4985  0.3268
 3155SOL    HW121101   1.115   0.451  11.131  0.0093  0.0719  0.3639
 3155SOL    HW221102   1.216   0.546  11.171  1.3645  1.9284 -1.0971
 3156SOL     OW21103   3.764   1.761   0.856 -0.0024 -0.1241  0.4822
 3156SOL    HW121104   3.794   1.726   0.940 -0.9177 -2.4288 -0.1280
 3156SOL    HW221105   3.770   1.684   0.799  1.0096  1.0781 -1.0018
 3157SOL     OW21106   3.058   4.580   6.162  0.5727 -0.0807 -0.3259
 3157SOL    HW121107   3.139   4.608   6.121  0.2021  1.2969 -0.1363
 3157SOL    HW221108   3.008   4.660   6.146  0.1450 -0.4404 -0.7807
 3158SOL     OW21109   1.126   1.448   3.770 -0.2370  0.2236 -0.4067
 3158SOL    HW121110   1.084   1.404   3.844  0.0074 -0.1187 -0.4708
 3158SOL    HW221111   1.216   1.450   3.802 -1.2044 -1.0297  2.4132
 3159SOL     OW21112   3.577   1.225   3.358 -0.3437  0.1033  0.3863
 3159SOL    HW121113   3.583   1.131   3.375 -0.2205  0.4969  2.5318
 3159SOL    HW221114   3.568   1.227   3.263 -1.5061 -0.8330  0.4757
 3160SOL     OW21115   1.439   2.125   9.595  0.1378  0.4451  0.1085
 3160SOL    HW121116   1.378   2.174   9.539  0.7533  2.2794  1.0401
 3160SOL    HW221117   1.395   2.119   9.680 -0.7605 -1.3085 -0.4791
 3161SOL     OW21118   0.338   2.841  10.889 -0.0425 -0.3375 -0.1329
 3161SOL    HW121119   0.383   2.833  10.805 -0.4213  1.5925 -0.5186
 3161SOL    HW221120   0.269   2.899  10.857 -0.0865  1.1120  2.5475
 3162SOL     OW21121   1.025   1.148   7.841 -0.1464  0.3014 -0.0652
 3162SOL    HW121122   1.040   1.056   7.861  1.9848  0.5922 -0.3369
 3162SOL    HW221123   1.005   1.153   7.748 -1.9583 -0.4142  0.2936
 3163SOL     OW21124   2.111   0.075  10.168  0.7809 -0.4429  0.1001
 3163SOL    HW121125   2.146   0.107  10.251 -3.0512  0.1678  1.4815
 3163SOL    HW221126   2.154   0.131  10.103 -1.3006  1.0835  0.0328
 3164SOL     OW21127   3.815   1.485   3.314 -0.0550  0.0161  0.1150
 3164SOL    HW121128   3.897   1.516   3.351 -0.7884 -0.6942  2.2983
 3164SOL    HW221129   3.819   1.392   3.337  1.0376 -0.4342 -1.8775
 3165SOL     OW21130   0.360   4.357   3.013 -0.9848 -0.0086 -0.1768
 3165SOL    HW121131   0.287   4.313   2.970 -1.0403 -1.3768  1.3383
 3165SOL    HW221132   0.432   4.294   3.014 -0.2937  0.7849 -0.2711
 3166SOL     OW21133   1.980   1.426  12.485 -0.0568  0.7740 -0.0338
 3166SOL    HW121134   1.916   1.363  12.518 -0.9748  1.3192 -0.7800
 3166SOL    HW221135   2.039   1.450  12.557 -0.6084 -2.8131  1.5703
 3167SOL     OW21136   4.212   0.252  16.975 -0.2333  0.1884  0.6636
 3167SOL    HW121137   4.260   0.169  16.984  0.7021  1.0560  3.4364
 3167SOL    HW221138   4.238   0.278  17.063  1.3986 -0.5830  0.4070
 3168SOL     OW21139   1.153   3.296   0.905  0.0239  0.0960 -0.3271
 3168SOL    HW121140   1.101   3.221   0.935  1.8940 -1.8356 -1.8871
 3168SOL    HW221141   1.241   3.266   0.931 -0.4143 -2.5309 -1.8996
 3169SOL     OW21142   3.593   1.544   3.671 -0.7333  0.0681 -0.2176
 3169SOL    HW121143   3.672   1.497   3.696  0.3469  0.3153 -3.1045
 3169SOL    HW221144   3.618   1.569   3.581  0.7557 -0.1988  0.1149
 3170SOL     OW21145   2.879   4.155   1.989 -0.4570  0.4267  0.1179
 3170SOL    HW121146   2.859   4.195   1.904 -0.7433 -0.7355 -0.3676
 3170SOL    HW221147   2.973   4.167   1.975 -0.5001 -0.9545 -1.3549
 3171SOL     OW21148   3.145   2.330  14.532 -0.8077 -0.1602  0.4997
 3171SOL    HW121149   3.068   2.298  14.484  0.2434  1.6592 -2.3858
 3171SOL    HW221150   3.210   2.315  14.463 -2.1287  2.5417 -1.3266
 3172SOL     OW21151   3.320   0.620  16.091  0.3138  0.3116  0.2149
 3172SOL    HW121152   3.373   0.602  16.013 -0.0245  0.5586 -0.0707
 3172SOL    HW221153   3.307   0.715  16.088 -2.9571 -0.1387  0.8138
 3173SOL     OW21154   3.487   2.232   5.984 -0.8133  0.0220 -0.4267
 3173SOL    HW121155   3.502   2.188   5.900  0.1457 -2.9297  1.2772
 3173SOL    HW221156   3.537   2.177   6.044 -2.4605  0.0429  0.9732
 3174SOL     OW21157   0.972   0.291   4.795 -0.0430  0.0436 -0.1654
 3174SOL    HW121158   0.998   0.204   4.827 -0.2533  0.1496  0.2789
 3174SOL    HW221159   0.889   0.262   4.758 -0.5248 -1.4837  2.1063
 3175SOL     OW21160   2.456   4.614   9.747 -0.0203 -0.6947 -0.3260
 3175SOL    HW121161   2.474   4.600   9.654 -1.1003  0.5044 -0.7113
 3175SOL    HW221162   2.414   4.530   9.768  0.7692 -0.7412  1.0228
 3176SOL     OW21163   3.154   1.448  11.396  0.0012  0.3445  0.1752
 3176SOL    HW121164   3.150   1.411  11.484  2.0326 -0.6337 -0.1163
 3176SOL    HW221165   3.162   1.543  11.402 -2.1155  0.5395 -0.3757
 3177SOL     OW21166   2.774   2.322   5.659  0.0521 -0.1462  0.3154
 3177SOL    HW121167   2.802   2.404   5.700  0.3101  0.2127 -0.5672
 3177SOL    HW221168   2.763   2.347   5.567 -2.9566  0.1802  0.7615
 3178SOL     OW21169   3.694   1.598   4.903  0.3553  0.7672  0.3124
 3178SOL    HW121170   3.724   1.536   4.970 -0.7547  0.8637  0.8925
 3178SOL    HW221171   3.756   1.671   4.901 -1.4149  2.1911 -2.0329
 3179SOL     OW21172   0.363   1.143   7.920 -0.6652 -0.1089 -0.0038
 3179SOL    HW121173   0.403   1.221   7.881 -0.3551 -0.8268 -1.1060
 3179SOL    HW221174   0.427   1.122   7.988 -0.6468  2.5776  0.8361
 3180SOL     OW21175   1.996   1.708   4.687 -0.2052  1.1682 -0.1116
 3180SOL    HW121176   2.065   1.703   4.621 -0.9147  1.5774 -0.8776
 3180SOL    HW221177   1.975   1.615   4.677  0.8666  0.3867  5.0085
 3181SOL     OW21178   3.747   1.158   6.998  0.3716 -0.5291  0.2524
 3181SOL    HW121179   3.695   1.237   7.013 -0.4652 -1.2653  1.2119
 3181SOL    HW221180   3.829   1.202   7.021  0.6747 -0.0476 -1.7229
 3182SOL     OW21181   1.728   1.091   6.775  0.0002 -0.5903  0.0122
 3182SOL    HW121182   1.735   1.000   6.806 -1.8697 -0.2362  1.4535
 3182SOL    HW221183   1.727   1.129   6.863 -1.6862 -2.0658  0.6166
 3183SOL     OW21184   4.188   3.016   1.572 -0.3058  0.1035  0.2337
 3183SOL    HW121185   4.161   3.071   1.499  1.2386  0.0528 -0.3851
 3183SOL    HW221186   4.186   3.079   1.644  0.2088 -0.4545  0.7347
 3184SOL     OW21187   2.075   2.242  10.044 -0.4184  0.2230  0.1917
 3184SOL    HW121188   2.139   2.270  10.110  1.3600 -2.3704 -0.4600
 3184SOL    HW221189   2.051   2.322   9.997 -0.4014  0.3757  0.4381
 3185SOL     OW21190   2.814   2.213   2.077 -0.3619 -0.2882 -0.6763
 3185SOL    HW121191   2.832   2.192   1.985  0.6670 -2.9892  0.1301
 3185SOL    HW221192   2.727   2.177   2.096  0.4431 -1.0166  1.6528
 3186SOL     OW21193   2.875   2.068   2.383  0.1405  0.2612  0.1937
 3186SOL    HW121194   2.822   2.000   2.341  0.2368  0.1675  0.2264
 3186SOL    HW221195   2.938   2.088   2.314 -1.7206 -0.2392 -1.6612
 3187SOL     OW21196   0.739   2.368   7.161  0.8749 -0.2813 -0.1066
 3187SOL    HW121197   0.654   2.390   7.200  0.7141 -2.1905  0.6437
 3187SOL    HW221198   0.740   2.272   7.157 -0.6553 -0.3633  1.5936
 3188SOL     OW21199   0.301   3.606   3.552 -0.5991  0.2231 -0.2380
 3188SOL    HW121200   0.372   3.544   3.534 -0.8466  0.7631 -3.1044
 3188SOL    HW221201   0.280   3.643   3.466 -0.6230  0.6706 -0.0404
 3189SOL     OW21202   4.229   1.534   7.477  0.2661 -0.1114  0.0168
 3189SOL    HW121203   4.311   1.487   7.492 -0.1890  0.1453  3.4508
 3189SOL    HW221204   4.217   1.509   7.386 -1.3928 -0.5189  0.3497
 3190SOL     OW21205   4.595   0.359   3.521 -0.2631  0.2422  0.4941
 3190SOL    HW121206   4.601   0.279   3.574 -1.8387 -1.3098 -1.6571
 3190SOL    HW221207   4.688   0.379   3.515 -0.8600  2.8255  0.1308
 3191SOL     OW21208   1.581   2.055   4.302 -0.0674 -0.0269 -0.3112
 3191SOL    HW121209   1.604   2.006   4.223 -1.4523  1.7754 -1.8240
 3191SOL    HW221210   1.485   2.049   4.306 -0.0825  0.6629  0.3612
 3192SOL     OW21211   4.447   4.015  16.957 -0.0809  0.3416  0.3092
 3192SOL    HW121212   4.404   4.074  16.896 -1.8739  0.7465  1.9719
 3192SOL    HW221213   4.408   4.042  17.041  0.1799 -1.1221  0.9043
 3193SOL     OW21214   2.747   3.880   9.174  0.1685 -0.2805  0.2439
 3193SOL    HW121215   2.726   3.880   9.267  2.5473 -1.2457  0.7815
 3193SOL    HW221216   2.772   3.973   9.172  0.3414 -0.2978  1.8316
 3194SOL     OW21217   0.281   3.012  16.149 -0.0036  0.9364 -0.2193
 3194SOL    HW121218   0.339   2.955  16.199  1.0390  2.2080  0.0113
 3194SOL    HW221219   0.329   3.090  16.175  1.1228 -0.1736  1.0912
 3195SOL     OW21220   0.428   1.890  15.365 -0.4727 -0.1198  1.0697
 3195SOL    HW121221   0.521   1.899  15.388 -0.0409  0.2308 -0.8064
 3195SOL    HW221222   0.429   1.874  15.270 -0.7014  3.1232  0.5338
 3196SOL     OW21223   0.132   1.980   3.671  0.1250 -0.0596  0.2233
 3196SOL    HW121224   0.219   2.000   3.636  0.2807  0.0622  0.6836
 3196SOL    HW221225   0.116   2.055   3.728  0.8141 -0.8657  1.4727
 3197SOL     OW21226   4.235   0.543   2.950  0.1877 -0.7161  0.3307
 3197SOL    HW121227   4.317   0.588   2.970  0.2078  0.4939 -2.4936
 3197SOL    HW221228   4.259   0.453   2.971 -2.0044 -1.2410  0.6029
 3198SOL     OW21229   3.758   0.244   6.081  0.0051  0.2955 -0.2736
 3198SOL    HW121230   3.734   0.178   6.016  2.5445  0.5444 -1.4804
 3198SOL    HW221231   3.844   0.271   6.046  0.8302 -0.3432  1.2974
 3199SOL     OW21232   1.424   2.219   9.032  0.0336 -0.2108 -0.3612
 3199SOL    HW121233   1.430   2.124   9.037 -2.7443 -0.3874 -0.5230
 3199SOL    HW221234   1.443   2.234   8.940 -1.0179  0.5807 -0.4552
 3200SOL     OW21235   1.320   1.062   1.260 -0.1593 -0.0777 -0.2816
 3200SOL    HW121236   1.246   1.045   1.319 -1.9429 -0.2126 -2.5455
 3200SOL    HW221237   1.291   1.141   1.215 -2.8628 -0.8064  0.1566
 3201SOL     OW21238   0.200   1.356   9.477 -0.6555 -0.3146 -0.2702
 3201SOL    HW121239   0.189   1.274   9.430  1.1914 -1.2050  0.8717
 3201SOL    HW221240   0.148   1.421   9.430  0.0095  0.3648 -0.0641
 3202SOL     OW21241   1.775   0.648   6.051 -0.2646  0.4237  0.5688
 3202SOL    HW121242   1.775   0.717   5.985 -0.1018  0.1349  0.2616
 3202SOL    HW221243   1.726   0.688   6.123 -0.5800 -1.4381  1.3888
 3203SOL     OW21244   2.180   4.580   4.152 -0.2551 -0.1307 -0.6569
 3203SOL    HW121245   2.133   4.528   4.216 -1.8719 -0.3311 -2.0172
 3203SOL    HW221246   2.259   4.598   4.203 -0.0690 -2.0237 -0.2956
 3204SOL     OW21247   0.267   3.514   2.219 -0.3812 -0.4772  0.0880
 3204SOL    HW121248   0.182   3.549   2.192 -0.6926 -0.9396  0.4695
 3204SOL    HW221249   0.272   3.433   2.168 -0.1354  0.6066 -1.6260
 3205SOL     OW21250   0.072   2.016   9.928 -0.0455 -0.8237  0.5929
 3205SOL    HW121251   0.028   1.931   9.927 -0.8033 -0.4399  1.6230
 3205SOL    HW221252   0.089   2.024  10.022  0.6959  2.9707  0.1275
 3206SOL     OW21253   1.051   4.375  13.669 -0.2270 -0.5336  0.3726
 3206SOL    HW121254   1.098   4.456  13.689 -2.0194  0.5133  0.3342
 3206SOL    HW221255   1.112   4.312  13.709  1.9329  0.2018 -1.7933
 3207SOL     OW21256   0.287   4.237   9.101  0.2866  0.2929 -0.5970
 3207SOL    HW121257   0.246   4.223   9.187 -2.2068  0.1260 -1.8247
 3207SOL    HW221258   0.273   4.331   9.091 -0.7839  0.1802 -0.1225
 3208SOL     OW21259   3.832   4.046  12.144 -0.0572  0.4825 -0.8092
 3208SOL    HW121260   3.904   4.061  12.205 -1.8786  1.3624  1.1294
 3208SOL    HW221261   3.861   3.968  12.096 -0.5460  0.2128 -0.6661
 3209SOL     OW21262   0.229   0.778   7.837  0.2901  0.1353  0.2601
 3209SOL    HW121263   0.181   0.847   7.884  0.2050  1.6831 -2.1003
 3209SOL    HW221264   0.282   0.834   7.781 -2.4403  1.0231 -1.4131
 3210SOL     OW21265   1.489   0.386   7.362  0.3493  0.4600  0.4029
 3210SOL    HW121266   1.464   0.452   7.427  0.0730  1.0587 -0.2983
 3210SOL    HW221267   1.528   0.321   7.419 -3.6962 -1.1732  1.3380
 3211SOL     OW21268   0.848   0.565   2.542  0.0343  0.0777  0.3988
 3211SOL    HW121269   0.771   0.614   2.513  0.3075  0.6352  0.6035
 3211SOL    HW221270   0.831   0.488   2.489  0.1557  0.2038  0.1771
 3212SOL     OW21271   4.131   0.701   7.296 -0.0717  0.6244 -0.1397
 3212SOL    HW121272   4.081   0.689   7.377 -1.2467 -2.9975 -1.4135
 3212SOL    HW221273   4.204   0.659   7.341  0.0075  0.0099 -0.8404
 3213SOL     OW21274   1.497   4.729   3.007  0.0653  0.3860 -0.5934
 3213SOL    HW121275   1.485   4.715   3.101 -0.6532 -0.4760 -0.8194
 3213SOL    HW221276   1.578   4.678   3.004  0.0585  0.2659  1.1447
 3214SOL     OW21277   2.526   4.547   0.191  0.6150 -0.1716 -0.3675
 3214SOL    HW121278   2.455   4.508   0.242  0.7075 -0.9143 -0.7935
 3214SOL    HW221279   2.473   4.559   0.112  1.0438  2.0144 -0.3081
 3215SOL     OW21280   2.385   4.418  17.675 -0.2063  0.6817  0.1608
 3215SOL    HW121281   2.479   4.410  17.688 -0.0300  0.6079 -1.1253
 3215SOL    HW221282   2.393   4.401  17.581  0.3546  0.0466  0.3271
 3216SOL     OW21283   0.266   2.826   7.137 -0.5615 -0.1588  0.1882
 3216SOL    HW121284   0.356   2.850   7.117 -0.6464 -1.1226 -1.2851
 3216SOL    HW221285   0.230   2.766   7.072  1.4562 -0.2294 -0.8583
 3217SOL     OW21286   0.652   2.581   4.817  0.1410 -0.4317 -0.1660
 3217SOL    HW121287   0.589   2.645   4.851 -0.5998 -0.8780 -0.6995
 3217SOL    HW221288   0.723   2.594   4.880  0.3282  1.4443 -0.7531
 3218SOL     OW21289   3.500   3.087   6.236  0.0479 -0.1741 -0.2874
 3218SOL    HW121290   3.499   3.152   6.307 -0.1805  0.8370 -1.2088
 3218SOL    HW221291   3.449   3.139   6.174 -2.3076 -1.0336  0.9076
 3219SOL     OW21292   1.724   0.797   1.057 -0.5116  0.2208 -0.0800
 3219SOL    HW121293   1.637   0.828   1.082  0.1722  2.0730 -0.0345
 3219SOL    HW221294   1.701   0.710   1.024 -0.7566  0.8431 -1.5220
 3220SOL     OW21295   0.961   0.118  16.472 -0.0902 -0.0489 -0.0902
 3220SOL    HW121296   1.010   0.081  16.545 -0.3034 -0.2340 -0.0398
 3220SOL    HW221297   0.943   0.037  16.425 -1.0856 -0.0981  0.3724
 3221SOL     OW21298   0.721   3.162   3.360  0.1347 -0.0132 -0.3972
 3221SOL    HW121299   0.802   3.173   3.410  1.0253  0.3883 -1.9045
 3221SOL    HW221300   0.702   3.256   3.351 -1.3465 -0.3154 -0.4230
 3222SOL     OW21301   3.446   4.571   9.508 -0.3866 -0.1195  0.1981
 3222SOL    HW121302   3.413   4.481   9.515  0.5404 -0.3852  1.1682
 3222SOL    HW221303   3.407   4.602   9.426  1.2466  1.9229  0.1966
 3223SOL     OW21304   4.604   2.370   4.595  0.0614  0.2699  0.1599
 3223SOL    HW121305   4.574   2.355   4.685 -0.4109 -2.9699 -0.5300
 3223SOL    HW221306   4.579   2.291   4.546 -0.5670  0.4850  0.1387
 3224SOL     OW21307   0.595   0.996   3.490 -0.6608 -0.0608 -0.2299
 3224SOL    HW121308   0.545   1.072   3.520 -0.4912  0.3131 -0.9037
 3224SOL    HW221309   0.677   1.038   3.466 -1.4924 -0.0660 -3.0330
 3225SOL     OW21310   4.305   0.090  16.283 -0.1329 -0.1123 -0.4689
 3225SOL    HW121311   4.216   0.089  16.246 -0.1106 -4.2183 -0.4541
 3225SOL    HW221312   4.343   0.148  16.218  1.5126  0.2114  0.7921
 3226SOL     OW21313   1.517   1.974   3.844  0.0008 -0.2453 -0.0153
 3226SOL    HW121314   1.512   1.980   3.748  0.4427  1.2049  0.0556
 3226SOL    HW221315   1.592   2.030   3.865  0.8071 -1.0306 -0.8073
 3227SOL     OW21316   1.092   0.526   2.428 -0.4607 -0.4004 -0.1752
 3227SOL    HW121317   1.010   0.544   2.475  0.8229  3.1981  0.6935
 3227SOL    HW221318   1.158   0.580   2.470 -1.3583  0.6605 -0.1278
 3228SOL     OW21319   3.635   0.667   9.494 -0.6368 -0.2995  0.0200
 3228SOL    HW121320   3.582   0.661   9.574 -0.7672 -2.2364 -0.1961
 3228SOL    HW221321   3.580   0.608   9.442 -0.2784 -1.4418  0.9292
 3229SOL     OW21322   0.365   1.759   6.237 -0.1153  0.5681  0.0060
 3229SOL    HW121323   0.419   1.823   6.191  0.6663  0.3216  0.5784
 3229SOL    HW221324   0.320   1.808   6.306 -1.0467 -1.2605  0.6993
 3230SOL     OW21325   1.343   1.111   2.034 -0.5443  0.2779 -0.0258
 3230SOL    HW121326   1.265   1.067   2.069  1.1808 -1.8575  1.0954
 3230SOL    HW221327   1.349   1.186   2.094  2.3756  0.0589 -0.0637
 3231SOL     OW21328   0.537   1.607   6.722  0.5060  0.2650  0.1081
 3231SOL    HW121329   0.613   1.603   6.665  0.3267  1.2073 -0.2028
 3231SOL    HW221330   0.477   1.570   6.657 -1.7115  2.2938  0.9702
 3232SOL     OW21331   3.702   3.545   1.434  0.2584 -0.4984  0.5961
 3232SOL    HW121332   3.736   3.633   1.452  1.1296 -1.0391  1.5962
 3232SOL    HW221333   3.730   3.501   1.514  3.2493  1.1965  0.4632
 3233SOL     OW21334   2.810   2.867   7.148 -0.2801  0.5720  0.6816
 3233SOL    HW121335   2.814   2.948   7.199  0.7783  1.0634 -0.1664
 3233SOL    HW221336   2.745   2.879   7.079  0.9067 -1.5300 -0.8205
 3234SOL     OW21337   3.137   1.244  16.953 -0.4485  0.0581  0.1571
 3234SOL    HW121338   3.146   1.269  16.861 -1.2694 -1.4948 -0.3522
 3234SOL    HW221339   3.070   1.176  16.949  1.8266 -2.2561  1.9348
 3235SOL     OW21340   2.801   2.518   2.806  0.1414  0.1989 -0.4140
 3235SOL    HW121341   2.847   2.584   2.753  1.6007  1.1309  2.0100
 3235SOL    HW221342   2.752   2.580   2.860 -2.6336 -2.3787  0.0177
 3236SOL     OW21343   1.402   4.008  11.130 -0.3233 -0.2505 -0.2303
 3236SOL    HW121344   1.318   4.053  11.138  0.6087  1.6892 -1.1030
 3236SOL    HW221345   1.432   4.003  11.220 -1.3835 -0.9738  0.0766
 3237SOL     OW21346   0.399   0.089   4.924  0.6747 -0.0979  0.4734
 3237SOL    HW121347   0.311   0.127   4.927  0.9293  0.5418 -0.1816
 3237SOL    HW221348   0.452   0.164   4.952 -0.8615  0.8408  0.8789
 3238SOL     OW21349   0.571   4.173   2.859  0.2203  0.2339  0.5166
 3238SOL    HW121350   0.665   4.189   2.855  0.5838 -1.7297  1.4841
 3238SOL    HW221351   0.565   4.119   2.937 -0.7008  0.5245  0.6444
 3239SOL     OW21352   3.821   0.252   5.368 -0.3686  0.5098  0.1736
 3239SOL    HW121353   3.877   0.288   5.300  0.4445  1.4538  1.3511
 3239SOL    HW221354   3.737   0.297   5.351  0.7501  1.5127 -2.6276
 3240SOL     OW21355   0.653   4.270   7.104 -0.0377  0.0046  0.4659
 3240SOL    HW121356   0.586   4.212   7.067  0.2904  0.8588 -1.4747
 3240SOL    HW221357   0.714   4.209   7.146  0.9698  0.5943 -0.1236
 3241SOL     OW21358   3.809   0.399   1.881  1.0145 -0.3806 -0.2547
 3241SOL    HW121359   3.814   0.312   1.920  1.5380 -0.4675 -0.5126
 3241SOL    HW221360   3.871   0.394   1.808  0.9752  0.4907 -0.3499
 3242SOL     OW21361   0.858   2.189  10.230  0.2099  0.5930  0.1208
 3242SOL    HW121362   0.862   2.162  10.138 -3.4630 -2.3659  0.7992
 3242SOL    HW221363   0.948   2.177  10.260  1.0812  1.0990 -2.2963
 3243SOL     OW21364   4.665   0.909   1.432  0.2733  0.5772  0.2160
 3243SOL    HW121365   4.730   0.843   1.411 -0.7569 -0.3167 -0.1354
 3243SOL    HW221366   4.650   0.879   1.522  2.7115  0.3812  0.5416
 3244SOL     OW21367   2.244   2.141   8.269  0.0399 -0.1565 -0.2581
 3244SOL    HW121368   2.323   2.117   8.317  1.3014 -0.5498 -2.4922
 3244SOL    HW221369   2.175   2.093   8.314 -0.9424  1.8220  0.3622
 3245SOL     OW21370   2.570   2.079   2.087  0.4826  0.6888 -0.1940
 3245SOL    HW121371   2.554   2.172   2.069  0.5290  0.3213 -2.1766
 3245SOL    HW221372   2.497   2.047   2.033  0.2320 -0.0038  0.5529
 3246SOL     OW21373   2.406   4.458   2.612  0.5930  0.6312 -0.3173
 3246SOL    HW121374   2.440   4.518   2.678 -2.9688  1.6231  0.6105
 3246SOL    HW221375   2.385   4.374   2.653  0.9973  0.0605 -1.2706
 3247SOL     OW21376   3.971   0.644  12.334  0.4126 -0.8207 -0.0514
 3247SOL    HW121377   4.046   0.694  12.300  0.0708 -0.9703 -1.0183
 3247SOL    HW221378   3.897   0.687  12.292  0.6498 -2.2673 -1.9107
 3248SOL     OW21379   2.459   0.202   1.571  0.3579  0.7514  0.1001
 3248SOL    HW121380   2.434   0.263   1.502  0.7279  0.7239 -0.0598
 3248SOL    HW221381   2.436   0.251   1.650  1.3968 -0.1801  0.9884
 3249SOL     OW21382   2.635   1.011   8.917  0.4237  0.1500 -0.6096
 3249SOL    HW121383   2.651   0.998   9.010 -0.6449  0.5134 -0.3832
 3249SOL    HW221384   2.699   0.947   8.883 -0.0458 -1.7183  2.0604
 3250SOL     OW21385   3.027   1.855   7.762 -0.1893  0.1045 -0.0592
 3250SOL    HW121386   2.961   1.904   7.812  0.1433  1.4349 -0.9480
 3250SOL    HW221387   3.018   1.771   7.808 -2.2770  0.5827  0.4045
 3251SOL     OW21388   4.178   3.166   3.349  0.1818  0.2315  0.6732
 3251SOL    HW121389   4.240   3.094   3.333 -1.0341 -0.3004 -1.5430
 3251SOL    HW221390   4.240   3.239   3.349  0.1713  0.2480  1.8123
 3252SOL     OW21391   0.273   0.948   8.437 -0.0278 -0.2079  0.1712
 3252SOL    HW121392   0.340   0.882   8.419  1.1446  0.4051  2.2545
 3252SOL    HW221393   0.321   1.025   8.469 -0.1661 -0.1317  0.1968
 3253SOL     OW21394   2.504   2.752   4.900  0.1121  0.2996 -0.0148
 3253SOL    HW121395   2.533   2.744   4.990 -1.1722  0.2810  0.4000
 3253SOL    HW221396   2.517   2.664   4.866 -1.1875 -0.1383  0.6466
 3254SOL     OW21397   4.502   3.088   5.481  0.0570 -0.3710 -0.1795
 3254SOL    HW121398   4.488   3.001   5.518  1.9431 -0.1933  0.9132
 3254SOL    HW221399   4.436   3.143   5.524 -0.1112  1.1641 -2.4040
 3255SOL     OW21400   2.710   4.263   8.471 -0.2989 -0.2503 -0.7022
 3255SOL    HW121401   2.697   4.199   8.541  2.1209  1.8132  1.6515
 3255SOL    HW221402   2.804   4.262   8.449 -0.3914  0.6459 -1.1386
 3256SOL     OW21403   3.820   4.138   6.508  0.0577 -0.4503 -0.3776
 3256SOL    HW121404   3.851   4.058   6.551  1.0691  0.0324 -0.1988
 3256SOL    HW221405   3.887   4.140   6.439  0.5015 -0.8902  0.0402
 3257SOL     OW21406   0.455   4.590  12.549  0.1965  0.2154  0.9302
 3257SOL    HW121407   0.509   4.665  12.522  0.3689 -0.1976  0.1309
 3257SOL    HW221408   0.521   4.531  12.585  0.3170 -1.0480 -1.3377
 3258SOL     OW21409   0.875   0.793   2.212  0.2075  0.8886  0.2345
 3258SOL    HW121410   0.784   0.822   2.208  0.6444  2.2665 -0.0567
 3258SOL    HW221411   0.910   0.824   2.296  1.9011  2.7956 -1.1639
 3259SOL     OW21412   2.112   2.169   5.008 -0.3082 -0.2182 -0.1368
 3259SOL    HW121413   2.062   2.177   5.089  0.2309  3.6556 -0.1992
 3259SOL    HW221414   2.179   2.101   5.020 -0.6159 -0.5860 -0.5063
 3260SOL     OW21415   3.192   2.981   9.430  0.2973 -0.1533 -0.3704
 3260SOL    HW121416   3.128   3.052   9.426  1.2493  0.6797 -0.9269
 3260SOL    HW221417   3.168   2.951   9.517 -0.2516 -1.9431 -1.1354
 3261SOL     OW21418   3.917   3.834  10.122  0.3896  0.3323 -0.1804
 3261SOL    HW121419   3.835   3.818  10.074 -0.4335  0.8557  1.0536
 3261SOL    HW221420   3.884   3.836  10.212  0.0116 -0.0979 -0.3089
 3262SOL     OW21421   0.099   0.859   6.312 -0.0630 -0.5287  0.2277
 3262SOL    HW121422   0.176   0.836   6.260 -0.6903  1.5377 -1.6101
 3262SOL    HW221423   0.079   0.948   6.284  0.3281 -0.2359  0.8574
 3263SOL     OW21424   3.206   4.372   4.660  0.0981 -0.2847 -0.4724
 3263SOL    HW121425   3.269   4.434   4.697 -1.5859 -0.1467  2.1422
 3263SOL    HW221426   3.188   4.314   4.734 -0.9357  0.2971 -0.2634
 3264SOL     OW21427   3.789   2.049   4.835  0.3132 -0.4560  0.0491
 3264SOL    HW121428   3.856   2.114   4.859  0.1251 -0.0324 -0.5614
 3264SOL    HW221429   3.710   2.095   4.863  0.3227 -0.3294 -0.1274
 3265SOL     OW21430   4.127   1.614   2.341  0.6492 -0.2067 -0.5335
 3265SOL    HW121431   4.208   1.643   2.383 -0.8702  1.8079  0.9803
 3265SOL    HW221432   4.079   1.567   2.409 -0.9999  0.4496 -1.2236
 3266SOL     OW21433   3.393   0.680  14.119 -0.5164  0.3193  0.3539
 3266SOL    HW121434   3.410   0.701  14.211 -0.1897 -1.0154  0.5958
 3266SOL    HW221435   3.394   0.585  14.122 -1.3876  0.2765 -0.7982
 3267SOL     OW21436   1.519   3.809   3.808 -0.0032  0.5515  0.8133
 3267SOL    HW121437   1.507   3.856   3.890  0.8265  1.7433  0.2629
 3267SOL    HW221438   1.614   3.802   3.808  0.0415  1.0657 -1.2492
 3268SOL     OW21439   0.607   0.769  16.256 -0.0796  0.2360  0.2415
 3268SOL    HW121440   0.676   0.703  16.261  1.6487  1.9998 -0.7728
 3268SOL    HW221441   0.626   0.816  16.337  1.2192 -1.2238  0.7740
 3269SOL     OW21442   1.718   2.362  13.561  0.2502  0.1147 -0.3746
 3269SOL    HW121443   1.644   2.405  13.519  1.4098  0.4837 -2.0531
 3269SOL    HW221444   1.678   2.311  13.632  0.3149  0.1244 -0.3311
 3270SOL     OW21445   4.350   3.159   0.188  0.5547  0.3185 -0.8051
 3270SOL    HW121446   4.428   3.215   0.191  0.8808 -0.1320 -0.9050
 3270SOL    HW221447   4.303   3.201   0.116 -1.1569  0.7162  0.5504
 3271SOL     OW21448   1.411   3.125   6.629  0.3380 -0.1338 -0.3648
 3271SOL    HW121449   1.473   3.134   6.702 -1.4279 -0.6659  1.2091
 3271SOL    HW221450   1.435   3.035   6.605 -2.0708 -0.6992 -0.6824
 3272SOL     OW21451   0.688   0.556  12.442  0.9380  0.5520 -0.3550
 3272SOL    HW121452   0.632   0.554  12.365 -0.0419 -1.2351  0.4071
 3272SOL    HW221453   0.779   0.567  12.415  1.8638 -4.2106  0.9346
 3273SOL     OW21454   1.239   3.170   4.194  0.1942 -0.0172  0.1151
 3273SOL    HW121455   1.302   3.097   4.194  2.4280  1.9056 -0.8901
 3273SOL    HW221456   1.171   3.138   4.135  0.3642  0.1959 -0.1977
 3274SOL     OW21457   1.257   4.062  17.323 -0.5236  0.0886 -0.0437
 3274SOL    HW121458   1.182   4.056  17.264 -0.6142 -0.2217  0.1051
 3274SOL    HW221459   1.258   4.155  17.345 -0.9359  0.0733  0.0424
 3275SOL     OW21460   1.062   1.541  10.354  0.0440 -0.4863 -0.2471
 3275SOL    HW121461   1.070   1.502  10.442  1.8773  2.4748  0.8958
 3275SOL    HW221462   1.085   1.630  10.382  0.1622 -0.4076 -0.6067
 3276SOL     OW21463   2.112   3.882   7.488 -0.5437 -0.2865 -0.4477
 3276SOL    HW121464   2.054   3.830   7.433 -1.9046  0.8139 -0.0447
 3276SOL    HW221465   2.139   3.822   7.557 -2.3193 -0.1950  0.3080
 3277SOL     OW21466   0.834   3.914   3.762  0.0600 -0.3263 -0.1023
 3277SOL    HW121467   0.821   4.004   3.793  1.1402 -0.3776  0.5097
 3277SOL    HW221468   0.877   3.929   3.678 -1.4899  0.4124 -0.7649
 3278SOL     OW21469   3.596   3.209  16.829  0.5899  0.9138 -0.1421
 3278SOL    HW121470   3.650   3.137  16.798 -1.5595 -0.0183 -1.7783
 3278SOL    HW221471   3.561   3.243  16.746 -0.6759  1.4438  0.6030
 3279SOL     OW21472   1.555   2.716   3.041 -0.0546  0.2578 -1.1190
 3279SOL    HW121473   1.598   2.773   3.105 -0.3851 -0.2910 -0.4090
 3279SOL    HW221474   1.480   2.773   3.022 -0.8014 -0.9433 -1.7515
 3280SOL     OW21475   0.512   0.192   1.988 -0.3950  0.2609 -0.3260
 3280SOL    HW121476   0.485   0.284   1.985  1.7198  0.9066 -0.1138
 3280SOL    HW221477   0.597   0.199   1.944 -0.9773  1.9930 -1.1743
 3281SOL     OW21478   0.087   0.160   7.765  0.2349  0.6612  0.5884
 3281SOL    HW121479   0.000   0.199   7.776 -0.7363 -1.6701  1.2929
 3281SOL    HW221480   0.139   0.240   7.759  0.9799  0.1871  0.7549
 3282SOL     OW21481   0.277   2.210  14.474 -0.0190 -0.0893 -0.4016
 3282SOL    HW121482   0.200   2.168  14.434  0.1157 -1.4845  0.8216
 3282SOL    HW221483   0.237   2.293  14.499  0.0800 -0.5242  1.2157
 3283SOL     OW21484   4.581   0.843   3.246  0.4436 -0.0964  0.5029
 3283SOL    HW121485   4.499   0.794   3.254  2.0592 -2.5634  2.1161
 3283SOL    HW221486   4.627   0.776   3.297  0.2619  1.7225  3.0905
 3284SOL     OW21487   4.153   0.164   8.767 -0.0559  0.3112  0.3368
 3284SOL    HW121488   4.070   0.203   8.742 -0.3278  0.4897  1.4956
 3284SOL    HW221489   4.148   0.074   8.735  0.7151  0.7292 -0.9599
 3285SOL     OW21490   1.921   1.600   3.138  0.2145  0.0730 -0.1054
 3285SOL    HW121491   1.989   1.552   3.090  0.9319  0.2197  0.7630
 3285SOL    HW221492   1.965   1.681   3.162  0.8364 -0.2121 -0.2947
 3286SOL     OW21493   4.412   2.895   0.158 -0.5574 -0.1167 -0.0806
 3286SOL    HW121494   4.391   2.984   0.184 -0.0122 -0.2469  0.7931
 3286SOL    HW221495   4.444   2.916   0.070  0.2427 -1.6826 -0.1759
 3287SOL     OW21496   3.352   3.126   9.236 -0.0514 -0.2102 -0.0942
 3287SOL    HW121497   3.316   3.084   9.314 -0.3559  2.4203  1.2052
 3287SOL    HW221498   3.311   3.212   9.244  0.2475 -0.1133  0.3587
 3288SOL     OW21499   3.865   1.569  17.583 -0.2381  0.2999  0.2057
 3288SOL    HW121500   3.824   1.585  17.668 -0.7022  1.2013 -0.1855
 3288SOL    HW221501   3.956   1.588  17.603 -0.3815 -1.1943  2.2334
 3289SOL     OW21502   4.633   4.188   6.941  0.0615  0.7886 -0.4667
 3289SOL    HW121503   4.543   4.191   6.973  0.5556  0.0307  0.9779
 3289SOL    HW221504   4.687   4.214   7.016  1.2231 -1.7436 -0.4573
 3290SOL     OW21505   0.999   2.410   9.225  0.3652  0.0416  0.7366
 3290SOL    HW121506   1.003   2.315   9.228 -0.9581  0.0213  1.8979
 3290SOL    HW221507   0.958   2.426   9.310 -0.1501 -0.9053  0.6656
 3291SOL     OW21508   3.434   3.447  14.938 -0.0406  0.2479  1.0233
 3291SOL    HW121509   3.468   3.512  14.877  0.7610 -0.4551  0.7221
 3291SOL    HW221510   3.389   3.394  14.872  0.4081 -3.3514  3.5951
 3292SOL     OW21511   0.238   0.516  13.434 -0.1885  0.1381 -0.2501
 3292SOL    HW121512   0.164   0.459  13.416  1.0249 -1.1132 -1.2676
 3292SOL    HW221513   0.207   0.555  13.516 -1.9532 -4.3736  1.2677
 3293SOL     OW21514   0.786   4.062   6.864  0.6852  0.0420 -0.0172
 3293SOL    HW121515   0.748   4.011   6.935 -1.3197  0.2556 -0.9448
 3293SOL    HW221516   0.780   4.150   6.901  2.4362  0.2572 -0.2113
 3294SOL     OW21517   1.543   1.694   6.828 -0.4400  0.1757 -0.0210
 3294SOL    HW121518   1.551   1.630   6.899 -1.0888  0.1485  0.0298
 3294SOL    HW221519   1.476   1.753   6.862  0.6654  0.4722  1.6516
 3295SOL     OW21520   2.817   3.867   6.918  0.5273  0.0127 -0.1314
 3295SOL    HW121521   2.906   3.898   6.904  0.6815 -0.6061 -0.5279
 3295SOL    HW221522   2.783   3.945   6.963 -1.2696  0.2176 -1.8629
 3296SOL     OW21523   1.254   0.209   8.177 -0.2312 -0.4469  0.4952
 3296SOL    HW121524   1.182   0.203   8.241 -0.6663 -1.0544 -0.0563
 3296SOL    HW221525   1.224   0.283   8.126  1.4670 -0.1756 -0.0879
 3297SOL     OW21526   1.753   4.511   6.199 -0.9387  0.0617  0.1927
 3297SOL    HW121527   1.822   4.453   6.230 -0.4945 -0.2075 -1.3125
 3297SOL    HW221528   1.678   4.453   6.209 -0.9641  0.0482 -0.0706
 3298SOL     OW21529   4.687   4.099   4.846 -0.2114  0.5965  0.3729
 3298SOL    HW121530   4.655   4.181   4.885 -0.2879  0.8507 -0.2153
 3298SOL    HW221531   4.614   4.041   4.868  2.9722 -2.6892  2.3274
 3299SOL     OW21532   0.847   2.753   1.960  0.2133 -0.0799 -0.5517
 3299SOL    HW121533   0.839   2.772   1.866 -0.0459  0.0901 -0.4966
 3299SOL    HW221534   0.774   2.802   1.998 -0.1545 -0.2385 -1.0400
 3300SOL     OW21535   0.989   1.619   8.781 -0.2890  0.1604 -0.0956
 3300SOL    HW121536   0.995   1.713   8.798 -2.0175  0.1327  0.6725
 3300SOL    HW221537   0.909   1.606   8.730 -0.5267  1.9433 -0.1653
 3301SOL     OW21538   4.449   0.456   9.857  0.5062 -0.2649 -0.2669
 3301SOL    HW121539   4.415   0.382   9.807  1.2966 -0.1413 -0.9819
 3301SOL    HW221540   4.539   0.454   9.825  0.5364 -1.0804 -0.1226
 3302SOL     OW21541   1.198   1.957   0.742  0.4532 -0.0626 -0.0982
 3302SOL    HW121542   1.112   1.974   0.704  0.5976  1.9964  0.4735
 3302SOL    HW221543   1.263   1.991   0.680  1.9293 -0.4966  1.2290
 3303SOL     OW21544   2.165   0.156   7.365 -0.7618  0.1317 -0.1574
 3303SOL    HW121545   2.181   0.229   7.305 -1.6762  0.1851 -0.3428
 3303SOL    HW221546   2.097   0.116   7.311  0.5739  0.1531 -1.8376
 3304SOL     OW21547   1.070   3.043   5.753 -0.0549 -0.1622 -0.2580
 3304SOL    HW121548   1.086   2.968   5.696  0.0439  0.1926 -0.6977
 3304SOL    HW221549   0.991   3.089   5.724  1.0709  1.1447 -1.2515
 3305SOL     OW21550   1.946   4.727   5.410 -0.0464 -0.2979 -0.2737
 3305SOL    HW121551   1.896   4.711   5.490  2.9159  1.5784  1.9533
 3305SOL    HW221552   1.904   4.664   5.352 -0.8159  1.2440 -1.4158
 3306SOL     OW21553   2.100   1.405   1.152 -0.6537 -0.2292  0.2798
 3306SOL    HW121554   2.139   1.490   1.134  0.8026 -0.6635  1.3193
 3306SOL    HW221555   2.030   1.406   1.088  0.0262  3.3877 -0.4213
 3307SOL     OW21556   1.304   1.516  11.974  0.4646 -0.6836 -0.0156
 3307SOL    HW121557   1.330   1.606  11.992 -0.5684 -0.1559 -1.2466
 3307SOL    HW221558   1.223   1.538  11.929  0.9162  0.9999  0.0264
 3308SOL     OW21559   1.798   2.818  16.354 -0.2054  0.2135 -0.3797
 3308SOL    HW121560   1.725   2.814  16.415  2.1415 -1.8164  2.3015
 3308SOL    HW221561   1.869   2.846  16.412 -0.0409 -0.5682 -0.2043
 3309SOL     OW21562   1.493   1.466   8.947  0.1221  0.4987 -0.1665
 3309SOL    HW121563   1.584   1.443   8.965 -0.6837 -2.7038 -0.2405
 3309SOL    HW221564   1.463   1.394   8.891 -0.5161  0.7269 -0.1141
 3310SOL     OW21565   2.286   4.216   4.461 -0.2181  0.6648 -0.0625
 3310SOL    HW121566   2.263   4.287   4.522  2.9101  0.1988  1.6744
 3310SOL    HW221567   2.278   4.259   4.376 -2.1873  0.0107 -0.2172
 3311SOL     OW21568   1.144   3.655   5.154  0.1502  0.5436  0.5351
 3311SOL    HW121569   1.081   3.717   5.116  1.1800  0.3337 -1.5504
 3311SOL    HW221570   1.105   3.638   5.240 -1.3121  0.6593 -0.0993
 3312SOL     OW21571   1.283   1.129   1.610  0.3851 -0.2077  0.3052
 3312SOL    HW121572   1.372   1.151   1.639  0.2099 -0.0155  0.6939
 3312SOL    HW221573   1.231   1.174   1.677  0.7069  2.3779 -1.1581
 3313SOL     OW21574   1.111   2.870   6.936  0.1282 -0.9458 -0.9892
 3313SOL    HW121575   1.141   2.938   6.875  1.5997 -1.7894 -1.2137
 3313SOL    HW221576   1.022   2.902   6.955  0.4395 -0.9417  0.4637
 3314SOL     OW21577   0.708   3.885   4.135 -0.3580  0.3639  0.3528
 3314SOL    HW121578   0.635   3.866   4.076 -1.6069  0.9387  1.7103
 3314SOL    HW221579   0.662   3.859   4.215 -1.0232  2.5815  0.6906
 3315SOL     OW21580   0.502   0.169   2.699  0.1228  0.1249 -0.2013
 3315SOL    HW121581   0.567   0.180   2.631  0.0138  0.0748 -0.3138
 3315SOL    HW221582   0.547   0.205   2.775 -2.0354  1.0216  0.6605
 3316SOL     OW21583   3.790   3.237   2.069  0.0397 -0.2803 -0.3353
 3316SOL    HW121584   3.759   3.307   2.126  0.4986  0.6603 -1.2516
 3316SOL    HW221585   3.781   3.165   2.132 -0.8687 -0.0178 -0.1658
 3317SOL     OW21586   1.452   4.237  13.672  0.3103 -0.4523  0.2262
 3317SOL    HW121587   1.482   4.149  13.650 -0.6398 -0.5291 -0.7498
 3317SOL    HW221588   1.367   4.218  13.712  1.5560 -0.9805  2.6046
 3318SOL     OW21589   3.378   1.058  13.493  0.1247 -0.0061  0.5020
 3318SOL    HW121590   3.391   1.134  13.436  0.6126 -1.5146 -1.4273
 3318SOL    HW221591   3.461   1.033  13.532  0.8900  0.3011 -0.9281
 3319SOL     OW21592   0.534   1.484   3.395 -0.3009  0.4599 -0.6059
 3319SOL    HW121593   0.454   1.533   3.378 -1.1522 -0.7186 -0.0096
 3319SOL    HW221594   0.555   1.478   3.302 -0.6846 -4.3365 -0.4125
 3320SOL     OW21595   1.656   2.812  14.054 -0.1667 -0.4810 -0.2533
 3320SOL    HW121596   1.649   2.758  13.975 -0.1959 -1.5123  0.4529
 3320SOL    HW221597   1.573   2.860  14.053 -0.4797 -0.9739  1.6099
 3321SOL     OW21598   2.757   1.295   4.698  0.2761  0.4411 -0.0246
 3321SOL    HW121599   2.826   1.338   4.647 -2.2639  1.0989 -2.9025
 3321SOL    HW221600   2.780   1.322   4.787  1.7095 -0.0693 -0.2421
 3322SOL     OW21601   2.020   0.616   4.548  0.0246  0.0761 -0.0811
 3322SOL    HW121602   1.932   0.595   4.517  0.8871 -0.2529 -2.3460
 3322SOL    HW221603   2.076   0.582   4.478  1.0023 -1.4055  1.4238
 3323SOL     OW21604   3.591   0.133   4.019  0.3167  0.0336  0.1099
 3323SOL    HW121605   3.592   0.202   3.952 -4.7025  0.7829  0.7776
 3323SOL    HW221606   3.682   0.107   4.029  0.7086  0.8086 -1.3702
 3324SOL     OW21607   0.987   1.377  12.077  0.4247  0.0622  0.1535
 3324SOL    HW121608   1.057   1.320  12.110 -1.0996 -1.7240  0.3154
 3324SOL    HW221609   0.913   1.317  12.083 -0.6391  1.3783  0.0728
 3325SOL     OW21610   1.737   3.852   8.418  0.0449 -0.3038  0.4811
 3325SOL    HW121611   1.781   3.768   8.433  0.8986  0.0313 -0.1377
 3325SOL    HW221612   1.742   3.880   8.510  1.3893 -0.2234  0.3863
 3326SOL     OW21613   0.423   2.171   2.478 -0.6480 -0.4670 -0.4779
 3326SOL    HW121614   0.396   2.263   2.481  0.6304 -0.0369 -2.1479
 3326SOL    HW221615   0.486   2.178   2.406  1.1424  1.3412  1.2750
 3327SOL     OW21616   1.783   0.467   3.031 -0.0665  0.0823  0.2102
 3327SOL    HW121617   1.856   0.504   3.081  0.8732 -1.9837  0.3431
 3327SOL    HW221618   1.779   0.384   3.078 -0.4324 -1.5478 -2.7081
 3328SOL     OW21619   0.986   4.726   6.136  0.2187 -0.4464 -0.5151
 3328SOL    HW121620   1.070   4.692   6.166  0.2094 -0.0226  0.0105
 3328SOL    HW221621   1.013   0.044   6.063 -0.8184 -0.5821 -1.0079
 3329SOL     OW21622   3.189   3.892   3.194  0.3197 -0.1245 -0.3536
 3329SOL    HW121623   3.107   3.884   3.144 -1.6913 -2.1334  3.2822
 3329SOL    HW221624   3.244   3.845   3.131  2.1842 -0.4849  1.5682
 3330SOL     OW21625   2.572   3.128   2.539  0.3637 -0.3552 -0.4884
 3330SOL    HW121626   2.665   3.121   2.519 -0.1161  0.3762 -3.0487
 3330SOL    HW221627   2.536   3.047   2.503 -3.1509  1.1505 -0.4103
 3331SOL     OW21628   2.452   0.052   7.009 -0.4571  0.0560 -0.2748
 3331SOL    HW121629   2.380   0.021   7.064  0.4552 -2.2894 -0.3868
 3331SOL    HW221630   2.417   0.019   6.926 -0.9636  1.9225 -0.8065
 3332SOL     OW21631   1.103   1.627  11.811  0.1966  0.6825 -0.4283
 3332SOL    HW121632   1.118   1.722  11.814 -0.4452  0.7439  0.9840
 3332SOL    HW221633   1.149   1.603  11.730 -1.9195 -0.3647 -1.3266
 3333SOL     OW21634   1.702   0.752   9.678  0.3737 -0.3530  0.1631
 3333SOL    HW121635   1.734   0.828   9.725 -0.2072 -1.2883  2.0838
 3333SOL    HW221636   1.712   0.689   9.749  0.3194 -1.2473 -0.6198
 3334SOL     OW21637   0.162   4.214  16.650 -0.4978 -0.0475 -0.1982
 3334SOL    HW121638   0.177   4.151  16.579 -0.9825 -2.0578  1.4676
 3334SOL    HW221639   0.246   4.259  16.654 -0.0116 -0.9492 -0.3084
 3335SOL     OW21640   2.626   2.567  15.546 -0.5509 -0.1978 -0.2339
 3335SOL    HW121641   2.675   2.485  15.548 -0.2022  0.0163 -0.0781
 3335SOL    HW221642   2.660   2.617  15.620 -3.0635 -0.3323  1.0161
 3336SOL     OW21643   1.999   4.693   2.489  0.2543 -0.6084 -0.5943
 3336SOL    HW121644   2.082   4.726   2.524 -1.3157  2.4004  0.3044
 3336SOL    HW221645   2.029   4.604   2.471  1.5499 -0.3990  0.5316
 3337SOL     OW21646   2.465   0.267   1.071  0.1294 -0.2630 -0.2965
 3337SOL    HW121647   2.452   0.354   1.109 -1.6610 -0.4910 -0.3742
 3337SOL    HW221648   2.378   0.231   1.092 -0.5451  1.9287  0.6465
 3338SOL     OW21649   1.125   1.549   7.640 -0.0736  0.2681  0.1041
 3338SOL    HW121650   1.100   1.509   7.557 -1.4252 -0.8992  1.0759
 3338SOL    HW221651   1.216   1.574   7.622 -0.4033  1.7747  0.5431
 3339SOL     OW21652   1.306   0.044   3.480  0.1536  0.0856 -0.0981
 3339SOL    HW121653   1.337   0.131   3.506 -1.0968  0.2383  0.8799
 3339SOL    HW221654   1.213   0.050   3.503  0.2501 -0.9133  0.5687
 3340SOL     OW21655   2.775   2.228   4.061 -0.2589 -0.4286 -0.8085
 3340SOL    HW121656   2.680   2.231   4.046 -0.2478 -0.3859 -0.8664
 3340SOL    HW221657   2.808   2.212   3.973 -2.1006  0.6013 -1.6827
 3341SOL     OW21658   0.039   2.361   5.906  0.3882  0.2634 -0.3210
 3341SOL    HW121659   0.074   2.448   5.887  1.1003 -0.1421 -0.8531
 3341SOL    HW221660   0.038   2.368   6.002  1.4137 -0.9424 -0.2336
 3342SOL     OW21661   1.983   1.068   2.324 -0.3749  0.1552  0.0556
 3342SOL    HW121662   2.035   1.136   2.368 -1.0341 -1.2027  2.9655
 3342SOL    HW221663   1.922   1.042   2.394  1.5960 -1.0195  1.3301
 3343SOL     OW21664   1.822   2.292   2.257  0.2836  0.0233  0.1220
 3343SOL    HW121665   1.757   2.230   2.289 -0.2336  0.4642 -0.0747
 3343SOL    HW221666   1.777   2.373   2.282 -3.7250 -1.3913 -2.5853
 3344SOL     OW21667   4.224   1.556   4.848 -0.3472 -0.6499  0.0316
 3344SOL    HW121668   4.193   1.479   4.896  0.1213  0.1290  1.5962
 3344SOL    HW221669   4.310   1.572   4.886  0.5723 -4.5463 -0.4040
 3345SOL     OW21670   2.418   1.318   2.523  0.2345 -0.6274  0.2929
 3345SOL    HW121671   2.493   1.261   2.542 -0.4210 -1.6580 -0.2117
 3345SOL    HW221672   2.455   1.400   2.491 -1.9616 -0.4428 -1.7603
 3346SOL     OW21673   1.536   0.610   3.116 -0.0202  0.1867 -0.0115
 3346SOL    HW121674   1.468   0.565   3.066 -0.0924 -0.4611  0.6711
 3346SOL    HW221675   1.610   0.550   3.107  0.0725  0.3953 -0.5860
 3347SOL     OW21676   4.231   3.141   4.399 -0.2527 -0.0592 -0.6529
 3347SOL    HW121677   4.239   3.214   4.461  0.3548 -1.0471  0.4306
 3347SOL    HW221678   4.223   3.061   4.450  1.5837  0.1514 -0.0319
 3348SOL     OW21679   4.287   3.535   1.234  0.1040 -0.4309  0.9612
 3348SOL    HW121680   4.277   3.460   1.175  0.4083 -1.2921  2.0102
 3348SOL    HW221681   4.249   3.513   1.319  2.3316 -0.6559  1.8968
 3349SOL     OW21682   3.231   4.112  14.688  0.0060  0.1670  0.6091
 3349SOL    HW121683   3.136   4.118  14.679  0.2106  1.0388 -1.0595
 3349SOL    HW221684   3.226   4.128  14.782 -1.7954 -1.7708  0.8251
 3350SOL     OW21685   3.829   3.869   7.944 -0.4858 -0.2331  0.0711
 3350SOL    HW121686   3.899   3.807   7.924 -0.8177 -1.1278  1.6915
 3350SOL    HW221687   3.819   3.855   8.038  1.3063 -0.2785  0.2575
 3351SOL     OW21688   1.198   3.331   0.615 -0.1792 -0.1167  0.0667
 3351SOL    HW121689   1.186   3.336   0.710 -1.6338  0.9940 -0.1748
 3351SOL    HW221690   1.149   3.249   0.605 -0.5963  0.3114 -1.2825
 3352SOL     OW21691   2.346   0.758   8.597  0.2257 -0.0453  0.5756
 3352SOL    HW121692   2.308   0.744   8.510  0.5998  1.4295  0.1742
 3352SOL    HW221693   2.362   0.670   8.632  0.2002 -0.0075  0.6817
 3353SOL     OW21694   2.034   3.827   9.312 -0.0639  0.1034  0.2404
 3353SOL    HW121695   1.993   3.780   9.385 -2.0135 -1.5590 -1.9013
 3353SOL    HW221696   2.003   3.915   9.330  1.8712  0.8863 -0.3031
 3354SOL     OW21697   0.799   2.602  12.385 -0.6577 -0.3461 -0.1388
 3354SOL    HW121698   0.731   2.648  12.335  1.1754  1.5803 -0.8143
 3354SOL    HW221699   0.749   2.597  12.466 -0.4705  0.9377  0.0486
 3355SOL     OW21700   1.399   0.307  12.412 -0.3146 -0.1534 -0.2204
 3355SOL    HW121701   1.344   0.365  12.466 -0.9197 -3.6917  3.0202
 3355SOL    HW221702   1.386   0.225  12.459  0.8816 -0.2955 -0.1416
 3356SOL     OW21703   1.242   1.793   8.902  0.2317 -0.2800  0.2381
 3356SOL    HW121704   1.272   1.847   8.976 -0.9710  1.3044 -0.4304
 3356SOL    HW221705   1.236   1.864   8.837  0.5700 -0.2561  0.2341
 3357SOL     OW21706   4.528   4.400   3.054 -0.4487  0.2640 -0.3833
 3357SOL    HW121707   4.577   4.374   2.976  0.0253 -0.5788  0.1949
 3357SOL    HW221708   4.455   4.439   3.006 -1.0163 -1.5428 -0.9937
 3358SOL     OW21709   2.999   0.877   0.550 -0.2608 -0.0781 -0.1218
 3358SOL    HW121710   2.960   0.937   0.486 -0.8198  0.6475  0.8966
 3358SOL    HW221711   2.930   0.870   0.616 -0.0324  0.5936  0.1886
 3359SOL     OW21712   4.050   1.553   8.811  0.3965  0.2318 -0.0064
 3359SOL    HW121713   4.034   1.466   8.844  1.6396  0.6406  1.6668
 3359SOL    HW221714   3.995   1.565   8.733 -0.2620  0.5935  0.5229
 3360SOL     OW21715   2.925   2.288   5.976 -0.1083  0.0557 -0.2316
 3360SOL    HW121716   2.973   2.262   6.055  1.3309  2.3281 -0.3682
 3360SOL    HW221717   2.999   2.305   5.919  0.3918  0.8189  0.6427
 3361SOL     OW21718   1.631   3.086   1.198 -0.1766 -0.1761 -0.4479
 3361SOL    HW121719   1.630   3.128   1.284  2.3818  2.5713 -1.7847
 3361SOL    HW221720   1.718   3.048   1.207 -0.5618 -0.5062  1.9042
 3362SOL     OW21721   3.956   3.064   7.523 -0.5449  0.0206  0.2385
 3362SOL    HW121722   4.010   3.004   7.472 -0.0697  0.4553  0.2247
 3362SOL    HW221723   4.024   3.095   7.583  0.0408  1.1978 -1.0354
 3363SOL     OW21724   2.375   1.683   4.571  0.2430  0.2030 -0.3597
 3363SOL    HW121725   2.355   1.722   4.656  1.1113 -0.2613  0.0568
 3363SOL    HW221726   2.293   1.655   4.530 -0.8829  0.2167  1.8640
 3364SOL     OW21727   0.314   1.541  14.558  0.2448 -0.4584  0.4363
 3364SOL    HW121728   0.303   1.446  14.566  1.3724 -0.4436  2.2976
 3364SOL    HW221729   0.234   1.569  14.602 -0.4597 -0.0545 -1.1314
 3365SOL     OW21730   0.193   0.493  16.526  0.1596  0.1907  0.6232
 3365SOL    HW121731   0.176   0.414  16.577  0.1711 -0.6905 -0.7248
 3365SOL    HW221732   0.212   0.552  16.599  0.3667 -0.8576  1.4075
 3366SOL     OW21733   0.871   1.305  10.732 -0.3962 -0.3243  0.2519
 3366SOL    HW121734   0.802   1.261  10.683 -0.8353 -2.1417  2.5230
 3366SOL    HW221735   0.828   1.371  10.787  1.0890  2.6974 -2.2015
 3367SOL     OW21736   1.466   4.442   2.790  0.0389 -0.1459  0.5522
 3367SOL    HW121737   1.506   4.500   2.726  0.2728 -0.7657  0.1388
 3367SOL    HW221738   1.517   4.362   2.781 -1.0935 -0.7679 -0.4421
 3368SOL     OW21739   3.030   2.183   7.533  0.8731  0.4259 -0.7413
 3368SOL    HW121740   2.966   2.172   7.603  1.8330  2.5460  0.4674
 3368SOL    HW221741   3.104   2.129   7.563  0.4774  0.2381 -0.1095
 3369SOL     OW21742   2.672   1.078  16.345 -0.0868  0.5993 -0.0147
 3369SOL    HW121743   2.720   1.045  16.421 -2.1978 -1.2208  0.5227
 3369SOL    HW221744   2.741   1.128  16.302  1.2777  1.4925  3.1957
 3370SOL     OW21745   2.620   3.317   5.827  0.4116 -0.1296 -0.1296
 3370SOL    HW121746   2.655   3.278   5.747 -1.5581 -0.4981 -0.8011
 3370SOL    HW221747   2.540   3.270   5.850  0.1310  0.0251 -0.7981
 3371SOL     OW21748   1.489   3.428   9.635  0.0514  0.0732 -0.1856
 3371SOL    HW121749   1.465   3.342   9.600 -1.7892 -0.1416  1.5852
 3371SOL    HW221750   1.417   3.448   9.696  2.3776  2.5625  1.7659
 3372SOL     OW21751   2.424   0.629   6.289  0.2485 -1.1395 -0.0167
 3372SOL    HW121752   2.409   0.713   6.247 -0.2920 -2.0550 -1.6454
 3372SOL    HW221753   2.346   0.621   6.344  1.2175 -0.7247  1.4279
 3373SOL     OW21754   4.262   2.424  12.791  0.4079  0.5520  0.8559
 3373SOL    HW121755   4.182   2.383  12.760 -0.0553  1.6325  0.6328
 3373SOL    HW221756   4.262   2.391  12.881 -0.9286 -0.7903  0.3454
 3374SOL     OW21757   2.207   1.807   3.986 -0.6303 -0.2102 -0.6026
 3374SOL    HW121758   2.189   1.894   4.022 -1.7859  0.3901 -2.6228
 3374SOL    HW221759   2.191   1.753   4.064 -1.6433 -0.2602 -0.8373
 3375SOL     OW21760   4.481   4.167   5.075 -0.5124 -0.6211 -0.4062
 3375SOL    HW121761   4.478   4.098   5.141 -2.0202  0.5282  0.7059
 3375SOL    HW221762   4.534   4.234   5.118  0.5581 -0.5951 -1.7614
 3376SOL     OW21763   0.852   3.330   6.138  0.0991  0.6692 -0.0770
 3376SOL    HW121764   0.784   3.268   6.110 -1.0496  0.6281  2.8159
 3376SOL    HW221765   0.908   3.277   6.194 -2.1146  0.6801  2.1939
 3377SOL     OW21766   1.178   0.992   9.878 -0.1932 -0.5833  0.2173
 3377SOL    HW121767   1.116   0.937   9.925  0.0230 -0.4318  0.6889
 3377SOL    HW221768   1.239   1.001   9.952 -1.0800  1.2874  0.7191
 3378SOL     OW21769   3.905   0.084   4.310  0.0408  0.0744  0.8335
 3378SOL    HW121770   3.819   0.113   4.279  0.1609  1.3433  1.6727
 3378SOL    HW221771   3.894   0.072   4.404  1.5777 -2.8797  0.6161
 3379SOL     OW21772   0.728   4.346  15.978 -0.1384 -0.3884  0.0223
 3379SOL    HW121773   0.656   4.317  16.034 -0.3558 -1.2153 -0.6973
 3379SOL    HW221774   0.750   4.260  15.943 -1.3891 -0.3483 -0.8291
 3380SOL     OW21775   1.120   1.086   9.605  0.0361  0.3353  0.6005
 3380SOL    HW121776   1.148   1.055   9.691 -0.3146 -2.6128 -0.3357
 3380SOL    HW221777   1.198   1.122   9.564 -0.3605 -0.6591 -1.0835
 3381SOL     OW21778   0.347   0.541  14.193 -0.1556  0.2529  0.4725
 3381SOL    HW121779   0.307   0.605  14.133  1.3631 -0.4451 -1.2562
 3381SOL    HW221780   0.293   0.465  14.170 -0.2930  1.1977 -2.4158
 3382SOL     OW21781   1.921   3.850  14.365  0.1409  0.3412 -0.0306
 3382SOL    HW121782   1.956   3.931  14.329 -0.7468  0.3296 -0.9359
 3382SOL    HW221783   1.984   3.834  14.435 -1.3116 -1.4380  0.8998
 3383SOL     OW21784   1.439   2.542   4.126  0.0574 -0.0388  0.3684
 3383SOL    HW121785   1.415   2.633   4.107  0.0429  0.0509  0.8247
 3383SOL    HW221786   1.486   2.546   4.209  0.1139 -0.5063  0.3604
 3384SOL     OW21787   2.762   3.385  16.330  0.1418  0.0840  0.0482
 3384SOL    HW121788   2.798   3.363  16.416  0.8296 -0.1255 -0.2913
 3384SOL    HW221789   2.728   3.304  16.292  0.6780 -0.6435  1.1174
 3385SOL     OW21790   2.952   2.911   7.742 -0.4035 -0.1664 -0.3773
 3385SOL    HW121791   2.957   3.005   7.755 -2.4983  0.2865 -2.9603
 3385SOL    HW221792   3.014   2.879   7.807  0.9786  0.9606 -1.1605
 3386SOL     OW21793   3.004   4.053  14.425 -0.3393  0.1419 -0.3517
 3386SOL    HW121794   3.046   3.980  14.469 -2.3870 -0.9843 -0.3124
 3386SOL    HW221795   2.910   4.045  14.441  0.0783 -0.3630  1.8082
 3387SOL     OW21796   4.064   0.852   4.128  0.1046  0.0161 -0.1168
 3387SOL    HW121797   4.052   0.933   4.078 -0.5529 -0.3104 -0.4754
 3387SOL    HW221798   4.113   0.885   4.204  1.7202  0.2787 -1.2908
 3388SOL     OW21799   3.024   1.052   1.378  0.2506  0.2573 -0.4525
 3388SOL    HW121800   3.078   1.077   1.453 -1.0606 -1.1092  0.9795
 3388SOL    HW221801   2.953   1.114   1.392 -0.8616 -1.0989  0.0149
 3389SOL     OW21802   0.344   0.820   4.997 -0.1868  0.6144  0.0394
 3389SOL    HW121803   0.435   0.812   5.023  0.1052 -0.3212 -1.2692
 3389SOL    HW221804   0.344   0.767   4.916  0.3219 -0.7264  0.9196
 3390SOL     OW21805   3.885   1.365   6.687 -0.3372 -0.3292  0.0356
 3390SOL    HW121806   3.953   1.412   6.735  1.8095 -1.5158 -1.8369
 3390SOL    HW221807   3.941   1.291   6.666 -1.3681 -1.5721  1.6976
 3391SOL     OW21808   4.474   0.240   1.095  0.9207  0.0759 -0.5121
 3391SOL    HW121809   4.427   0.302   1.039  0.4474 -0.8989 -1.2009
 3391SOL    HW221810   4.503   0.300   1.164 -2.2820  1.3096 -0.2455
 3392SOL     OW21811   2.531   4.331  15.808  0.8989  0.3436  0.3124
 3392SOL    HW121812   2.546   4.415  15.851  0.9620  0.5098 -0.0323
 3392SOL    HW221813   2.502   4.365  15.723  1.3048 -2.8293 -1.1050
 3393SOL     OW21814   2.978   1.785   5.378 -0.3720 -0.1109  0.1032
 3393SOL    HW121815   2.915   1.845   5.338  0.0787  0.8679  0.8797
 3393SOL    HW221816   3.028   1.749   5.304  0.1538 -2.4894  1.6287
 3394SOL     OW21817   2.592   4.364   5.230 -0.1217  0.0413  0.3981
 3394SOL    HW121818   2.633   4.434   5.281  0.6664  0.3357 -0.6445
 3394SOL    HW221819   2.638   4.394   5.152 -1.1516 -1.0961 -0.6516
 3395SOL     OW21820   2.399   1.474   6.153 -0.4729  0.0091  0.4251
 3395SOL    HW121821   2.311   1.492   6.186 -0.9006 -0.2087 -0.6064
 3395SOL    HW221822   2.417   1.391   6.197  0.9657  0.2772  0.3520
 3396SOL     OW21823   1.554   2.796  16.510  0.7134 -0.2861 -0.7696
 3396SOL    HW121824   1.530   2.872  16.563  4.2957  0.9339 -0.8658
 3396SOL    HW221825   1.525   2.722  16.564  0.2314  0.0249 -0.6087
 3397SOL     OW21826   1.163   0.830   2.385 -0.5192  0.1208 -0.3878
 3397SOL    HW121827   1.221   0.836   2.461  1.7197  2.3004 -2.2187
 3397SOL    HW221828   1.079   0.842   2.429 -0.7375 -0.1389 -0.7388
 3398SOL     OW21829   1.278   0.394   0.582  0.0546  0.5050  0.0422
 3398SOL    HW121830   1.190   0.378   0.617  0.7268 -2.6517  0.2289
 3398SOL    HW221831   1.265   0.474   0.530  1.5007  0.4961 -0.3225
 3399SOL     OW21832   1.888   0.480  10.623  0.0088 -0.1982 -1.0059
 3399SOL    HW121833   1.793   0.484  10.621 -0.0517 -0.5397  0.8780
 3399SOL    HW221834   1.902   0.571  10.596  0.8062 -0.4454 -1.4503
 3400SOL     OW21835   4.179   0.725  12.831 -0.2294 -0.1086 -0.1949
 3400SOL    HW121836   4.208   0.713  12.922  2.0536 -1.1912 -1.0711
 3400SOL    HW221837   4.113   0.657  12.829  1.1022 -1.3748 -0.9904
 3401SOL     OW21838   3.480   0.994   5.720 -0.0632  0.4762  0.1057
 3401SOL    HW121839   3.484   1.074   5.667  0.7351  1.0929  1.1090
 3401SOL    HW221840   3.471   0.931   5.649 -1.7561  0.0328  0.7058
 3402SOL     OW21841   2.499   0.939   2.067  0.7051 -0.9075 -0.0669
 3402SOL    HW121842   2.495   1.026   2.107  1.3834 -1.1363  0.4933
 3402SOL    HW221843   2.403   0.931   2.070  0.5570  0.8686  0.0419
 3403SOL     OW21844   1.924   0.145   8.202 -0.7089 -0.0308 -0.4767
 3403SOL    HW121845   1.981   0.197   8.144  0.9675 -1.2638  0.0415
 3403SOL    HW221846   1.873   0.219   8.233 -1.4786 -0.9232  0.3976
 3404SOL     OW21847   3.957   2.757   9.022  0.6921  0.3434  0.3969
 3404SOL    HW121848   3.993   2.669   9.026 -0.0406 -0.0214 -1.0591
 3404SOL    HW221849   3.896   2.749   9.095  2.0035  0.0913  1.4671
 3405SOL     OW21850   2.111   2.564   1.890  0.4294  0.5168  0.3889
 3405SOL    HW121851   2.132   2.656   1.907  1.3607  0.1842  1.0149
 3405SOL    HW221852   2.015   2.563   1.899  0.6112 -1.2855  2.2665
 3406SOL     OW21853   1.604   1.559  13.385  0.3604  0.3388 -0.0337
 3406SOL    HW121854   1.690   1.592  13.408  0.4329 -0.6739  1.1281
 3406SOL    HW221855   1.629   1.471  13.356  0.4159  0.6865 -1.0239
 3407SOL     OW21856   2.666   3.539   2.068 -0.0435 -0.1665  0.3063
 3407SOL    HW121857   2.622   3.457   2.045 -0.6155  0.3765 -0.5399
 3407SOL    HW221858   2.597   3.595   2.104  1.2712  1.3732  0.4146
 3408SOL     OW21859   0.325   2.696   6.441 -0.1018  0.6981  0.0140
 3408SOL    HW121860   0.417   2.685   6.466 -0.0665 -1.1134 -0.8953
 3408SOL    HW221861   0.320   2.787   6.470 -0.9288  1.2359 -1.8323
 3409SOL     OW21862   0.140   1.604   1.110  0.1428 -0.2070 -0.0995
 3409SOL    HW121863   0.085   1.552   1.051 -1.5673  0.7628  0.6347
 3409SOL    HW221864   0.090   1.686   1.102 -1.6211 -1.2849 -0.1992
 3410SOL     OW21865   0.367   0.703  17.736  0.2519  0.8467  0.0590
 3410SOL    HW121866   0.383   0.720   0.082  0.8496  0.4392  0.0301
 3410SOL    HW221867   0.287   0.653   0.002  0.2187  0.6912 -0.7208
 3411SOL     OW21868   1.782   4.555   7.164  0.0518 -0.1422 -0.0145
 3411SOL    HW121869   1.700   4.512   7.188  0.2418 -0.3627  0.2260
 3411SOL    HW221870   1.748   4.639   7.133 -0.6537 -1.0178 -1.5998
 3412SOL     OW21871   3.316   2.145   3.866 -0.2118  0.1554  0.7562
 3412SOL    HW121872   3.256   2.216   3.889 -0.5594  0.2464 -0.4365
 3412SOL    HW221873   3.367   2.157   3.947 -0.4665 -1.3524  1.1473
 3413SOL     OW21874   2.217   1.349   4.625 -0.1872  0.1089 -0.2123
 3413SOL    HW121875   2.279   1.318   4.559  2.0414  0.8124  1.5374
 3413SOL    HW221876   2.278   1.342   4.698  0.3101  1.8186 -0.4456
 3414SOL     OW21877   4.521   1.781   8.945  0.1337 -0.3715  0.0362
 3414SOL    HW121878   4.446   1.723   8.932 -0.8495  1.2276 -1.4161
 3414SOL    HW221879   4.486   1.869   8.931  0.3440 -0.2034  0.5699
 3415SOL     OW21880   1.779   2.798  15.461 -0.2405 -0.4982 -0.3498
 3415SOL    HW121881   1.837   2.765  15.530  0.7263  2.8671  0.4459
 3415SOL    HW221882   1.828   2.871  15.423 -1.1766  0.3295  0.0528
 3416SOL     OW21883   2.312   1.412   8.839  0.1120  0.2073 -0.5015
 3416SOL    HW121884   2.388   1.371   8.880 -2.9984 -0.9691  4.1383
 3416SOL    HW221885   2.285   1.345   8.776 -0.2019 -0.4903  0.3738
 3417SOL     OW21886   3.901   1.230   2.677 -0.6423  0.1542  0.3657
 3417SOL    HW121887   3.895   1.230   2.772 -0.9584 -1.0153  0.3499
 3417SOL    HW221888   3.811   1.213   2.648 -0.6114 -0.5099  0.6498
 3418SOL     OW21889   4.114   2.566  14.428 -0.2708  0.1986  0.1413
 3418SOL    HW121890   4.110   2.507  14.353  2.3339 -0.3289  0.4367
 3418SOL    HW221891   4.135   2.647  14.382  0.4317 -0.0254  0.0730
 3419SOL     OW21892   1.042   2.737  11.584 -0.8505  0.2305 -0.2716
 3419SOL    HW121893   1.012   2.773  11.667 -1.4475 -2.3292  0.6124
 3419SOL    HW221894   0.967   2.692  11.546 -1.7760  1.4462  0.1247
 3420SOL     OW21895   3.533   1.767  14.679 -0.3131  0.0005 -0.3647
 3420SOL    HW121896   3.593   1.812  14.739 -0.6012 -3.0328  2.2545
 3420SOL    HW221897   3.572   1.783  14.594 -0.7359  2.0561 -0.1529
 3421SOL     OW21898   4.570   0.018   8.608 -0.5661  0.4357 -0.0832
 3421SOL    HW121899   4.636   0.084   8.590  1.2879 -1.8394 -1.5761
 3421SOL    HW221900   4.580   0.003   8.702 -0.2469 -1.3182 -0.3810
 3422SOL     OW21901   0.561   2.679  11.853  0.4714  0.6347  0.6910
 3422SOL    HW121902   0.538   2.612  11.918  0.1502 -0.7158 -0.7995
 3422SOL    HW221903   0.656   2.675  11.866  0.4127 -0.5039  0.8212
 3423SOL     OW21904   2.398   3.157   8.725  0.0633 -0.2861  0.5132
 3423SOL    HW121905   2.456   3.183   8.797  1.8238 -0.5004 -0.8441
 3423SOL    HW221906   2.323   3.116   8.767 -0.2262 -1.5440 -1.2606
 3424SOL     OW21907   1.375   3.591   9.276 -0.0259 -0.1842  1.1187
 3424SOL    HW121908   1.328   3.520   9.232 -2.4073  1.3435  1.1991
 3424SOL    HW221909   1.380   3.656   9.205 -0.9522 -0.3411  0.9106
 3425SOL     OW21910   3.583   4.265  10.658  0.8344 -0.1505  0.2380
 3425SOL    HW121911   3.560   4.330  10.591  1.0002  0.4426  0.7545
 3425SOL    HW221912   3.659   4.303  10.701  2.0842 -3.8665  1.3023
 3426SOL     OW21913   0.504   4.364   2.649 -0.2752  0.7821  0.2491
 3426SOL    HW121914   0.503   4.296   2.716 -1.5028 -0.7460 -1.2970
 3426SOL    HW221915   0.567   4.327   2.587  0.0809  0.9746  0.4965
 3427SOL     OW21916   3.751   2.856  17.682  1.0428  0.1959  0.0559
 3427SOL    HW121917   3.677   2.902  17.719  1.3308 -0.4774  1.4486
 3427SOL    HW221918   3.767   2.784  17.743  0.0756  0.5377  0.7014
 3428SOL     OW21919   3.189   0.039   5.992 -0.0001  0.1928 -0.0923
 3428SOL    HW121920   3.101   0.070   6.013  0.5803  1.8010 -0.0675
 3428SOL    HW221921   3.233   0.115   5.955 -1.5344  0.6499 -0.9904
 3429SOL     OW21922   3.459   4.623  10.531 -0.2838 -0.2381  0.0133
 3429SOL    HW121923   3.536   4.676  10.509  0.1330 -0.5343  0.7601
 3429SOL    HW221924   3.506   4.540  10.535 -1.6536 -1.0160 -0.1865
 3430SOL     OW21925   0.027   2.041   5.871  0.1043  0.0067 -0.5395
 3430SOL    HW121926   4.671   2.027   5.854 -0.1735 -1.6204  2.3833
 3430SOL    HW221927   0.032   2.134   5.849 -0.6092 -0.2105 -1.6201
 3431SOL     OW21928   1.672   4.300   5.527  0.4980 -0.7719 -0.0415
 3431SOL    HW121929   1.632   4.257   5.452  0.8560 -0.9881 -0.1102
 3431SOL    HW221930   1.759   4.271   5.500  0.1161  0.2709 -2.4080
 3432SOL     OW21931   2.498   3.493  17.295  0.0979  0.2174 -0.1880
 3432SOL    HW121932   2.411   3.527  17.270 -0.2852 -0.2070  0.5819
 3432SOL    HW221933   2.491   3.402  17.266 -0.3637 -0.2562  1.4273
 3433SOL     OW21934   2.808   0.753   5.354  0.3313 -0.0571  0.0478
 3433SOL    HW121935   2.769   0.680   5.306 -2.7178  1.5427  0.0838
 3433SOL    HW221936   2.880   0.705   5.396 -0.1259  0.0061  0.9039
 3434SOL     OW21937   1.418   3.725   0.093 -0.5655 -0.2855  0.3779
 3434SOL    HW121938   1.389   3.679   0.173 -3.4839  0.9499  0.0528
 3434SOL    HW221939   1.373   3.809   0.104 -2.3723 -1.3827  1.4473
 3435SOL     OW21940   1.417   0.987   8.644  0.1194 -0.1880  0.2314
 3435SOL    HW121941   1.441   1.033   8.564 -1.0718 -0.9431 -0.5485
 3435SOL    HW221942   1.396   1.068   8.692 -0.1118 -0.4846  0.6297
 3436SOL     OW21943   0.792   3.893   2.277 -0.2619 -0.7008 -0.4483
 3436SOL    HW121944   0.855   3.821   2.285 -0.8077 -1.1452 -0.1192
 3436SOL    HW221945   0.718   3.868   2.334 -0.3440  1.2035  0.2617
 3437SOL     OW21946   4.715   0.446   2.888  0.8467 -0.2497 -0.5740
 3437SOL    HW121947   4.663   0.377   2.846  0.0467  0.0513 -0.0717
 3437SOL    HW221948   0.038   0.474   2.819  1.4173  3.3239  1.3940
 3438SOL     OW21949   2.434   0.478   3.451 -0.1922  0.1282  0.0860
 3438SOL    HW121950   2.521   0.511   3.429  0.2922 -2.4823 -1.8744
 3438SOL    HW221951   2.465   0.429   3.528  2.6605 -0.9432 -1.7666
 3439SOL     OW21952   0.604   1.025   9.459  0.2874  0.2665  0.2195
 3439SOL    HW121953   0.664   1.099   9.451  1.0412 -0.3711  0.0040
 3439SOL    HW221954   0.620   0.999   9.549 -0.4026  0.8510  0.5183
 3440SOL     OW21955   2.390   1.858   1.669 -0.1529 -0.0399 -0.6414
 3440SOL    HW121956   2.436   1.888   1.747  0.0803 -0.9604 -0.4360
 3440SOL    HW221957   2.376   1.934   1.612  1.2566 -0.9667 -2.2276
 3441SOL     OW21958   3.550   1.732  14.296  0.5113 -0.6743 -0.0923
 3441SOL    HW121959   3.575   1.641  14.285  0.3034 -0.6168 -1.0699
 3441SOL    HW221960   3.627   1.764  14.342  1.0285  0.0488 -1.4474
 3442SOL     OW21961   2.911   0.340   8.127  0.2154  0.0499  0.5014
 3442SOL    HW121962   2.820   0.346   8.096  1.1384  3.7254 -1.4517
 3442SOL    HW221963   2.941   0.427   8.103 -1.4514  0.5037  0.0602
 3443SOL     OW21964   2.173   1.872   8.612 -0.2286 -0.4809  0.4158
 3443SOL    HW121965   2.114   1.924   8.666 -0.1302  0.4699 -0.3804
 3443SOL    HW221966   2.177   1.791   8.663 -0.6434 -1.6217 -1.3681
 3444SOL     OW21967   0.546   1.962  11.547 -0.1997 -0.4391  0.0152
 3444SOL    HW121968   0.458   1.965  11.509  0.2326  3.6187 -0.6568
 3444SOL    HW221969   0.590   1.911  11.480 -2.0471  0.5291 -1.9407
 3445SOL     OW21970   0.418   3.463   8.247  0.2257 -0.6431  0.0721
 3445SOL    HW121971   0.396   3.370   8.248  1.1826 -0.8464  2.6274
 3445SOL    HW221972   0.350   3.501   8.191 -0.3707  2.0189  2.5864
 3446SOL     OW21973   3.574   3.216   2.405  0.1850 -0.7003 -0.0014
 3446SOL    HW121974   3.507   3.212   2.337 -0.3169 -0.6422  0.4971
 3446SOL    HW221975   3.617   3.135   2.379  1.4201  0.3336 -1.1844
 3447SOL     OW21976   3.976   2.723  11.910 -0.5942 -0.6482  0.1951
 3447SOL    HW121977   3.893   2.675  11.906 -0.9996 -0.0082  0.8279
 3447SOL    HW221978   3.950   2.809  11.878  0.1694 -0.4288  0.1601
 3448SOL     OW21979   3.310   4.717   7.723 -0.1206  0.1562 -0.6196
 3448SOL    HW121980   3.388   4.683   7.679  0.1679  0.4240 -0.3139
 3448SOL    HW221981   3.286   0.049   7.661 -2.3692  0.0720  0.1663
 3449SOL     OW21982   0.593   0.430   3.485 -0.2447  0.1283 -0.0722
 3449SOL    HW121983   0.665   0.479   3.446  1.4415 -0.5355  2.2177
 3449SOL    HW221984   0.524   0.425   3.418  0.3415 -1.9681 -0.5300
 3450SOL     OW21985   2.524   4.026   4.331  0.1760 -0.0413 -0.4013
 3450SOL    HW121986   2.458   4.065   4.274 -0.8805 -0.5172  0.5177
 3450SOL    HW221987   2.495   4.047   4.419 -1.0948 -0.3280 -0.7603
 3451SOL     OW21988   2.563   3.878   2.366  0.1294 -0.3878 -0.0058
 3451SOL    HW121989   2.641   3.834   2.401 -0.0241 -0.6446  0.0179
 3451SOL    HW221990   2.513   3.892   2.446 -1.4480  0.2053 -1.1074
 3452SOL     OW21991   3.546   2.025  15.670  0.4101  0.0182 -0.1957
 3452SOL    HW121992   3.534   2.083  15.595  0.9955  0.2503 -0.1126
 3452SOL    HW221993   3.487   2.049  15.742 -0.5254 -2.1706 -0.2504
 3453SOL     OW21994   3.518   1.063   7.933  0.2725 -0.4090 -0.0695
 3453SOL    HW121995   3.433   1.056   7.888  0.0428  0.4704  0.2168
 3453SOL    HW221996   3.554   1.148   7.905  0.3513 -0.0343  1.1952
 3454SOL     OW21997   0.755   3.583   3.036  0.4832  0.2353 -0.5726
 3454SOL    HW121998   0.846   3.600   3.058  0.4094  1.8807 -1.5255
 3454SOL    HW221999   0.731   3.676   3.045  2.2197  0.6631 -0.5128
 3455SOL     OW22000   4.478   4.117   2.503 -0.7872  0.3441  0.4711
 3455SOL    HW122001   4.553   4.057   2.508 -0.7415  0.2366 -1.5091
 3455SOL    HW222002   4.522   4.201   2.489 -1.0514  0.2386 -1.0633
 3456SOL     OW22003   3.459   3.422   9.411 -0.6873 -0.1685 -0.4257
 3456SOL    HW122004   3.492   3.486   9.347  2.0397 -0.8044  0.3508
 3456SOL    HW222005   3.542   3.409   9.457 -1.4733  2.7011  1.8189
 3457SOL     OW22006   2.145   1.084   0.980  0.1892 -0.0183 -0.5184
 3457SOL    HW122007   2.211   1.023   0.947  1.7758  1.0050  0.7308
 3457SOL    HW222008   2.069   1.069   0.924 -1.1617  1.0997  0.9973
 3458SOL     OW22009   3.662   2.589   3.138 -0.1809 -0.2487  0.3875
 3458SOL    HW122010   3.754   2.616   3.144 -0.5614  1.3157 -0.5603
 3458SOL    HW222011   3.656   2.545   3.222  2.4437 -2.7470 -0.7496
 3459SOL     OW22012   4.251   1.618  11.968  0.1700  0.2363 -0.5116
 3459SOL    HW122013   4.336   1.661  11.963 -0.0671  0.6761 -0.7915
 3459SOL    HW222014   4.182   1.677  11.938  0.2144  0.7717  0.4557
 3460SOL     OW22015   2.186   4.407   8.754  0.4741  0.5553  0.3693
 3460SOL    HW122016   2.112   4.464   8.774  0.0755 -0.2371  1.1154
 3460SOL    HW222017   2.245   4.465   8.705 -0.0251  0.9183  0.1966
 3461SOL     OW22018   4.598   0.689   8.959  0.5152  0.1230 -0.0524
 3461SOL    HW122019   4.588   0.716   8.868  1.1963  0.8555  0.0958
 3461SOL    HW222020   4.517   0.722   8.999  1.4002  0.3827  1.5416
 3462SOL     OW22021   0.826   1.787  10.369  0.9390  0.4991 -0.2216
 3462SOL    HW122022   0.769   1.734  10.313  1.6564 -0.7937  0.2808
 3462SOL    HW222023   0.818   1.741  10.453  0.3167 -0.3049 -0.7287
 3463SOL     OW22024   0.551   3.406   9.449 -0.4873 -0.3863  0.0304
 3463SOL    HW122025   0.535   3.386   9.357  2.8510 -0.2460 -0.5950
 3463SOL    HW222026   0.490   3.480   9.453 -0.4898 -0.3228 -0.9913
 3464SOL     OW22027   0.746   1.175   3.736 -0.2378  0.2710  0.5304
 3464SOL    HW122028   0.788   1.191   3.652  0.1412 -4.7712 -0.2178
 3464SOL    HW222029   0.658   1.200   3.707 -0.0181  1.8983  1.2984
 3465SOL     OW22030   1.245   0.973   3.454  0.2913  0.1605  0.9633
 3465SOL    HW122031   1.221   1.009   3.539  0.3902 -1.8385  1.8524
 3465SOL    HW222032   1.324   1.027   3.452 -0.6130  1.4128 -1.2669
 3466SOL     OW22033   0.688   1.742   5.709 -0.2317 -0.4229  1.0194
 3466SOL    HW122034   0.676   1.701   5.795  1.2517  0.9104  1.8678
 3466SOL    HW222035   0.628   1.816   5.720 -1.0622 -0.6255 -2.2432
 3467SOL     OW22036   0.636   3.355   8.376 -0.1803  0.0293  0.1155
 3467SOL    HW122037   0.545   3.384   8.372  0.2421  1.4484  0.8757
 3467SOL    HW222038   0.631   3.273   8.425  1.7349 -0.7495 -0.9688
 3468SOL     OW22039   3.044   0.321   8.389  0.3638 -0.4690  0.0269
 3468SOL    HW122040   2.956   0.297   8.360  0.0799  0.7770 -0.1574
 3468SOL    HW222041   3.052   0.411   8.356 -2.6805 -0.5398 -0.8759
 3469SOL     OW22042   4.477   4.147   4.522 -0.2145 -0.5009 -0.0319
 3469SOL    HW122043   4.548   4.209   4.502 -0.1906  0.1793  2.1916
 3469SOL    HW222044   4.405   4.182   4.470  1.0013  0.3081 -1.2061
 3470SOL     OW22045   1.181   1.170   3.091  0.6053 -0.2181 -0.0929
 3470SOL    HW122046   1.218   1.195   3.006  0.5490 -2.3698 -0.7382
 3470SOL    HW222047   1.255   1.196   3.146  0.6668  0.9975 -0.7492
 3471SOL     OW22048   2.867   4.148   9.646  0.1984 -0.7577 -0.0592
 3471SOL    HW122049   2.947   4.201   9.656  0.2627 -0.6157 -1.3247
 3471SOL    HW222050   2.848   4.143   9.740 -1.8938  0.4925 -0.4280
 3472SOL     OW22051   0.568   2.588   7.238  0.2730  0.1620 -0.4125
 3472SOL    HW122052   0.624   2.593   7.315 -1.2692  2.2889  0.5938
 3472SOL    HW222053   0.522   2.672   7.246 -1.2721 -0.9273  2.1821
 3473SOL     OW22054   1.757   3.270   2.710  0.5790  0.1494  0.2260
 3473SOL    HW122055   1.834   3.314   2.746  0.5253  2.0498 -1.9721
 3473SOL    HW222056   1.701   3.338   2.674 -1.1536 -0.6689  1.3679
 3474SOL     OW22057   1.532   1.132   5.124 -0.1243 -0.5468  0.2023
 3474SOL    HW122058   1.581   1.092   5.195 -0.2671  0.3822  0.8171
 3474SOL    HW222059   1.559   1.223   5.135 -1.9776  0.1836 -1.2387
 3475SOL     OW22060   1.402   1.019   4.653  0.6222 -0.4243 -0.1308
 3475SOL    HW122061   1.466   1.008   4.584 -0.4193 -0.7641 -1.0420
 3475SOL    HW222062   1.456   1.032   4.731 -1.3625 -0.9817  1.3627
 3476SOL     OW22063   2.764   4.590   4.492  0.0644  0.1751 -0.2723
 3476SOL    HW122064   2.762   4.621   4.402  1.2478  1.4452  0.1457
 3476SOL    HW222065   2.856   4.598   4.518  0.6666 -0.7055 -2.1664
 3477SOL     OW22066   3.704   3.117   7.307  0.4174  0.0101  0.2580
 3477SOL    HW122067   3.730   3.079   7.391  2.4301  2.9210  0.9245
 3477SOL    HW222068   3.730   3.206   7.326  1.3902 -0.5985  1.7905
 3478SOL     OW22069   2.647   1.452   5.310 -0.1954  0.3945 -0.1319
 3478SOL    HW122070   2.663   1.373   5.259 -1.1466 -0.8719  1.5323
 3478SOL    HW222071   2.616   1.415   5.392 -0.5196  0.2210 -0.3303
 3479SOL     OW22072   4.207   2.236   9.882  0.3590 -0.3272 -0.4647
 3479SOL    HW122073   4.231   2.293   9.955 -2.7518  1.0449 -0.4920
 3479SOL    HW222074   4.252   2.280   9.811  1.3195  0.8434  0.8713
 3480SOL     OW22075   4.627   2.415   3.975  0.0701  0.1594 -0.4709
 3480SOL    HW122076   4.695   2.377   4.031  0.9579  1.5396 -0.6030
 3480SOL    HW222077   4.553   2.379   4.024  1.5561  0.7146  2.1900
 3481SOL     OW22078   2.277   3.135   8.413  0.3582 -0.0466  0.2459
 3481SOL    HW122079   2.218   3.201   8.449 -0.0303  0.0589 -0.5936
 3481SOL    HW222080   2.232   3.111   8.333  0.8843  0.2692 -0.1464
 3482SOL     OW22081   0.519   2.420   5.804 -0.1739 -0.5813  0.0900
 3482SOL    HW122082   0.451   2.439   5.740  0.8243 -2.3711 -1.5166
 3482SOL    HW222083   0.515   2.496   5.861 -0.2696 -0.3890 -0.1738
 3483SOL     OW22084   3.894   1.301   2.362 -0.1439 -0.0127 -0.5702
 3483SOL    HW122085   3.910   1.371   2.424 -1.4800  0.0433 -0.2726
 3483SOL    HW222086   3.838   1.347   2.299 -3.3191 -0.7093  1.6927
 3484SOL     OW22087   1.168   2.376   6.069  0.3463  0.5212 -0.4741
 3484SOL    HW122088   1.137   2.306   6.012  0.3983 -0.7576  1.0639
 3484SOL    HW222089   1.148   2.454   6.018 -0.3352 -0.1603 -1.2356
 3485SOL     OW22090   3.104   2.476  14.893 -0.3719  0.0861 -0.0144
 3485SOL    HW122091   3.106   2.569  14.872  0.3680 -0.3128 -1.7585
 3485SOL    HW222092   3.198   2.460  14.905 -0.7911 -1.5740  1.1040
 3486SOL     OW22093   2.378   3.032  17.415  0.5053  0.1790 -0.3520
 3486SOL    HW122094   2.388   3.102  17.350 -1.2692  2.4406  1.8165
 3486SOL    HW222095   2.441   3.059  17.482  0.0968  1.3218 -0.4278
 3487SOL     OW22096   0.646   0.851   0.367 -0.1624  0.7177  0.1673
 3487SOL    HW122097   0.674   0.911   0.436 -1.4266  2.5822 -0.9302
 3487SOL    HW222098   0.673   0.893   0.285  0.9964  0.4615  0.4301
 3488SOL     OW22099   2.936   4.227   5.929 -0.5011 -0.0172 -0.0488
 3488SOL    HW122100   2.972   4.168   5.864 -0.2134  0.7612 -0.6020
 3488SOL    HW222101   3.004   4.293   5.916 -1.5605  1.4789  1.9150
 3489SOL     OW22102   3.999   0.252  17.314 -0.0307  0.1350 -0.3359
 3489SOL    HW122103   3.937   0.219  17.379 -1.1439  1.1822 -0.8776
 3489SOL    HW222104   4.067   0.292  17.368  1.1350 -0.9248 -1.0330
 3490SOL     OW22105   0.545   2.481   5.422  0.5002 -0.6353  0.1317
 3490SOL    HW122106   0.499   2.539   5.361  2.2038  0.5278 -0.0610
 3490SOL    HW222107   0.548   2.534   5.503 -1.0286 -0.5642  0.1314
 3491SOL     OW22108   0.463   0.911  13.822 -1.4283  0.7502 -0.5185
 3491SOL    HW122109   0.541   0.942  13.867 -1.5907  0.6692 -0.1786
 3491SOL    HW222110   0.436   0.992  13.779  2.4236  2.0300 -0.5395
 3492SOL     OW22111   3.460   0.612   1.956 -0.1844  0.2022  0.6699
 3492SOL    HW122112   3.395   0.544   1.936  0.9313 -0.4718 -0.6595
 3492SOL    HW222113   3.449   0.647   2.045 -1.5950 -0.9985  0.9728
 3493SOL     OW22114   0.978   0.183   4.421  0.1757  0.0521 -0.1034
 3493SOL    HW122115   0.972   0.130   4.501  1.1471  0.2166  0.0785
 3493SOL    HW222116   1.018   0.116   4.366  0.5217  0.6066 -0.5307
 3494SOL     OW22117   2.981   1.473   8.607 -0.3174 -0.1141  0.5919
 3494SOL    HW122118   3.053   1.532   8.629  0.4128 -0.1273 -1.8228
 3494SOL    HW222119   2.942   1.532   8.542  0.2534  0.9528  1.2295
 3495SOL     OW22120   0.157   3.939   8.919  0.3563 -0.4100  0.4215
 3495SOL    HW122121   0.226   3.907   8.860  0.6815  0.7927  0.1396
 3495SOL    HW222122   0.212   3.986   8.982  1.3855 -0.6934 -0.2525
 3496SOL     OW22123   0.044   2.948   0.875  0.1533 -0.3259  0.2353
 3496SOL    HW122124   0.041   2.933   0.781 -1.3197 -1.2688  0.4361
 3496SOL    HW222125   0.120   3.006   0.873 -0.4499  0.4841  0.8502
 3497SOL     OW22126   4.411   1.079   7.200  0.0889  0.2486  0.0765
 3497SOL    HW122127   4.341   1.014   7.205 -0.0645  0.2920 -1.4327
 3497SOL    HW222128   4.395   1.129   7.281  0.0737 -1.6631  1.2498
 3498SOL     OW22129   3.471   2.185   9.506 -0.0980 -0.1978  0.1849
 3498SOL    HW122130   3.535   2.114   9.507  1.3415  1.1395  3.2588
 3498SOL    HW222131   3.499   2.233   9.584  2.5354 -0.8341 -0.3656
 3499SOL     OW22132   3.951   3.087   9.626 -0.3765 -0.1533  0.1956
 3499SOL    HW122133   4.030   3.059   9.672  0.9206  0.2529 -1.7876
 3499SOL    HW222134   3.994   3.155   9.572 -1.0671 -0.3963 -0.6593
 3500SOL     OW22135   3.434   2.358   2.865 -0.1938  0.3750 -0.0609
 3500SOL    HW122136   3.519   2.400   2.880  0.4599 -0.3495 -1.7203
 3500SOL    HW222137   3.418   2.392   2.777 -2.3848 -0.0794  0.1670
 3501SOL     OW22138   2.527   2.333   4.296 -0.2708  0.6872  0.3552
 3501SOL    HW122139   2.467   2.266   4.263  0.2411 -0.7564  2.2740
 3501SOL    HW222140   2.499   2.363   4.383 -0.9190  0.0859  0.3535
 3502SOL     OW22141   4.577   0.792   7.943 -0.0197 -0.1671 -0.2749
 3502SOL    HW122142   4.553   0.757   7.857 -0.0260 -1.3503  0.2087
 3502SOL    HW222143   4.576   0.709   7.990 -1.1416  0.0156  0.0159
 3503SOL     OW22144   3.062   4.184  16.464 -0.2297 -0.0009  0.2697
 3503SOL    HW122145   2.989   4.179  16.403  1.7183 -2.8408 -1.7858
 3503SOL    HW222146   3.049   4.279  16.468 -1.5502 -0.1349 -0.7456
 3504SOL     OW22147   3.398   1.567   7.960 -0.4842  0.0305 -0.3081
 3504SOL    HW122148   3.438   1.562   8.047  0.5980 -0.4156 -0.8304
 3504SOL    HW222149   3.454   1.628   7.913  0.7930 -0.8542  0.0648
 3505SOL     OW22150   2.964   2.027   6.466  0.4395 -0.1495 -0.7879
 3505SOL    HW122151   3.020   1.954   6.492  2.0767  1.1603 -0.6417
 3505SOL    HW222152   2.980   2.089   6.537 -0.1212 -2.1346  1.0628
 3506SOL     OW22153   3.832   3.160  12.606  0.2912 -0.0392 -0.5402
 3506SOL    HW122154   3.838   3.075  12.651 -1.0263  0.0487 -0.1929
 3506SOL    HW222155   3.855   3.215  12.681 -0.8194  1.7236 -1.5247
 3507SOL     OW22156   1.956   1.855   9.283 -0.2951 -0.0295  0.7740
 3507SOL    HW122157   1.952   1.892   9.371 -0.4513  0.4013  0.5869
 3507SOL    HW222158   1.901   1.778   9.295  0.5316 -0.9191 -1.1371
 3508SOL     OW22159   2.172   4.479   6.431  0.0163  0.3948 -0.0484
 3508SOL    HW122160   2.183   4.517   6.518 -0.3923 -0.7382  0.4928
 3508SOL    HW222161   2.149   4.388   6.452  1.1742  0.4547  1.4351
 3509SOL     OW22162   1.028   3.928   7.830  0.2602 -0.6276  0.2428
 3509SOL    HW122163   1.102   3.907   7.773  0.6562 -3.6590  1.8743
 3509SOL    HW222164   1.068   3.988   7.893  2.7357 -1.1261 -0.8609
 3510SOL     OW22165   0.468   0.457   2.017  0.0626 -0.8295  0.2787
 3510SOL    HW122166   0.521   0.505   2.080 -1.1019 -0.1820  0.7776
 3510SOL    HW222167   0.388   0.510   2.019 -0.0054 -0.7947 -2.5037
 3511SOL     OW22168   0.063   1.780  16.164  0.0367 -0.0061 -0.0591
 3511SOL    HW122169   4.737   1.717  16.129  1.4185 -1.4747  0.0336
 3511SOL    HW222170   0.018   1.864  16.168 -0.3000 -0.2479  1.5511
 3512SOL     OW22171   3.467   4.344   4.472  0.4807  0.1780 -0.2110
 3512SOL    HW122172   3.413   4.420   4.455 -1.1062 -0.5581  1.4973
 3512SOL    HW222173   3.520   4.351   4.392  0.0550  2.0607 -0.3111
 3513SOL     OW22174   0.602   0.094  15.392 -0.0246 -0.4423  0.4984
 3513SOL    HW122175   0.628   0.144  15.315  0.0297 -0.6588  0.3760
 3513SOL    HW222176   0.550   0.023  15.354 -0.8084  0.1595  0.4561
 3514SOL     OW22177   4.724   2.605   3.170  0.3466 -0.1706  0.2365
 3514SOL    HW122178   4.638   2.582   3.205 -0.4560  3.3977  0.6576
 3514SOL    HW222179   0.010   2.680   3.225  0.1608  0.1140 -0.0740
 3515SOL     OW22180   3.750   3.152   8.743 -0.1349  0.0819  0.0093
 3515SOL    HW122181   3.677   3.091   8.742  1.3715 -1.7196  1.6725
 3515SOL    HW222182   3.784   3.140   8.831  0.6757 -1.9081 -0.5896
 3516SOL     OW22183   3.596   3.982  13.755  0.1160  0.5570 -0.3402
 3516SOL    HW122184   3.631   3.996  13.667  0.0497 -4.0938 -1.1257
 3516SOL    HW222185   3.502   4.003  13.749  0.2303  0.9754 -0.6449
 3517SOL     OW22186   0.083   4.438  14.093 -0.8578 -0.0298 -0.0945
 3517SOL    HW122187   0.055   4.519  14.135 -1.1823  0.3938 -1.1081
 3517SOL    HW222188   4.735   4.397  14.109  0.4980 -3.1384 -0.9119
 3518SOL     OW22189   3.078   1.344   3.714  0.1728 -0.6067 -0.1399
 3518SOL    HW122190   3.025   1.423   3.724  1.7253  0.4611 -0.2821
 3518SOL    HW222191   3.114   1.324   3.801 -0.4784  2.7347  0.9127
 3519SOL     OW22192   3.535   0.960   6.537  0.1816  0.5664 -0.2974
 3519SOL    HW122193   3.473   0.922   6.475  2.3940 -2.3266 -0.7050
 3519SOL    HW222194   3.597   1.011   6.486 -0.9296  0.9117 -1.3173
 3520SOL     OW22195   0.966   2.323  17.277 -0.5583  0.3809 -0.0803
 3520SOL    HW122196   0.996   2.247  17.328 -0.1440  0.7357  0.2017
 3520SOL    HW222197   0.914   2.285  17.206  1.0385 -0.1957 -0.9317
 3521SOL     OW22198   3.549   4.683   7.594 -0.7251  0.1827 -0.0756
 3521SOL    HW122199   3.552   4.650   7.504  0.6807  0.2583 -0.0511
 3521SOL    HW222200   3.568   0.038   7.579  0.1629  0.2779  1.6218
 3522SOL     OW22201   2.056   4.521   4.392 -0.0133 -0.1626  0.1397
 3522SOL    HW122202   2.004   4.451   4.353 -1.3505  1.8000 -1.5761
 3522SOL    HW222203   2.026   4.518   4.483  1.1415  0.6329  0.5473
 3523SOL     OW22204   1.174   2.374   4.645 -0.3455 -0.1664  0.0029
 3523SOL    HW122205   1.226   2.295   4.637  1.0099  0.7041  0.1637
 3523SOL    HW222206   1.173   2.407   4.555 -0.3158 -1.1328 -0.3463
 3524SOL     OW22207   0.059   3.231   8.755  0.1126 -0.5043 -0.1407
 3524SOL    HW122208   0.117   3.307   8.752  0.6632 -0.8931  0.6391
 3524SOL    HW222209   4.708   3.265   8.769  1.1532  1.4377  1.7638
 3525SOL     OW22210   1.014   1.659   8.303  0.1458 -0.5400 -0.3009
 3525SOL    HW122211   1.028   1.597   8.376  0.4607  1.4816  1.3479
 3525SOL    HW222212   1.102   1.659   8.264  0.6852 -0.1933  0.9189
 3526SOL     OW22213   3.090   4.595   4.896  0.1032  0.1858 -0.0888
 3526SOL    HW122214   3.078   4.511   4.940 -2.8774 -0.0321 -1.2893
 3526SOL    HW222215   3.110   4.651   4.971 -0.1210  1.3309 -0.8828
 3527SOL     OW22216   3.449   0.548  17.713 -0.4744 -0.0991  0.3999
 3527SOL    HW122217   3.457   0.613   0.036 -2.0830  1.0380 -0.4590
 3527SOL    HW222218   3.357   0.525  17.724  0.3147 -2.9130  1.0465
 3528SOL     OW22219   3.959   4.215   0.551  0.1799  0.0186  0.1688
 3528SOL    HW122220   3.927   4.302   0.528  1.5212  0.1376 -1.2238
 3528SOL    HW222221   3.927   4.169   0.473  1.3964 -1.3137  0.4709
 3529SOL     OW22222   0.872   3.218   8.547  0.5951 -0.0471  0.4917
 3529SOL    HW122223   0.868   3.216   8.452 -0.0641  0.9504  0.4952
 3529SOL    HW222224   0.850   3.130   8.577  2.1464  0.0601  1.9640
 3530SOL     OW22225   4.734   0.836   9.144 -0.0142 -0.1080 -0.2893
 3530SOL    HW122226   4.712   0.781   9.070  0.7447  2.4754 -2.4498
 3530SOL    HW222227   0.069   0.787   9.184  1.4869  1.8923 -0.5527
 3531SOL     OW22228   3.705   2.011   2.719 -0.2146  0.1256  0.2084
 3531SOL    HW122229   3.740   1.940   2.772 -2.3680 -0.3974  0.9365
 3531SOL    HW222230   3.700   1.967   2.634  1.4711 -0.2969  0.3327
 3532SOL     OW22231   2.292   1.437   7.814 -0.4494  0.1939 -0.0891
 3532SOL    HW122232   2.265   1.515   7.766 -0.7204 -0.4226 -0.9245
 3532SOL    HW222233   2.385   1.436   7.789 -0.7389 -0.8365 -1.1060
 3533SOL     OW22234   0.745   2.339   6.320 -0.5850  0.0118 -0.1125
 3533SOL    HW122235   0.812   2.392   6.363  0.7773 -1.5987 -0.2157
 3533SOL    HW222236   0.702   2.295   6.393  0.1798  1.2581  1.0857
 3534SOL     OW22237   1.117   0.653   0.753  0.0480 -0.2810  0.1925
 3534SOL    HW122238   1.040   0.596   0.742  1.6087 -2.6751  1.7936
 3534SOL    HW222239   1.166   0.586   0.800  1.0460  2.1813  2.6782
 3535SOL     OW22240   1.234   0.771   1.956  0.0057 -0.3016  1.0299
 3535SOL    HW122241   1.232   0.698   2.017 -0.0553 -0.8242  0.4066
 3535SOL    HW222242   1.146   0.806   1.967 -0.2269 -0.5706 -0.0046
 3536SOL     OW22243   2.297   3.689   5.968 -0.0177 -0.1157 -0.1641
 3536SOL    HW122244   2.376   3.737   5.941 -0.7825  0.4984 -1.3087
 3536SOL    HW222245   2.330   3.608   6.006  0.0324 -0.4563 -0.9283
 3537SOL     OW22246   0.917   3.545   0.463 -1.2352  0.0723  0.3367
 3537SOL    HW122247   0.882   3.571   0.378  0.5278 -0.9007 -0.7028
 3537SOL    HW222248   0.907   3.450   0.453  0.4528 -0.0149 -0.5202
 3538SOL     OW22249   4.144   1.819   5.014 -0.7664 -0.7933 -0.3621
 3538SOL    HW122250   4.210   1.761   5.052 -1.2763 -0.4845  1.0229
 3538SOL    HW222251   4.195   1.852   4.940  0.7237  0.0679  1.0337
 3539SOL     OW22252   2.361   4.667   1.408 -0.0030 -0.2118 -0.0156
 3539SOL    HW122253   2.341   4.617   1.487  0.0528  1.6848  1.2081
 3539SOL    HW222254   2.378   0.012   1.455  1.1847  0.1089 -1.0122
 3540SOL     OW22255   3.863   0.534   8.216  0.0323 -0.5591 -0.5124
 3540SOL    HW122256   3.788   0.475   8.228 -1.7336  1.6502 -0.7301
 3540SOL    HW222257   3.830   0.620   8.241  2.9839 -0.0352  1.6582
 3541SOL     OW22258   2.169   3.475   2.606 -0.1842  0.0866 -0.1201
 3541SOL    HW122259   2.146   3.491   2.514  0.0453  0.4973 -0.1062
 3541SOL    HW222260   2.233   3.405   2.593  0.5304 -0.0244  3.8570
 3542SOL     OW22261   3.671   4.637  11.606  0.5073  0.3839  0.1289
 3542SOL    HW122262   3.618   4.606  11.532  1.4021  1.8310 -1.1127
 3542SOL    HW222263   3.609   4.631  11.679  0.7959 -0.6074  0.2929
 3543SOL     OW22264   2.697   2.888   5.925  0.0014 -0.3641  0.1393
 3543SOL    HW122265   2.745   2.896   5.842  1.2925 -0.6053  0.8834
 3543SOL    HW222266   2.703   2.794   5.939  1.7000  0.4750  4.8196
 3544SOL     OW22267   1.722   3.773   1.462 -0.3417 -0.1131  0.6654
 3544SOL    HW122268   1.815   3.753   1.451 -0.5254 -0.2872 -0.5165
 3544SOL    HW222269   1.681   3.686   1.470 -3.2323  0.9490 -2.9392
 3545SOL     OW22270   0.021   3.971   3.982  0.4018  0.9050 -0.4057
 3545SOL    HW122271   0.052   3.881   3.973 -0.9781  0.3003  0.7372
 3545SOL    HW222272   0.034   3.981   4.076 -0.6165 -0.9992 -0.0596
 3546SOL     OW22273   0.420   0.630   4.291  0.2017 -0.4124  0.1121
 3546SOL    HW122274   0.487   0.682   4.247 -0.0159 -1.7980 -1.8249
 3546SOL    HW222275   0.458   0.546   4.267 -2.3644 -1.8528  1.0578
 3547SOL     OW22276   3.760   1.761  14.476  0.1606  0.2896  0.0704
 3547SOL    HW122277   3.793   1.671  14.481 -0.0927  0.1724 -0.3826
 3547SOL    HW222278   3.841   1.805  14.502 -1.6778  3.1872  0.8674
 3548SOL     OW22279   2.512   4.573   8.006 -0.6715  0.8948  0.0113
 3548SOL    HW122280   2.525   4.482   8.035  0.7448  0.9132 -0.5746
 3548SOL    HW222281   2.560   4.571   7.924 -1.0921 -0.0617 -0.2138
 3549SOL     OW22282   1.357   2.788   7.703 -0.1158  0.0631 -0.2527
 3549SOL    HW122283   1.311   2.769   7.621 -0.4192  1.7273 -0.4582
 3549SOL    HW222284   1.295   2.763   7.772 -2.4030  1.1276 -1.9033
 3550SOL     OW22285   3.504   3.197  17.363 -0.2842 -0.0084  0.0872
 3550SOL    HW122286   3.520   3.131  17.296 -0.5496 -1.1990  1.1988
 3550SOL    HW222287   3.520   3.277  17.312 -0.5113 -0.5636 -0.8443
 3551SOL     OW22288   4.667   2.023   4.778 -0.7187  0.5182  0.0984
 3551SOL    HW122289   4.657   2.015   4.873  1.1587 -1.8509  0.1067
 3551SOL    HW222290   4.724   2.100   4.775 -0.2395  0.1266 -0.9521
 3552SOL     OW22291   4.593   3.452   5.814  0.1884  0.2263  0.0164
 3552SOL    HW122292   4.574   3.460   5.907  0.1759  1.8148 -0.1318
 3552SOL    HW222293   4.651   3.376   5.824 -0.9643 -0.4911  1.2922
 3553SOL     OW22294   3.407   0.015   5.785  0.3192  0.5070  0.0995
 3553SOL    HW122295   3.451   0.036   5.703 -1.4386 -0.9456 -1.2278
 3553SOL    HW222296   3.357   0.095   5.805  1.4033  1.8366 -2.4878
 3554SOL     OW22297   1.576   1.690   5.644  0.3840 -0.2686 -0.2582
 3554SOL    HW122298   1.515   1.760   5.668  0.2442 -0.6279  0.4218
 3554SOL    HW222299   1.635   1.743   5.591  0.9246  0.1375  0.7600
 3555SOL     OW22300   3.233   0.848   0.382 -0.1529  0.5687  0.2484
 3555SOL    HW122301   3.265   0.937   0.396 -1.7875  0.9824  1.2836
 3555SOL    HW222302   3.158   0.841   0.441 -0.3834  1.4057  0.0527
 3556SOL     OW22303   1.015   0.959   3.966 -0.1436  0.1956  0.5802
 3556SOL    HW122304   0.930   0.971   3.924 -0.0757  2.5171  1.1451
 3556SOL    HW222305   0.996   0.870   3.998 -1.9183  0.7060  0.9337
 3557SOL     OW22306   2.285   2.616   8.734  0.0533 -0.1905 -0.3206
 3557SOL    HW122307   2.372   2.577   8.734  0.5365  0.8689 -0.0031
 3557SOL    HW222308   2.243   2.547   8.683 -2.0790  1.9715 -1.5104
 3558SOL     OW22309   3.330   2.264   1.987  0.4364  0.0962  0.3155
 3558SOL    HW122310   3.235   2.263   2.000  0.4020 -1.6778 -0.0253
 3558SOL    HW222311   3.356   2.337   2.044  1.9044  0.4908 -0.8522
 3559SOL     OW22312   4.405   0.331   5.669  0.0635 -0.0158 -0.4022
 3559SOL    HW122313   4.425   0.244   5.705  1.3786 -0.0047 -1.1026
 3559SOL    HW222314   4.312   0.339   5.691  0.4999  1.3986  0.8730
 3560SOL     OW22315   0.302   2.102   0.480  0.2859 -0.1966 -0.1224
 3560SOL    HW122316   0.241   2.031   0.498  0.0336 -0.0207 -0.2881
 3560SOL    HW222317   0.336   2.111   0.570  2.5882  0.6857 -1.0726
 3561SOL     OW22318   4.589   4.641   4.035  0.5240  0.0916  0.4990
 3561SOL    HW122319   4.565   4.655   3.944 -0.6547 -0.6240  0.7082
 3561SOL    HW222320   4.650   4.713   4.053  0.1492  0.9556 -1.6010
 3562SOL     OW22321   0.969   2.078  17.380  0.6379  0.3363 -0.2636
 3562SOL    HW122322   1.028   2.004  17.365  0.3176  0.2545 -1.1098
 3562SOL    HW222323   0.893   2.024  17.405  1.0225 -0.1693 -0.1711
 3563SOL     OW22324   4.078   3.642   8.242  0.6759 -0.1187  0.5439
 3563SOL    HW122325   4.042   3.692   8.315  3.1517  1.0008  0.9885
 3563SOL    HW222326   4.163   3.622   8.280  1.4718  0.9656 -0.6878
 3564SOL     OW22327   2.269   1.186  12.529 -0.2104  0.0794 -0.0524
 3564SOL    HW122328   2.259   1.238  12.608  1.1957  0.0589  0.1376
 3564SOL    HW222329   2.258   1.098  12.564 -2.0455  0.6348  0.7395
 3565SOL     OW22330   1.006   4.464  11.051 -0.6170  0.1414  0.5096
 3565SOL    HW122331   1.049   4.510  11.123 -0.8370 -2.3687  2.2249
 3565SOL    HW222332   1.082   4.421  11.011  1.7610  2.1062  2.8649
 3566SOL     OW22333   4.127   1.737   3.329 -1.3599  0.3326 -0.6686
 3566SOL    HW122334   4.083   1.669   3.380  1.4533 -0.0502  1.2418
 3566SOL    HW222335   4.190   1.767   3.395 -1.6993  1.4227 -0.8327
 3567SOL     OW22336   4.151   3.860  13.051  0.3107 -0.0581 -0.3008
 3567SOL    HW122337   4.156   3.952  13.077  1.8831  0.1820 -1.4454
 3567SOL    HW222338   4.129   3.859  12.958 -2.8395  1.0367  0.4547
 3568SOL     OW22339   2.687   1.445   1.502 -0.5954  0.9234 -0.1820
 3568SOL    HW122340   2.601   1.421   1.465 -0.0238  1.1099 -1.6365
 3568SOL    HW222341   2.665   1.537   1.513 -2.7725  0.1938  1.6445
 3569SOL     OW22342   3.929   4.683   7.154 -0.2588 -0.1908 -0.6587
 3569SOL    HW122343   4.008   4.728   7.124 -0.0676  0.4908  0.8273
 3569SOL    HW222344   3.917   4.610   7.094 -2.8082 -1.3329  1.2619
 3570SOL     OW22345   0.927   4.186  10.868  0.1478 -0.2816 -0.1948
 3570SOL    HW122346   0.987   4.260  10.857  0.4680 -0.3315  1.2193
 3570SOL    HW222347   0.921   4.156  10.777  2.5588 -0.3174 -0.3462
 3571SOL     OW22348   3.712   4.540   5.776 -0.2764 -0.2533 -0.1771
 3571SOL    HW122349   3.738   4.599   5.705 -1.8342 -2.4245 -2.5526
 3571SOL    HW222350   3.799   4.504   5.795 -0.0265  1.7124  2.3962
 3572SOL     OW22351   1.168   3.592   4.702 -0.2506 -0.3557  0.3815
 3572SOL    HW122352   1.255   3.625   4.726 -0.7554  0.1706  1.4524
 3572SOL    HW222353   1.128   3.679   4.691  0.0263 -0.3490 -0.6276
 3573SOL     OW22354   2.435   4.404  15.556  0.4705  0.5912  0.2048
 3573SOL    HW122355   2.356   4.441  15.595  0.6518  0.4641  0.6899
 3573SOL    HW222356   2.402   4.372  15.472 -3.0234  0.8194  1.4754
 3574SOL     OW22357   4.725   2.100   6.345  0.2730  0.2336 -0.4604
 3574SOL    HW122358   4.637   2.094   6.308 -0.4220  0.4184  1.1381
 3574SOL    HW222359   0.026   2.173   6.296 -0.2907  0.2619 -0.8507
 3575SOL     OW22360   1.468   4.187  13.170  0.0303 -0.6216  0.0973
 3575SOL    HW122361   1.528   4.140  13.111  2.0034 -0.0479  1.6627
 3575SOL    HW222362   1.384   4.143  13.154  0.4700 -1.0781 -0.9522
 3576SOL     OW22363   4.040   1.669   6.332  0.2772 -0.2893 -0.9064
 3576SOL    HW122364   3.955   1.711   6.344  0.7539  0.5507 -0.4273
 3576SOL    HW222365   4.012   1.578   6.345  0.1894 -0.2747 -0.9955
 3577SOL     OW22366   1.713   3.572   5.767 -0.2116 -0.2173  0.4052
 3577SOL    HW122367   1.741   3.637   5.831  2.5594 -0.2317 -0.8261
 3577SOL    HW222368   1.621   3.566   5.794 -0.5736 -0.5755 -0.9137
 3578SOL     OW22369   4.595   3.094   6.449  0.0386  0.0522  0.3934
 3578SOL    HW122370   4.648   3.117   6.372  0.0249  0.0374  0.3797
 3578SOL    HW222371   4.663   3.074   6.514  0.8344 -0.3423 -0.5574
 3579SOL     OW22372   3.141   1.790   6.246 -0.2913 -0.1499 -0.9714
 3579SOL    HW122373   3.126   1.853   6.176 -1.6524  0.9536  0.3130
 3579SOL    HW222374   3.077   1.724   6.219 -0.8187 -0.4404  0.9752
 3580SOL     OW22375   3.366   0.518   7.319  0.0958  0.1621 -0.4308
 3580SOL    HW122376   3.302   0.457   7.283 -0.3346  1.7185 -2.2903
 3580SOL    HW222377   3.450   0.472   7.318  0.4227  0.7853 -1.4974
 3581SOL     OW22378   0.590   3.850  15.936  0.2198 -0.0037 -0.3439
 3581SOL    HW122379   0.645   3.789  15.886 -1.0953 -0.3993 -1.2954
 3581SOL    HW222380   0.650   3.922  15.951 -0.0659  0.5140 -1.6586
 3582SOL     OW22381   1.120   0.755   5.764  0.0235 -0.2991  0.3467
 3582SOL    HW122382   1.172   0.716   5.835 -1.8877 -2.1660  0.7047
 3582SOL    HW222383   1.176   0.827   5.735  1.3243 -1.4515 -0.0370
 3583SOL     OW22384   1.929   2.334   5.168  0.2623 -0.5188 -0.5367
 3583SOL    HW122385   1.930   2.360   5.260  1.7561  0.5881 -0.8698
 3583SOL    HW222386   1.934   2.422   5.132 -1.2776 -0.1080  0.2386
 3584SOL     OW22387   2.429   3.665   1.044  0.0309  0.8210  0.0236
 3584SOL    HW122388   2.437   3.758   1.066 -0.6191  1.1213 -0.9808
 3584SOL    HW222389   2.473   3.620   1.116 -1.1041  0.3086  0.4044
 3585SOL     OW22390   3.213   0.913   0.698 -0.6115 -0.1775  0.2429
 3585SOL    HW122391   3.226   1.007   0.712  0.4532 -0.0075 -1.9128
 3585SOL    HW222392   3.143   0.918   0.633 -0.0137  2.4771 -0.2293
 3586SOL     OW22393   2.778   1.566   7.459  0.6085 -0.1381  0.1153
 3586SOL    HW122394   2.785   1.593   7.368  0.9375 -0.8938 -0.0813
 3586SOL    HW222395   2.731   1.640   7.497  0.4762 -0.4281  0.5128
 3587SOL     OW22396   3.938   4.420   5.233 -0.1455 -0.0119  0.5254
 3587SOL    HW122397   3.920   4.465   5.151 -1.4101  1.2431  1.4859
 3587SOL    HW222398   4.032   4.405   5.219 -0.0577 -0.2405  1.3511
 3588SOL     OW22399   1.938   4.218   5.384 -0.0707  0.0029  0.5236
 3588SOL    HW122400   1.952   4.268   5.303  0.4438 -1.5388 -0.3481
 3588SOL    HW222401   1.927   4.135   5.337 -1.6548 -0.0191  0.9407
 3589SOL     OW22402   2.091   3.405  15.481 -0.0966  0.1733 -0.5703
 3589SOL    HW122403   2.137   3.424  15.562  1.3651 -1.3997 -1.0093
 3589SOL    HW222404   2.011   3.365  15.514 -0.2499  1.5187  0.6458
 3590SOL     OW22405   0.907   3.038   9.073 -0.0665  0.1916 -0.3440
 3590SOL    HW122406   0.979   3.052   9.011 -0.2939  0.9167 -0.4522
 3590SOL    HW222407   0.865   2.972   9.018 -0.5239  2.4477 -2.7225
 3591SOL     OW22408   2.329   0.822   7.741 -0.3640  0.3225 -0.1757
 3591SOL    HW122409   2.357   0.732   7.724  0.0322  0.4925 -0.3978
 3591SOL    HW222410   2.408   0.874   7.751  0.9465 -1.6779 -0.1122
 3592SOL     OW22411   2.659   4.574  15.474  0.0049 -0.0236  0.0197
 3592SOL    HW122412   2.566   4.585  15.492 -0.1377  0.1694 -0.8674
 3592SOL    HW222413   2.686   4.663  15.451 -0.3418 -0.1730 -0.9509
 3593SOL     OW22414   4.574   4.441  12.555  0.3722 -0.4832  0.0115
 3593SOL    HW122415   4.596   4.349  12.543 -1.9015 -1.0169 -0.0924
 3593SOL    HW222416   4.648   4.479  12.508 -0.7898 -0.1470 -1.5808
 3594SOL     OW22417   4.038   4.033  10.305 -0.3502  0.2290  0.1916
 3594SOL    HW122418   4.127   4.061  10.284  0.1842 -0.8379  1.0278
 3594SOL    HW222419   3.985   4.085  10.245 -1.1437  0.5256  1.1342
 3595SOL     OW22420   2.891   2.850  16.526  0.3072  0.3868  0.8426
 3595SOL    HW122421   2.809   2.801  16.527  0.2545  0.4635  0.1357
 3595SOL    HW222422   2.852   2.934  16.551 -0.6543  0.7687 -1.9629
 3596SOL     OW22423   2.169   4.662  12.832  0.0306 -0.0770 -0.4105
 3596SOL    HW122424   2.245   4.694  12.881 -1.3728  2.6360 -0.0005
 3596SOL    HW222425   2.187   4.568  12.833  1.1630  0.1469 -0.2097
 3597SOL     OW22426   4.625   3.790   4.638 -0.0205 -0.2240 -0.2942
 3597SOL    HW122427   4.597   3.785   4.547 -1.0077  1.5485 -0.1015
 3597SOL    HW222428   4.556   3.844   4.677  0.3084  1.4189 -1.9624
 3598SOL     OW22429   0.913   2.136  13.380 -0.0300  0.0522  0.2937
 3598SOL    HW122430   0.950   2.197  13.317 -1.0653 -0.8005 -1.1584
 3598SOL    HW222431   0.965   2.162  13.455 -1.2233 -2.0489  1.8647
 3599SOL     OW22432   3.912   2.598   4.931 -0.0045 -0.2585 -0.2630
 3599SOL    HW122433   3.836   2.605   4.990 -2.1518  2.3428 -3.3274
 3599SOL    HW222434   3.926   2.687   4.900  1.7546 -0.4355  0.0468
 3600SOL     OW22435   3.768   0.431   4.967  0.7254 -0.9383 -0.2488
 3600SOL    HW122436   3.836   0.426   5.034  0.4121 -1.6752  0.0162
 3600SOL    HW222437   3.715   0.492   5.019  0.8239 -1.1456  0.1014
 3601SOL     OW22438   2.363   0.174   2.842  0.0179  0.5771  1.1730
 3601SOL    HW122439   2.290   0.155   2.901  0.8268  1.1206  2.3382
 3601SOL    HW222440   2.321   0.204   2.762 -1.8712 -0.7714  1.6434
 3602SOL     OW22441   0.262   0.322   4.735 -0.6530 -0.1182 -0.5286
 3602SOL    HW122442   0.352   0.355   4.739 -0.4341 -0.9605  1.2635
 3602SOL    HW222443   0.240   0.327   4.828 -1.9778 -2.4050 -0.7132
 3603SOL     OW22444   2.960   0.302   4.680  0.1760 -0.2788 -0.3741
 3603SOL    HW122445   2.949   0.381   4.627 -0.5741 -0.7772 -0.9642
 3603SOL    HW222446   2.991   0.238   4.616 -0.7690 -1.3626  0.2513
 3604SOL     OW22447   0.044   0.404   5.152  0.7320  0.2025 -0.4117
 3604SOL    HW122448   0.106   0.468   5.117  1.0750 -0.9184 -1.8411
 3604SOL    HW222449   0.057   0.416   5.246  0.9174 -2.1841 -0.1307
 3605SOL     OW22450   1.975   3.782   3.174 -0.8575 -0.5792 -0.5277
 3605SOL    HW122451   2.019   3.785   3.259 -1.0589 -0.0923 -0.4432
 3605SOL    HW222452   1.884   3.794   3.201 -0.2510  2.2535  0.2618
 3606SOL     OW22453   0.290   4.736   7.430  0.1844  0.5999  0.4304
 3606SOL    HW122454   0.313   4.727   7.338 -1.7876  0.2946 -0.0366
 3606SOL    HW222455   0.274   4.645   7.455  1.5340 -0.1546 -1.5074
 3607SOL     OW22456   1.055   4.047   4.469 -0.0811  0.0721  0.0667
 3607SOL    HW122457   1.066   4.049   4.374 -1.8573  0.8458 -0.1249
 3607SOL    HW222458   0.984   4.109   4.487 -0.3287  0.5008 -2.2860
 3608SOL     OW22459   0.233   0.779   9.353 -0.2736 -0.0824  0.0028
 3608SOL    HW122460   0.301   0.843   9.333  0.2966 -0.4378  0.8007
 3608SOL    HW222461   0.251   0.765   9.446  4.2483  0.2981 -0.8310
 3609SOL     OW22462   0.302   2.076   5.931  0.1273 -0.2111  0.2712
 3609SOL    HW122463   0.291   2.125   6.013  0.1919 -0.3691  0.3745
 3609SOL    HW222464   0.215   2.039   5.914  0.5836 -0.4658 -1.5260
 3610SOL     OW22465   0.917   0.696   2.791 -0.0053  0.7210 -0.4263
 3610SOL    HW122466   0.900   0.790   2.805 -0.2324  0.4257  1.2111
 3610SOL    HW222467   0.911   0.685   2.696  1.3376  1.5225 -0.6033
 3611SOL     OW22468   2.715   3.148  12.424 -0.3599  0.3639 -0.9392
 3611SOL    HW122469   2.698   3.172  12.333  0.7550  0.0330 -1.2322
 3611SOL    HW222470   2.809   3.165  12.429 -0.3581 -0.4915  1.7312
 3612SOL     OW22471   1.426   0.416   9.913  0.1145 -0.0908  0.7862
 3612SOL    HW122472   1.447   0.509   9.922 -0.3149  0.1690 -0.9464
 3612SOL    HW222473   1.450   0.384   9.826 -1.5621 -2.3259  1.1542
 3613SOL     OW22474   3.371   4.550   3.164  0.2938 -0.2776 -0.0126
 3613SOL    HW122475   3.350   4.494   3.239 -1.4448  0.7439  0.2383
 3613SOL    HW222476   3.316   4.627   3.173  4.0028  1.9515  3.5072
 3614SOL     OW22477   1.108   2.301  11.746  0.0707  0.0176  0.1306
 3614SOL    HW122478   1.023   2.337  11.771  0.1794 -1.0421  1.9950
 3614SOL    HW222479   1.157   2.355  11.808  0.8021  0.7524 -1.0874
 3615SOL     OW22480   4.553   0.767  12.944  0.0370  0.1196 -0.5228
 3615SOL    HW122481   4.623   0.702  12.949  0.0816 -0.0181 -3.1457
 3615SOL    HW222482   4.485   0.712  12.907 -1.6337  0.0322  2.7061
 3616SOL     OW22483   2.799   1.524   9.082  0.1078 -0.0603  0.0418
 3616SOL    HW122484   2.728   1.568   9.034  1.0419  1.7738  0.3361
 3616SOL    HW222485   2.873   1.534   9.023 -0.1883 -1.9908 -0.6499
 3617SOL     OW22486   1.534   2.701   5.623  0.1249  0.0646  0.2256
 3617SOL    HW122487   1.509   2.780   5.671 -2.8636 -1.1472  0.6403
 3617SOL    HW222488   1.536   2.638   5.694  1.8937  1.0032  1.0068
 3618SOL     OW22489   4.241   1.744   4.072  0.4244 -0.4781  0.1923
 3618SOL    HW122490   4.297   1.788   4.009 -0.9218  1.9090  0.6797
 3618SOL    HW222491   4.161   1.793   4.056 -1.8833 -3.7609  1.6169
 3619SOL     OW22492   2.719   3.725  12.362  0.3738  0.0708  0.0742
 3619SOL    HW122493   2.731   3.675  12.442  2.5112 -0.3502 -0.5019
 3619SOL    HW222494   2.781   3.797  12.375 -0.7297  1.2863 -1.3001
 3620SOL     OW22495   0.299   0.148   8.685  0.5882  0.0704 -0.1003
 3620SOL    HW122496   0.365   0.186   8.743 -0.4489 -0.8417  1.6748
 3620SOL    HW222497   0.353   0.076   8.653  0.5005 -0.3644  0.7145
 3621SOL     OW22498   0.295   4.453   7.518  0.0472 -0.4129 -0.1812
 3621SOL    HW122499   0.349   4.437   7.595  2.1644  1.7658 -1.2012
 3621SOL    HW222500   0.221   4.401   7.547  0.5966 -0.2388  1.5294
 3622SOL     OW22501   3.000   2.035   1.578  0.5006 -0.1392 -0.3207
 3622SOL    HW122502   2.994   2.129   1.562  2.2403 -0.1954 -1.3167
 3622SOL    HW222503   3.067   2.005   1.515  0.5090  2.3175 -1.4547
 3623SOL     OW22504   1.297   2.864   3.091 -0.5870 -0.2347 -0.1468
 3623SOL    HW122505   1.269   2.930   3.154  1.1175  2.0298 -1.7745
 3623SOL    HW222506   1.288   2.783   3.142  2.2522 -0.6309 -0.2512
 3624SOL     OW22507   0.770   1.201   4.008  0.1302  0.0693  0.2700
 3624SOL    HW122508   0.770   1.185   3.914 -1.0860 -1.0484  0.4614
 3624SOL    HW222509   0.793   1.116   4.046  0.7187  1.6049  3.4103
 3625SOL     OW22510   2.179   3.914   1.455  0.5373 -0.0302 -0.4368
 3625SOL    HW122511   2.270   3.899   1.479  0.8616 -0.1778 -1.7686
 3625SOL    HW222512   2.190   3.863   1.375 -0.4401 -3.7065  1.7488
 3626SOL     OW22513   2.964   0.614  15.135  0.2664 -0.0571 -0.1424
 3626SOL    HW122514   2.907   0.669  15.081  0.3225  1.1342  1.0195
 3626SOL    HW222515   3.036   0.610  15.072  2.3180  0.3287  2.1705
 3627SOL     OW22516   1.931   4.565   1.792 -0.2478 -0.2365 -0.1942
 3627SOL    HW122517   1.892   4.628   1.852  1.3986  1.6105 -1.0713
 3627SOL    HW222518   1.856   4.515   1.757 -1.1636  1.8272 -1.1700
 3628SOL     OW22519   3.188   1.746   1.598 -0.5780 -0.3244 -0.3844
 3628SOL    HW122520   3.236   1.815   1.553  2.0860 -1.2396  1.0264
 3628SOL    HW222521   3.178   1.790   1.682  0.9339  0.8655 -0.8106
 3629SOL     OW22522   4.553   3.681   4.031 -0.4926 -0.6260  0.1391
 3629SOL    HW122523   4.552   3.607   3.970  0.1595  0.2441 -0.9192
 3629SOL    HW222524   4.647   3.698   4.040 -0.7873  0.8722  0.4173
 3630SOL     OW22525   4.360   1.107   6.098  0.7768  0.0185 -0.3363
 3630SOL    HW122526   4.268   1.084   6.083  0.9386  0.5058 -2.0637
 3630SOL    HW222527   4.378   1.172   6.030 -0.6729  0.9524  0.1393
 3631SOL     OW22528   3.420   3.651  13.074 -0.3498 -0.2191 -0.5172
 3631SOL    HW122529   3.373   3.731  13.052 -1.0061 -0.5592 -0.3536
 3631SOL    HW222530   3.356   3.585  13.046 -0.3602  0.7296 -2.8011
 3632SOL     OW22531   2.206   3.060   2.960  0.2047  0.0006 -0.1554
 3632SOL    HW122532   2.250   3.119   3.022  1.4346  1.5760 -2.5071
 3632SOL    HW222533   2.279   3.041   2.900 -0.2076 -1.0603 -0.3165
 3633SOL     OW22534   3.267   2.741   6.684  0.0701 -0.2504 -0.2081
 3633SOL    HW122535   3.199   2.788   6.733 -1.5072 -2.8092  0.0846
 3633SOL    HW222536   3.287   2.673   6.749  1.3562  1.8888  1.6124
 3634SOL     OW22537   3.556   0.941   4.654  0.0085 -0.3558 -0.4209
 3634SOL    HW122538   3.575   1.031   4.678 -0.9241 -0.8082  1.9775
 3634SOL    HW222539   3.594   0.921   4.568 -2.7281 -1.3810 -1.3861
 3635SOL     OW22540   1.534   3.481   1.936 -0.0787 -0.1163 -0.2058
 3635SOL    HW122541   1.625   3.462   1.957  0.2838  1.4331 -0.3509
 3635SOL    HW222542   1.540   3.561   1.884  2.0912 -2.5371 -3.6783
 3636SOL     OW22543   0.475   0.460  16.058 -0.0459 -0.0464 -0.7544
 3636SOL    HW122544   0.466   0.555  16.055 -0.7146 -0.1615 -2.6521
 3636SOL    HW222545   0.438   0.437  16.143 -1.4300  1.6666 -0.8859
 3637SOL     OW22546   0.594   2.077   2.687 -0.3598 -0.1085 -0.3329
 3637SOL    HW122547   0.536   2.140   2.644  0.1236  0.6339  0.1182
 3637SOL    HW222548   0.532   2.036   2.748  1.0964 -1.2197  0.3760
 3638SOL     OW22549   4.510   0.968   4.710 -0.1857  0.8605  0.4942
 3638SOL    HW122550   4.604   0.953   4.709 -0.1495  1.1151 -0.7086
 3638SOL    HW222551   4.514   1.029   4.783 -1.2407  0.9187  0.5097
 3639SOL     OW22552   0.268   1.832   6.965 -0.6504  0.6009  0.1997
 3639SOL    HW122553   0.266   1.874   7.051 -2.8949  3.2233 -1.1556
 3639SOL    HW222554   0.179   1.797   6.957 -0.2105 -0.1963 -1.2570
 3640SOL     OW22555   1.204   0.310  13.099 -0.2135 -0.4514 -0.6816
 3640SOL    HW122556   1.283   0.266  13.132 -0.9650 -1.9673 -0.9046
 3640SOL    HW222557   1.223   0.326  13.006 -0.1009  0.4051 -0.5061
 3641SOL     OW22558   1.679   1.177   8.040 -0.4433  0.1580  0.4587
 3641SOL    HW122559   1.745   1.237   8.006 -0.7374  0.1387 -0.1405
 3641SOL    HW222560   1.602   1.198   7.988 -0.4561  0.6939  0.6846
 3642SOL     OW22561   2.651   2.615   3.008  0.1945  0.3477  0.3263
 3642SOL    HW122562   2.646   2.659   3.093  0.7786 -0.5933  0.8458
 3642SOL    HW222563   2.588   2.543   3.015  0.7221 -0.1119  0.2915
 3643SOL     OW22564   0.342   0.127   7.963 -0.4411 -0.2428 -0.0776
 3643SOL    HW122565   0.337   0.098   8.054 -0.9098 -1.0801 -0.3736
 3643SOL    HW222566   0.413   0.072   7.931  1.7396  1.7310  1.3544
 3644SOL     OW22567   3.476   0.779   9.955 -0.4830 -0.5026 -0.4146
 3644SOL    HW122568   3.536   0.743  10.020  1.1587  0.1388 -1.5676
 3644SOL    HW222569   3.543   0.815   9.896  0.4563  0.3773  1.2038
 3645SOL     OW22570   3.881   3.960   4.779 -1.3098  0.4991  0.2996
 3645SOL    HW122571   3.952   3.921   4.831 -1.9467 -0.0085  0.7875
 3645SOL    HW222572   3.804   3.952   4.835 -0.2396  1.5622  1.9430
 3646SOL     OW22573   0.251   4.047   7.686  0.5494 -0.3312 -0.0091
 3646SOL    HW122574   0.237   3.958   7.719 -0.2593  0.2843  1.3118
 3646SOL    HW222575   0.309   4.087   7.751 -0.4886 -0.4691  1.0023
 3647SOL     OW22576   3.456   4.417   6.974 -0.2887  0.0949 -0.3305
 3647SOL    HW122577   3.479   4.324   6.963 -1.5652 -0.3223  0.5842
 3647SOL    HW222578   3.507   4.460   6.905 -0.9608  0.5535 -0.5422
 3648SOL     OW22579   2.842   3.136   2.464  0.0633 -0.1005  0.0126
 3648SOL    HW122580   2.937   3.134   2.473  0.0521 -0.6285 -0.0145
 3648SOL    HW222581   2.819   3.229   2.473 -0.0092 -0.0895 -0.3126
 3649SOL     OW22582   4.131   0.508   1.580  0.6566  0.7867  0.3041
 3649SOL    HW122583   4.142   0.565   1.657  0.6373 -0.5322  1.2803
 3649SOL    HW222584   4.092   0.559   1.509  0.8394 -0.3925 -0.6323
 3650SOL     OW22585   2.143   2.844   3.314  0.0561 -0.0025  0.7930
 3650SOL    HW122586   2.125   2.903   3.387 -1.9740 -0.2495  0.4933
 3650SOL    HW222587   2.235   2.819   3.326  0.3483  0.2204 -0.9629
 3651SOL     OW22588   4.734   1.758  12.471  0.1378  0.0178  0.3140
 3651SOL    HW122589   0.019   1.811  12.548 -1.5069 -1.7332  1.9831
 3651SOL    HW222590   0.040   1.672  12.476 -0.0885  0.0478  2.7620
 3652SOL     OW22591   2.754   0.744   1.591  0.4092 -0.5918  0.0392
 3652SOL    HW122592   2.762   0.833   1.556 -1.3748 -1.2769 -2.0907
 3652SOL    HW222593   2.718   0.766   1.677 -0.6582  0.6598 -0.7188
 3653SOL     OW22594   0.651   3.553  12.607  0.3074 -0.0656  0.2339
 3653SOL    HW122595   0.696   3.632  12.577  1.7690 -0.6170  0.9457
 3653SOL    HW222596   0.566   3.577  12.571 -0.5241 -0.0230  2.2231
 3654SOL     OW22597   0.227   0.963  11.216 -0.1634 -0.6032 -0.4463
 3654SOL    HW122598   0.293   0.925  11.275  0.2029 -1.4972 -1.4252
 3654SOL    HW222599   0.208   1.046  11.260  1.5581  0.3975 -1.6191
 3655SOL     OW22600   3.381   2.769   9.321 -0.5689  0.2725 -0.2676
 3655SOL    HW122601   3.359   2.755   9.229 -0.3025 -0.9750 -0.1335
 3655SOL    HW222602   3.304   2.820   9.347 -1.7829 -1.7058 -0.0424
 3656SOL     OW22603   2.218   0.875   3.278  0.3972 -0.7150 -0.2644
 3656SOL    HW122604   2.226   0.879   3.183  0.4175 -1.9474 -0.3113
 3656SOL    HW222605   2.228   0.780   3.285  1.2161 -0.4117  2.5741
 3657SOL     OW22606   3.143   2.678   8.606  0.2934 -0.4967 -0.3770
 3657SOL    HW122607   3.055   2.681   8.569 -0.4788 -1.9966  1.3379
 3657SOL    HW222608   3.132   2.632   8.689 -0.8069  1.4321  0.5667
 3658SOL     OW22609   3.226   2.411  13.579  0.1488 -0.2612  0.1253
 3658SOL    HW122610   3.281   2.450  13.647 -0.2114  0.1875  0.1577
 3658SOL    HW222611   3.148   2.402  13.633 -0.5520  0.5821 -0.7563
 3659SOL     OW22612   1.648   1.335  12.300  0.2299 -0.0843  0.0334
 3659SOL    HW122613   1.695   1.381  12.229  1.3107 -4.2400 -1.9141
 3659SOL    HW222614   1.686   1.248  12.298 -0.1789 -0.2314 -1.3719
 3660SOL     OW22615   0.825   4.054   6.610  1.2082  0.5692 -0.4579
 3660SOL    HW122616   0.860   3.966   6.599 -1.0252 -0.3922  0.2216
 3660SOL    HW222617   0.812   4.051   6.705  1.3133  0.7922 -0.4360
 3661SOL     OW22618   0.224   3.237   7.505  0.2488  0.6981 -0.5595
 3661SOL    HW122619   0.140   3.246   7.461 -0.3034 -0.9062  0.1728
 3661SOL    HW222620   0.214   3.152   7.548  1.7204  1.3714  1.0839
 3662SOL     OW22621   1.847   1.738   4.919  0.0284 -0.4466  0.0921
 3662SOL    HW122622   1.916   1.734   4.986  1.4013  0.0891 -1.2940
 3662SOL    HW222623   1.902   1.726   4.842  0.3981 -3.1894  0.7857
 3663SOL     OW22624   3.431   1.928   1.537 -0.3764 -0.2793  0.2408
 3663SOL    HW122625   3.452   1.864   1.469  1.1281  0.4703  0.0030
 3663SOL    HW222626   3.495   1.909   1.606 -0.4492  0.3949  0.4953
 3664SOL     OW22627   1.777   0.956  16.642 -0.0074 -0.1175 -0.7201
 3664SOL    HW122628   1.810   1.043  16.665  0.2471 -0.1371 -1.0198
 3664SOL    HW222629   1.846   0.895  16.666 -0.6628 -0.9070 -0.8287
 3665SOL     OW22630   2.899   3.849   7.371 -0.8618  0.1775 -0.4992
 3665SOL    HW122631   2.841   3.822   7.442  0.5087 -4.6629 -1.1762
 3665SOL    HW222632   2.888   3.774   7.313 -1.7340  0.5539 -0.8066
 3666SOL     OW22633   2.368   1.897  13.935  0.0393 -0.1760 -0.0179
 3666SOL    HW122634   2.277   1.928  13.938  0.0861 -0.1702  1.2100
 3666SOL    HW222635   2.384   1.916  14.027  3.2884  1.2729 -0.8949
 3667SOL     OW22636   0.131   3.655  15.020 -0.4521 -0.5897 -0.0509
 3667SOL    HW122637   0.053   3.632  14.970 -1.1826  2.2480 -0.1700
 3667SOL    HW222638   0.198   3.590  14.995  0.3775  0.8463 -1.5899
 3668SOL     OW22639   2.289   2.169  13.821 -0.4122  0.3345  0.1237
 3668SOL    HW122640   2.355   2.196  13.884  0.0317 -2.8801  0.9920
 3668SOL    HW222641   2.226   2.122  13.876 -0.6978  2.0549  1.2734
 3669SOL     OW22642   1.514   2.440   9.173 -0.2289  0.0003 -0.1245
 3669SOL    HW122643   1.488   2.377   9.106 -1.1678 -1.2294  1.3677
 3669SOL    HW222644   1.598   2.472   9.140  0.1521 -0.8335  0.0372
 3670SOL     OW22645   1.593   2.791   2.394  0.5616 -0.1991  0.2308
 3670SOL    HW122646   1.623   2.861   2.453 -0.6922  0.6040 -0.0690
 3670SOL    HW222647   1.520   2.759   2.447  0.1529  0.4788  0.0865
 3671SOL     OW22648   1.664   3.040   8.962 -0.4068 -0.0712 -0.1530
 3671SOL    HW122649   1.655   2.997   9.047 -0.6393 -1.2744 -0.7813
 3671SOL    HW222650   1.584   3.013   8.917 -0.7281 -0.6944  0.7874
 3672SOL     OW22651   0.892   0.353   2.806  0.4006  0.1403  0.0032
 3672SOL    HW122652   0.940   0.275   2.778 -0.0307  0.3211 -1.2334
 3672SOL    HW222653   0.935   0.424   2.759  1.8771 -1.0453 -0.4263
 3673SOL     OW22654   4.500   1.816   5.050  0.1665 -0.1114  0.3656
 3673SOL    HW122655   4.448   1.847   4.976  1.2714 -1.3677 -0.9343
 3673SOL    HW222656   4.493   1.887   5.113 -1.6579 -0.9879  1.1801
 3674SOL     OW22657   0.999   2.491   8.515  0.0853 -0.0799  0.0001
 3674SOL    HW122658   1.061   2.559   8.541  0.8733 -0.9152  0.3109
 3674SOL    HW222659   0.921   2.537   8.484 -0.2032 -1.0938 -0.7850
 3675SOL     OW22660   0.852   1.892   8.798 -0.1541  0.1539  0.0794
 3675SOL    HW122661   0.840   1.917   8.706  0.1945 -2.7887 -0.7692
 3675SOL    HW222662   0.766   1.903   8.837 -0.4267  0.7575 -0.6882
 3676SOL     OW22663   0.416   1.063   7.315  0.5540  0.0567 -0.4413
 3676SOL    HW122664   0.474   1.139   7.318 -0.5651  0.8905 -0.3057
 3676SOL    HW222665   0.463   1.002   7.372  0.2626 -0.4410 -0.7351
 3677SOL     OW22666   2.972   1.844  17.638  0.0245 -0.1753 -0.2015
 3677SOL    HW122667   3.015   1.893  17.708 -0.2385 -0.9322  0.4987
 3677SOL    HW222668   3.044   1.850  17.576 -1.7677  0.7054 -2.1927
 3678SOL     OW22669   2.680   2.992   7.565  0.6889 -0.0770 -0.5543
 3678SOL    HW122670   2.715   2.989   7.654 -0.6928  1.6638  0.0269
 3678SOL    HW222671   2.613   2.923   7.559 -2.3298  2.6489  2.2269
 3679SOL     OW22672   3.149   0.067   5.543  0.1528 -0.1537  0.9593
 3679SOL    HW122673   3.054   0.072   5.539  0.1829 -0.4390 -0.1309
 3679SOL    HW222674   3.175   0.154   5.513 -2.9401  0.7312  0.8687
 3680SOL     OW22675   1.780   0.570   6.443 -0.5702 -0.1151 -0.4617
 3680SOL    HW122676   1.842   0.542   6.511 -1.6257  2.4874  1.5400
 3680SOL    HW222677   1.754   0.480   6.421  1.8520 -1.0749  0.4745
 3681SOL     OW22678   2.576   0.539   4.554 -0.4676  0.2355 -0.0615
 3681SOL    HW122679   2.558   0.500   4.468  0.6655  1.0440 -0.6714
 3681SOL    HW222680   2.491   0.534   4.596 -1.0000  2.3095 -0.9018
 3682SOL     OW22681   1.062   2.294   9.646  0.4115  0.0549 -0.0185
 3682SOL    HW122682   1.036   2.259   9.731  1.5838 -0.0193  0.3112
 3682SOL    HW222683   1.091   2.224   9.587 -0.5062  0.7815 -1.3368
 3683SOL     OW22684   1.241   0.628  10.813  0.1334  0.2210  0.0032
 3683SOL    HW122685   1.165   0.604  10.761 -0.6958  0.5212  1.0923
 3683SOL    HW222686   1.215   0.601  10.900 -0.2839 -2.6402 -1.0094
 3684SOL     OW22687   1.975   3.118   9.240  0.1682 -0.6193  0.0542
 3684SOL    HW122688   1.915   3.080   9.304  0.0837 -1.2804 -0.4134
 3684SOL    HW222689   1.922   3.165   9.177  2.8756  0.9712 -1.0179
 3685SOL     OW22690   3.191   3.081   5.030  0.7827  0.4879 -0.0905
 3685SOL    HW122691   3.138   3.013   4.989 -1.1643  1.4744  0.8226
 3685SOL    HW222692   3.233   3.107   4.948 -1.3667  1.1314 -0.9705
 3686SOL     OW22693   1.219   4.275  11.175  0.0235 -0.2050 -0.4124
 3686SOL    HW122694   1.131   4.264  11.210  0.8500 -0.5251  1.5132
 3686SOL    HW222695   1.259   4.341  11.231  0.4742 -0.0403 -0.9220
 3687SOL     OW22696   2.851   0.348   9.995  0.5118  0.0697 -0.3929
 3687SOL    HW122697   2.841   0.412   9.925  0.9328 -0.0796 -0.5886
 3687SOL    HW222698   2.904   0.387  10.064  1.4894 -1.4751 -0.2593
 3688SOL     OW22699   3.885   1.611   8.523  0.0179  0.2239 -0.1307
 3688SOL    HW122700   3.813   1.556   8.553 -0.3620  1.4857  1.2960
 3688SOL    HW222701   3.934   1.564   8.456 -1.2445 -0.5302 -0.5203
 3689SOL     OW22702   2.335   1.615   3.785  0.0750  0.3623 -0.1313
 3689SOL    HW122703   2.259   1.596   3.840 -0.2631 -0.1765 -0.7750
 3689SOL    HW222704   2.315   1.704   3.755 -0.8720 -0.1152 -0.9398
 3690SOL     OW22705   3.761   0.396  16.949  0.3536 -0.5552 -0.3451
 3690SOL    HW122706   3.851   0.380  16.923  0.1050 -2.4239 -0.0513
 3690SOL    HW222707   3.775   0.444  17.031  0.5978 -0.8971 -0.1886
 3691SOL     OW22708   0.795   0.309   3.159 -0.4615 -0.0214 -0.2234
 3691SOL    HW122709   0.880   0.341   3.130 -0.0195  1.2856  2.4858
 3691SOL    HW222710   0.755   0.308   3.072  1.8020 -1.5006 -1.2272
 3692SOL     OW22711   4.189   3.279  17.414  0.3956 -0.8562 -0.5818
 3692SOL    HW122712   4.104   3.264  17.372  0.7663 -1.0426 -1.2866
 3692SOL    HW222713   4.235   3.347  17.364 -0.7645 -0.7798 -1.5366
 3693SOL     OW22714   0.811   0.046   3.760  0.0397 -0.8210  0.1377
 3693SOL    HW122715   0.778   0.118   3.707 -0.2927 -1.3595 -0.3819
 3693SOL    HW222716   0.800   0.076   3.851  0.1841  2.3692 -0.8900
 3694SOL     OW22717   1.551   3.118  14.901 -0.7238  0.9898  0.7950
 3694SOL    HW122718   1.578   3.035  14.941 -1.0619  0.2105 -0.5910
 3694SOL    HW222719   1.472   3.091  14.855 -0.5011  1.6429  0.0223
 3695SOL     OW22720   2.023   2.283  17.392 -0.1794 -0.2857  0.3221
 3695SOL    HW122721   2.005   2.267  17.299  1.8124  0.9535 -0.2697
 3695SOL    HW222722   2.084   2.356  17.383  0.4425 -0.9048 -0.3562
 3696SOL     OW22723   3.232   4.190  17.188 -0.0121 -0.1392  0.1877
 3696SOL    HW122724   3.234   4.278  17.226 -0.7150 -0.3080  0.6203
 3696SOL    HW222725   3.240   4.199  17.093  0.9157  0.9823  0.3720
 3697SOL     OW22726   3.813   3.873  10.378  0.1812  0.0258  0.4408
 3697SOL    HW122727   3.744   3.934  10.403 -1.9541 -0.4878 -4.0704
 3697SOL    HW222728   3.891   3.926  10.359  0.5124  0.0885  1.9827
 3698SOL     OW22729   2.833   0.460  17.639  0.3254 -0.4365 -0.4471
 3698SOL    HW122730   2.767   0.395  17.613  1.0992 -1.1918 -0.5259
 3698SOL    HW222731   2.784   0.542  17.638  0.8042 -0.1559 -0.9679
 3699SOL     OW22732   0.054   4.027   6.529 -0.1577 -0.5641 -0.8095
 3699SOL    HW122733   0.122   4.094   6.517  0.3977 -0.7827  1.1213
 3699SOL    HW222734   0.054   4.024   6.625 -2.1360  2.0399 -0.7395
 3700SOL     OW22735   0.582   2.078  17.361  0.2528 -0.2321  0.2514
 3700SOL    HW122736   0.640   2.033  17.423 -3.1476 -2.9064  1.5425
 3700SOL    HW222737   0.529   2.138  17.413  1.7328 -1.2484  2.9104
 3701SOL     OW22738   0.868   3.695  16.490 -0.2537  0.3972 -0.1811
 3701SOL    HW122739   0.958   3.699  16.460  0.4329 -2.4702  1.5360
 3701SOL    HW222740   0.828   3.621  16.446  0.6000 -0.0702 -0.1687
 3702SOL     OW22741   1.899   2.075   4.088  0.0847 -0.2354 -0.5471
 3702SOL    HW122742   1.857   2.061   4.003 -0.7643  0.9749 -0.3272
 3702SOL    HW222743   1.864   2.158   4.120  1.4682  0.5105 -0.9924
 3703SOL     OW22744   3.697   3.887  14.010  0.3891  0.4677 -0.0094
 3703SOL    HW122745   3.676   3.870  13.919  1.5684  0.8651 -0.3544
 3703SOL    HW222746   3.791   3.870  14.016  0.4009  0.1141 -1.2334
 3704SOL     OW22747   0.646   4.711  16.265  0.0587 -0.1042  0.4616
 3704SOL    HW122748   0.713   4.705  16.198 -0.5395  0.6602 -0.2115
 3704SOL    HW222749   0.581   0.011  16.205 -1.7114 -2.4032  0.9718
 3705SOL     OW22750   1.528   4.241   8.887 -0.3434 -0.3410  1.0884
 3705SOL    HW122751   1.443   4.285   8.888 -0.1850 -0.0263  0.9261
 3705SOL    HW222752   1.506   4.155   8.852  1.3820 -0.4655  0.2987
 3706SOL     OW22753   0.717   1.921   9.872 -0.0058  0.0559 -0.1986
 3706SOL    HW122754   0.803   1.884   9.892 -0.2388  0.0754  0.7977
 3706SOL    HW222755   0.674   1.848   9.828 -1.0325 -0.0059  0.9382
 3707SOL     OW22756   3.994   2.388   9.631 -0.1994 -0.4642  0.5746
 3707SOL    HW122757   3.926   2.426   9.576  0.4931 -0.0313  0.0279
 3707SOL    HW222758   3.954   2.408   9.716  0.3756  0.3093  0.6607
 3708SOL     OW22759   2.263   1.137   5.258  0.3156 -0.3119  0.2774
 3708SOL    HW122760   2.319   1.129   5.335  1.0736  0.3489 -0.2114
 3708SOL    HW222761   2.218   1.221   5.271  1.6787  0.7062 -1.6414
 3709SOL     OW22762   3.945   2.815   4.085 -0.3080 -0.1996  0.1641
 3709SOL    HW122763   3.995   2.881   4.132  0.5037 -1.1754  0.6608
 3709SOL    HW222764   3.884   2.869   4.035  0.8504  1.5584  0.6333
 3710SOL     OW22765   3.348   0.582   5.405 -0.2859 -0.4871  0.3771
 3710SOL    HW122766   3.395   0.530   5.339 -0.5454 -1.6213  1.0896
 3710SOL    HW222767   3.411   0.654   5.410  0.9448 -1.5270 -0.3968
 3711SOL     OW22768   1.942   0.674   2.877 -0.7638 -0.2601  0.3549
 3711SOL    HW122769   1.898   0.589   2.885 -1.4251  0.1418  1.0692
 3711SOL    HW222770   1.884   0.728   2.930 -1.8926 -0.5403 -0.5905
 3712SOL     OW22771   2.667   1.747  16.917  0.3571  0.2525 -0.0103
 3712SOL    HW122772   2.630   1.832  16.942 -0.8147 -0.1503 -0.3843
 3712SOL    HW222773   2.712   1.762  16.834 -0.7426  1.0868 -0.4606
 3713SOL     OW22774   2.787   0.222  11.599 -0.4068  0.5384 -0.2294
 3713SOL    HW122775   2.854   0.202  11.665  1.3601 -1.0501 -2.5261
 3713SOL    HW222776   2.796   0.317  11.613 -0.2535  0.3755  0.7899
 3714SOL     OW22777   2.533   0.946   6.316 -0.0261  0.5908 -0.0073
 3714SOL    HW122778   2.627   0.954   6.335  0.3216 -1.1095 -1.0326
 3714SOL    HW222779   2.525   0.904   6.230  0.3448  1.2484 -0.3669
 3715SOL     OW22780   0.739   3.902   9.165  0.2512 -0.1468  0.5120
 3715SOL    HW122781   0.731   3.807   9.173  2.1234 -0.3634 -0.2866
 3715SOL    HW222782   0.827   3.917   9.199  1.2269 -0.8467 -1.6998
 3716SOL     OW22783   2.482   3.480   0.179 -0.3208 -0.1626 -0.1585
 3716SOL    HW122784   2.540   3.541   0.133  0.5724 -0.3045  0.7754
 3716SOL    HW222785   2.403   3.478   0.127  0.8143 -0.4101 -1.8637
 3717SOL     OW22786   0.357   4.295   4.438  0.4523  0.6485 -0.5188
 3717SOL    HW122787   0.320   4.377   4.404 -0.1922 -0.5500 -2.6613
 3717SOL    HW222788   0.279   4.254   4.477  0.9129 -0.2324 -0.5329
 3718SOL     OW22789   1.742   4.131   6.107  0.7702  0.2819 -0.3258
 3718SOL    HW122790   1.672   4.186   6.143  0.3550  1.1460 -2.4752
 3718SOL    HW222791   1.763   4.177   6.026  1.3723 -0.3130 -0.5027
 3719SOL     OW22792   3.765   3.113  14.333 -0.3099 -0.3517 -0.0725
 3719SOL    HW122793   3.689   3.170  14.325  0.1119  0.2362  0.0951
 3719SOL    HW222794   3.722   3.028  14.342 -0.3268 -0.5614 -2.1893
 3720SOL     OW22795   0.689   1.218   1.440  0.6030  0.2838  0.2084
 3720SOL    HW122796   0.727   1.148   1.387 -2.9271 -1.6139  0.1836
 3720SOL    HW222797   0.613   1.177   1.482  0.4101  1.1830  0.7448
 3721SOL     OW22798   4.433   3.683   5.736 -0.4507 -0.2600  0.1350
 3721SOL    HW122799   4.393   3.653   5.654  1.1980  0.7633 -1.0454
 3721SOL    HW222800   4.479   3.600   5.745  1.8487  0.9296 -0.6074
 3722SOL     OW22801   0.761   3.842   7.772 -0.1184 -0.1893 -0.0689
 3722SOL    HW122802   0.853   3.860   7.790 -0.4449 -0.2319  1.5938
 3722SOL    HW222803   0.714   3.878   7.846 -2.2055  0.6087 -1.7840
 3723SOL     OW22804   3.444   2.149   6.920  0.7126  0.3692  0.4430
 3723SOL    HW122805   3.435   2.056   6.901  0.6899  0.0465  1.9822
 3723SOL    HW222806   3.357   2.168   6.955  0.0425 -1.1156 -0.4118
 3724SOL     OW22807   2.765   3.202   2.884  0.7147 -0.1251  0.4267
 3724SOL    HW122808   2.784   3.124   2.832 -1.6920 -1.1944  1.1679
 3724SOL    HW222809   2.813   3.172   2.961  0.1157 -2.7562 -0.2211
 3725SOL     OW22810   0.044   0.933   8.780 -0.1510 -0.2258  0.4467
 3725SOL    HW122811   0.101   1.009   8.767  1.0793 -1.4102 -1.0431
 3725SOL    HW222812   4.700   0.972   8.749 -0.7985 -0.5573  1.7432
 3726SOL     OW22813   2.852   0.322   6.393  0.1983 -0.3346  0.4543
 3726SOL    HW122814   2.791   0.314   6.467  1.1440 -0.5170  1.2072
 3726SOL    HW222815   2.823   0.397   6.342 -2.5895 -1.9309 -0.2937
 3727SOL     OW22816   3.199   4.251   4.911 -0.6459  0.5607  0.0273
 3727SOL    HW122817   3.294   4.242   4.926 -0.4363 -1.2533 -2.3665
 3727SOL    HW222818   3.175   4.165   4.875 -1.3143 -0.1765  2.2627
 3728SOL     OW22819   4.053   4.410   6.815  0.0703 -0.2217  0.0500
 3728SOL    HW122820   4.066   4.445   6.727 -1.0215 -0.8453 -0.3720
 3728SOL    HW222821   4.143   4.388   6.838 -0.0938  0.7357  1.5567
 3729SOL     OW22822   1.702   3.726   9.846 -0.1295 -0.4346 -0.2369
 3729SOL    HW122823   1.716   3.667   9.772  0.1066 -0.8182  0.1138
 3729SOL    HW222824   1.609   3.749   9.841 -0.5541 -2.1425 -0.2450
 3730SOL     OW22825   3.601   2.404  14.938 -0.5039  0.3667  0.8703
 3730SOL    HW122826   3.638   2.406  15.026 -2.2419  1.0756  1.5959
 3730SOL    HW222827   3.673   2.379  14.880 -0.4650  0.6980  0.7725
 3731SOL     OW22828   0.308   3.031   2.760 -0.1075 -0.3077  0.0530
 3731SOL    HW122829   0.382   3.062   2.813 -0.6691 -0.3727  0.8794
 3731SOL    HW222830   0.240   3.091   2.792 -0.7893 -0.2703 -1.4891
 3732SOL     OW22831   4.464   3.281   7.511  0.1455 -0.0504 -0.4558
 3732SOL    HW122832   4.457   3.366   7.555  1.3312 -0.7396  1.0612
 3732SOL    HW222833   4.428   3.220   7.576  0.4234 -1.7234 -1.8870
 3733SOL     OW22834   1.114   3.415   6.343  0.4277 -0.5511  0.7536
 3733SOL    HW122835   1.158   3.480   6.288  0.3558 -1.7782 -0.7745
 3733SOL    HW222836   1.190   3.357   6.356 -1.0044 -2.6403 -0.2476
 3734SOL     OW22837   4.571   3.439   3.864  0.1663  0.6360  0.0363
 3734SOL    HW122838   4.519   3.460   3.786 -1.5689 -1.9201  0.4867
 3734SOL    HW222839   4.591   3.347   3.847 -0.3890  0.5761 -0.3228
 3735SOL     OW22840   1.986   0.021   7.189  0.2992 -0.4964  0.1530
 3735SOL    HW122841   1.924   4.685   7.188 -0.0754 -0.1530 -1.4070
 3735SOL    HW222842   1.921   0.090   7.177 -1.4552 -2.2191 -0.1811
 3736SOL     OW22843   3.665   4.307   7.766  0.0825  0.6231 -1.2306
 3736SOL    HW122844   3.691   4.215   7.768 -1.4029  0.1731 -2.4801
 3736SOL    HW222845   3.738   4.354   7.726 -0.5032  0.2153 -2.8059
 3737SOL     OW22846   1.505   0.504  15.804  0.0874 -0.8159  0.0090
 3737SOL    HW122847   1.528   0.587  15.764 -3.8263 -0.0354 -0.6651
 3737SOL    HW222848   1.434   0.534  15.862  0.5722  2.1437 -0.9466
 3738SOL     OW22849   0.802   1.541   8.606  0.5872 -0.5342 -0.3479
 3738SOL    HW122850   0.825   1.513   8.518 -1.2087  0.6033 -1.1972
 3738SOL    HW222851   0.738   1.606   8.575 -2.6741 -2.4527  2.3079
 3739SOL     OW22852   3.689   2.404   4.101  0.0359  0.0996 -0.2187
 3739SOL    HW122853   3.781   2.428   4.112 -0.1623  0.8279 -0.1902
 3739SOL    HW222854   3.677   2.313   4.130 -2.5832  0.2698 -0.7759
 3740SOL     OW22855   2.444   3.486   5.097 -0.2927  0.0344  0.0191
 3740SOL    HW122856   2.448   3.428   5.172  0.6540 -0.8469 -0.7135
 3740SOL    HW222857   2.441   3.565   5.150 -0.3806  0.2383 -0.2857
 3741SOL     OW22858   3.103   1.346   8.239 -0.2417 -0.0317 -0.6378
 3741SOL    HW122859   3.023   1.295   8.222  0.5062 -0.8757 -1.6810
 3741SOL    HW222860   3.124   1.368   8.148  0.0328  1.0223 -0.3131
 3742SOL     OW22861   2.407   3.192   9.033 -0.0882 -0.4763  0.3164
 3742SOL    HW122862   2.322   3.152   9.051  0.1691 -1.8927 -1.5787
 3742SOL    HW222863   2.386   3.285   9.032 -1.2431 -0.7586 -1.5685
 3743SOL     OW22864   4.111   3.699   3.086 -0.5430  0.2851  0.4349
 3743SOL    HW122865   4.199   3.700   3.048  0.7034 -1.8935  3.2291
 3743SOL    HW222866   4.071   3.625   3.040 -0.4481  0.2336  0.4350
 3744SOL     OW22867   2.182   1.552   6.916 -0.1857  0.1905 -0.7299
 3744SOL    HW122868   2.147   1.552   6.827 -2.8239 -0.4691  0.3176
 3744SOL    HW222869   2.122   1.608   6.966  0.3747 -0.5216  0.7487
 3745SOL     OW22870   0.741   1.917  15.985 -0.2281  0.0265  0.2093
 3745SOL    HW122871   0.750   1.848  16.051 -2.0894 -0.2930  0.1245
 3745SOL    HW222872   0.749   1.995  16.040  0.4848 -1.7599  2.6484
 3746SOL     OW22873   0.106   4.388  15.259 -0.3638  0.5064 -0.2875
 3746SOL    HW122874   0.100   4.451  15.187 -3.3634  1.5649  0.9280
 3746SOL    HW222875   0.022   4.402  15.302  0.1085 -0.3029  0.8711
 3747SOL     OW22876   1.856   1.701   6.127  0.4622  0.0129 -0.2245
 3747SOL    HW122877   1.840   1.623   6.075  1.5681 -0.5797  0.3188
 3747SOL    HW222878   1.950   1.704   6.110  0.5644  1.2778  0.5635
 3748SOL     OW22879   3.404   2.879  15.342 -0.7615  0.5356  0.5723
 3748SOL    HW122880   3.326   2.915  15.300  0.8291  2.8249 -0.4022
 3748SOL    HW222881   3.358   2.805  15.381 -0.3043 -0.0289  0.0214
 3749SOL     OW22882   2.279   3.289   7.787  0.1012 -0.2512  0.2241
 3749SOL    HW122883   2.371   3.307   7.805  0.3873  0.2702 -1.7096
 3749SOL    HW222884   2.290   3.258   7.697 -0.7269  1.6237 -0.5049
 3750SOL     OW22885   2.356   3.231   3.134 -0.1312 -0.0826 -0.4475
 3750SOL    HW122886   2.304   3.301   3.174  0.2924 -0.6810  1.1830
 3750SOL    HW222887   2.401   3.198   3.212 -2.0965  0.2431  0.8154
 3751SOL     OW22888   1.308   0.256  12.821 -0.2264 -0.1008 -0.1303
 3751SOL    HW122889   1.346   0.168  12.828 -1.1334 -0.5561 -0.9276
 3751SOL    HW222890   1.378   0.297  12.770  0.3763 -0.5175  0.3469
 3752SOL     OW22891   3.174   3.930   0.358 -0.3123 -0.2154 -0.5274
 3752SOL    HW122892   3.106   3.914   0.293  0.4359 -1.7658 -0.9143
 3752SOL    HW222893   3.234   3.983   0.305  0.0866  1.6230  1.7141
 3753SOL     OW22894   4.316   4.677   1.819  0.5415 -0.0934 -0.0226
 3753SOL    HW122895   4.327   4.601   1.762 -1.9487 -1.6547  1.5641
 3753SOL    HW222896   4.406   4.706   1.832 -0.2156  2.1151  0.3167
 3754SOL     OW22897   4.105   1.062   2.118  0.0525  0.3095  0.1438
 3754SOL    HW122898   4.194   1.034   2.139  0.2458  1.4252  0.8708
 3754SOL    HW222899   4.084   1.119   2.192 -3.8615 -0.0110 -0.7600
 3755SOL     OW22900   2.337   0.598   8.383  0.2559 -0.8028 -0.5976
 3755SOL    HW122901   2.331   0.580   8.289  0.1658  2.4794 -1.2290
 3755SOL    HW222902   2.429   0.573   8.394 -0.3576 -2.7705 -0.0763
 3756SOL     OW22903   2.984   0.531   6.741 -0.3722 -0.4852  0.0197
 3756SOL    HW122904   2.966   0.531   6.647 -2.0611 -0.3183  0.3358
 3756SOL    HW222905   2.976   0.624   6.765 -1.3196 -1.0766  1.9577
 3757SOL     OW22906   2.034   1.827   3.781 -0.5029  0.0484 -0.0164
 3757SOL    HW122907   2.047   1.922   3.774 -0.5182  0.1241  0.9927
 3757SOL    HW222908   2.087   1.813   3.860  0.4273  3.4762 -0.0211
 3758SOL     OW22909   0.402   4.414   7.106  0.0095  0.3657  0.6200
 3758SOL    HW122910   0.330   4.407   7.169 -0.0793 -1.4024  0.3484
 3758SOL    HW222911   0.399   4.324   7.071 -3.2448  0.6399  0.1709
 3759SOL     OW22912   3.593   1.708   3.952  0.6016 -0.3482 -0.0186
 3759SOL    HW122913   3.625   1.692   3.863 -0.7621  1.9061 -0.9254
 3759SOL    HW222914   3.515   1.762   3.938  1.7427  1.7110  1.7162
 3760SOL     OW22915   0.781   0.817   5.739  0.1938 -0.0733  0.0165
 3760SOL    HW122916   0.819   0.902   5.721  0.5257 -0.2055  0.0872
 3760SOL    HW222917   0.832   0.792   5.816  0.2055 -1.1364 -0.3352
 3761SOL     OW22918   0.658   1.959   1.358  0.1191  0.4005 -0.1998
 3761SOL    HW122919   0.694   1.975   1.270 -3.0825  3.5888 -0.9351
 3761SOL    HW222920   0.572   1.918   1.349 -0.1019  1.0250 -0.9931
 3762SOL     OW22921   4.146   3.632   8.684  0.7476 -0.0715 -0.2973
 3762SOL    HW122922   4.097   3.647   8.603 -0.7299 -2.2356  0.1988
 3762SOL    HW222923   4.236   3.615   8.656  0.5662 -0.0019 -0.9279
 3763SOL     OW22924   1.917   2.996  15.327 -0.1803  0.2442 -0.1255
 3763SOL    HW122925   1.854   3.068  15.332 -0.9397 -0.4035 -0.3565
 3763SOL    HW222926   1.961   3.013  15.244  1.6558  0.0421  0.8057
 3764SOL     OW22927   1.322   4.358  12.474 -0.3784  0.1761 -0.4027
 3764SOL    HW122928   1.320   4.272  12.431 -2.0774 -0.7870  1.6288
 3764SOL    HW222929   1.387   4.335  12.540 -2.0905 -1.2140  0.7834
 3765SOL     OW22930   1.409   3.741  16.330  0.0724  0.3973  0.0135
 3765SOL    HW122931   1.470   3.705  16.265 -1.1052  0.0996 -0.9408
 3765SOL    HW222932   1.444   3.823  16.364 -2.1313  1.3150  0.0541
 3766SOL     OW22933   4.567   3.525   6.067 -0.2483 -0.8425 -0.5948
 3766SOL    HW122934   4.614   3.469   6.129 -0.8211  0.6498  1.2111
 3766SOL    HW222935   4.561   3.602   6.124  0.0761 -2.6436  1.9227
 3767SOL     OW22936   4.014   1.744   5.314 -0.5124 -0.2922  0.7012
 3767SOL    HW122937   4.106   1.735   5.289 -1.2314 -0.2560 -1.9408
 3767SOL    HW222938   4.018   1.787   5.400 -1.2736  2.5144 -0.6686
 3768SOL     OW22939   2.991   3.361   6.977 -0.6820 -0.6226  0.0616
 3768SOL    HW122940   3.018   3.339   7.067 -0.7803 -2.9533 -0.4829
 3768SOL    HW222941   3.032   3.447   6.966 -1.2151 -0.3520  0.2174
 3769SOL     OW22942   1.652   2.614  13.866  0.1958 -0.4085 -0.2608
 3769SOL    HW122943   1.735   2.623  13.819  0.8433  2.3220  1.4132
 3769SOL    HW222944   1.594   2.575  13.801  0.4277 -1.8235  0.3669
 3770SOL     OW22945   1.436   3.069   7.329  0.9792 -0.2308 -0.3443
 3770SOL    HW122946   1.419   3.076   7.423  3.7632 -1.0467  0.1997
 3770SOL    HW222947   1.359   3.023   7.296  1.6329  1.1898 -3.8524
 3771SOL     OW22948   2.906   0.156   7.811 -0.0846 -0.0182 -0.1801
 3771SOL    HW122949   2.926   0.105   7.890 -1.7180 -1.1468 -0.5067
 3771SOL    HW222950   2.930   0.245   7.836 -3.6354  0.2659  2.1850
 3772SOL     OW22951   3.887   3.198   3.044 -0.6533 -0.2517 -0.1823
 3772SOL    HW122952   3.917   3.183   3.134 -1.0793 -0.6499 -0.1065
 3772SOL    HW222953   3.793   3.193   3.057 -0.5489  0.5723  0.8424
 3773SOL     OW22954   2.875   2.841   5.389 -0.4181 -0.3873  0.0160
 3773SOL    HW122955   2.787   2.806   5.403 -0.5068 -0.2039 -0.0638
 3773SOL    HW222956   2.867   2.866   5.296  2.5893  0.8359  0.1144
 3774SOL     OW22957   2.623   1.198   1.352  0.4008  0.5188 -0.4555
 3774SOL    HW122958   2.579   1.115   1.333 -0.7604  0.5910  1.8477
 3774SOL    HW222959   2.550   1.250   1.319 -0.0998  0.4748  0.5658
 3775SOL     OW22960   2.949   0.468   3.189  0.3091  0.1718 -0.1181
 3775SOL    HW122961   2.886   0.483   3.118  1.0040 -1.8998 -1.1781
 3775SOL    HW222962   2.923   0.529   3.258 -0.9353 -0.2298 -0.2272
 3776SOL     OW22963   2.313   3.052   0.181 -0.1787 -0.2162  0.4840
 3776SOL    HW122964   2.311   2.956   0.186  2.1739 -0.2066  1.3790
 3776SOL    HW222965   2.236   3.056   0.124  0.1950 -0.9167 -0.0763
 3777SOL     OW22966   1.676   1.242   8.329  0.0489 -0.3450 -0.4471
 3777SOL    HW122967   1.625   1.298   8.271 -1.1201  0.7724  1.6594
 3777SOL    HW222968   1.729   1.200   8.261 -1.2399  0.3799 -1.9202
 3778SOL     OW22969   2.933   1.072   4.932 -0.0145  0.5288 -0.4270
 3778SOL    HW122970   2.845   1.034   4.932  0.0023  0.4804  0.9832
 3778SOL    HW222971   2.938   1.084   4.837 -2.7162 -0.9010 -0.7444
 3779SOL     OW22972   2.407   0.390   1.383  0.7239 -0.2365 -0.4518
 3779SOL    HW122973   2.360   0.450   1.441  1.4979 -0.7506  0.7212
 3779SOL    HW222974   2.392   0.438   1.302  0.1750  0.8201  0.2763
 3780SOL     OW22975   3.796   0.488   5.857 -0.7174  0.1580  0.0668
 3780SOL    HW122976   3.713   0.531   5.835  0.0021  0.3386 -2.2583
 3780SOL    HW222977   3.812   0.422   5.790 -2.0664 -0.7757  0.6462
 3781SOL     OW22978   4.459   0.681   4.485 -0.2596 -0.2149  0.4309
 3781SOL    HW122979   4.456   0.766   4.442  0.2217 -1.0940 -1.3317
 3781SOL    HW222980   4.547   0.651   4.461 -0.6366 -0.5770 -0.4869
 3782SOL     OW22981   1.872   2.389   1.732  0.6183 -0.3602 -0.1990
 3782SOL    HW122982   1.836   2.446   1.801  0.8649 -0.4576  0.0101
 3782SOL    HW222983   1.895   2.459   1.671 -0.3976 -1.3414 -1.6833
 3783SOL     OW22984   3.571   0.611  10.662 -0.0690 -0.1533  0.1958
 3783SOL    HW122985   3.595   0.621  10.570 -1.3757  0.4353 -0.0836
 3783SOL    HW222986   3.616   0.686  10.702  3.8983 -1.2009 -2.2207
 3784SOL     OW22987   1.427   3.607   8.391  0.3627 -0.0120  0.1779
 3784SOL    HW122988   1.399   3.522   8.356  2.9969 -0.1837 -1.5045
 3784SOL    HW222989   1.459   3.580   8.477  0.7049  0.1795  0.1077
 3785SOL     OW22990   1.218   2.224   5.788 -0.3170  0.2469 -0.0645
 3785SOL    HW122991   1.313   2.211   5.796 -0.2812  0.6703  0.2053
 3785SOL    HW222992   1.189   2.153   5.844  0.7408 -0.7161 -0.7413
 3786SOL     OW22993   2.580   0.118  14.397  0.3261 -0.3019  0.4224
 3786SOL    HW122994   2.619   0.040  14.435  3.5113  1.2655  0.3544
 3786SOL    HW222995   2.552   0.163  14.476  0.7442  0.3736  0.1857
 3787SOL     OW22996   4.157   1.410   6.543 -0.4483 -0.6138  0.1132
 3787SOL    HW122997   4.154   1.427   6.638 -1.1932 -1.8149  0.3023
 3787SOL    HW222998   4.250   1.428   6.528  0.2499 -2.0450  2.6723
 3788SOL     OW22999   0.344   0.146  16.289 -0.3146  0.1136  0.0044
 3788SOL    HW123000   0.365   0.171  16.378 -1.0229  0.6492  0.0224
 3788SOL    HW223001   0.421   0.160  16.234 -1.1207  2.9255 -0.4140
 3789SOL     OW23002   4.718   4.148   8.724 -0.2486 -0.7517  0.1211
 3789SOL    HW123003   4.716   4.166   8.818 -0.1677 -1.6727  0.3002
 3789SOL    HW223004   0.038   4.223   8.707  0.8604 -2.1131 -2.1429
 3790SOL     OW23005   2.664   4.403  12.234 -0.0671 -0.1937  0.1144
 3790SOL    HW123006   2.745   4.373  12.193 -0.6837 -0.2197 -1.0922
 3790SOL    HW223007   2.602   4.351  12.183 -0.1580  0.0295  0.0005
 3791SOL     OW23008   3.347   4.126   0.236 -0.1735  0.1906  0.5254
 3791SOL    HW123009   3.302   4.169   0.308  1.5575  1.7806  0.6612
 3791SOL    HW223010   3.360   4.188   0.164 -0.6710 -0.8396 -0.4687
 3792SOL     OW23011   3.133   4.433   8.918 -0.0255  0.1398 -0.1344
 3792SOL    HW123012   3.065   4.420   8.852  0.3165 -1.2343 -0.2148
 3792SOL    HW223013   3.108   4.521   8.948  1.2602  0.2425  0.6086
 3793SOL     OW23014   2.993   4.334   5.056  0.1962 -0.7629 -0.2859
 3793SOL    HW123015   3.035   4.320   5.141 -0.0426  3.5877  0.5347
 3793SOL    HW223016   3.068   4.315   5.000  0.4688 -2.6121  0.7098
 3794SOL     OW23017   0.747   4.080  16.661  0.1483 -0.2554  0.1524
 3794SOL    HW123018   0.748   4.176  16.662  0.3650 -0.2080 -2.3077
 3794SOL    HW223019   0.824   4.052  16.710  0.4141 -2.0176 -1.2456
 3795SOL     OW23020   1.909   2.153   1.082  0.4976 -0.2012 -0.7108
 3795SOL    HW123021   1.940   2.102   1.007 -0.8445 -1.8140 -0.1682
 3795SOL    HW223022   1.975   2.156   1.151  0.1227 -0.2105 -0.3553
 3796SOL     OW23023   4.586   3.953   1.393 -0.0894 -0.2249 -0.2631
 3796SOL    HW123024   4.534   3.893   1.340  0.2897 -0.5232 -0.3014
 3796SOL    HW223025   4.547   3.932   1.478 -1.2961 -2.8094 -1.4530
 3797SOL     OW23026   4.310   3.889  14.122  0.1488 -0.5742  0.0537
 3797SOL    HW123027   4.264   3.807  14.102  0.7518 -0.8484 -0.2146
 3797SOL    HW223028   4.239   3.934  14.167 -1.0176 -2.7390  0.3929
 3798SOL     OW23029   0.294   0.086   3.213  0.1726  0.0415 -0.3840
 3798SOL    HW123030   0.285   0.004   3.164 -0.5591 -1.0565  1.6006
 3798SOL    HW223031   0.224   0.063   3.274  0.3684  0.3159 -0.0622
 3799SOL     OW23032   3.724   3.883   2.328 -0.5154  0.0843 -0.7881
 3799SOL    HW123033   3.756   3.922   2.410  0.1144 -0.7886 -0.6107
 3799SOL    HW223034   3.792   3.919   2.272  0.9955 -0.5582  0.6083
 3800SOL     OW23035   0.684   3.687   9.328  0.2684 -0.2343  0.1001
 3800SOL    HW123036   0.690   3.771   9.373 -2.0849  1.1153 -2.1154
 3800SOL    HW223037   0.607   3.650   9.369  0.5260  1.3532  2.0312
 3801SOL     OW23038   3.756   0.540  16.317 -0.2255  0.0630  0.8218
 3801SOL    HW123039   3.683   0.533  16.379 -1.2654  3.4616 -0.0015
 3801SOL    HW223040   3.782   0.631  16.329 -0.3712  0.3272 -0.7682
 3802SOL     OW23041   1.545   0.111  14.343 -0.1559  0.4525  0.1552
 3802SOL    HW123042   1.595   0.075  14.270 -0.1417  0.4557  0.1632
 3802SOL    HW223043   1.459   0.123  14.302  0.0752 -0.6539 -0.6683
 3803SOL     OW23044   4.421   2.575   5.384 -0.7098  0.2571  0.3988
 3803SOL    HW123045   4.360   2.632   5.336  0.1066  2.3619  1.8445
 3803SOL    HW223046   4.404   2.574   5.478  0.1612  1.1674  0.5754
 3804SOL     OW23047   3.037   3.211   5.224  0.2200 -0.0582 -0.6933
 3804SOL    HW123048   3.065   3.302   5.211 -1.9978  0.7086  0.0123
 3804SOL    HW223049   3.093   3.158   5.167  0.5943  1.8904 -2.1507
 3805SOL     OW23050   3.765   2.063   8.901 -0.6922 -0.4348  0.3674
 3805SOL    HW123051   3.719   2.128   8.848 -0.4490 -0.8271 -0.3306
 3805SOL    HW223052   3.717   1.982   8.883 -1.2789  0.2022 -0.9098
 3806SOL     OW23053   4.622   3.750   4.288  0.0956 -0.0449  0.3645
 3806SOL    HW123054   4.591   3.720   4.202  1.2914 -0.9405  0.2333
 3806SOL    HW223055   4.586   3.687   4.350 -2.6372  1.4626  0.3045
 3807SOL     OW23056   1.220   0.660   7.627 -0.9397  0.1675  1.1407
 3807SOL    HW123057   1.162   0.612   7.568  0.2780 -1.6154  1.3754
 3807SOL    HW223058   1.269   0.586   7.664  0.9763  1.2105  0.6558
 3808SOL     OW23059   2.172   2.530  12.159 -0.2076  0.0019  0.1063
 3808SOL    HW123060   2.164   2.561  12.069 -0.0466  2.3193  0.8822
 3808SOL    HW223061   2.262   2.500  12.172 -0.2876  0.0020  0.6650
 3809SOL     OW23062   1.634   4.388  10.423  0.2704  0.0535 -0.6151
 3809SOL    HW123063   1.592   4.311  10.462  0.1068 -1.7617 -4.3427
 3809SOL    HW223064   1.712   4.382  10.477 -1.0058 -0.4176  1.1820
 3810SOL     OW23065   3.328   2.805   3.581  0.8068 -0.9904 -0.5534
 3810SOL    HW123066   3.364   2.881   3.534  0.8232 -1.4238 -1.2404
 3810SOL    HW223067   3.306   2.749   3.507  2.4094 -0.4143 -1.4757
 3811SOL     OW23068   1.394   1.223   3.249 -0.3119 -0.5527 -0.2598
 3811SOL    HW123069   1.440   1.184   3.323 -1.2399  0.3359  0.7836
 3811SOL    HW223070   1.331   1.274   3.300 -1.5909  1.4350 -3.8806
 3812SOL     OW23071   2.377   4.189   2.669  0.3222 -0.1543 -0.2477
 3812SOL    HW123072   2.414   4.190   2.757  0.8392  0.8854 -0.4687
 3812SOL    HW223073   2.398   4.105   2.630  0.1699 -0.0670 -0.5206
 3813SOL     OW23074   1.249   2.051  10.108 -0.3641 -0.6128  0.7819
 3813SOL    HW123075   1.345   2.057  10.104 -0.4604  1.7083  1.4124
 3813SOL    HW223076   1.216   2.096  10.186  1.3949  2.6787 -0.3715
 3814SOL     OW23077   2.204   0.764   2.632  0.2631  0.4191  0.3536
 3814SOL    HW123078   2.187   0.848   2.589  2.3045  0.7903  0.2805
 3814SOL    HW223079   2.270   0.713   2.584 -1.4382 -1.4868  0.0239
 3815SOL     OW23080   4.595   2.528   6.848  0.6293  0.3836 -0.2067
 3815SOL    HW123081   4.617   2.460   6.911 -0.3087  0.4279  0.1731
 3815SOL    HW223082   4.594   2.480   6.765  0.7287  1.1673 -0.6659
 3816SOL     OW23083   4.018   1.467   4.332 -0.2771  0.4342  0.0526
 3816SOL    HW123084   4.030   1.412   4.254 -1.6273  1.5254 -0.9156
 3816SOL    HW223085   4.013   1.552   4.288 -0.7096 -0.4087 -1.5407
 3817SOL     OW23086   1.046   4.431   2.172  0.1399  0.5015  0.2535
 3817SOL    HW123087   1.012   4.450   2.260 -2.6815  1.0620 -0.9708
 3817SOL    HW223088   0.969   4.444   2.117  0.1720 -1.4854 -0.2626
 3818SOL     OW23089   2.295   2.417  11.181 -0.9518 -0.0702 -0.1818
 3818SOL    HW123090   2.379   2.448  11.214 -0.7205 -0.1131 -0.7310
 3818SOL    HW223091   2.314   2.324  11.167 -0.5021  0.1375 -1.0036
 3819SOL     OW23092   1.924   2.613   3.790  0.1358  0.8797 -0.2283
 3819SOL    HW123093   1.886   2.692   3.829 -0.1234  1.2311 -1.1876
 3819SOL    HW223094   1.870   2.600   3.712  1.9501 -1.5397 -1.0965
 3820SOL     OW23095   3.884   3.152  14.080  0.4716  0.0217 -0.2352
 3820SOL    HW123096   3.866   3.236  14.037  0.2853  0.2615  0.3048
 3820SOL    HW223097   3.815   3.143  14.146  0.5351 -0.7460 -0.2805
 3821SOL     OW23098   4.692   0.340   0.278  0.5517 -0.2024 -0.3236
 3821SOL    HW123099   4.645   0.279   0.221  1.8587 -0.7672 -0.7882
 3821SOL    HW223100   0.039   0.358   0.237  2.4407  1.1572  4.0759
 3822SOL     OW23101   3.741   2.051   9.246 -0.2130  0.5722  0.4211
 3822SOL    HW123102   3.710   2.082   9.331  1.1098  0.2566  1.0177
 3822SOL    HW223103   3.655   2.035   9.206  0.6849  1.2026 -1.7664
 3823SOL     OW23104   2.567   0.951   7.782 -0.3086 -0.4717 -0.1116
 3823SOL    HW123105   2.589   0.970   7.874 -1.2969  0.9622 -0.1737
 3823SOL    HW223106   2.656   0.926   7.757 -0.0534 -0.7331  1.0530
 3824SOL     OW23107   4.295   4.395   4.963 -0.9157  0.7076  0.3985
 3824SOL    HW123108   4.262   4.388   5.053 -2.3125 -5.1761 -0.5830
 3824SOL    HW223109   4.386   4.420   4.979 -0.9017  1.0339 -0.1957
 3825SOL     OW23110   3.696   2.400  10.322  0.0509  0.1192 -0.3399
 3825SOL    HW123111   3.735   2.424  10.406  0.1628 -0.0131 -0.3535
 3825SOL    HW223112   3.616   2.358  10.353  0.3327  0.5508  0.9824
 3826SOL     OW23113   2.278   0.208   6.341 -0.0050 -0.2425  0.2861
 3826SOL    HW123114   2.220   0.136   6.362  0.2175  0.6144  3.8587
 3826SOL    HW223115   2.332   0.174   6.269 -1.1144 -0.6223 -0.3541
 3827SOL     OW23116   1.680   0.175  16.437  0.2075  0.5954 -0.0893
 3827SOL    HW123117   1.715   0.264  16.443  1.5031  0.2464 -2.8731
 3827SOL    HW223118   1.588   0.200  16.438  0.1622  0.4263  0.0151
 3828SOL     OW23119   1.436   1.355  14.056  0.1442 -0.4519 -0.0778
 3828SOL    HW123120   1.389   1.435  14.080 -1.7703 -1.3467 -0.9154
 3828SOL    HW223121   1.526   1.365  14.088 -0.0330 -2.2753  0.9772
 3829SOL     OW23122   0.030   1.508  10.240  0.2530  0.4907 -0.4560
 3829SOL    HW123123   0.087   1.452  10.187 -0.7500 -0.8173 -0.1491
 3829SOL    HW223124   0.004   1.444  10.306 -1.3555  0.9838 -0.6128
 3830SOL     OW23125   0.165   4.562   1.965 -0.0747 -0.1397  0.2998
 3830SOL    HW123126   0.243   4.615   1.949  0.2103 -1.1916 -1.7851
 3830SOL    HW223127   0.137   4.539   1.876 -1.7118 -1.2310  1.1003
 3831SOL     OW23128   3.558   1.412  16.665 -0.2091  0.4564 -0.8236
 3831SOL    HW123129   3.633   1.355  16.685 -1.6395 -0.6637  1.2439
 3831SOL    HW223130   3.553   1.459  16.748  1.1389  0.0595 -0.5106
 3832SOL     OW23131   4.022   2.872   0.705 -0.0173  0.1438  0.1236
 3832SOL    HW123132   4.024   2.899   0.613 -0.7891  1.1341  0.3990
 3832SOL    HW223133   4.106   2.827   0.707 -1.1490 -2.0489 -1.9281
 3833SOL     OW23134   4.072   0.828   5.334  0.6852  1.4301 -0.0740
 3833SOL    HW123135   4.156   0.818   5.289  0.6899  1.6428 -0.1111
 3833SOL    HW223136   4.033   0.903   5.288 -1.6535 -0.7316 -1.6198
 3834SOL     OW23137   3.009   0.699   5.697  0.2110  0.0472  0.4008
 3834SOL    HW123138   3.045   0.787   5.707  2.4583 -1.1371  2.8922
 3834SOL    HW223139   3.040   0.691   5.607  0.1412  0.8093  0.3095
 3835SOL     OW23140   4.487   1.983  14.528 -0.8504 -0.6112 -0.3098
 3835SOL    HW123141   4.438   2.065  14.540  1.5431  1.0121 -1.4878
 3835SOL    HW223142   4.517   2.003  14.439  1.5070 -1.3368  0.3162
 3836SOL     OW23143   3.229   0.118   1.409 -0.5874 -0.0740  0.0288
 3836SOL    HW123144   3.264   0.052   1.469 -2.2709  0.5629  1.7033
 3836SOL    HW223145   3.163   0.071   1.358 -1.6634 -0.1107  1.4444
 3837SOL     OW23146   2.376   0.004  10.150  0.1223  0.2992 -0.7124
 3837SOL    HW123147   2.408   4.725  10.239 -1.4106  1.7953  0.0964
 3837SOL    HW223148   2.285   4.714  10.154  1.0244 -2.3279  1.8263
 3838SOL     OW23149   2.237   0.352   7.166  0.2222  0.8499 -0.2687
 3838SOL    HW123150   2.242   0.447   7.156  0.2275  0.9747  0.9344
 3838SOL    HW223151   2.331   0.336   7.175  0.6406  2.2151 -2.1857
 3839SOL     OW23152   0.141   2.789   1.740 -0.6100 -0.0647 -0.1917
 3839SOL    HW123153   0.048   2.799   1.719 -0.1769  0.5614 -1.8367
 3839SOL    HW223154   0.180   2.848   1.676 -2.0535  0.1246 -0.9042
 3840SOL     OW23155   3.643   1.966  10.197 -0.4118 -0.2169  0.6940
 3840SOL    HW123156   3.651   1.883  10.151  0.0379 -0.5264  1.3444
 3840SOL    HW223157   3.717   2.011  10.156 -1.5150 -0.6962 -1.8171
 3841SOL     OW23158   2.898   3.907  17.331  0.6642 -1.0714 -0.0465
 3841SOL    HW123159   2.962   3.906  17.402  0.7702  1.0892 -0.1019
 3841SOL    HW223160   2.914   3.978  17.270 -0.4347  1.1464  2.2368
 3842SOL     OW23161   0.919   0.293   9.231  0.1825 -0.3163  0.1460
 3842SOL    HW123162   0.865   0.365   9.264 -0.4258 -0.8495  0.3120
 3842SOL    HW223163   0.923   0.247   9.315 -2.8863 -2.6256 -0.9508
 3843SOL     OW23164   0.006   2.789   6.453 -0.4932 -0.3485  0.7199
 3843SOL    HW123165   0.034   2.839   6.529  2.1645  0.7417 -0.9805
 3843SOL    HW223166   0.042   2.847   6.386  0.3455 -0.7635  0.8127
 3844SOL     OW23167   0.207   1.440   5.143  0.3151  0.3445 -0.0423
 3844SOL    HW123168   0.283   1.470   5.193  0.2109  2.0495 -0.9059
 3844SOL    HW223169   0.238   1.448   5.053 -0.2928 -5.3318 -0.7505
 3845SOL     OW23170   2.356   4.712   9.065  0.5545 -0.1040 -0.2957
 3845SOL    HW123171   2.267   4.693   9.033  0.1994  1.8208 -0.4321
 3845SOL    HW223172   2.333   0.035   9.135 -0.6334 -1.9088  0.8794
 3846SOL     OW23173   4.305   1.385   8.153 -0.1052 -0.3575 -0.3700
 3846SOL    HW123174   4.302   1.445   8.079 -0.9274 -0.5569 -0.5068
 3846SOL    HW223175   4.316   1.444   8.227 -0.5511  0.7181 -1.1669
 3847SOL     OW23176   1.119   0.311  16.780 -0.1947 -0.7222 -0.9653
 3847SOL    HW123177   1.213   0.297  16.767  0.3512 -0.4960  2.5661
 3847SOL    HW223178   1.100   0.392  16.732  1.1691  0.1568 -0.0255
 3848SOL     OW23179   1.232   0.193   2.512  0.3139 -0.4897  0.5776
 3848SOL    HW123180   1.247   0.214   2.420 -0.0312  0.0814  0.6518
 3848SOL    HW223181   1.316   0.227   2.543 -0.5617  2.3922 -0.1393
 3849SOL     OW23182   4.018   2.570   2.996  0.8344  0.2575 -0.3891
 3849SOL    HW123183   4.077   2.626   2.944  0.1760  0.1563 -1.2363
 3849SOL    HW223184   3.937   2.598   2.953 -0.4244 -1.1752  1.1030
 3850SOL     OW23185   1.110   1.502   7.297 -0.2486  0.6279  0.0088
 3850SOL    HW123186   1.016   1.491   7.280 -0.4533  0.0789  1.5075
 3850SOL    HW223187   1.148   1.535   7.216  0.0961 -1.7384 -0.7672
 3851SOL     OW23188   2.605   2.083   5.378 -0.4715  0.0686 -0.0148
 3851SOL    HW123189   2.652   2.163   5.354  0.0306 -0.2952 -0.2644
 3851SOL    HW223190   2.677   2.024   5.403  0.1933  0.0053 -2.0583
 3852SOL     OW23191   3.888   1.113  13.881  0.3743  0.8934 -0.1316
 3852SOL    HW123192   3.890   1.086  13.973 -0.8893 -0.4695 -0.5063
 3852SOL    HW223193   3.949   1.061  13.829 -0.1777 -1.1702  1.2757
 3853SOL     OW23194   2.444   3.739   1.442  0.5865 -0.7073 -0.0154
 3853SOL    HW123195   2.459   3.762   1.351 -0.9894 -3.5399 -0.9954
 3853SOL    HW223196   2.508   3.792   1.488 -0.3410  1.4398 -1.2302
 3854SOL     OW23197   0.124   1.754   1.843 -0.1662 -0.2675 -0.4628
 3854SOL    HW123198   0.216   1.765   1.820  0.5836 -2.1107  1.6988
 3854SOL    HW223199   0.108   1.709   1.761 -1.0826  0.2487 -0.5741
 3855SOL     OW23200   2.914   2.573   5.378  0.5027  0.1312  0.2127
 3855SOL    HW123201   2.916   2.668   5.389  0.2695  0.0234  1.1634
 3855SOL    HW223202   2.890   2.559   5.286  2.0956 -1.9752  0.1061
 3856SOL     OW23203   1.711   4.131   3.976 -0.1452  0.1726 -0.2889
 3856SOL    HW123204   1.733   4.117   4.068  0.5457  0.4417 -0.4095
 3856SOL    HW223205   1.795   4.141   3.931 -0.2404 -0.8778 -0.7064
 3857SOL     OW23206   2.385   3.732   5.286 -0.0190 -0.1466  0.1904
 3857SOL    HW123207   2.422   3.697   5.367  0.6722 -2.2730 -1.0370
 3857SOL    HW223208   2.304   3.770   5.320 -2.4705 -1.5378 -3.9718
 3858SOL     OW23209   0.753   1.257  15.145 -0.4451  0.1543  0.2202
 3858SOL    HW123210   0.773   1.189  15.080  2.6369  0.8659  0.3803
 3858SOL    HW223211   0.711   1.212  15.217  0.9770  1.7359  2.0339
 3859SOL     OW23212   0.900   2.622   3.061 -0.4021 -0.3863  0.7920
 3859SOL    HW123213   0.915   2.543   3.009 -0.0914  0.2255 -0.0490
 3859SOL    HW223214   0.874   2.682   2.991 -1.0909  0.2952  1.6333
 3860SOL     OW23215   0.390   0.065  14.986 -0.1270  0.1171 -0.6779
 3860SOL    HW123216   0.318   0.095  14.931 -0.2643  0.9451 -0.0451
 3860SOL    HW223217   0.447   0.141  14.998 -0.5232  0.1146  1.2482
 3861SOL     OW23218   3.061   1.977   3.468  0.0008 -0.4118  0.0054
 3861SOL    HW123219   3.101   1.890   3.470  0.1917 -0.2815  1.8587
 3861SOL    HW223220   3.092   2.014   3.385 -0.3301 -1.8555 -0.7787
 3862SOL     OW23221   0.824   1.585   9.089  0.2343 -0.0244 -0.4529
 3862SOL    HW123222   0.781   1.523   9.148  0.0485  0.4549 -0.0805
 3862SOL    HW223223   0.783   1.559   9.007  0.6554  2.2179 -1.3821
 3863SOL     OW23224   0.314   3.739   9.279 -0.2403 -0.1214  0.9542
 3863SOL    HW123225   0.271   3.820   9.309 -2.9036 -0.8813 -0.8256
 3863SOL    HW223226   0.324   3.703   9.367 -0.2571 -1.4404  0.4118
 3864SOL     OW23227   4.227   1.757   1.721  0.1573 -0.3612 -0.0350
 3864SOL    HW123228   4.226   1.830   1.784  1.8125  1.4686 -2.1253
 3864SOL    HW223229   4.311   1.715   1.741  0.8080  0.6119 -0.7160
 3865SOL     OW23230   0.434   1.299   1.954 -0.1407  0.4558 -0.6119
 3865SOL    HW123231   0.414   1.286   1.862 -0.0055  0.6755 -0.6723
 3865SOL    HW223232   0.527   1.316   1.944  0.0608 -0.8994 -1.0181
 3866SOL     OW23233   2.447   4.326   9.319  0.6492 -0.8744 -0.8146
 3866SOL    HW123234   2.525   4.303   9.269 -0.3144  1.2217 -3.2374
 3866SOL    HW223235   2.379   4.300   9.257 -0.9860 -0.0047  0.6110
 3867SOL     OW23236   3.041   2.645   6.012 -0.4051  0.1154  0.8691
 3867SOL    HW123237   3.030   2.711   5.943 -0.3498 -1.9251 -1.1074
 3867SOL    HW223238   3.090   2.691   6.080  0.5804 -2.2026  1.7314
 3868SOL     OW23239   2.637   1.266   7.429 -0.4484  0.1957  0.0154
 3868SOL    HW123240   2.653   1.359   7.446  1.5859 -0.6382  2.6600
 3868SOL    HW223241   2.708   1.246   7.368  0.1855  1.7097  0.2613
 3869SOL     OW23242   1.146   3.620   4.264 -0.6518  0.1530  0.8903
 3869SOL    HW123243   1.067   3.589   4.310 -2.2689  0.5465 -1.6293
 3869SOL    HW223244   1.110   3.684   4.203  0.8750 -0.6139 -0.8122
 3870SOL     OW23245   0.196   2.955   9.005 -0.2201  0.0583  0.7557
 3870SOL    HW123246   0.242   2.938   9.088  0.0673  0.2909  0.6471
 3870SOL    HW223247   0.156   3.039   9.027 -1.6119 -0.7250  1.2013
 3871SOL     OW23248   2.427   3.435   8.606 -0.7334 -0.8622  0.2973
 3871SOL    HW123249   2.422   3.339   8.598 -2.4688 -0.7101 -0.3524
 3871SOL    HW223250   2.427   3.458   8.513  2.3158  0.2890  0.5643
 3872SOL     OW23251   2.676   0.707  17.607  0.0612 -0.1123  0.7054
 3872SOL    HW123252   2.603   0.730  17.549  2.5764  3.1839 -1.1637
 3872SOL    HW223253   2.745   0.772  17.593 -1.6963  2.0317  1.9494
 3873SOL     OW23254   1.891   4.099   7.110 -0.3331 -0.1960  0.5193
 3873SOL    HW123255   1.909   4.185   7.072  0.7809 -0.6127  0.1301
 3873SOL    HW223256   1.931   4.099   7.197  0.1936  0.1401  0.2751
 3874SOL     OW23257   4.379   3.400   6.579  0.0484  0.6996  0.4650
 3874SOL    HW123258   4.406   3.329   6.638  0.8519  0.0899 -0.6338
 3874SOL    HW223259   4.301   3.358   6.543 -0.1456  1.5644 -0.1278
 3875SOL     OW23260   3.216   1.012  15.377  0.0688  0.1611 -0.1209
 3875SOL    HW123261   3.290   0.973  15.331  0.6189  0.9389  0.1080
 3875SOL    HW223262   3.243   0.981  15.463 -1.1165 -0.9507 -0.1476
 3876SOL     OW23263   1.275   1.315   8.497  0.1762  0.8809 -0.2701
 3876SOL    HW123264   1.204   1.271   8.451 -0.6254  0.6197  1.2519
 3876SOL    HW223265   1.339   1.253   8.461 -0.2470 -0.7684  1.8558
 3877SOL     OW23266   4.027   2.565   6.165 -0.2419  0.7504 -0.0015
 3877SOL    HW123267   4.113   2.536   6.135 -0.4303 -0.9391  1.0958
 3877SOL    HW223268   4.012   2.516   6.245 -0.9131 -1.9231 -1.7617
 3878SOL     OW23269   0.438   3.005  14.810  0.1083  0.0582  0.0481
 3878SOL    HW123270   0.395   2.934  14.858  1.8638 -0.5868  0.6688
 3878SOL    HW223271   0.425   3.076  14.872  0.6571  1.2132 -1.1530
 3879SOL     OW23272   1.919   2.192   5.852  0.1898  0.0082  0.0104
 3879SOL    HW123273   1.884   2.122   5.908  1.0967  0.1603  0.7748
 3879SOL    HW223274   1.839   2.219   5.808  0.5038 -2.2499 -1.9678
 3880SOL     OW23275   0.783   4.559   4.116 -0.1442 -0.3190 -0.4459
 3880SOL    HW123276   0.695   4.529   4.093 -1.2258  1.2874  1.6611
 3880SOL    HW223277   0.783   4.548   4.211 -0.5167  0.1444 -0.3921
 3881SOL     OW23278   2.108   1.391  13.049 -0.1154 -1.1894  0.6284
 3881SOL    HW123279   2.091   1.328  13.119 -1.9075 -1.9365 -0.4988
 3881SOL    HW223280   2.203   1.400  13.042  0.0851 -0.9460  3.4348
 3882SOL     OW23281   1.520   2.485   5.825 -0.1410  0.1718 -0.1687
 3882SOL    HW123282   1.485   2.408   5.868  1.1112  0.1930  0.8815
 3882SOL    HW223283   1.601   2.495   5.874  0.3040  0.9060 -1.0440
 3883SOL     OW23284   1.834   2.855   7.167  0.6563  0.1029 -0.0131
 3883SOL    HW123285   1.836   2.944   7.130  0.1462 -1.0047 -2.6831
 3883SOL    HW223286   1.811   2.864   7.259  0.3808 -0.5936 -0.0188
 3884SOL     OW23287   4.698   4.202   9.311 -0.6547 -0.1729 -0.2656
 3884SOL    HW123288   4.660   4.162   9.389 -1.0333  0.0014 -0.3612
 3884SOL    HW223289   0.018   4.135   9.273  0.2133 -0.0296  0.7805
 3885SOL     OW23290   2.680   3.669  16.333 -0.0013  0.8887  0.6198
 3885SOL    HW123291   2.702   3.576  16.334 -0.8184  0.6882 -1.2498
 3885SOL    HW223292   2.695   3.686  16.240  1.9849 -1.1478  0.5604
 3886SOL     OW23293   1.014   0.492   7.537 -0.4311 -0.1317 -0.4896
 3886SOL    HW123294   0.955   0.522   7.607  1.2753  0.2851  0.7585
 3886SOL    HW223295   0.968   0.426   7.485  0.1865 -1.2250  0.3554
 3887SOL     OW23296   0.474   4.647   2.585  0.4356 -0.2397 -0.3682
 3887SOL    HW123297   0.486   4.566   2.635 -1.4953 -0.8929 -0.9755
 3887SOL    HW223298   0.475   4.714   2.653  1.0727 -0.2080 -0.4032
 3888SOL     OW23299   1.129   1.958  15.859  0.8717 -0.2416  0.0764
 3888SOL    HW123300   1.041   1.985  15.831 -0.1035 -1.7067  1.7050
 3888SOL    HW223301   1.139   1.868  15.827  1.1965 -0.5629  1.0747
 3889SOL     OW23302   0.243   2.724   3.446  0.1534 -0.3882  0.3879
 3889SOL    HW123303   0.193   2.771   3.379 -0.2505 -2.4649 -0.7760
 3889SOL    HW223304   0.284   2.654   3.395 -0.6379 -1.5284  1.3199
 3890SOL     OW23305   2.488   1.128   8.245 -0.0333 -0.4254  0.0221
 3890SOL    HW123306   2.513   1.219   8.262 -2.0728 -0.1628  1.6645
 3890SOL    HW223307   2.467   1.083   8.327  1.1388 -0.2224  0.4332
 3891SOL     OW23308   2.989   0.096   7.243 -0.9545 -0.2317 -0.5410
 3891SOL    HW123309   3.039   0.086   7.162 -0.8492  0.2853 -0.5433
 3891SOL    HW223310   2.951   0.010   7.260  2.9591 -2.0502 -0.9281
 3892SOL     OW23311   2.808   1.495   9.827  0.3151  0.4592  0.3276
 3892SOL    HW123312   2.793   1.531   9.740 -0.8545  3.1250  1.6693
 3892SOL    HW223313   2.903   1.485   9.831  0.2136  0.5699  2.9794
 3893SOL     OW23314   1.512   0.074   8.917  0.0368 -0.0790 -0.0411
 3893SOL    HW123315   1.553   0.154   8.951 -1.0695  0.3252  0.3338
 3893SOL    HW223316   1.437   0.070   8.976 -0.2154 -0.4711 -0.3874
 3894SOL     OW23317   4.217   0.596  15.681 -0.1424  0.3960 -0.4003
 3894SOL    HW123318   4.272   0.570  15.755 -0.4957  1.6029  0.2870
 3894SOL    HW223319   4.142   0.644  15.717  3.6071  4.1265  2.2784
 3895SOL     OW23320   1.946   2.093   6.545 -0.3862  0.0057 -0.7489
 3895SOL    HW123321   1.862   2.052   6.523 -0.2383 -1.0935  0.7897
 3895SOL    HW223322   1.954   2.071   6.637 -0.9190 -1.4733 -1.0497
 3896SOL     OW23323   0.595   4.434   4.826 -0.4793 -0.4387 -0.7847
 3896SOL    HW123324   0.516   4.488   4.825 -2.0795 -2.7861 -0.4828
 3896SOL    HW223325   0.564   4.347   4.851 -0.9470 -0.2960 -0.8633
 3897SOL     OW23326   2.443   3.772   1.901  0.1375  0.2475 -0.5077
 3897SOL    HW123327   2.373   3.825   1.863  1.9630  1.2421 -2.4974
 3897SOL    HW223328   2.481   3.836   1.960  0.9554 -0.8775  0.1698
 3898SOL     OW23329   1.850   2.749   2.153 -0.1160  0.4650 -0.3693
 3898SOL    HW123330   1.867   2.837   2.121 -3.4533  0.9531 -0.8126
 3898SOL    HW223331   1.887   2.765   2.240  0.5792 -1.2741 -0.3321
 3899SOL     OW23332   4.576   4.582  13.915  0.5144  0.2867  0.2935
 3899SOL    HW123333   4.610   4.665  13.948 -1.5287  0.6142  1.5770
 3899SOL    HW223334   4.612   4.586  13.826  4.3042  0.4389  1.8540
 3900SOL     OW23335   1.311   1.006   5.016 -0.1121 -0.2412 -0.0845
 3900SOL    HW123336   1.378   0.943   4.988 -0.2751 -0.8527  0.8832
 3900SOL    HW223337   1.361   1.058   5.080  0.5494  1.0676 -1.6798
 3901SOL     OW23338   4.023   0.717  17.694  0.4455 -0.1781 -0.3242
 3901SOL    HW123339   3.941   0.765  17.699 -0.2999 -1.5702  1.0641
 3901SOL    HW223340   3.997   0.630  17.663 -0.3220 -0.8501  2.2283
 3902SOL     OW23341   3.520   0.508  16.459  0.0331 -0.5296  0.6830
 3902SOL    HW123342   3.539   0.442  16.525 -1.3809  0.9590  2.5870
 3902SOL    HW223343   3.519   0.582  16.520 -1.3521 -0.7164  0.8758
 3903SOL     OW23344   0.924   3.184   9.815 -0.0823 -0.0112 -0.3411
 3903SOL    HW123345   0.971   3.150   9.739 -0.2669  1.4065 -1.0836
 3903SOL    HW223346   0.980   3.139   9.878  1.8090  1.6071 -0.8796
 3904SOL     OW23347   1.125   1.621   4.597  0.5144  0.3567  0.1410
 3904SOL    HW123348   1.183   1.604   4.523 -2.2541  1.6042 -2.3294
 3904SOL    HW223349   1.044   1.628   4.546  0.8167  1.1771 -0.2292
 3905SOL     OW23350   0.210   2.978   6.308  0.4505 -0.0957  0.2368
 3905SOL    HW123351   0.260   2.974   6.390  1.1095  1.5902 -0.0965
 3905SOL    HW223352   0.206   3.072   6.295 -1.9718 -0.1349  0.6979
 3906SOL     OW23353   2.833   3.719   1.586 -0.7209  0.0101 -0.0710
 3906SOL    HW123354   2.803   3.664   1.659 -1.5732 -1.8050 -1.7769
 3906SOL    HW223355   2.853   3.803   1.627 -0.6400 -0.2764  0.4809
 3907SOL     OW23356   3.819   3.213  10.150 -0.5617 -0.0842 -0.3141
 3907SOL    HW123357   3.777   3.180  10.071 -1.0166  0.8783 -0.4790
 3907SOL    HW223358   3.899   3.161  10.152 -1.1570 -1.0186 -1.3239
 3908SOL     OW23359   0.884   2.405   7.555 -0.2546  0.4549  0.4098
 3908SOL    HW123360   0.860   2.389   7.646 -0.6823  0.5840  0.3212
 3908SOL    HW223361   0.951   2.338   7.540 -1.2105 -0.5534  0.5727
 3909SOL     OW23362   3.452   2.185  13.656  0.3679  0.3573 -0.6269
 3909SOL    HW123363   3.424   2.277  13.655  0.2231  0.3395  2.1586
 3909SOL    HW223364   3.381   2.152  13.601 -0.8195  2.3042 -0.3008
 3910SOL     OW23365   2.416   0.555   2.047  0.2249 -0.5964  0.2397
 3910SOL    HW123366   2.321   0.568   2.045  0.4430  0.8820  0.0462
 3910SOL    HW223367   2.441   0.586   1.960  1.8048  0.8058  1.2200
 3911SOL     OW23368   1.085   4.488   3.294  0.6188  0.0479  0.5242
 3911SOL    HW123369   0.998   4.466   3.327 -0.2420  0.9640 -1.1642
 3911SOL    HW223370   1.144   4.453   3.361  1.2499  0.1095 -0.0070
 3912SOL     OW23371   2.196   2.118   5.856 -0.3141  0.8248 -0.3504
 3912SOL    HW123372   2.211   2.168   5.936  1.1173 -0.1073 -0.0473
 3912SOL    HW223373   2.102   2.126   5.841 -0.5202  2.1547  1.7564
 3913SOL     OW23374   1.288   1.210   7.992 -0.4062  0.0084 -0.4737
 3913SOL    HW123375   1.294   1.208   7.897  0.4444 -0.8059 -0.4030
 3913SOL    HW223376   1.206   1.259   8.000  0.5919  1.4055  1.2116
 3914SOL     OW23377   0.645   3.217   3.874  0.4613 -0.0775  0.0019
 3914SOL    HW123378   0.736   3.236   3.895  0.8641 -3.7358  1.3939
 3914SOL    HW223379   0.656   3.127   3.844  1.0945  0.1868 -0.5734
 3915SOL     OW23380   1.455   3.945   2.140  0.1623 -0.5922  0.3347
 3915SOL    HW123381   1.545   3.920   2.161  0.0357 -1.2200  0.1509
 3915SOL    HW223382   1.411   3.863   2.117  0.3149 -0.5839  0.0183
 3916SOL     OW23383   0.599   2.158   5.834 -0.2056  0.1990 -0.1071
 3916SOL    HW123384   0.529   2.211   5.796 -0.6697 -1.8451 -2.1072
 3916SOL    HW223385   0.597   2.079   5.780 -0.6347 -0.0113  0.2229
 3917SOL     OW23386   0.077   1.406  14.808  0.1497 -0.2515  0.4357
 3917SOL    HW123387   0.069   1.485  14.755 -0.7917 -0.9263 -0.4192
 3917SOL    HW223388   4.721   1.405  14.830 -0.2656 -1.5145 -1.3372
 3918SOL     OW23389   3.770   1.494   8.979  0.3600  0.9799  0.0321
 3918SOL    HW123390   3.788   1.577   9.024  0.8762  0.9175 -0.0614
 3918SOL    HW223391   3.789   1.509   8.886 -1.4407  1.3792 -0.2603
 3919SOL     OW23392   2.269   1.723   2.284 -0.1509 -0.1252 -0.2225
 3919SOL    HW123393   2.354   1.728   2.240  0.5637 -0.1857  1.1683
 3919SOL    HW223394   2.264   1.815   2.311 -2.3966 -0.1596 -0.5010
 3920SOL     OW23395   4.600   0.709   5.074 -0.4829  0.7442 -0.4456
 3920SOL    HW123396   4.650   0.790   5.061 -0.1680  0.4339 -1.1423
 3920SOL    HW223397   4.667   0.641   5.078 -1.7270 -0.5042 -1.0871
 3921SOL     OW23398   2.004   1.574   6.675 -0.3504  0.1900  0.0067
 3921SOL    HW123399   1.917   1.607   6.650  0.4999  1.5565 -1.1139
 3921SOL    HW223400   2.059   1.648   6.649 -0.6887  0.6528  0.6023
 3922SOL     OW23401   2.112   3.200   0.022  0.1823 -0.1346  0.1422
 3922SOL    HW123402   2.074   3.225  17.685 -2.1825  0.1298  1.3126
 3922SOL    HW223403   2.182   3.266   0.027 -0.6429  0.6498  1.1824
 3923SOL     OW23404   0.528   3.594   5.703 -0.2593  0.1291 -0.4525
 3923SOL    HW123405   0.584   3.661   5.742  0.1942 -1.2213  1.2477
 3923SOL    HW223406   0.451   3.611   5.757 -1.6023  0.5611 -2.5015
 3924SOL     OW23407   4.030   1.816   5.608  0.8881 -0.0367  0.6983
 3924SOL    HW123408   4.064   1.739   5.654 -3.1950 -2.5366 -0.5118
 3924SOL    HW223409   3.940   1.821   5.639  0.9181 -0.1092  0.7970
 3925SOL     OW23410   4.252   2.850   4.442 -0.3156  0.3905  0.4923
 3925SOL    HW123411   4.294   2.771   4.478  0.4634  0.9900  0.8978
 3925SOL    HW223412   4.163   2.850   4.476  0.0635  0.4454  1.5045
 3926SOL     OW23413   2.845   3.452   3.358  0.6532  0.2769 -0.3465
 3926SOL    HW123414   2.773   3.509   3.334  1.4685  1.8665  0.9720
 3926SOL    HW223415   2.797   3.375   3.389  2.3996 -0.5810  0.2582
 3927SOL     OW23416   1.635   2.779   9.175  0.3302 -0.0424 -0.0397
 3927SOL    HW123417   1.617   2.707   9.114  1.0278 -2.6017  2.7714
 3927SOL    HW223418   1.715   2.754   9.221  0.5739 -0.4242 -0.6763
 3928SOL     OW23419   1.962   0.867   4.818 -0.9220  0.2077 -0.5637
 3928SOL    HW123420   1.941   0.894   4.907 -0.4502 -1.2839  0.0009
 3928SOL    HW223421   1.957   0.772   4.827 -1.6295  0.4251  1.4132
 3929SOL     OW23422   3.855   1.396  12.247  0.1334 -0.2093 -0.5435
 3929SOL    HW123423   3.946   1.414  12.223  0.6706 -2.3408 -0.1530
 3929SOL    HW223424   3.800   1.444  12.186 -0.0173  0.1442 -0.1326
 3930SOL     OW23425   3.931   3.477  17.555  0.0333  0.4185 -0.8692
 3930SOL    HW123426   3.892   3.450  17.472 -0.7833 -0.3918 -0.2230
 3930SOL    HW223427   3.925   3.399  17.610  3.0119  0.6853 -0.1668
 3931SOL     OW23428   0.923   3.456  14.597  0.0290  0.4096 -0.1386
 3931SOL    HW123429   0.987   3.527  14.593 -0.4868  1.0113  2.1442
 3931SOL    HW223430   0.842   3.507  14.598 -0.8777 -1.0087 -1.5025
 3932SOL     OW23431   4.057   4.051   9.983 -0.0940 -0.1026 -0.3907
 3932SOL    HW123432   4.015   3.995  10.048 -0.8102 -0.0666 -0.8287
 3932SOL    HW223433   4.073   4.133  10.030  1.3629 -0.6740  0.1131
 3933SOL     OW23434   1.719   1.672   5.314 -0.4642  0.2756 -0.4705
 3933SOL    HW123435   1.785   1.741   5.303  2.7295 -2.4119  1.7441
 3933SOL    HW223436   1.643   1.705   5.266 -1.3078 -1.1891 -0.1267
 3934SOL     OW23437   2.382   0.539   1.138  0.0815 -0.1430 -0.2664
 3934SOL    HW123438   2.439   0.615   1.144 -2.1577  1.5035  0.1622
 3934SOL    HW223439   2.310   0.588   1.098 -0.6159 -1.0802 -0.1500
 3935SOL     OW23440   1.542   0.813   2.516  0.2141  0.0015 -0.2346
 3935SOL    HW123441   1.608   0.881   2.532  0.7987 -0.6423  0.0927
 3935SOL    HW223442   1.515   0.842   2.429  0.7033 -0.0822 -0.4147
 3936SOL     OW23443   1.290   0.839   6.464 -0.1357 -0.0090 -0.2308
 3936SOL    HW123444   1.200   0.834   6.496 -0.2390 -1.3949 -0.7505
 3936SOL    HW223445   1.340   0.792   6.531  0.9293  1.9285  0.3651
 3937SOL     OW23446   3.489   3.238   6.473  0.5581  0.1883 -0.0419
 3937SOL    HW123447   3.543   3.314   6.450  2.4209 -1.2482 -0.4465
 3937SOL    HW223448   3.505   3.236   6.567  3.8373 -0.6973 -0.6301
 3938SOL     OW23449   2.834   0.435   2.362  0.2199  0.4388  0.2833
 3938SOL    HW123450   2.770   0.376   2.322  1.5295  0.7651 -2.2964
 3938SOL    HW223451   2.811   0.423   2.454  1.3239  0.0350  0.5029
 3939SOL     OW23452   4.726   0.691   3.394 -0.4239 -0.2842  0.4471
 3939SOL    HW123453   0.030   0.680   3.479 -0.2266 -0.0429  0.3830
 3939SOL    HW223454   0.020   0.623   3.335  0.0387 -0.7485  1.2265
 3940SOL     OW23455   2.780   4.145  11.411 -0.2361  0.0977 -0.2794
 3940SOL    HW123456   2.744   4.207  11.475  0.9915 -0.3924  0.8921
 3940SOL    HW223457   2.868   4.145  11.450 -0.6517  1.8100  0.6756
 3941SOL     OW23458   0.751   1.151  10.425 -0.4090  0.0677 -0.4675
 3941SOL    HW123459   0.758   1.090  10.499 -0.0165 -0.9324 -1.3315
 3941SOL    HW223460   0.656   1.153  10.414 -0.2819  2.5629 -1.2011
 3942SOL     OW23461   4.343   2.483   9.461 -0.0815  0.3246  0.2335
 3942SOL    HW123462   4.275   2.416   9.462 -0.7398  1.0025  1.9275
 3942SOL    HW223463   4.371   2.473   9.370  1.7609 -1.6005  1.0243
 3943SOL     OW23464   4.189   0.310  17.502 -0.2954  0.7282 -0.2050
 3943SOL    HW123465   4.201   0.304  17.597  0.8133 -3.3085 -0.5878
 3943SOL    HW223466   4.280   0.317  17.474  0.2121  0.4007  1.3502
 3944SOL     OW23467   2.905   2.738  14.163  0.3546 -0.2502  0.2649
 3944SOL    HW123468   2.834   2.790  14.124  1.2447  0.5803 -0.2676
 3944SOL    HW223469   2.865   2.652  14.171 -3.0265  1.2632 -0.0535
 3945SOL     OW23470   2.686   2.951   2.286 -0.0097  0.1602 -0.5431
 3945SOL    HW123471   2.750   3.014   2.321 -1.0773 -0.3086  2.2874
 3945SOL    HW223472   2.692   2.902   2.368 -0.1865 -2.5131 -2.1399
 3946SOL     OW23473   0.770   1.631   7.037 -0.1082 -0.0236  0.2264
 3946SOL    HW123474   0.683   1.670   7.032 -0.1861 -0.1932  0.2711
 3946SOL    HW223475   0.827   1.699   7.002  0.6294 -0.4836  0.5322
 3947SOL     OW23476   4.473   0.775   8.741 -0.3831  0.4103 -0.4096
 3947SOL    HW123477   4.506   0.805   8.656  0.1489 -0.3408 -0.4649
 3947SOL    HW223478   4.395   0.732   8.706 -1.3225  1.8835 -0.1324
 3948SOL     OW23479   1.210   1.219   2.806  0.1411 -0.9523  0.0866
 3948SOL    HW123480   1.173   1.254   2.724  1.6601 -1.5260 -0.8480
 3948SOL    HW223481   1.293   1.178   2.779  0.1204 -1.2270  0.4462
 3949SOL     OW23482   2.577   0.077   4.145 -0.0963 -1.0175  0.1440
 3949SOL    HW123483   2.600   0.156   4.194  0.2962  0.1500 -1.9452
 3949SOL    HW223484   2.522   0.110   4.074  0.3243 -1.5258 -0.4160
 3950SOL     OW23485   0.995   2.619   9.068 -0.1014  0.0674 -0.5594
 3950SOL    HW123486   1.087   2.596   9.051  0.4777  0.2562  2.3052
 3950SOL    HW223487   0.973   2.547   9.126  0.6824  1.7625  1.8594
 3951SOL     OW23488   0.211   4.503   9.116  0.2060  0.1285  0.0900
 3951SOL    HW123489   0.138   4.541   9.165  1.2142  1.9895  0.1541
 3951SOL    HW223490   0.211   4.550   9.033 -1.0053 -1.5007 -0.8167
 3952SOL     OW23491   0.839   3.313   3.552 -0.6439 -0.7265 -0.2489
 3952SOL    HW123492   0.792   3.288   3.631  1.2164  1.2133  1.4580
 3952SOL    HW223493   0.856   3.408   3.556  0.3628 -0.9035 -0.3741
 3953SOL     OW23494   2.259   4.364   4.718  0.3760  0.4412  0.1736
 3953SOL    HW123495   2.231   4.456   4.714 -1.6126 -0.1579  0.0086
 3953SOL    HW223496   2.344   4.380   4.759  0.5253  0.3620 -0.1070
 3954SOL     OW23497   4.709   3.446   7.181 -0.3680  0.3304 -0.2291
 3954SOL    HW123498   4.681   3.501   7.254  1.8315  0.1600  0.7370
 3954SOL    HW223499   0.007   3.516   7.127 -0.5980  0.5563 -0.0895
 3955SOL     OW23500   0.913   0.910   2.480 -0.2884  0.4313  0.4082
 3955SOL    HW123501   0.840   0.887   2.537  0.4225  1.3491  1.6869
 3955SOL    HW223502   0.909   1.006   2.481  0.5319  0.4502  1.6301
 3956SOL     OW23503   0.899   3.264   6.627 -0.2241  0.2095  0.1901
 3956SOL    HW123504   0.815   3.260   6.582 -0.5523  0.7454  0.7467
 3956SOL    HW223505   0.920   3.171   6.638 -0.3319 -0.2208 -3.4937
 3957SOL     OW23506   4.149   1.628  17.686 -0.1402  0.2106 -0.6323
 3957SOL    HW123507   4.221   1.593  17.633 -0.2924 -0.6493 -0.2726
 3957SOL    HW223508   4.159   1.723  17.691 -0.2683  0.2188 -0.5489
 3958SOL     OW23509   1.112   3.727   8.991 -0.0181  0.1523 -0.6372
 3958SOL    HW123510   1.035   3.720   9.048 -1.1725  0.7341 -2.1376
 3958SOL    HW223511   1.132   3.820   9.006  2.1943 -0.5989  1.0660
 3959SOL     OW23512   0.834   0.981   2.816 -0.0368  0.6920  0.1254
 3959SOL    HW123513   0.821   1.075   2.831  1.0085  0.7992  0.3979
 3959SOL    HW223514   0.927   0.988   2.840 -0.1325 -1.7581  1.2472
 3960SOL     OW23515   0.032   0.450   4.209 -0.3886 -0.1356  0.1339
 3960SOL    HW123516   0.126   0.433   4.212 -0.4274 -0.3897 -0.0631
 3960SOL    HW223517   0.005   0.358   4.218 -0.7548  0.1119  1.4806
 3961SOL     OW23518   1.777   0.086   4.822 -0.7386  0.3930  0.0877
 3961SOL    HW123519   1.684   0.064   4.824 -0.4453 -0.8286 -0.1139
 3961SOL    HW223520   1.775   0.132   4.906 -2.2008  1.9371 -0.7922
 3962SOL     OW23521   2.163   4.661   3.351 -0.6449  0.1548 -0.4364
 3962SOL    HW123522   2.128   4.677   3.439  0.0313 -0.5701 -0.0274
 3962SOL    HW223523   2.207   4.577   3.367  2.1843  1.4040 -1.6130
 3963SOL     OW23524   1.560   2.574   4.391  0.2383  0.6002 -0.2673
 3963SOL    HW123525   1.562   2.504   4.456 -1.0444  0.7009 -0.1256
 3963SOL    HW223526   1.647   2.561   4.353 -0.4607  0.1925 -1.7409
 3964SOL     OW23527   3.587   2.420   5.587  0.0050 -0.6104  0.0876
 3964SOL    HW123528   3.647   2.481   5.631 -0.1462 -0.8302  0.6011
 3964SOL    HW223529   3.546   2.376   5.661  1.6248  0.3430  1.5636
 3965SOL     OW23530   3.487   2.533   5.970 -0.4298 -0.4426  0.1057
 3965SOL    HW123531   3.393   2.548   5.982  0.0671  2.3569  0.5911
 3965SOL    HW223532   3.498   2.443   6.000  2.4993  0.4609  1.7758
 3966SOL     OW23533   2.182   1.834   5.344 -0.1668  0.0149  0.4123
 3966SOL    HW123534   2.096   1.875   5.347  0.6026  1.7034 -0.9918
 3966SOL    HW223535   2.241   1.909   5.334  0.8911 -1.3703 -3.7306
 3967SOL     OW23536   3.668   3.234  12.388 -0.2714  0.1880 -0.1346
 3967SOL    HW123537   3.677   3.324  12.419 -2.5552  0.4274 -0.1421
 3967SOL    HW223538   3.707   3.187  12.462  0.7307  0.0124 -0.7762
 3968SOL     OW23539   4.663   2.341   9.077 -0.1928  0.3205 -0.0593
 3968SOL    HW123540   0.004   2.296   9.107 -0.8926 -0.9962 -0.2040
 3968SOL    HW223541   4.689   2.432   9.096  0.8577 -0.0831  0.4242
 3969SOL     OW23542   0.760   4.561   6.201  0.3188  0.3248  0.3998
 3969SOL    HW123543   0.784   4.485   6.149 -2.0280  0.2901 -0.6519
 3969SOL    HW223544   0.844   4.607   6.200 -0.2674  1.4326  1.0618
 3970SOL     OW23545   2.423   4.510   3.132  0.0492  0.0534  0.3762
 3970SOL    HW123546   2.382   4.539   3.214  1.3847  1.1094  0.6769
 3970SOL    HW223547   2.512   4.497   3.166  0.3086 -1.1330 -0.7697
 3971SOL     OW23548   4.316   0.667   1.310  0.5436 -0.4344 -0.3287
 3971SOL    HW123549   4.359   0.741   1.269 -0.8453 -0.3696 -1.6779
 3971SOL    HW223550   4.345   0.662   1.401 -0.3246 -0.1185 -0.0310
 3972SOL     OW23551   0.092   2.378  12.808  0.0576 -0.2469 -0.1421
 3972SOL    HW123552   0.050   2.356  12.892 -1.4873 -0.1903 -0.8993
 3972SOL    HW223553   0.155   2.442  12.843 -0.7014  0.8797 -0.8163
 3973SOL     OW23554   3.000   4.088   5.495 -0.4426 -0.0261  0.1401
 3973SOL    HW123555   2.905   4.095   5.503 -0.3589  1.7694 -0.2700
 3973SOL    HW223556   3.025   4.076   5.586 -2.6011 -0.6634  0.6373
 3974SOL     OW23557   1.664   3.320   6.592  0.6989  0.2473 -0.6856
 3974SOL    HW123558   1.714   3.320   6.511 -1.1026 -2.1327 -1.7991
 3974SOL    HW223559   1.699   3.245   6.641 -0.8539 -0.5350 -0.7558
 3975SOL     OW23560   0.128   0.855   5.581  0.0009  0.1471  0.0522
 3975SOL    HW123561   0.067   0.914   5.624 -0.9056 -0.2194 -0.7196
 3975SOL    HW223562   0.211   0.903   5.578  0.5050 -0.6993  0.4423
 3976SOL     OW23563   1.563   2.366   3.949 -0.0238 -0.2311  0.0235
 3976SOL    HW123564   1.624   2.339   4.018 -2.6887 -2.1674  1.6055
 3976SOL    HW223565   1.541   2.447   3.995 -0.6581 -0.0130 -0.6777
 3977SOL     OW23566   3.245   1.737   5.645 -0.4816 -0.2252  0.1957
 3977SOL    HW123567   3.155   1.712   5.624 -0.3057 -0.2045 -0.5881
 3977SOL    HW223568   3.233   1.795   5.720  3.3345  0.0557  0.6054
 3978SOL     OW23569   4.014   3.241  17.657 -0.1671  0.0875 -0.0932
 3978SOL    HW123570   3.957   3.168  17.633 -1.9947  1.9452 -1.2923
 3978SOL    HW223571   4.073   3.259  17.584  0.8014 -1.4486  0.3022
 3979SOL     OW23572   4.190   3.264   8.024 -0.0247 -0.6762  0.6246
 3979SOL    HW123573   4.099   3.241   8.008 -0.5722  1.9071  0.1360
 3979SOL    HW223574   4.186   3.262   8.120 -0.3414 -2.7365  0.5866
 3980SOL     OW23575   0.529   4.687   0.913  0.3201 -0.5860  0.2690
 3980SOL    HW123576   0.595   4.679   0.844  1.0168 -1.1643  1.0082
 3980SOL    HW223577   0.504   0.041   0.898 -0.8058 -0.8587  0.5292
 3981SOL     OW23578   3.573   1.477  13.641  0.2900  0.1888 -0.1145
 3981SOL    HW123579   3.627   1.548  13.608  0.4246 -0.0777 -0.4647
 3981SOL    HW223580   3.525   1.524  13.710  0.3834 -0.2774  0.2708
 3982SOL     OW23581   3.734   1.864   2.490  0.2750  0.0014 -0.1609
 3982SOL    HW123582   3.669   1.885   2.423 -1.4524 -0.3743  1.4024
 3982SOL    HW223583   3.799   1.829   2.429  0.6897 -0.8937  0.7929
 3983SOL     OW23584   1.247   2.471  13.438  0.5760  0.3288  0.2838
 3983SOL    HW123585   1.327   2.419  13.447  0.0234 -0.9559 -2.2616
 3983SOL    HW223586   1.253   2.519  13.356  0.0982 -0.7268 -0.3826
 3984SOL     OW23587   2.275   0.351  15.416  0.2923 -0.5371  0.2589
 3984SOL    HW123588   2.361   0.391  15.426 -0.6681  1.3487  0.8436
 3984SOL    HW223589   2.221   0.429  15.424 -0.4906 -0.8332 -2.0740
 3985SOL     OW23590   1.879   2.256   1.481  0.0054 -0.4522  0.0170
 3985SOL    HW123591   1.873   2.302   1.565 -0.6784  2.2024 -1.4964
 3985SOL    HW223592   1.818   2.183   1.489 -1.1164  0.8182  3.4418
 3986SOL     OW23593   3.437   1.368  11.457 -0.1483 -0.3779 -0.3649
 3986SOL    HW123594   3.396   1.289  11.423  1.5523 -1.1982 -0.4845
 3986SOL    HW223595   3.418   1.361  11.551 -0.2813  2.9248 -0.1392
 3987SOL     OW23596   4.359   4.186  12.499  0.2807  0.3463 -0.0472
 3987SOL    HW123597   4.335   4.279  12.494  1.1531  0.4785 -1.5205
 3987SOL    HW223598   4.413   4.189  12.420  0.7346  1.4289  0.3060
 3988SOL     OW23599   0.221   3.565   8.090  0.1503 -0.0983  0.0946
 3988SOL    HW123600   0.129   3.539   8.088 -0.1973  1.1754 -0.4816
 3988SOL    HW223601   0.201   3.635   8.028 -2.9903 -2.0527 -1.0790
 3989SOL     OW23602   2.134   4.105   2.160 -0.0572  0.4321 -0.0797
 3989SOL    HW123603   2.178   4.147   2.233 -2.4925 -1.3117  2.3546
 3989SOL    HW223604   2.054   4.158   2.158 -1.3773 -1.6395 -1.9549
 3990SOL     OW23605   2.097   0.335  10.680 -0.2448 -0.2681 -0.3695
 3990SOL    HW123606   2.052   0.291  10.751 -0.8340 -1.0290 -1.2120
 3990SOL    HW223607   2.027   0.390  10.646  1.2624  2.5100  1.0032
 3991SOL     OW23608   0.834   1.417   8.325 -0.1720  0.0375  0.3597
 3991SOL    HW123609   0.864   1.475   8.256  0.2994  0.4364  0.9017
 3991SOL    HW223610   0.886   1.341   8.300 -0.3734 -0.4591  1.4147
 3992SOL     OW23611   3.007   3.974  13.073 -0.3814 -0.0577 -0.4598
 3992SOL    HW123612   3.086   3.981  13.127  0.4875 -3.8721 -1.2489
 3992SOL    HW223613   2.942   3.967  13.143  0.5181 -0.3615  0.3475
 3993SOL     OW23614   2.656   4.186   4.579  0.2563 -0.2547  0.2048
 3993SOL    HW123615   2.598   4.177   4.655 -0.5858  1.0844 -0.2853
 3993SOL    HW223616   2.724   4.236   4.624  2.0883  0.2996 -3.1813
 3994SOL     OW23617   1.248   1.880   7.336  0.2808 -0.1397 -0.4421
 3994SOL    HW123618   1.228   1.937   7.262  0.7149 -0.0771 -0.5114
 3994SOL    HW223619   1.190   1.807   7.314  0.5819 -0.2300 -0.9284
 3995SOL     OW23620   1.967   1.046   5.281  0.0783 -0.2975 -0.1806
 3995SOL    HW123621   1.989   1.068   5.371 -0.5325  0.2033 -0.1486
 3995SOL    HW223622   2.054   1.031   5.242  1.0992 -1.1098  2.4500
 3996SOL     OW23623   3.120   1.634   5.144 -0.1102 -0.0702 -0.0427
 3996SOL    HW123624   3.170   1.638   5.063  0.6766 -1.5423  0.3563
 3996SOL    HW223625   3.174   1.567   5.186  2.9233  2.0149 -0.6602
 3997SOL     OW23626   4.407   0.938  11.312  0.4141  0.1397  0.2184
 3997SOL    HW123627   4.384   0.887  11.390 -1.0411 -3.0039 -2.2960
 3997SOL    HW223628   4.502   0.937  11.308  0.4719  0.2942  1.5241
 3998SOL     OW23629   1.832   2.053   9.110  0.1232 -1.0477 -0.2307
 3998SOL    HW123630   1.798   2.038   9.022 -0.4864  1.3538 -0.3947
 3998SOL    HW223631   1.859   1.964   9.137 -0.9268 -1.4809 -0.6328
 3999SOL     OW23632   3.700   2.792   9.273 -0.5182  0.1547  0.1293
 3999SOL    HW123633   3.769   2.849   9.308  0.0760  2.0146 -4.0214
 3999SOL    HW223634   3.624   2.836   9.311 -0.9147  2.3840 -3.2541
 4000SOL     OW23635   2.230   4.225   1.643 -0.9104 -0.4796 -0.2328
 4000SOL    HW123636   2.233   4.212   1.737 -1.4889  1.3253  0.0353
 4000SOL    HW223637   2.169   4.158   1.611 -0.9211 -1.5153  1.9558
 4001SOL     OW23638   2.270   3.871   9.152  0.3674 -0.2736 -0.2665
 4001SOL    HW123639   2.224   3.921   9.084  1.1818  0.6862 -0.1261
 4001SOL    HW223640   2.194   3.849   9.205 -1.0313  0.5969 -1.8849
 4002SOL     OW23641   0.133   1.032   7.961 -0.0855  0.0112  0.0330
 4002SOL    HW123642   0.151   1.023   8.054  1.1077 -2.2466 -0.4310
 4002SOL    HW223643   0.211   1.076   7.927 -0.4980  0.7478  0.0445
 4003SOL     OW23644   3.750   1.824   5.231 -0.5171 -0.3265 -0.2262
 4003SOL    HW123645   3.803   1.814   5.152  0.9662 -0.9073  0.8597
 4003SOL    HW223646   3.808   1.783   5.295 -0.2546 -0.1290 -0.3381
 4004SOL     OW23647   4.452   4.101   2.793 -0.3440  0.1304 -0.4912
 4004SOL    HW123648   4.416   4.190   2.792  1.7620  0.9873 -2.1883
 4004SOL    HW223649   4.428   4.065   2.708 -1.5813 -0.4845  0.1203
 4005SOL     OW23650   4.363   0.781   6.030  0.3682 -0.0409 -0.7780
 4005SOL    HW123651   4.445   0.770   6.078  0.0610  1.7052  0.1398
 4005SOL    HW223652   4.392   0.861   5.987  0.6616  0.6961  0.7751
 4006SOL     OW23653   0.817   0.169   5.511  0.4858  0.0929 -0.1042
 4006SOL    HW123654   0.908   0.153   5.487  0.0277 -2.9613  0.2796
 4006SOL    HW223655   0.794   0.083   5.545 -0.0962 -0.6743 -2.4252
 4007SOL     OW23656   3.970   4.351   0.056  0.2848 -0.2001  0.1604
 4007SOL    HW123657   3.928   4.267   0.075  2.1973 -0.5988  2.6765
 4007SOL    HW223658   3.929   4.383  17.723 -0.9845 -1.3750  0.3401
 4008SOL     OW23659   2.570   4.447   8.802  0.8156  0.0415  0.6456
 4008SOL    HW123660   2.574   4.482   8.891  0.0311 -1.7046  1.3734
 4008SOL    HW223661   2.476   4.437   8.785  0.4957  1.7508  1.4562
 4009SOL     OW23662   3.503   0.525   8.403  0.6056  0.0956 -0.0046
 4009SOL    HW123663   3.455   0.459   8.454  0.1065 -0.9186 -1.7892
 4009SOL    HW223664   3.540   0.460   8.343 -2.7279 -2.1990  0.3907
 4010SOL     OW23665   3.311   1.468   6.963  0.1549 -0.1880 -0.0258
 4010SOL    HW123666   3.299   1.423   6.879  2.0319 -0.0186 -0.3907
 4010SOL    HW223667   3.225   1.505   6.981 -0.4105 -0.3867 -2.3201
 4011SOL     OW23668   2.727   0.563  12.832  0.0939 -0.1889  0.0530
 4011SOL    HW123669   2.634   0.540  12.828  0.1617 -0.1902 -1.6764
 4011SOL    HW223670   2.718   0.657  12.847 -0.3064 -0.0843 -0.7891
 4012SOL     OW23671   4.385   2.670   6.893  0.0821 -0.2563 -0.3840
 4012SOL    HW123672   4.460   2.622   6.858 -0.7767 -0.4814 -1.9294
 4012SOL    HW223673   4.348   2.697   6.809 -0.9012  0.2977  0.2238
 4013SOL     OW23674   2.411   2.490   9.072 -0.0899  0.1837  0.1987
 4013SOL    HW123675   2.355   2.477   8.996 -0.7425 -2.1949  1.1011
 4013SOL    HW223676   2.362   2.435   9.132 -0.6952  0.2375 -0.2471
 4014SOL     OW23677   3.514   2.811   6.377 -0.1299 -0.1993  0.6074
 4014SOL    HW123678   3.508   2.883   6.314 -0.4979 -1.9154 -1.3074
 4014SOL    HW223679   3.438   2.760   6.350 -0.1099 -0.9749  2.0468
 4015SOL     OW23680   3.331   2.568   3.929  0.2164  0.1527  0.6508
 4015SOL    HW123681   3.391   2.549   3.857  0.4379  0.4948  0.7435
 4015SOL    HW223682   3.281   2.486   3.929 -1.7532  1.3416 -0.0923
 4016SOL     OW23683   4.691   2.071  12.887 -0.1525  0.6195  0.1026
 4016SOL    HW123684   4.632   2.134  12.930 -2.2942 -0.2586 -1.5112
 4016SOL    HW223685   4.645   2.048  12.806  0.4997 -2.1285  0.5272
 4017SOL     OW23686   1.391   4.602   7.848 -0.0501  0.5166  0.8014
 4017SOL    HW123687   1.448   4.678   7.831 -0.3072  0.3136 -0.9938
 4017SOL    HW223688   1.364   4.624   7.937 -2.0387 -0.0810  0.3599
 4018SOL     OW23689   0.111   1.790   7.577 -0.1520  0.1132  0.1931
 4018SOL    HW123690   0.071   1.872   7.604  0.7014  0.2883  0.9375
 4018SOL    HW223691   0.200   1.796   7.614  0.4619  1.4894 -1.4650
 4019SOL     OW23692   0.977   1.427   9.578  0.5263 -0.3967 -1.0599
 4019SOL    HW123693   1.068   1.396   9.573  0.0983 -1.9628  0.6965
 4019SOL    HW223694   0.960   1.451   9.487 -2.7984 -0.4476 -0.4290
 4020SOL     OW23695   4.090   0.697   2.186  0.5560 -0.1714 -0.8057
 4020SOL    HW123696   4.126   0.725   2.270 -0.3608  1.4404 -0.9479
 4020SOL    HW223697   4.004   0.740   2.186  0.7555  0.2100  0.8231
 4021SOL     OW23698   3.839   0.488  15.531  0.1186 -0.3367  0.1479
 4021SOL    HW123699   3.841   0.498  15.436  0.6339 -1.6719  0.0158
 4021SOL    HW223700   3.770   0.552  15.549  1.6865  1.4067 -0.0401
 4022SOL     OW23701   3.693   3.422   3.835  0.4425  0.2677  0.1861
 4022SOL    HW123702   3.659   3.396   3.749  1.8235 -0.6612 -0.0758
 4022SOL    HW223703   3.781   3.387   3.821 -0.1435 -1.0600 -0.2510
 4023SOL     OW23704   0.260   0.425   6.796  0.8691 -0.3553 -0.1713
 4023SOL    HW123705   0.253   0.500   6.854  0.7970 -0.5978  0.1336
 4023SOL    HW223706   0.275   0.349   6.852  0.4245 -1.3572 -1.3992
 4024SOL     OW23707   2.186   4.534   0.485 -0.1974 -0.4205 -0.7513
 4024SOL    HW123708   2.275   4.560   0.511 -1.5731  1.0105  2.4741
 4024SOL    HW223709   2.210   4.500   0.399  1.7957  2.4429 -1.3200
 4025SOL     OW23710   1.437   0.432   2.255 -0.3827 -0.3344 -0.6398
 4025SOL    HW123711   1.460   0.491   2.327  1.3336 -0.0266 -1.4276
 4025SOL    HW223712   1.508   0.462   2.199  0.5942  0.7058  1.1457
 4026SOL     OW23713   4.466   2.844   0.790 -0.3998  0.3724 -0.3303
 4026SOL    HW123714   4.505   2.825   0.704  2.0428  0.0923  0.8153
 4026SOL    HW223715   4.388   2.789   0.791  0.2553 -0.5009  2.4988
 4027SOL     OW23716   0.231   3.714   5.344  0.0694 -0.3529  0.1799
 4027SOL    HW123717   0.194   3.799   5.368  1.0264 -0.2989  1.4714
 4027SOL    HW223718   0.156   3.681   5.294  2.4148 -2.3967 -1.9553
 4028SOL     OW23719   1.109   0.942   2.852  0.3331 -0.3191 -0.5417
 4028SOL    HW123720   1.144   1.027   2.877  0.1473 -1.0045  1.9579
 4028SOL    HW223721   1.194   0.921   2.815  1.8469  2.1370  1.5822
 4029SOL     OW23722   2.592   1.714   0.041  0.4256  0.5897 -0.8735
 4029SOL    HW123723   2.683   1.684   0.044 -0.2850 -1.4955 -0.0264
 4029SOL    HW223724   2.601   1.800   0.081 -0.2011 -0.6456  1.9569
 4030SOL     OW23725   1.708   2.110   7.952 -0.6208 -0.1027  0.4192
 4030SOL    HW123726   1.791   2.155   7.969  0.0850 -1.0175 -0.5947
 4030SOL    HW223727   1.734   2.021   7.927  2.1905  1.1680 -1.2009
 4031SOL     OW23728   1.569   4.451   3.786  0.1675  0.5509 -0.4761
 4031SOL    HW123729   1.617   4.530   3.811 -0.4050  0.8201 -0.2305
 4031SOL    HW223730   1.489   4.487   3.749  1.1228  0.2962 -2.7678
 4032SOL     OW23731   0.238   0.453  12.395 -0.5891 -0.2878  0.3970
 4032SOL    HW123732   0.147   0.482  12.390 -0.7676 -0.9871 -0.4626
 4032SOL    HW223733   0.270   0.511  12.464  0.2785 -1.0903  0.6753
 4033SOL     OW23734   2.737   3.358  12.182  1.0171 -0.1245  0.0118
 4033SOL    HW123735   2.727   3.407  12.263  2.1294  0.5332 -0.2608
 4033SOL    HW223736   2.830   3.337  12.185  1.3917  1.4605 -0.5668
 4034SOL     OW23737   4.380   4.208   7.058 -0.1869 -0.1000  0.0392
 4034SOL    HW123738   4.388   4.286   7.114  1.1580  0.6508 -1.2019
 4034SOL    HW223739   4.302   4.165   7.092 -0.3493  0.6999  0.6648
 4035SOL     OW23740   3.605   0.277  15.581  0.5229  0.4023  0.7336
 4035SOL    HW123741   3.546   0.344  15.616 -0.9546 -0.1713 -0.6720
 4035SOL    HW223742   3.603   0.222  15.659  4.3098 -2.4248 -1.1396
 4036SOL     OW23743   4.490   2.446  13.253  0.1056  0.3727 -0.7716
 4036SOL    HW123744   4.406   2.438  13.298  0.5549 -2.8982 -0.5246
 4036SOL    HW223745   4.547   2.455  13.330 -2.4692 -0.1037  1.1608
 4037SOL     OW23746   2.467   2.271   5.589 -0.2520 -0.1603 -0.3162
 4037SOL    HW123747   2.523   2.280   5.666 -1.4299  2.2475  0.2582
 4037SOL    HW223748   2.516   2.295   5.510  0.0346  0.1982 -0.0276
 4038SOL     OW23749   4.487   3.066  16.220 -1.4136  0.2542  0.6308
 4038SOL    HW123750   4.573   3.105  16.207 -1.0569 -1.3229 -1.7208
 4038SOL    HW223751   4.482   3.085  16.314  2.7102 -0.9761  1.1115
 4039SOL     OW23752   0.738   1.499   9.338 -0.3236 -0.0450  0.2685
 4039SOL    HW123753   0.661   1.517   9.392  0.1297 -0.6048  1.0988
 4039SOL    HW223754   0.787   1.580   9.351  0.2316 -0.3624  0.1677
 4040SOL     OW23755   2.803   3.467   3.733 -0.5586  0.2839 -0.6704
 4040SOL    HW123756   2.734   3.524   3.767 -0.8415 -0.5958  0.2244
 4040SOL    HW223757   2.875   3.493   3.791 -1.9352  2.4107  0.0740
 4041SOL     OW23758   2.049   0.808   1.409  0.1803 -0.4358 -0.5697
 4041SOL    HW123759   1.974   0.860   1.383 -0.5434 -1.2587 -0.1173
 4041SOL    HW223760   2.113   0.835   1.343  1.0485 -2.7584 -0.6825
 4042SOL     OW23761   2.018   1.065   1.845  0.2656  0.2954  0.2668
 4042SOL    HW123762   1.938   1.069   1.793  0.3502  0.0271  0.1135
 4042SOL    HW223763   1.987   1.053   1.935 -0.5822  1.0726  0.0733
 4043SOL     OW23764   0.829   2.859   3.920  0.4233 -0.6189  0.1775
 4043SOL    HW123765   0.833   2.770   3.954 -0.3695 -0.9093 -0.4639
 4043SOL    HW223766   0.826   2.843   3.825  2.7036 -0.2542  0.0622
 4044SOL     OW23767   4.692   4.210   2.140 -0.5962  0.4655  0.6307
 4044SOL    HW123768   4.678   4.267   2.215  0.1837  0.6759  0.6223
 4044SOL    HW223769   4.650   4.256   2.068  2.9205  0.3597 -1.5350
 4045SOL     OW23770   0.720   2.263   4.643  0.0504  0.7223  0.3018
 4045SOL    HW123771   0.795   2.323   4.652  0.2079  0.8771 -2.1089
 4045SOL    HW223772   0.721   2.231   4.734 -1.0693 -2.8762 -0.9810
 4046SOL     OW23773   1.855   3.241   7.755  0.3870  0.3489 -0.4271
 4046SOL    HW123774   1.923   3.255   7.689  1.6234  0.3697  0.8676
 4046SOL    HW223775   1.828   3.329   7.781 -0.4074 -0.7553  2.4876
 4047SOL     OW23776   0.539   4.011   7.267  0.0208 -0.9959 -0.2500
 4047SOL    HW123777   0.560   4.088   7.320 -0.2174  0.1862 -1.8360
 4047SOL    HW223778   0.493   3.951   7.325 -0.1348  0.1297  0.8027
 4048SOL     OW23779   2.554   3.758   5.889  0.2065 -0.2550  1.1398
 4048SOL    HW123780   2.623   3.692   5.899 -0.5765 -1.2677 -0.1406
 4048SOL    HW223781   2.599   3.837   5.919 -0.4310 -0.0031  1.4337
 4049SOL     OW23782   2.922   1.507  10.088  0.3486 -0.0636  0.2415
 4049SOL    HW123783   3.014   1.482  10.100 -0.7801 -2.8529  3.2440
 4049SOL    HW223784   2.915   1.577  10.152  0.5356  0.6360 -0.5096
 4050SOL     OW23785   1.250   1.376   5.920  0.7763 -0.1396 -0.0530
 4050SOL    HW123786   1.258   1.444   5.853 -2.1545 -0.7624 -1.0588
 4050SOL    HW223787   1.337   1.351   5.952  0.4204 -1.4200 -0.0896
 4051SOL     OW23788   4.159   0.918   6.844 -0.0757  0.3026  0.2194
 4051SOL    HW123789   4.164   0.928   6.939 -2.1076  0.6206  0.2894
 4051SOL    HW223790   4.133   0.826   6.844  2.0019 -0.2872 -0.0926
 4052SOL     OW23791   1.690   1.483   5.755  0.3784 -0.0458  0.1494
 4052SOL    HW123792   1.742   1.501   5.677  2.3937 -2.0193  1.0380
 4052SOL    HW223793   1.641   1.565   5.752  0.5571  0.0238 -0.6269
 4053SOL     OW23794   2.573   1.663   8.993  0.1027 -0.1398  0.0066
 4053SOL    HW123795   2.480   1.642   8.984  0.3137 -1.7201  1.6103
 4053SOL    HW223796   2.561   1.758   8.987  0.2052 -0.1022  0.3838
 4054SOL     OW23797   0.968   2.222   4.355 -0.7971 -0.1054 -0.1309
 4054SOL    HW123798   0.913   2.164   4.408 -0.4137  1.4659  1.9654
 4054SOL    HW223799   0.937   2.214   4.265  0.7486 -1.0705 -0.5977
 4055SOL     OW23800   1.130   2.280   0.500 -0.4230 -0.0277 -1.0698
 4055SOL    HW123801   1.200   2.259   0.563 -0.6511  1.1442 -0.4234
 4055SOL    HW223802   1.127   2.375   0.506  0.4368 -0.0149 -0.7569
 4056SOL     OW23803   3.145   3.964  11.283 -0.3339  0.1917 -0.5217
 4056SOL    HW123804   3.178   3.882  11.247 -1.7735 -0.7240  0.2208
 4056SOL    HW223805   3.215   4.019  11.250  2.9466 -2.4972  1.9381
 4057SOL     OW23806   4.636   1.734   6.553 -0.3933 -0.3216  0.0015
 4057SOL    HW123807   4.558   1.766   6.597  1.6083  2.2375  1.6718
 4057SOL    HW223808   4.690   1.809   6.576 -1.5628  0.0277  1.6438
 4058SOL     OW23809   3.687   1.976   7.042 -0.2990  0.0389 -0.3064
 4058SOL    HW123810   3.723   2.062   7.020  2.7851 -0.8782  1.1632
 4058SOL    HW223811   3.766   1.927   7.064 -1.4388 -1.9251 -0.5518
 4059SOL     OW23812   2.162   1.492   3.032 -0.0556 -0.3184 -0.0203
 4059SOL    HW123813   2.211   1.500   2.950  1.3523 -0.8052  0.7608
 4059SOL    HW223814   2.217   1.530   3.100  0.5722  1.1859 -1.3770
 4060SOL     OW23815   0.499   0.137  12.336 -0.1359  0.2889 -0.3338
 4060SOL    HW123816   0.508   0.176  12.423  0.3817  0.0701 -0.2896
 4060SOL    HW223817   0.404   0.146  12.330  0.0420  2.3063 -0.2019
 4061SOL     OW23818   2.667   4.133   7.754 -0.5959  0.3128  0.2537
 4061SOL    HW123819   2.729   4.206   7.748 -0.0907 -0.0710  0.9210
 4061SOL    HW223820   2.721   4.055   7.739 -1.9034 -0.2875 -1.4719
 4062SOL     OW23821   0.851   3.524   8.245  0.5255 -0.1505 -0.2793
 4062SOL    HW123822   0.908   3.587   8.287 -1.7094  2.5244 -1.2444
 4062SOL    HW223823   0.805   3.484   8.319 -0.2542  3.0243  0.9392
 4063SOL     OW23824   4.512   4.601  12.785  0.4150  0.1952 -0.1011
 4063SOL    HW123825   4.543   4.543  12.716 -1.7413 -0.7927 -0.2494
 4063SOL    HW223826   4.462   4.537  12.837  0.5055  0.0272 -0.2226
 4064SOL     OW23827   1.624   0.255   1.714  0.1573 -0.0387  0.2811
 4064SOL    HW123828   1.648   0.314   1.785  0.6521  1.8129 -1.4083
 4064SOL    HW223829   1.626   0.171   1.759  2.0714  1.7396  3.4625
 4065SOL     OW23830   0.276   1.891   9.344  0.6220 -0.2297  0.0367
 4065SOL    HW123831   0.253   1.800   9.325 -1.9359  0.1333  1.4069
 4065SOL    HW223832   0.296   1.931   9.259 -2.0053  3.3525  1.0992
 4066SOL     OW23833   0.569   3.790  14.850  0.0998  0.3800 -0.2774
 4066SOL    HW123834   0.587   3.881  14.874  2.1905 -0.1805  0.2384
 4066SOL    HW223835   0.474   3.803  14.853  0.2310  0.6752  2.9514
 4067SOL     OW23836   3.196   2.993  15.207 -0.2666  0.2616  0.0303
 4067SOL    HW123837   3.122   3.029  15.256  1.6828  2.4372  1.3744
 4067SOL    HW223838   3.196   3.045  15.127 -0.5616  3.5535  2.1481
 4068SOL     OW23839   0.139   3.956   5.998 -0.2037 -0.5795  0.2773
 4068SOL    HW123840   0.176   3.959   5.910 -0.0133 -0.8440  0.3488
 4068SOL    HW223841   0.217   3.958   6.053 -0.3374  0.6454  0.4206
 4069SOL     OW23842   1.752   4.495   7.880 -0.7207 -0.4739 -0.5296
 4069SOL    HW123843   1.847   4.507   7.890 -0.6916 -0.5911 -0.6675
 4069SOL    HW223844   1.745   4.404   7.908  0.1671 -0.2808  0.3219
 4070SOL     OW23845   4.711   1.417   8.616 -0.2466  0.3468  1.1090
 4070SOL    HW123846   4.701   1.469   8.696 -2.3945 -0.5053  1.3878
 4070SOL    HW223847   4.700   1.481   8.545 -1.4409 -0.6254  0.4129
 4071SOL     OW23848   2.802   0.422  12.569  0.2450 -0.8759 -0.5641
 4071SOL    HW123849   2.777   0.451  12.656  0.9631 -0.3193 -0.5479
 4071SOL    HW223850   2.802   0.506  12.523  1.6985 -0.5203  0.1027
 4072SOL     OW23851   4.086   0.992   0.778 -0.1287  0.6447  0.1193
 4072SOL    HW123852   4.125   0.909   0.808 -1.2765 -0.7448 -2.2646
 4072SOL    HW223853   3.994   0.964   0.774 -0.0061  0.4290 -1.1292
 4073SOL     OW23854   2.809   0.779   9.231 -0.5697 -0.9069  0.2443
 4073SOL    HW123855   2.818   0.741   9.144  0.6400 -0.7014  0.2717
 4073SOL    HW223856   2.741   0.843   9.210  0.4189 -0.1600 -0.6791
 4074SOL     OW23857   2.456   2.612  10.873  0.5528 -0.3166  0.0193
 4074SOL    HW123858   2.458   2.597  10.779  1.8642  0.9656 -0.1729
 4074SOL    HW223859   2.545   2.648  10.873  0.1361  0.7450  1.4966
 4075SOL     OW23860   2.138   4.164   6.022  0.1832  0.6486 -0.2033
 4075SOL    HW123861   2.193   4.238   6.044  1.4411 -1.1794  2.8002
 4075SOL    HW223862   2.201   4.107   5.978 -1.3270  3.0627 -5.4780
 4076SOL     OW23863   1.281   2.529   6.267  0.0425 -0.2202  0.1450
 4076SOL    HW123864   1.314   2.610   6.229  1.9324 -1.1964 -0.3332
 4076SOL    HW223865   1.295   2.459   6.203 -2.5146 -0.4748 -0.1081
 4077SOL     OW23866   0.507   4.701   9.454 -0.2357 -0.1073 -0.1862
 4077SOL    HW123867   0.478   4.665   9.370  2.6975 -0.1081 -1.1963
 4077SOL    HW223868   0.433   4.688   9.514 -0.9363  1.2337 -0.7664
 4078SOL     OW23869   4.551   2.255   7.378 -0.2790 -0.4135  0.7419
 4078SOL    HW123870   4.509   2.322   7.432 -1.7778 -0.5834 -0.2205
 4078SOL    HW223871   4.620   2.231   7.440  1.0781 -1.0829 -1.0249
 4079SOL     OW23872   3.349   3.551  15.973  0.2159  0.4579  0.7217
 4079SOL    HW123873   3.402   3.499  15.913 -2.3804  1.0145 -2.0227
 4079SOL    HW223874   3.258   3.536  15.949  0.2625  0.8580  0.2864
 4080SOL     OW23875   2.971   3.151   5.792  0.0947 -0.0496  0.1190
 4080SOL    HW123876   2.920   3.174   5.869 -1.4581  0.8210 -1.1661
 4080SOL    HW223877   2.918   3.195   5.725  1.1871  0.4949 -0.4047
 4081SOL     OW23878   0.543   0.680   2.203  0.5349 -0.0398 -0.2108
 4081SOL    HW123879   0.521   0.773   2.192  2.3412  0.3373 -0.6506
 4081SOL    HW223880   0.569   0.679   2.295  1.1112  1.0436 -0.3661
 4082SOL     OW23881   4.648   4.421  17.644 -0.1287  0.1106 -0.4454
 4082SOL    HW123882   4.678   4.403  17.555  0.3114 -1.1244 -0.0423
 4082SOL    HW223883   4.648   4.517  17.642  2.5676  0.1365  0.7968
 4083SOL     OW23884   4.092   4.075   2.611 -0.9262 -0.8641  0.1289
 4083SOL    HW123885   4.017   4.019   2.589 -2.3595  0.2355  2.2563
 4083SOL    HW223886   4.137   4.081   2.527 -1.5086 -0.0160 -0.1199
 4084SOL     OW23887   3.443   0.418  11.410 -0.0201  0.0057  0.0394
 4084SOL    HW123888   3.475   0.379  11.492 -2.7452  2.0550  2.0813
 4084SOL    HW223889   3.425   0.336  11.363  0.6447 -1.7745  2.8605
 4085SOL     OW23890   2.841   3.815  14.686 -0.3956  0.4974 -0.0590
 4085SOL    HW123891   2.901   3.791  14.756  1.6172 -1.2447 -2.4199
 4085SOL    HW223892   2.885   3.776  14.611  0.6447  1.7213 -0.0945
 4086SOL     OW23893   0.749   0.413   9.596 -0.0339  0.2155 -0.0655
 4086SOL    HW123894   0.837   0.418   9.558  0.8492  0.3623  2.0021
 4086SOL    HW223895   0.712   0.344   9.541  0.5402  2.4588 -3.2597
 4087SOL     OW23896   4.414   4.338   3.830 -0.1238  0.0296  0.1892
 4087SOL    HW123897   4.332   4.297   3.859 -0.3685  0.4761  0.1254
 4087SOL    HW223898   4.438   4.361   3.920 -0.5737 -0.7185  0.5106
 4088SOL     OW23899   3.919   2.449   6.744 -0.7019  0.4613 -0.4882
 4088SOL    HW123900   3.887   2.532   6.781 -1.4269 -1.0026  2.1648
 4088SOL    HW223901   4.013   2.457   6.763 -0.9946 -0.8113  1.4752
 4089SOL     OW23902   0.841   3.539   7.900  0.1221 -0.0470 -0.1795
 4089SOL    HW123903   0.841   3.618   7.955  1.6452  0.7357 -1.2932
 4089SOL    HW223904   0.894   3.476   7.949 -2.1348 -1.7724  0.0047
 4090SOL     OW23905   3.951   3.648   5.957  0.2050 -0.5457  0.3203
 4090SOL    HW123906   4.011   3.578   5.982  0.4010 -0.6623 -0.4748
 4090SOL    HW223907   3.957   3.627   5.864 -0.3465 -1.2627  0.4446
 4091SOL     OW23908   2.962   1.245   1.778  0.2512 -0.5612 -0.3838
 4091SOL    HW123909   2.898   1.187   1.820  1.5040  0.4930  3.0039
 4091SOL    HW223910   3.042   1.193   1.782 -1.8565 -3.7596 -0.0533
 4092SOL     OW23911   3.226   0.487  17.419  0.2143  0.7198  0.1561
 4092SOL    HW123912   3.222   0.392  17.422  0.2048  0.6147 -4.0345
 4092SOL    HW223913   3.134   0.502  17.443  0.1873 -0.2317  0.6335
 4093SOL     OW23914   0.893   2.654   7.220 -0.7724  0.6117  0.3918
 4093SOL    HW123915   0.848   2.634   7.302 -0.0652 -2.3027  0.0479
 4093SOL    HW223916   0.908   2.748   7.231  0.4544  0.3350  1.0582
 4094SOL     OW23917   1.986   2.198   4.536  0.3707 -0.2741 -0.2978
 4094SOL    HW123918   1.961   2.212   4.627  1.1652  0.8019 -0.2504
 4094SOL    HW223919   2.070   2.244   4.535 -1.2424  2.7074  1.6786
 4095SOL     OW23920   4.476   3.201   4.675 -0.3089  0.1544  0.1972
 4095SOL    HW123921   4.541   3.263   4.708  0.9341 -1.5690  0.9988
 4095SOL    HW223922   4.404   3.257   4.648  0.7274  0.3692 -2.1813
 4096SOL     OW23923   3.522   0.888   9.336 -0.1521  0.0775 -0.5719
 4096SOL    HW123924   3.606   0.898   9.291 -0.3542 -0.1853 -1.0033
 4096SOL    HW223925   3.530   0.809   9.390  1.7032 -0.0342 -1.0180
 4097SOL     OW23926   2.883   1.474   3.043  0.1950  0.1261 -0.3677
 4097SOL    HW123927   2.873   1.409   2.973 -4.3051  0.2710  0.1567
 4097SOL    HW223928   2.791   1.487   3.065  0.5360  2.3440 -0.2766
 4098SOL     OW23929   0.506   2.574   8.530  0.1713  0.1338  0.0055
 4098SOL    HW123930   0.478   2.500   8.475 -2.4869  2.0145 -1.1535
 4098SOL    HW223931   0.435   2.580   8.594 -1.9381  1.0668 -2.4379
 4099SOL     OW23932   4.382   0.156  14.942  0.2569  0.3358 -0.0047
 4099SOL    HW123933   4.450   0.090  14.930  1.5347  1.5455  0.5863
 4099SOL    HW223934   4.409   0.206  15.019  0.0591 -0.7015  0.7354
 4100SOL     OW23935   2.663   2.323   9.700  0.5616 -0.7902 -0.6477
 4100SOL    HW123936   2.595   2.286   9.757  0.2160  0.5831 -0.1654
 4100SOL    HW223937   2.705   2.243   9.670  0.2435 -1.6920  1.2921
 4101SOL     OW23938   3.630   0.153   1.461 -0.2423  0.3226 -0.1834
 4101SOL    HW123939   3.670   0.124   1.379 -1.4775  1.4697 -1.2016
 4101SOL    HW223940   3.605   0.243   1.438 -1.8562 -0.2444 -0.7167
 4102SOL     OW23941   3.917   3.359   7.026  0.9051 -0.3787 -0.4552
 4102SOL    HW123942   3.846   3.385   6.967 -1.4264 -2.6868  1.2655
 4102SOL    HW223943   3.990   3.419   7.013  0.8429  0.3522  2.4401
 4103SOL     OW23944   0.836   3.557   5.206  0.4813 -0.3876  0.0751
 4103SOL    HW123945   0.766   3.605   5.250  1.0093 -0.5883  1.1237
 4103SOL    HW223946   0.786   3.492   5.156 -0.4768  1.3728 -1.2874
 4104SOL     OW23947   0.456   1.434   5.289 -0.0242 -0.3519  0.1632
 4104SOL    HW123948   0.546   1.463   5.297 -0.1724  0.4188 -0.8767
 4104SOL    HW223949   0.418   1.443   5.376 -0.7056 -2.1539  0.0480
 4105SOL     OW23950   2.350   4.355   2.934 -0.2866 -0.1445 -0.2530
 4105SOL    HW123951   2.324   4.285   2.993 -2.5076  0.7191 -0.2156
 4105SOL    HW223952   2.386   4.407   3.006 -0.8875  0.7661 -0.6103
 4106SOL     OW23953   4.136   2.521   6.968 -0.0327 -0.1475 -0.0965
 4106SOL    HW123954   4.223   2.541   7.001 -0.4221  0.0111  0.8196
 4106SOL    HW223955   4.123   2.608   6.930  2.8692  0.2729 -0.1146
 4107SOL     OW23956   4.444   2.352   5.906  0.3474 -0.5262 -0.3642
 4107SOL    HW123957   4.351   2.330   5.904  0.7349 -2.1771 -0.6191
 4107SOL    HW223958   4.462   2.349   6.000 -2.5413 -0.1712  0.2057
 4108SOL     OW23959   3.082   1.976   6.044 -0.0862  0.5633  0.2013
 4108SOL    HW123960   3.157   1.975   5.985  0.5244 -0.6182  1.0093
 4108SOL    HW223961   3.038   2.051   6.003  0.9875  1.5036  0.7689
 4109SOL     OW23962   3.276   3.961   7.892 -0.5283  0.6930 -0.3716
 4109SOL    HW123963   3.194   3.982   7.849 -0.0930  0.5423 -1.2842
 4109SOL    HW223964   3.288   3.867   7.876 -1.1539  0.6755 -0.7432
 4110SOL     OW23965   1.053   2.320   0.824  0.7319  0.0971  0.0848
 4110SOL    HW123966   1.127   2.372   0.793 -0.2773  1.1839 -0.4894
 4110SOL    HW223967   1.017   2.289   0.740  1.5142 -1.3194  0.2662
 4111SOL     OW23968   3.963   0.544   7.875  0.5315  0.1704  0.3152
 4111SOL    HW123969   4.057   0.545   7.892  0.8530 -1.6086 -1.3431
 4111SOL    HW223970   3.927   0.526   7.962 -3.4127 -0.5807 -1.4926
 4112SOL     OW23971   2.412   2.825   6.603  0.2636 -0.3601  0.1676
 4112SOL    HW123972   2.385   2.818   6.695  1.1395  0.6401  0.4976
 4112SOL    HW223973   2.397   2.919   6.594 -3.8051 -1.0701 -0.5916
 4113SOL     OW23974   2.840   3.599   6.996  0.0844 -0.2989 -0.2724
 4113SOL    HW123975   2.844   3.688   6.961 -0.9614 -0.3804 -0.5783
 4113SOL    HW223976   2.805   3.554   6.919 -1.7240 -1.0777  1.0218
 4114SOL     OW23977   0.427   1.103   1.507 -0.2577 -0.1565  0.3979
 4114SOL    HW123978   0.339   1.096   1.543  0.7473 -0.6027  2.7799
 4114SOL    HW223979   0.464   1.015   1.502  0.7431  0.3929 -1.8533
 4115SOL     OW23980   2.972   1.644  13.606  0.0571  0.4991  0.0172
 4115SOL    HW123981   2.977   1.710  13.675  1.0098  1.1705 -0.6964
 4115SOL    HW223982   3.060   1.609  13.617 -0.3321 -0.7250 -0.7258
 4116SOL     OW23983   0.310   2.294   4.271  0.3866 -0.1816  0.4260
 4116SOL    HW123984   0.255   2.346   4.330 -1.2353 -1.5517  0.1354
 4116SOL    HW223985   0.387   2.310   4.326 -0.2898 -1.1158  1.6553
 4117SOL     OW23986   3.342   3.695  14.718 -0.1533  0.2310 -0.0157
 4117SOL    HW123987   3.338   3.744  14.800 -0.4083 -1.0745  0.7539
 4117SOL    HW223988   3.424   3.646  14.722 -1.0901 -1.5395 -2.1363
 4118SOL     OW23989   2.356   1.602   5.894 -0.2495 -0.0944  0.2858
 4118SOL    HW123990   2.399   1.687   5.880 -1.2893  0.1257 -1.6882
 4118SOL    HW223991   2.383   1.570   5.980 -0.4257  2.4487  1.2844
 4119SOL     OW23992   1.998   0.273   3.352 -0.0880  0.4432 -0.7443
 4119SOL    HW123993   2.055   0.322   3.411  1.0657 -0.3342 -1.2271
 4119SOL    HW223994   2.059   0.245   3.284  0.8527  0.0991  0.2380
 4120SOL     OW23995   0.456   2.959   3.941 -0.4962  0.5001 -0.0763
 4120SOL    HW123996   0.377   2.913   3.969 -0.4975  0.9141  0.6263
 4120SOL    HW223997   0.496   2.896   3.881 -0.0041 -0.0816  0.8508
 4121SOL     OW23998   1.598   1.544   3.932  0.6473  0.1152 -0.1571
 4121SOL    HW123999   1.680   1.574   3.892  0.7784 -0.0078  0.0191
 4121SOL    HW224000   1.625   1.497   4.011  2.1832 -0.2295 -0.8836
 4122SOL     OW24001   2.419   0.322   2.354  0.0573 -0.4913  0.4047
 4122SOL    HW124002   2.393   0.349   2.442  0.4968  1.6046 -0.1250
 4122SOL    HW224003   2.346   0.261   2.340  0.8133 -1.0144 -1.1695
 4123SOL     OW24004   1.542   1.132   1.412 -0.0797  0.5158 -0.3556
 4123SOL    HW124005   1.536   1.092   1.498  1.4401 -0.4166 -0.6864
 4123SOL    HW224006   1.452   1.118   1.381 -0.5671  2.9669 -0.1015
 4124SOL     OW24007   0.508   1.494   9.488  0.5237 -0.4869 -0.3815
 4124SOL    HW124008   0.463   1.411   9.502 -0.6491  0.3951  1.1709
 4124SOL    HW224009   0.445   1.556   9.526  2.6014  1.4267 -0.0753
 4125SOL     OW24010   2.364   2.656   6.167  0.3913  0.0189 -0.1526
 4125SOL    HW124011   2.338   2.706   6.089  1.6828 -1.2895 -1.4299
 4125SOL    HW224012   2.335   2.565   6.158 -0.5486  0.1504  1.4859
 4126SOL     OW24013   1.997   1.145   0.746 -0.3510  0.2490  0.4562
 4126SOL    HW124014   2.061   1.141   0.675  0.1126  0.7527  0.8503
 4126SOL    HW224015   1.925   1.105   0.697  0.0980  1.1710 -0.9552
 4127SOL     OW24016   0.740   1.039   8.390  0.8836 -0.1819  0.2905
 4127SOL    HW124017   0.763   1.080   8.473 -0.4933  0.1425  0.5069
 4127SOL    HW224018   0.739   0.946   8.413  0.0296 -0.4939 -1.0064
 4128SOL     OW24019   2.697   3.843   8.082  0.5584  0.3419 -0.1093
 4128SOL    HW124020   2.786   3.853   8.048 -0.0181 -0.5887 -1.9002
 4128SOL    HW224021   2.717   3.833   8.175  0.0387 -2.3715 -0.3083
 4129SOL     OW24022   1.559   0.921   8.004  0.9353 -0.1093  0.4936
 4129SOL    HW124023   1.593   1.008   8.022 -0.2494  0.2925  0.8306
 4129SOL    HW224024   1.597   0.897   7.919  2.7357  2.4508  0.5995
 4130SOL     OW24025   2.719   3.984  11.722  0.6892 -0.4458 -0.2158
 4130SOL    HW124026   2.666   3.928  11.779 -0.2090 -0.1002 -0.7020
 4130SOL    HW224027   2.705   3.933  11.643 -1.0578  1.0198 -0.8634
 4131SOL     OW24028   1.432   2.848   6.347  0.1877 -0.8919 -0.3751
 4131SOL    HW124029   1.437   2.801   6.264 -1.1062  0.5370 -1.2589
 4131SOL    HW224030   1.514   2.809   6.377  0.4522 -0.6519 -0.7785
 4132SOL     OW24031   1.235   3.555   5.872  0.2005 -0.3626  0.3677
 4132SOL    HW124032   1.195   3.506   5.800  0.2409 -0.0337  0.1191
 4132SOL    HW224033   1.260   3.624   5.811  0.8474 -1.9369 -1.1637
 4133SOL     OW24034   4.175   3.851   8.086 -0.4135 -0.4026  0.3133
 4133SOL    HW124035   4.123   3.829   8.008  0.0495 -1.8277  0.4182
 4133SOL    HW224036   4.141   3.778   8.138  0.7877 -0.9483  0.3117
 4134SOL     OW24037   2.393   2.612  16.334  0.3480  0.5498 -0.3126
 4134SOL    HW124038   2.320   2.672  16.352  1.4831  2.3035 -1.4890
 4134SOL    HW224039   2.466   2.671  16.352 -0.4827  1.8928 -1.2820
 4135SOL     OW24040   3.440   2.887   6.894 -0.0017  0.3407 -0.5194
 4135SOL    HW124041   3.457   2.910   6.803 -0.8238  0.3791 -0.6581
 4135SOL    HW224042   3.402   2.801   6.881 -1.5151  0.9572 -0.2652
 4136SOL     OW24043   2.544   0.496  14.631 -0.1050 -0.5016  0.4056
 4136SOL    HW124044   2.624   0.480  14.680  0.1653 -0.1332  0.0856
 4136SOL    HW224045   2.492   0.420  14.657  1.1120 -2.2924 -2.3336
 4137SOL     OW24046   1.355   4.124   8.378 -0.1553 -0.2511  0.4574
 4137SOL    HW124047   1.350   4.038   8.418 -1.0441 -0.0359  0.8103
 4137SOL    HW224048   1.426   4.094   8.321  1.0458  0.8723  1.3605
 4138SOL     OW24049   3.390   4.385   8.983  0.1212 -0.2171  0.5784
 4138SOL    HW124050   3.297   4.382   8.962  0.2144 -2.8459  0.6147
 4138SOL    HW224051   3.428   4.312   8.935 -0.9843 -0.9190  0.7797
 4139SOL     OW24052   1.845   3.219   6.769 -0.0548 -0.1432 -0.8194
 4139SOL    HW124053   1.922   3.238   6.716  2.1142  0.2407  2.5259
 4139SOL    HW224054   1.840   3.312   6.793 -1.7321 -0.2383 -0.7620
 4140SOL     OW24055   0.031   3.890  13.712 -0.3954  0.3688  0.6433
 4140SOL    HW124056   0.020   3.963  13.651 -0.2570  0.9375  1.2872
 4140SOL    HW224057   0.068   3.939  13.786 -0.9830  0.3187  0.9750
 4141SOL     OW24058   2.992   4.643   4.627 -0.3411  0.0050 -0.3437
 4141SOL    HW124059   2.993   4.583   4.702  0.9473 -1.4729 -1.5419
 4141SOL    HW224060   3.056   4.713   4.644 -0.1071  0.1999 -2.0356
 4142SOL     OW24061   3.505   4.645   8.980 -0.0414 -0.0081 -0.2196
 4142SOL    HW124062   3.446   4.700   9.032 -1.7194 -2.8553  0.8588
 4142SOL    HW224063   3.472   4.560   9.008 -0.9508  0.0760 -1.0697
 4143SOL     OW24064   3.349   1.779   1.825 -0.2356 -0.5569  0.2236
 4143SOL    HW124065   3.373   1.845   1.890  0.6607 -0.6127 -0.0478
 4143SOL    HW224066   3.434   1.737   1.812  0.3780  0.6721  0.2012
 4144SOL     OW24067   1.208   2.209   2.845  0.1685 -0.5369  0.1001
 4144SOL    HW124068   1.288   2.159   2.825 -0.2759 -1.8015  1.4701
 4144SOL    HW224069   1.247   2.293   2.869  0.2529 -0.7564  0.7368
 4145SOL     OW24070   2.033   1.379   2.696  0.1255 -0.1202 -0.1012
 4145SOL    HW124071   2.062   1.436   2.625 -1.1747  2.6456  1.5774
 4145SOL    HW224072   2.112   1.370   2.750 -0.7930 -1.6257  1.0244
 4146SOL     OW24073   2.352   2.042   1.932  0.4148 -0.3185  0.2711
 4146SOL    HW124074   2.276   1.985   1.920  0.6894 -0.5298 -0.4479
 4146SOL    HW224075   2.314   2.128   1.917  0.3279 -0.4167 -0.0670
 4147SOL     OW24076   0.626   2.509   2.704 -0.5693 -0.5745 -0.6351
 4147SOL    HW124077   0.584   2.466   2.778 -0.5735  3.2247  1.5405
 4147SOL    HW224078   0.687   2.442   2.671  3.2767  1.6946  1.9279
 4148SOL     OW24079   2.899   2.142  11.889 -0.3388  0.1277 -0.1777
 4148SOL    HW124080   2.877   2.152  11.982  0.8362 -1.9208  0.3329
 4148SOL    HW224081   2.813   2.139  11.847  0.3881 -1.0901 -1.5956
 4149SOL     OW24082   3.701   4.163  17.674 -0.0706 -0.3341 -0.1753
 4149SOL    HW124083   3.641   4.106  17.721  3.2645 -4.1354 -0.5454
 4149SOL    HW224084   3.631   4.195  17.616  0.0529 -1.8888 -1.1964
 4150SOL     OW24085   4.151   1.327   9.103  0.0136 -0.5536 -0.5547
 4150SOL    HW124086   4.210   1.363   9.036 -1.1828 -0.4856 -1.5574
 4150SOL    HW224087   4.130   1.243   9.064  0.8169 -0.5506 -0.9984
 4151SOL     OW24088   4.313   0.731  13.046 -0.4154  0.4246 -0.5711
 4151SOL    HW124089   4.310   0.692  13.133 -1.3115  2.3157  0.2465
 4151SOL    HW224090   4.397   0.776  13.052 -0.7554  0.9213  0.4642
 4152SOL     OW24091   3.353   1.529   5.491 -0.4761 -0.4046  0.3197
 4152SOL    HW124092   3.415   1.556   5.424 -0.3041 -1.6046 -0.0034
 4152SOL    HW224093   3.340   1.609   5.541  2.2027  0.0939  0.1915
 4153SOL     OW24094   1.889   3.901   5.691 -0.1180  0.6579 -0.0404
 4153SOL    HW124095   1.913   3.904   5.784  0.0806  2.2643 -0.1447
 4153SOL    HW224096   1.800   3.867   5.700  0.1154  0.6135  2.1733
 4154SOL     OW24097   4.191   1.953   6.750  0.1820 -0.0672 -0.1696
 4154SOL    HW124098   4.136   2.007   6.694  0.7419  0.0123 -0.6419
 4154SOL    HW224099   4.167   1.992   6.834 -1.9506 -0.3611 -0.6420
 4155SOL     OW24100   1.334   4.195   9.474  0.7197 -0.2733  0.2754
 4155SOL    HW124101   1.425   4.224   9.464 -0.0355  1.4012 -1.8080
 4155SOL    HW224102   1.289   4.279   9.479 -0.8782 -0.9736 -2.3342
 4156SOL     OW24103   3.039   2.305   4.907  0.5820 -0.2960  0.2232
 4156SOL    HW124104   3.094   2.324   4.831  0.7657  0.6078  0.5765
 4156SOL    HW224105   3.086   2.351   4.977 -1.0089  1.2376  0.2778
 4157SOL     OW24106   0.972   2.263   8.643 -0.1648 -0.0250 -0.5553
 4157SOL    HW124107   0.993   2.326   8.573  0.4668  1.7120  1.2189
 4157SOL    HW224108   0.947   2.321   8.714 -0.0256 -2.7243  1.6668
 4158SOL     OW24109   2.156   1.438  15.053  0.3183  0.4087  0.0937
 4158SOL    HW124110   2.075   1.387  15.057  0.2773  0.3451 -1.6184
 4158SOL    HW224111   2.206   1.362  15.083  0.3454 -0.2749 -1.6838
 4159SOL     OW24112   0.676   3.730   8.908  0.1028  0.6684  0.1537
 4159SOL    HW124113   0.620   3.775   8.971 -1.6138 -1.8477  0.3969
 4159SOL    HW224114   0.745   3.707   8.971  0.4570 -0.6053 -0.7019
 4160SOL     OW24115   1.526   1.837   9.783 -0.6793  0.5490 -0.5849
 4160SOL    HW124116   1.512   1.859   9.691 -0.4374  1.9350 -0.2950
 4160SOL    HW224117   1.444   1.850   9.831  0.3652 -1.4769  1.7980
 4161SOL     OW24118   3.223   0.447  12.575 -0.0652 -0.2821  0.4496
 4161SOL    HW124119   3.137   0.464  12.613 -1.0018 -0.6536 -1.4586
 4161SOL    HW224120   3.276   0.518  12.610  2.6722 -2.1409  0.0278
 4162SOL     OW24121   3.090   1.096   6.675 -0.0311 -0.2097 -0.2416
 4162SOL    HW124122   3.177   1.077   6.711 -0.2625 -0.7462  0.0401
 4162SOL    HW224123   3.096   1.190   6.660  2.1979  0.0139  2.0914
 4163SOL     OW24124   0.392   2.622   8.792 -0.4780 -0.3386 -0.0572
 4163SOL    HW124125   0.406   2.620   8.887  0.8416  0.3061 -0.2447
 4163SOL    HW224126   0.312   2.671   8.774  0.9724  2.0510  0.0055
 4164SOL     OW24127   2.030   0.580  12.863 -0.0729 -0.9229 -0.5635
 4164SOL    HW124128   2.081   0.499  12.861  0.8737 -0.2919 -1.8358
 4164SOL    HW224129   2.025   0.576  12.959 -0.1399  1.6415 -0.4672
 4165SOL     OW24130   3.527   2.249  16.767  0.3634 -0.2609  0.0840
 4165SOL    HW124131   3.600   2.312  16.771  1.4403 -1.4245 -1.1623
 4165SOL    HW224132   3.553   2.203  16.688  0.3363 -0.7298  0.3491
 4166SOL     OW24133   1.184   0.419   4.686  0.2042 -0.3580 -0.3701
 4166SOL    HW124134   1.147   0.506   4.693  0.5777 -0.1118 -1.5375
 4166SOL    HW224135   1.111   0.366   4.719  0.1224  0.1846  0.3274
 4167SOL     OW24136   3.160   3.454   1.811 -0.0082  0.3093 -0.8065
 4167SOL    HW124137   3.206   3.463   1.727  1.2543  0.9527 -0.0535
 4167SOL    HW224138   3.135   3.542   1.840 -1.8699  0.0396 -1.6040
 4168SOL     OW24139   0.735   2.279   9.679  0.7668  0.0363 -0.2567
 4168SOL    HW124140   0.647   2.258   9.712  0.4470  1.2338 -0.3377
 4168SOL    HW224141   0.787   2.270   9.759 -0.3951  0.2210  0.5231
 4169SOL     OW24142   0.076   3.116   8.277  0.0255  0.1196  0.2473
 4169SOL    HW124143   0.036   3.114   8.364  0.3254  1.1800  0.4062
 4169SOL    HW224144   0.029   3.049   8.227 -0.0827 -0.5832  1.2974
 4170SOL     OW24145   2.445   1.417   5.496 -0.5014  0.1554  0.3641
 4170SOL    HW124146   2.371   1.433   5.555  1.1927 -1.7952  2.9590
 4170SOL    HW224147   2.415   1.473   5.424 -0.0249 -0.5143 -0.3484
 4171SOL     OW24148   3.293   4.354   7.699  0.3847  0.1725  0.2292
 4171SOL    HW124149   3.372   4.334   7.648  1.1816  2.7056  0.4641
 4171SOL    HW224150   3.331   4.394   7.777  0.9835  3.5165 -1.7814
 4172SOL     OW24151   3.328   1.491   4.522 -0.3986 -0.2278  0.3615
 4172SOL    HW124152   3.238   1.519   4.539 -0.0198  0.9189  0.4209
 4172SOL    HW224153   3.318   1.396   4.525 -0.9151 -0.2395 -1.5613
 4173SOL     OW24154   3.027   3.033   6.584 -0.1430 -0.0479  0.1570
 4173SOL    HW124155   3.095   3.065   6.524 -0.1802  0.0510  0.1679
 4173SOL    HW224156   3.031   3.090   6.660 -2.9885  1.4006 -0.7794
 4174SOL     OW24157   2.649   2.369   5.396 -0.2049  0.1484 -0.0411
 4174SOL    HW124158   2.717   2.381   5.329 -1.8818 -2.1106 -2.1208
 4174SOL    HW224159   2.589   2.441   5.377 -0.5581 -0.4343 -1.1039
 4175SOL     OW24160   3.590   1.895   4.358  0.1016 -0.1585  0.0740
 4175SOL    HW124161   3.592   1.806   4.323 -2.5899 -0.1047 -0.2326
 4175SOL    HW224162   3.628   1.876   4.443  0.5911  1.4032  0.2067
 4176SOL     OW24163   1.397   2.134   7.729 -0.1062 -0.5959  0.0809
 4176SOL    HW124164   1.437   2.055   7.765  2.9793  0.2775 -1.4205
 4176SOL    HW224165   1.435   2.137   7.641 -0.3809  3.1451  0.0852
 4177SOL     OW24166   1.209   2.239  16.653  0.1234 -0.3134 -0.3143
 4177SOL    HW124167   1.297   2.262  16.624 -0.2210 -0.4283 -1.4533
 4177SOL    HW224168   1.204   2.150  16.619 -1.2494 -1.5071  3.1030
 4178SOL     OW24169   3.911   2.489   9.048 -0.7724 -0.1332 -0.3087
 4178SOL    HW124170   3.830   2.484   9.098  1.5950 -1.5470  3.3179
 4178SOL    HW224171   3.977   2.446   9.102 -2.0846  0.6436  1.9225
 4179SOL     OW24172   3.696   0.010  10.504 -0.2899  0.7246  0.5051
 4179SOL    HW124173   3.742   0.055  10.433 -0.7874  0.6099  0.1116
 4179SOL    HW224174   3.771   0.017  10.563  0.4229 -0.0499 -0.3124
 4180SOL     OW24175   0.828   1.150   2.103  0.1403 -0.5684  0.0550
 4180SOL    HW124176   0.798   1.239   2.081  0.2728 -0.6089 -0.2816
 4180SOL    HW224177   0.869   1.131   2.019 -2.0538 -0.3041 -1.0841
 4181SOL     OW24178   3.104   1.181   2.121  0.0324  0.2499  0.3713
 4181SOL    HW124179   3.080   1.273   2.115 -1.7059 -0.1611  0.9857
 4181SOL    HW224180   3.179   1.174   2.180  0.7450 -0.9505 -0.6887
 4182SOL     OW24181   3.137   2.470   1.334 -0.2735 -0.0294 -0.2629
 4182SOL    HW124182   3.110   2.398   1.391 -1.8669  1.3333  0.7232
 4182SOL    HW224183   3.087   2.541   1.375  1.0618  0.2790  0.8369
 4183SOL     OW24184   0.189   3.538  17.452 -0.2141 -0.0385  0.2936
 4183SOL    HW124185   0.156   3.627  17.440 -0.1914 -0.1797 -0.7950
 4183SOL    HW224186   0.229   3.520  17.367 -1.3903  1.2880 -0.5243
 4184SOL     OW24187   2.341   4.692  11.525 -0.0187  0.4867  0.3275
 4184SOL    HW124188   2.263   0.010  11.531 -0.7970 -0.5766 -0.0838
 4184SOL    HW224189   2.410   0.020  11.510  0.4928 -0.0355  0.4052
 4185SOL     OW24190   2.086   1.447   8.951  0.0175  0.2404  0.4215
 4185SOL    HW124191   2.172   1.413   8.927  0.3926  1.1329  0.4963
 4185SOL    HW224192   2.028   1.395   8.896  0.6499 -0.0401  0.0132
 4186SOL     OW24193   1.402   4.581   5.388 -0.1283  0.8911  0.2606
 4186SOL    HW124194   1.321   4.534   5.371  1.4909 -1.4788 -0.8862
 4186SOL    HW224195   1.468   4.531   5.340 -0.1137  0.8082  0.3659
 4187SOL     OW24196   3.075   4.452   1.638 -0.0058  0.5041 -0.5225
 4187SOL    HW124197   3.049   4.455   1.730 -1.2533 -1.6078 -0.8310
 4187SOL    HW224198   2.995   4.492   1.605  0.0788  0.7137 -0.4789
 4188SOL     OW24199   0.512   3.053  15.644  0.1619 -0.1591  0.7504
 4188SOL    HW124200   0.527   3.047  15.739 -2.7106  0.2800  1.2134
 4188SOL    HW224201   0.447   2.988  15.618 -0.8831  0.4158  1.9319
 4189SOL     OW24202   1.159   4.173   2.452 -0.2400  0.5277  0.5627
 4189SOL    HW124203   1.210   4.169   2.370  0.1750  0.4524  0.8244
 4189SOL    HW224204   1.207   4.245   2.492 -1.1391  2.3076 -1.5272
 4190SOL     OW24205   1.799   3.993   8.647 -0.1741  0.5436 -0.0864
 4190SOL    HW124206   1.813   4.001   8.741 -2.2832  0.2212  0.2716
 4190SOL    HW224207   1.891   3.974   8.633 -0.5132 -1.1235 -0.1183
 4191SOL     OW24208   0.519   0.488  12.981  0.0128 -0.1107  0.3450
 4191SOL    HW124209   0.599   0.510  12.933  0.6146 -2.4163  0.3050
 4191SOL    HW224210   0.554   0.472  13.069 -0.8714  0.3702  0.7778
 4192SOL     OW24211   2.395   2.426   8.468  0.0670 -0.4381 -0.0371
 4192SOL    HW124212   2.349   2.364   8.526  1.0674  0.3855  1.6169
 4192SOL    HW224213   2.454   2.456   8.536  0.5808  0.9095 -1.0848
 4193SOL     OW24214   4.162   2.990  13.815 -0.9001  0.4123 -0.2038
 4193SOL    HW124215   4.174   3.078  13.779  1.8790 -0.2067 -0.8101
 4193SOL    HW224216   4.253   2.960  13.825 -0.8213  1.0173  0.9175
 4194SOL     OW24217   1.629   2.290  14.561  0.1739  0.3638 -0.2228
 4194SOL    HW124218   1.667   2.265  14.646  0.4351 -0.2281 -0.5153
 4194SOL    HW224219   1.689   2.361  14.538 -0.4995  0.0935 -2.7298
 4195SOL     OW24220   0.586   2.786   3.030  0.0206  0.3388 -0.1739
 4195SOL    HW124221   0.680   2.778   3.042  0.1240 -0.5807 -1.6112
 4195SOL    HW224222   0.588   2.753   2.940  0.1576  0.5678 -0.2552
 4196SOL     OW24223   0.665   2.279  12.966 -0.1421  0.1624  0.5319
 4196SOL    HW124224   0.747   2.235  12.991  0.1788 -0.1063 -0.9739
 4196SOL    HW224225   0.626   2.259  13.052 -1.0603 -2.2264 -0.4209
 4197SOL     OW24226   2.524   4.184  11.799 -0.2009  0.0603 -0.6149
 4197SOL    HW124227   2.603   4.199  11.746  1.1722 -0.2896  1.3181
 4197SOL    HW224228   2.449   4.190  11.740 -1.4056  1.7692  1.0946
 4198SOL     OW24229   1.455   2.657   2.570 -0.0790  0.2761 -0.1978
 4198SOL    HW124230   1.519   2.654   2.642  0.4935  2.2165 -0.6224
 4198SOL    HW224231   1.388   2.592   2.593  0.5783 -0.9482 -1.7848
 4199SOL     OW24232   3.515   3.570   6.918 -0.2846  0.1761  0.2698
 4199SOL    HW124233   3.490   3.624   6.993 -1.7005  0.6795 -0.5564
 4199SOL    HW224234   3.488   3.631   6.849 -1.6429  0.0117  0.6404
 4200SOL     OW24235   3.555   0.116  17.267  0.1373  0.1322  0.5692
 4200SOL    HW124236   3.557   0.162  17.182  1.6377 -1.7302 -0.3951
 4200SOL    HW224237   3.530   0.189  17.323 -0.1241 -0.0432  0.6782
 4201SOL     OW24238   3.537   1.253   8.683 -0.0333 -0.0106 -0.0857
 4201SOL    HW124239   3.526   1.189   8.753 -0.2967  1.6688  1.4253
 4201SOL    HW224240   3.471   1.231   8.617 -0.4160  1.5137 -0.2180
 4202SOL     OW24241   4.729   3.337  15.017 -0.0447  0.2763 -0.2584
 4202SOL    HW124242   0.031   3.264  14.969  1.4008  1.0143 -0.2176
 4202SOL    HW224243   0.069   3.393  15.022 -0.5507  0.7711  2.0625
 4203SOL     OW24244   1.598   2.157   2.331 -0.1813 -0.0276  0.1611
 4203SOL    HW124245   1.536   2.230   2.328  1.3659  1.2808 -0.0889
 4203SOL    HW224246   1.568   2.104   2.257 -0.3756 -1.6141  1.3895
 4204SOL     OW24247   1.617   1.379   9.768 -0.3063 -0.2609  0.3626
 4204SOL    HW124248   1.631   1.462   9.814 -1.3710  1.2272 -2.0006
 4204SOL    HW224249   1.586   1.420   9.687  1.8714 -0.0582 -0.3586
 4205SOL     OW24250   0.051   0.738  13.299 -0.4392 -0.1836 -0.3078
 4205SOL    HW124251   0.082   0.687  13.225 -0.3048 -1.4585  0.6196
 4205SOL    HW224252   0.129   0.758  13.350 -0.3444 -1.9877  0.2461
 4206SOL     OW24253   3.074   0.439   6.013 -0.1912  0.9001  0.3246
 4206SOL    HW124254   3.057   0.346   5.998  2.3169  0.4178  0.5112
 4206SOL    HW224255   2.989   0.475   5.989 -0.1433 -0.0533 -1.2661
 4207SOL     OW24256   0.355   1.237   6.436  0.2115 -0.2596  0.6206
 4207SOL    HW124257   0.342   1.171   6.504 -0.3196 -0.6426  0.1458
 4207SOL    HW224258   0.371   1.171   6.368 -2.5719  0.9458 -1.2010
 4208SOL     OW24259   1.715   2.561   2.277 -0.0699 -0.1177  0.0206
 4208SOL    HW124260   1.778   2.605   2.220 -0.7113  0.1778 -0.4615
 4208SOL    HW224261   1.657   2.635   2.293  0.3519  0.5794 -1.6707
 4209SOL     OW24262   0.438   3.012   3.506  0.0568  0.2845  0.8133
 4209SOL    HW124263   0.472   2.993   3.419 -0.9041  0.4438  0.3934
 4209SOL    HW224264   0.356   3.058   3.485 -0.3325 -0.0232  1.6714
 4210SOL     OW24265   4.236   0.200   2.575 -0.1022  0.1619 -0.1048
 4210SOL    HW124266   4.235   0.284   2.621  2.0749  1.1331 -1.8260
 4210SOL    HW224267   4.328   0.198   2.552  0.0463 -2.0779  0.6753
 4211SOL     OW24268   1.578   1.827   4.074 -0.0801 -0.2093  0.5801
 4211SOL    HW124269   1.595   1.749   4.022  0.5393 -0.0372  0.5316
 4211SOL    HW224270   1.545   1.880   4.001  0.9945 -1.3923 -0.7635
 4212SOL     OW24271   1.556   3.690   1.716  0.5052 -0.4716  0.0136
 4212SOL    HW124272   1.518   3.762   1.666 -0.1112 -0.7950  0.0173
 4212SOL    HW224273   1.542   3.616   1.657  2.7639 -0.3482 -0.6866
 4213SOL     OW24274   4.329   1.980   2.937  0.2315 -0.0484 -0.1368
 4213SOL    HW124275   4.309   2.073   2.945 -1.3046 -0.4228  0.5601
 4213SOL    HW224276   4.366   1.970   3.025  1.6282 -0.2410 -0.7596
 4214SOL     OW24277   0.462   2.220  17.556 -0.5397 -0.3674  0.3906
 4214SOL    HW124278   0.379   2.189  17.591  0.1119 -3.3537 -0.7641
 4214SOL    HW224279   0.520   2.199  17.629 -1.6301 -1.7747  0.8652
 4215SOL     OW24280   2.969   1.930   8.764  0.1012  0.5028  0.5022
 4215SOL    HW124281   3.006   2.018   8.771  2.0528 -0.3142  0.2804
 4215SOL    HW224282   2.940   1.908   8.852  0.4810  0.3251  0.5801
 4216SOL     OW24283   3.511   4.551  11.383 -0.2679 -0.2426 -0.7350
 4216SOL    HW124284   3.535   4.605  11.308 -0.0747  0.5457 -0.1014
 4216SOL    HW224285   3.521   4.462  11.349  0.9363 -1.3766  2.5285
 4217SOL     OW24286   4.285   4.383  15.296  0.3588  0.2692 -0.7275
 4217SOL    HW124287   4.266   4.292  15.320  0.7070  0.2501 -0.5122
 4217SOL    HW224288   4.214   4.394  15.234 -0.2141  1.6146  0.1759
 4218SOL     OW24289   2.914   0.757   3.918 -0.5692 -0.0771  0.4208
 4218SOL    HW124290   2.873   0.796   3.840 -0.0870  1.4842  0.9450
 4218SOL    HW224291   2.869   0.800   3.990  1.8931  2.1577  0.6218
 4219SOL     OW24292   2.317   0.898   3.031 -0.1381  0.6507  0.1327
 4219SOL    HW124293   2.292   0.831   2.967 -0.6872  0.7106  0.2856
 4219SOL    HW224294   2.391   0.934   2.982  1.6546 -1.3614  1.3356
 4220SOL     OW24295   0.828   3.343  11.154 -0.2101 -0.1527 -0.1145
 4220SOL    HW124296   0.914   3.334  11.194 -0.0536 -0.5112 -0.5331
 4220SOL    HW224297   0.834   3.432  11.118 -1.5278  0.1108  0.3363
 4221SOL     OW24298   2.386   2.139   1.543 -0.0289 -0.0397 -0.0267
 4221SOL    HW124299   2.406   2.191   1.466  0.9725  0.0094  0.2582
 4221SOL    HW224300   2.321   2.192   1.589  1.3982  3.1449 -1.6943
 4222SOL     OW24301   2.724   4.259   8.898 -0.2951  0.3614 -0.2536
 4222SOL    HW124302   2.655   4.193   8.907 -0.3924  0.2913 -1.5399
 4222SOL    HW224303   2.671   4.327   8.857 -0.1123 -0.6300 -2.1188
 4223SOL     OW24304   3.883   2.758   6.515  0.2797 -0.1472  0.3924
 4223SOL    HW124305   3.857   2.841   6.553 -4.4017 -2.0441  1.3743
 4223SOL    HW224306   3.792   2.728   6.509  0.1693  0.4404 -0.8001
 4224SOL     OW24307   2.168   0.186   9.230 -0.4616  0.6339  0.0422
 4224SOL    HW124308   2.131   0.256   9.284 -0.4246  1.0339 -0.4467
 4224SOL    HW224309   2.255   0.188   9.270 -1.3003 -2.2405  1.9714
 4225SOL     OW24310   0.489   4.131   6.120  0.4341 -0.4189  0.1200
 4225SOL    HW124311   0.503   4.139   6.025  0.4540 -3.4201 -0.1133
 4225SOL    HW224312   0.551   4.063   6.146  1.7398  0.6349 -0.2023
 4226SOL     OW24313   4.075   1.685   2.949  0.4655 -0.2480 -0.1153
 4226SOL    HW124314   4.141   1.699   2.880  1.2019 -0.4061  0.5666
 4226SOL    HW224315   4.126   1.697   3.028  2.8820 -3.7390 -1.1604
 4227SOL     OW24316   1.340   4.231   4.225  0.3903 -0.0676  0.4259
 4227SOL    HW124317   1.417   4.280   4.196  0.3695  1.2585  2.5608
 4227SOL    HW224318   1.378   4.164   4.282  1.2327  0.4648  0.4829
 4228SOL     OW24319   0.016   3.560   1.890 -0.4526 -0.2038 -0.7171
 4228SOL    HW124320   4.719   3.642   1.855  1.3516  0.7112 -0.3527
 4228SOL    HW224321   0.029   3.585   1.981 -1.2083 -0.1823 -0.6120
 4229SOL     OW24322   0.051   1.384  10.920  0.1655 -0.0510 -0.3796
 4229SOL    HW124323   4.719   1.442  10.950  0.5444  0.6797 -0.9100
 4229SOL    HW224324   0.047   1.321  10.992  1.2731  1.0095  0.6195
 4230SOL     OW24325   3.818   0.033   3.363  0.3907 -0.1099 -0.4477
 4230SOL    HW124326   3.750   0.002   3.303 -0.3898 -0.5489  0.6529
 4230SOL    HW224327   3.887   4.707   3.343 -1.3210 -0.8939 -3.8909
 4231SOL     OW24328   2.803   2.986  11.800  0.1369 -0.3614  0.3640
 4231SOL    HW124329   2.876   3.003  11.740 -0.8551  1.1838 -0.4060
 4231SOL    HW224330   2.783   2.893  11.786 -2.9394  0.2028  0.9962
 4232SOL     OW24331   3.261   0.467  16.851 -0.2203 -0.0909  0.3700
 4232SOL    HW124332   3.179   0.503  16.817 -0.3732 -0.3397  0.4779
 4232SOL    HW224333   3.287   0.537  16.911  2.8977  0.7290 -1.9437
 4233SOL     OW24334   0.127   2.129   5.334  0.3835  0.5665 -0.1089
 4233SOL    HW124335   0.150   2.210   5.380  0.5214 -0.3283  1.3848
 4233SOL    HW224336   0.032   2.138   5.319  0.2104 -1.8893 -0.4398
 4234SOL     OW24337   0.681   2.244   0.886 -0.1792  0.0872  0.0009
 4234SOL    HW124338   0.774   2.234   0.907  0.0736 -0.2576 -1.3207
 4234SOL    HW224339   0.655   2.263   0.977  0.6692  1.5039 -0.0405
 4235SOL     OW24340   1.919   3.895  16.974 -0.2718  0.2665  0.6086
 4235SOL    HW124341   1.925   3.957  16.901  2.4371 -2.4262 -1.4935
 4235SOL    HW224342   1.838   3.935  17.006  0.4583  1.2565  1.2047
 4236SOL     OW24343   0.899   0.352   3.420 -0.1514  0.3090 -0.4966
 4236SOL    HW124344   0.837   0.348   3.347 -0.9468 -0.5966  0.2249
 4236SOL    HW224345   0.974   0.388   3.372 -1.3741  2.6953 -0.5818
 4237SOL     OW24346   2.095   0.214   7.621  0.4180 -0.0588 -0.2373
 4237SOL    HW124347   2.119   0.221   7.529  1.2449 -0.8754 -0.0833
 4237SOL    HW224348   2.088   0.121   7.643 -0.3382 -0.1672 -0.9630
 4238SOL     OW24349   0.635   4.109   9.041 -0.3750  0.4119 -0.3078
 4238SOL    HW124350   0.659   4.034   9.095 -0.4232  1.0129  0.5412
 4238SOL    HW224351   0.673   4.080   8.958 -0.2642 -0.8831  0.2005
 4239SOL     OW24352   3.197   1.476   5.994 -0.1106 -0.5290 -0.4317
 4239SOL    HW124353   3.102   1.488   5.991 -0.1267 -0.9650 -1.8092
 4239SOL    HW224354   3.231   1.559   5.960 -0.2668 -0.0786  0.5204
 4240SOL     OW24355   1.053   4.414   4.456 -0.1603 -0.0088 -0.1092
 4240SOL    HW124356   0.981   4.351   4.446  0.6455 -0.7963 -0.9295
 4240SOL    HW224357   1.027   4.460   4.536 -1.8860 -2.1795  0.5689
 4241SOL     OW24358   2.613   0.077   5.572 -0.0512  0.1277 -0.0747
 4241SOL    HW124359   2.588   0.166   5.549  1.7763  0.6593 -0.0167
 4241SOL    HW224360   2.543   0.028   5.530 -0.9961  3.4850 -2.3970
 4242SOL     OW24361   0.796   0.798   8.547  0.2264 -0.1227 -0.5011
 4242SOL    HW124362   0.797   0.704   8.531 -0.0076 -0.1360 -0.4280
 4242SOL    HW224363   0.786   0.793   8.642  2.6249 -0.5084 -0.2596
 4243SOL     OW24364   1.012   0.148  15.470  0.5185 -0.1705  0.7350
 4243SOL    HW124365   0.950   0.142  15.543  3.6132  1.0625  3.4881
 4243SOL    HW224366   1.092   0.145  15.523  0.8106  4.1846  0.5406
 4244SOL     OW24367   2.603   0.951  14.977 -0.1816  0.2024 -0.2715
 4244SOL    HW124368   2.594   0.971  15.070 -0.6740 -2.8135  0.3170
 4244SOL    HW224369   2.614   1.041  14.946 -0.8042  0.9124  1.5585
 4245SOL     OW24370   4.255   1.701   8.932 -0.2769  0.3535 -0.4254
 4245SOL    HW124371   4.197   1.633   8.897 -0.9078  0.8453 -0.3331
 4245SOL    HW224372   4.202   1.741   9.001 -0.8399 -0.4494 -0.3885
 4246SOL     OW24373   1.828   1.599   3.790 -0.1209 -0.2594 -0.5956
 4246SOL    HW124374   1.904   1.645   3.755 -0.7091  2.0712  1.2203
 4246SOL    HW224375   1.766   1.605   3.716 -0.8020 -1.2479 -0.1049
 4247SOL     OW24376   0.175   0.373   4.486 -0.7246 -0.3788  0.4490
 4247SOL    HW124377   0.236   0.335   4.422 -2.8263  2.3284 -3.1621
 4247SOL    HW224378   0.216   0.355   4.571  2.7375 -1.9765 -1.5429
 4248SOL     OW24379   4.228   2.682   0.713 -0.5009  0.7659 -0.4282
 4248SOL    HW124380   4.250   2.663   0.622  0.2139  1.5668 -0.4182
 4248SOL    HW224381   4.172   2.609   0.739 -0.9295  0.9470 -0.8482
 4249SOL     OW24382   3.040   2.313   1.542  0.0677 -0.3010  0.0634
 4249SOL    HW124383   3.034   2.363   1.623 -0.7974 -1.3643  0.6512
 4249SOL    HW224384   2.955   2.336   1.504  0.8457  3.2457  0.4249
 4250SOL     OW24385   3.584   2.550   8.799 -0.4935  0.1948 -0.2757
 4250SOL    HW124386   3.529   2.557   8.877  0.5777 -1.2799  0.6110
 4250SOL    HW224387   3.627   2.635   8.802  0.3174 -0.2664  1.7155
 4251SOL     OW24388   4.194   4.380   2.255 -0.0820 -0.3115  0.6443
 4251SOL    HW124389   4.100   4.394   2.238  0.2075  1.1325  0.2414
 4251SOL    HW224390   4.219   4.391   2.164 -1.8772  0.1274  0.1909
 4252SOL     OW24391   1.723   4.726   8.274  0.6734  0.9032  0.2938
 4252SOL    HW124392   1.796   0.021   8.222  0.9705 -0.2529 -0.0072
 4252SOL    HW224393   1.654   0.054   8.259  1.4861  1.5579 -0.5528
 4253SOL     OW24394   2.215   2.628  10.632  0.2643  0.5839  0.1980
 4253SOL    HW124395   2.311   2.626  10.638  0.3853 -0.1696 -2.0731
 4253SOL    HW224396   2.198   2.719  10.656  1.7820  1.2001 -1.0682
 4254SOL     OW24397   0.935   3.901   1.364 -0.0672 -0.0965 -0.0313
 4254SOL    HW124398   1.022   3.905   1.326  0.5822 -0.9353  1.3809
 4254SOL    HW224399   0.895   3.826   1.318  0.9365 -0.2302 -0.6863
 4255SOL     OW24400   3.746   1.071  12.112 -0.3108  0.0833 -0.2745
 4255SOL    HW124401   3.675   1.025  12.157  1.1884 -1.9267  0.0406
 4255SOL    HW224402   3.774   1.133  12.179  3.4756 -1.5421 -0.3164
 4256SOL     OW24403   2.448   0.169   3.938 -0.2778  0.0292  0.2469
 4256SOL    HW124404   2.477   0.223   3.865  3.4168 -1.4493  0.6327
 4256SOL    HW224405   2.357   0.198   3.946  0.6945  2.8108  1.2866
 4257SOL     OW24406   4.657   1.365   7.065 -0.2622  0.4638 -0.4700
 4257SOL    HW124407   0.012   1.384   7.050 -0.0105 -1.8672 -1.8386
 4257SOL    HW224408   4.655   1.367   7.161  3.7185 -1.9525 -0.3413
 4258SOL     OW24409   2.877   2.481   9.748 -0.1097  0.0716  0.4222
 4258SOL    HW124410   2.805   2.419   9.735  0.2716 -0.3131  0.1567
 4258SOL    HW224411   2.821   2.555   9.771 -0.1430  0.1824 -0.0039
 4259SOL     OW24412   0.333   2.556   4.882 -0.3188 -0.7741  0.5751
 4259SOL    HW124413   0.363   2.524   4.797 -1.2450 -0.0393 -0.0219
 4259SOL    HW224414   0.290   2.633   4.846  0.5180 -2.2471 -3.5207
 4260SOL     OW24415   1.824   3.319   5.747  0.3489 -0.3776 -0.2586
 4260SOL    HW124416   1.775   3.402   5.746  2.2015  0.7429  1.2909
 4260SOL    HW224417   1.800   3.285   5.661 -1.7984 -0.7294  0.4766
 4261SOL     OW24418   1.244   0.840   4.293 -0.5567  0.3224  0.1286
 4261SOL    HW124419   1.271   0.758   4.251  0.5015  0.3073  0.8340
 4261SOL    HW224420   1.268   0.818   4.383  1.7092 -1.8119 -0.9616
 4262SOL     OW24421   2.674   0.912  13.379 -0.2441 -0.2863  0.0026
 4262SOL    HW124422   2.698   0.824  13.350  0.8594 -0.1392  0.4613
 4262SOL    HW224423   2.749   0.917  13.438 -1.5988 -0.2830  1.7168
 4263SOL     OW24424   4.651   3.209   5.287 -0.5372 -0.5474 -0.0636
 4263SOL    HW124425   4.611   3.139   5.340  0.4502  0.2125  1.6915
 4263SOL    HW224426   4.679   3.277   5.348 -3.1509 -0.1822  0.7665
 4264SOL     OW24427   2.990   0.580  12.803 -0.1302 -0.6251 -0.3443
 4264SOL    HW124428   2.897   0.563  12.785  0.8968 -3.5858 -2.9339
 4264SOL    HW224429   2.976   0.619  12.889 -0.1618  0.4180 -0.8226
 4265SOL     OW24430   3.594   4.012   0.176  0.1134 -0.0128  0.8935
 4265SOL    HW124431   3.619   3.945   0.240  2.0294  0.6493  0.8278
 4265SOL    HW224432   3.505   4.035   0.205 -1.3834 -2.8714 -1.3228
 4266SOL     OW24433   0.270   1.888   3.118  1.2732 -0.3294  0.3646
 4266SOL    HW124434   0.315   1.914   3.038  2.0584  1.4169  1.3881
 4266SOL    HW224435   0.256   1.969   3.168  1.3007  1.3126 -2.3115
 4267SOL     OW24436   1.072   3.083   9.605 -0.3489 -0.8254  0.1214
 4267SOL    HW124437   1.139   3.020   9.631 -0.7027 -0.8431  1.0068
 4267SOL    HW224438   1.059   3.061   9.513 -2.8242 -0.4550  0.3782
 4268SOL     OW24439   0.500   2.172  16.842  0.4393 -0.6421 -0.5745
 4268SOL    HW124440   0.464   2.106  16.782 -2.4806 -1.2359  1.8865
 4268SOL    HW224441   0.591   2.142  16.842  0.4000 -0.7580  0.0212
 4269SOL     OW24442   1.522   4.023   8.677  0.2731 -0.3817  0.3177
 4269SOL    HW124443   1.482   3.971   8.607 -0.2696  0.9690 -0.3557
 4269SOL    HW224444   1.616   4.002   8.679  0.3098 -0.1922  0.6811
 4270SOL     OW24445   2.461   2.021  16.682  0.4163  0.0833  0.0649
 4270SOL    HW124446   2.457   1.925  16.683  2.6338 -0.0244 -1.2036
 4270SOL    HW224447   2.482   2.032  16.589  0.1702 -1.6201 -0.2061
 4271SOL     OW24448   1.835   0.320  14.163  0.0254 -0.0402  0.2613
 4271SOL    HW124449   1.788   0.378  14.222 -0.6559 -1.6552  1.3236
 4271SOL    HW224450   1.872   0.383  14.102 -1.3423  0.9812  0.4997
 4272SOL     OW24451   0.448   3.270  15.919 -0.1287  0.2976 -0.1771
 4272SOL    HW124452   0.432   3.294  16.010  1.7594  0.4478  0.1263
 4272SOL    HW224453   0.544   3.264  15.926 -0.0656  0.4623 -0.9317
 4273SOL     OW24454   4.272   0.386  11.692  0.5040 -0.0905  0.2635
 4273SOL    HW124455   4.269   0.292  11.713 -0.8792 -0.5808 -2.1111
 4273SOL    HW224456   4.273   0.370  11.598  1.8043 -1.8706  0.5641
 4274SOL     OW24457   0.958   2.260  16.691 -0.4530  0.2845 -0.4917
 4274SOL    HW124458   0.957   2.337  16.634 -1.7260  1.6977  1.4170
 4274SOL    HW224459   1.054   2.255  16.692 -0.3632  2.0928  0.7466
 4275SOL     OW24460   3.344   4.067  17.669  0.0116 -0.0451 -0.1298
 4275SOL    HW124461   3.322   4.051  17.577  1.8850 -0.2189 -0.5464
 4275SOL    HW224462   3.266   4.021  17.701 -0.3030 -0.6777 -1.7888
 4276SOL     OW24463   1.585   0.644   2.753  0.0146  0.2118 -0.3736
 4276SOL    HW124464   1.573   0.695   2.833 -1.7474  0.9800 -1.1409
 4276SOL    HW224465   1.627   0.699   2.687  0.7294 -0.0010 -0.1039
 4277SOL     OW24466   4.643   2.279  16.638  0.7088  0.0302 -0.4627
 4277SOL    HW124467   4.663   2.195  16.596 -0.6733 -0.5011 -0.0448
 4277SOL    HW224468   4.547   2.283  16.637  0.6463 -1.1828  1.0101
 4278SOL     OW24469   2.846   4.437   9.769 -0.1208 -0.0243  0.2025
 4278SOL    HW124470   2.835   4.359   9.823  0.9534  0.2200  0.7834
 4278SOL    HW224471   2.760   4.475   9.785  0.6429  1.8814 -0.2230
 4279SOL     OW24472   3.081   0.792  12.628 -0.2089 -0.8203  0.6153
 4279SOL    HW124473   3.039   0.718  12.672 -0.3103 -1.6334 -0.8169
 4279SOL    HW224474   3.171   0.761  12.617 -0.5438 -1.8495  0.7105
 4280SOL     OW24475   4.450   1.935   3.193 -0.6816 -0.8827 -0.5724
 4280SOL    HW124476   4.539   1.911   3.167  0.5799 -0.2540  3.1776
 4280SOL    HW224477   4.446   1.885   3.275  0.6255  2.0427  1.2821
 4281SOL     OW24478   1.372   1.922   1.086  0.3943 -0.0779  0.0024
 4281SOL    HW124479   1.292   1.875   1.062 -0.5404  1.6016 -0.1957
 4281SOL    HW224480   1.353   2.015   1.072  1.0373 -0.1216 -1.1817
 4282SOL     OW24481   0.618   1.373   3.130 -0.2916  0.4038 -0.2396
 4282SOL    HW124482   0.628   1.326   3.048 -0.7488 -0.0849 -0.0173
 4282SOL    HW224483   0.611   1.298   3.189  1.3668 -0.4434 -1.1180
 4283SOL     OW24484   3.251   4.166   7.149 -0.0628 -0.5480  0.2132
 4283SOL    HW124485   3.333   4.179   7.196 -0.1648 -1.3945  0.6083
 4283SOL    HW224486   3.225   4.079   7.179 -2.2004 -0.1689 -0.5517
 4284SOL     OW24487   2.741   2.004  11.035 -0.6390  0.1762  0.6480
 4284SOL    HW124488   2.723   2.037  11.123 -0.5923  0.4974  0.5380
 4284SOL    HW224489   2.661   1.967  10.998 -1.0912  1.4281  0.3796
 4285SOL     OW24490   3.090   2.252   6.227  0.7828 -0.2031  0.0273
 4285SOL    HW124491   3.133   2.167   6.235  1.8673  0.2651 -0.8144
 4285SOL    HW224492   3.060   2.264   6.317  0.3679  1.5536 -0.3374
 4286SOL     OW24493   1.977   4.594  10.117 -0.0616  0.5597 -0.3054
 4286SOL    HW124494   1.976   4.596  10.021 -2.0994  0.9800 -0.2945
 4286SOL    HW224495   2.045   4.659  10.137  1.3582  0.0350 -3.4716
 4287SOL     OW24496   0.424   0.012  10.958  0.2296 -0.0432 -0.1175
 4287SOL    HW124497   0.438   4.656  10.944 -0.7244 -0.0449 -0.9843
 4287SOL    HW224498   0.512   0.041  10.983  0.5328 -1.6681  0.7150
 4288SOL     OW24499   0.039   3.595  14.744 -0.1000  0.2391  0.3083
 4288SOL    HW124500   4.731   3.611  14.661  1.2500 -2.3466 -0.9472
 4288SOL    HW224501   0.052   3.500  14.739  1.0864  0.3773  0.6761
 4289SOL     OW24502   3.098   1.614   9.822  0.0175  0.2690  0.0792
 4289SOL    HW124503   3.186   1.650   9.834  0.5997 -1.1008 -0.0449
 4289SOL    HW224504   3.126   1.528   9.855 -0.8573 -0.0832 -0.0907
 4290SOL     OW24505   1.026   4.696  14.339  0.2557 -0.3158 -0.2810
 4290SOL    HW124506   1.080   4.627  14.378 -1.8269 -2.1441 -0.5919
 4290SOL    HW224507   0.997   0.016  14.410 -0.3746 -2.1682  0.9751
 4291SOL     OW24508   0.709   2.358   9.351  0.5654 -1.2202  0.1011
 4291SOL    HW124509   0.747   2.281   9.394  1.7364 -0.4667  0.4324
 4291SOL    HW224510   0.766   2.423   9.392  0.9700 -1.5309  0.0329
 4292SOL     OW24511   2.907   4.156   8.134  0.1968  0.3811 -0.2278
 4292SOL    HW124512   2.818   4.182   8.111  0.3376 -0.0060 -1.2366
 4292SOL    HW224513   2.950   4.223   8.081 -1.1606  0.0773 -1.7271
 4293SOL     OW24514   0.374   1.710   4.136 -0.3186  0.2451 -0.2562
 4293SOL    HW124515   0.375   1.702   4.041 -2.5558  0.6200 -0.3185
 4293SOL    HW224516   0.407   1.799   4.151 -0.8563  0.3107  0.5203
 4294SOL     OW24517   4.199   3.968  16.722 -0.0637  0.1875  0.4799
 4294SOL    HW124518   4.219   4.061  16.729  1.0429  0.1748 -2.2127
 4294SOL    HW224519   4.113   3.963  16.763  0.0269 -1.5152  0.4869
 4295SOL     OW24520   3.956   3.671   7.205  0.3105  0.2812 -0.1179
 4295SOL    HW124521   3.963   3.654   7.111 -0.1189 -1.1295  0.1139
 4295SOL    HW224522   4.006   3.597   7.239 -0.4531 -0.2113 -0.0728
 4296SOL     OW24523   1.572   3.347   5.140 -0.1502 -0.4780 -0.5541
 4296SOL    HW124524   1.478   3.355   5.156  0.1317 -1.9899  1.8234
 4296SOL    HW224525   1.570   3.327   5.047  2.2231  0.3480 -0.7688
 4297SOL     OW24526   1.375   4.672   6.645 -0.0952  0.3388  0.8503
 4297SOL    HW124527   1.284   4.676   6.677 -1.1264 -0.6756 -1.9447
 4297SOL    HW224528   1.403   4.588   6.683  0.7283 -0.9198 -2.5430
 4298SOL     OW24529   0.587   4.005  16.343 -0.0383  0.6119  0.0852
 4298SOL    HW124530   0.653   4.012  16.412  2.7641 -0.0239 -2.5426
 4298SOL    HW224531   0.523   4.060  16.389 -2.2773 -0.8576 -1.2832
 4299SOL     OW24532   2.984   2.518   3.362 -0.4316  0.2654  0.1316
 4299SOL    HW124533   2.958   2.567   3.440  3.3703  2.1374  0.2076
 4299SOL    HW224534   2.897   2.489   3.336 -0.1554 -0.6054  0.1759
 4300SOL     OW24535   4.675   2.300  10.101 -0.1333  0.3630  0.0580
 4300SOL    HW124536   0.022   2.316  10.143 -1.1082  2.0790  1.4000
 4300SOL    HW224537   4.637   2.228  10.152  0.0180  0.8414  0.8494
 4301SOL     OW24538   4.723   2.223  14.451  0.2530  0.6581 -0.2049
 4301SOL    HW124539   0.038   2.303  14.450  0.4949  0.4986 -0.1036
 4301SOL    HW224540   4.735   2.189  14.362  0.3327  1.3194 -0.4504
 4302SOL     OW24541   2.447   4.231   3.516 -0.0381 -0.5709 -0.3732
 4302SOL    HW124542   2.513   4.241   3.448 -0.0970  0.7482 -0.2251
 4302SOL    HW224543   2.463   4.317   3.555 -0.4842 -0.0089 -1.4423
 4303SOL     OW24544   1.999   2.128   6.826  0.3799 -0.2586  0.3766
 4303SOL    HW124545   1.992   2.033   6.832 -0.7241 -0.0737  1.9380
 4303SOL    HW224546   2.088   2.147   6.857  0.4075  0.8794 -0.3649
 4304SOL     OW24547   3.816   1.738   9.148  0.1216  0.4094 -0.3947
 4304SOL    HW124548   3.794   1.828   9.170 -0.5308  0.4472 -1.2275
 4304SOL    HW224549   3.911   1.745   9.148  0.0907  0.8519  0.2902
 4305SOL     OW24550   0.956   1.125   6.341 -0.1976  0.3751 -0.0683
 4305SOL    HW124551   0.886   1.172   6.385  0.3568  0.4621  0.7253
 4305SOL    HW224552   0.915   1.062   6.282 -1.1317  1.0934 -0.1823
 4306SOL     OW24553   0.293   3.646   8.413  0.2685  0.4053 -0.0662
 4306SOL    HW124554   0.332   3.730   8.388 -0.0169  0.8381  0.9496
 4306SOL    HW224555   0.321   3.592   8.339 -1.6068 -0.7201  0.0348
 4307SOL     OW24556   3.880   2.538   3.729 -0.5007 -0.5288  0.0930
 4307SOL    HW124557   3.936   2.526   3.805 -1.0405  1.4550  0.8016
 4307SOL    HW224558   3.845   2.450   3.715 -1.7110  0.2164 -1.5646
 4308SOL     OW24559   4.345   2.484   8.966  0.1119  0.6372  0.7590
 4308SOL    HW124560   4.256   2.470   8.934  0.4818 -1.1610  0.5172
 4308SOL    HW224561   4.316   2.503   9.055 -4.6410  2.2845 -1.1576
 4309SOL     OW24562   0.401   2.259   9.361 -0.1592 -0.0865 -0.2427
 4309SOL    HW124563   0.472   2.322   9.349  0.8030 -1.1232 -0.0154
 4309SOL    HW224564   0.428   2.216   9.441  1.2941 -0.6165 -1.0118
 4310SOL     OW24565   0.771   1.932   7.775 -0.2116 -0.1271  0.8759
 4310SOL    HW124566   0.779   1.968   7.686 -0.7000  0.4477  1.0646
 4310SOL    HW224567   0.793   1.840   7.761 -0.2383  0.2824 -1.9308
 4311SOL     OW24568   4.375   3.315   6.173  0.1484  0.0728 -0.0103
 4311SOL    HW124569   4.324   3.283   6.248 -0.0728 -0.8500 -0.5541
 4311SOL    HW224570   4.460   3.320   6.218  1.1335  1.4060 -1.9864
 4312SOL     OW24571   3.588   2.963   1.941 -0.2558  0.4383 -0.0076
 4312SOL    HW124572   3.506   2.941   1.895  0.1590  1.9882 -1.4885
 4312SOL    HW224573   3.609   3.051   1.910  0.5002  0.4608  0.5947
 4313SOL     OW24574   0.230   1.442  11.492  0.0061  0.6275 -0.3153
 4313SOL    HW124575   0.155   1.446  11.550  1.0132  1.5442  0.9070
 4313SOL    HW224576   0.295   1.442  11.562  1.2449  1.8462 -1.4626
 4314SOL     OW24577   2.885   3.424   7.634  0.6052  0.2536  0.2839
 4314SOL    HW124578   2.807   3.456   7.679 -0.2041 -0.7440 -0.4224
 4314SOL    HW224579   2.850   3.432   7.546 -1.8978 -2.4907  1.0291
 4315SOL     OW24580   3.129   4.610   5.328 -0.4292 -0.0017 -0.4929
 4315SOL    HW124581   3.110   4.525   5.367  1.2273 -0.6814 -1.1799
 4315SOL    HW224582   3.143   4.662   5.407 -0.7143 -0.7659  0.0562
 4316SOL     OW24583   3.862   1.266   3.474 -0.0998 -0.1879  0.8362
 4316SOL    HW124584   3.867   1.324   3.550 -2.1474 -2.0733  2.4172
 4316SOL    HW224585   3.782   1.220   3.496  0.7838 -2.0288  0.2142
 4317SOL     OW24586   1.126   4.180   2.775 -0.1941 -0.4152 -0.2019
 4317SOL    HW124587   1.215   4.147   2.762  0.1286 -0.6094  2.4093
 4317SOL    HW224588   1.129   4.244   2.704  0.4142  1.0146  1.1224
 4318SOL     OW24589   3.472   0.412  17.344  0.1913  0.1366 -0.0426
 4318SOL    HW124590   3.492   0.382  17.432  0.5514 -0.5434 -0.3477
 4318SOL    HW224591   3.384   0.446  17.352  0.1973 -0.1138  1.0341
 4319SOL     OW24592   0.884   1.902   8.015  0.0963 -0.3006 -0.5072
 4319SOL    HW124593   0.945   1.976   8.015 -0.2700  0.0029 -0.6021
 4319SOL    HW224594   0.845   1.904   7.927  0.9673  0.7985 -0.8650
 4320SOL     OW24595   2.336   1.366   9.288  0.7600  0.0717 -0.0464
 4320SOL    HW124596   2.353   1.400   9.201  0.8129 -0.1328 -0.1169
 4320SOL    HW224597   2.248   1.401   9.301  0.2922 -0.8303 -0.7664
 4321SOL     OW24598   1.530   0.752   5.773 -0.4911  0.0685  0.5848
 4321SOL    HW124599   1.549   0.843   5.795 -0.9533  0.3773 -0.3190
 4321SOL    HW224600   1.601   0.719   5.718 -1.4155 -0.2479 -0.4060
 4322SOL     OW24601   2.638   4.274   6.257  0.2037 -0.1590 -0.6731
 4322SOL    HW124602   2.626   4.358   6.302 -4.0507 -0.3775 -1.3861
 4322SOL    HW224603   2.719   4.296   6.211  1.7670 -0.6103  1.8774
 4323SOL     OW24604   3.708   2.255  13.881 -0.3988  0.2209 -0.1178
 4323SOL    HW124605   3.620   2.280  13.909 -0.5300 -3.4730  2.7214
 4323SOL    HW224606   3.689   2.199  13.806  1.1114  0.4452 -0.6607
 4324SOL     OW24607   0.393   3.145   1.544 -0.3361  0.0730 -0.1395
 4324SOL    HW124608   0.469   3.127   1.600  0.2860  1.6257 -0.4778
 4324SOL    HW224609   0.354   3.221   1.587  0.9191 -0.2126  1.5003
 4325SOL     OW24610   2.406   1.948   3.155 -0.6489  0.0618 -0.4656
 4325SOL    HW124611   2.435   1.962   3.245  2.3114 -0.4205 -1.3339
 4325SOL    HW224612   2.483   1.987   3.112  1.0438 -2.0447  0.6401
 4326SOL     OW24613   0.549   1.190   5.652 -0.1552  1.2025  0.4888
 4326SOL    HW124614   0.632   1.211   5.608  0.2940  0.4698  0.9663
 4326SOL    HW224615   0.499   1.267   5.625  0.4286  1.5443  0.3826
 4327SOL     OW24616   0.977   3.112   1.021 -0.0716  0.2454 -0.5286
 4327SOL    HW124617   0.981   3.101   1.116 -0.2388  2.5508 -0.2605
 4327SOL    HW224618   0.904   3.172   1.009 -1.2333 -0.8445  1.2326
 4328SOL     OW24619   1.218   0.315   9.684  0.0718  0.6161 -0.3908
 4328SOL    HW124620   1.204   0.326   9.779 -1.5446 -0.6652 -0.5059
 4328SOL    HW224621   1.298   0.368   9.671  1.1716 -1.3123 -1.4551
 4329SOL     OW24622   3.511   1.713  15.901 -0.0163  0.3801  0.2926
 4329SOL    HW124623   3.579   1.689  15.838  1.9582  0.7204  2.2915
 4329SOL    HW224624   3.443   1.649  15.883 -0.5239  0.8518  0.5325
 4330SOL     OW24625   0.520   3.872   1.551 -0.0501 -0.5133 -0.3957
 4330SOL    HW124626   0.508   3.964   1.527  0.1134  0.1118  1.8193
 4330SOL    HW224627   0.453   3.835   1.494 -0.0714  0.9935 -1.3449
 4331SOL     OW24628   2.644   0.790   2.979 -0.2552 -0.3800 -0.4478
 4331SOL    HW124629   2.642   0.773   3.073 -4.5573 -2.3228 -0.9200
 4331SOL    HW224630   2.637   0.885   2.981  1.7501 -0.2248 -0.3324
 4332SOL     OW24631   4.299   2.330   8.403 -0.0863  0.6996  0.1515
 4332SOL    HW124632   4.258   2.281   8.474 -0.5554 -0.3179 -0.8179
 4332SOL    HW224633   4.233   2.399   8.393 -0.9555 -0.0447  0.7089
 4333SOL     OW24634   2.252   4.693   7.137  0.2710  0.1435 -0.4585
 4333SOL    HW124635   2.203   4.636   7.078 -1.3376  0.6575  0.3633
 4333SOL    HW224636   2.181   0.010   7.170  0.5356  0.5380 -0.5383
 4334SOL     OW24637   4.300   1.782   2.748 -0.2663 -0.3474  0.5160
 4334SOL    HW124638   4.332   1.835   2.821 -1.5852 -0.9944  1.5537
 4334SOL    HW224639   4.364   1.714   2.726  0.3733  0.9936 -1.7105
 4335SOL     OW24640   4.363   0.962  11.828  0.1281  0.1805  0.0362
 4335SOL    HW124641   4.383   1.022  11.756 -1.7753 -0.3617 -0.9240
 4335SOL    HW224642   4.273   0.978  11.856  1.0453  3.5906  1.0282
 4336SOL     OW24643   2.709   3.566  14.819  0.0218  0.0267 -0.4934
 4336SOL    HW124644   2.700   3.614  14.902  1.0086  0.0813 -0.4263
 4336SOL    HW224645   2.650   3.620  14.766 -0.1963  0.9154  0.6493
 4337SOL     OW24646   1.837   3.506   7.856  0.4867  0.4951  0.1609
 4337SOL    HW124647   1.759   3.558   7.875  0.5657  1.2072 -1.4437
 4337SOL    HW224648   1.899   3.534   7.923  1.2321  0.7309 -0.6282
 4338SOL     OW24649   1.116   4.667   6.763 -0.0626  0.2060 -0.2628
 4338SOL    HW124650   1.091   4.574   6.768 -0.3879  0.3612  0.9942
 4338SOL    HW224651   1.138   4.685   6.855 -0.9584 -0.0390 -0.0010
 4339SOL     OW24652   1.859   3.752   2.116  0.3939  0.1144  0.0115
 4339SOL    HW124653   1.850   3.783   2.026  0.3955 -0.2660 -0.1189
 4339SOL    HW224654   1.951   3.748   2.142  0.9085 -1.5816 -2.1372
 4340SOL     OW24655   0.626   0.784   7.103  0.2247 -0.4142 -0.8147
 4340SOL    HW124656   0.588   0.871   7.092  0.7916 -0.3199 -1.9913
 4340SOL    HW224657   0.692   0.779   7.034  1.1880  1.0034  0.0114
 4341SOL     OW24658   3.790   4.213   6.843  0.2475  0.0132  0.0853
 4341SOL    HW124659   3.869   4.257   6.875 -1.2299  1.4631  1.7096
 4341SOL    HW224660   3.787   4.247   6.754  3.1492  1.2100  0.4381
 4342SOL     OW24661   4.492   2.363   3.155 -0.4602 -0.2910  0.4015
 4342SOL    HW124662   4.522   2.308   3.227 -0.0413 -0.9566 -0.2809
 4342SOL    HW224663   4.431   2.420   3.201  0.7904  0.0802  1.5962
 4343SOL     OW24664   4.334   1.408   8.881 -0.2337 -0.0316 -0.4832
 4343SOL    HW124665   4.312   1.448   8.797  0.3489  2.4904  0.5628
 4343SOL    HW224666   4.429   1.412   8.885 -0.3738  0.5232  2.1865
 4344SOL     OW24667   2.087   1.872  13.042 -0.1344 -0.2553  0.1932
 4344SOL    HW124668   2.048   1.935  13.104  0.0491 -0.9716  1.0252
 4344SOL    HW224669   2.061   1.789  13.080 -0.9215  2.0416  4.6770
 4345SOL     OW24670   0.198   0.657   8.166  0.3053  0.2907  0.2483
 4345SOL    HW124671   0.201   0.752   8.165  1.8217  0.2390 -0.0092
 4345SOL    HW224672   0.155   0.640   8.249  1.0015  1.6893  0.8935
 4346SOL     OW24673   1.392   0.500   7.042  0.5559 -0.5104 -0.3652
 4346SOL    HW124674   1.456   0.556   6.998 -0.1314  0.4559 -0.1229
 4346SOL    HW224675   1.357   0.439   6.977  0.1793 -0.0403 -0.5983
 4347SOL     OW24676   1.139   4.536   1.749 -0.0168 -0.1778 -0.5851
 4347SOL    HW124677   1.065   4.596   1.761  1.2302  1.5356 -1.3212
 4347SOL    HW224678   1.095   4.452   1.741  0.1187 -0.3168  0.1095
 4348SOL     OW24679   4.054   3.742   2.455 -0.1440  0.0223  0.2674
 4348SOL    HW124680   4.018   3.791   2.381 -0.8362 -1.1693 -0.1915
 4348SOL    HW224681   4.135   3.791   2.464  0.7954 -1.3599 -0.7796
 4349SOL     OW24682   1.297   2.189   0.983 -0.0029  0.2735 -0.0878
 4349SOL    HW124683   1.311   2.273   1.027  0.8529  0.3536 -0.5015
 4349SOL    HW224684   1.247   2.213   0.905  2.1792  2.0700 -0.9378
 4350SOL     OW24685   2.038   0.305   1.760 -0.6908  0.1394  0.0350
 4350SOL    HW124686   2.004   0.378   1.707 -1.0937 -0.3070 -0.3195
 4350SOL    HW224687   1.964   0.296   1.820 -1.1422 -1.8274 -0.8227
 4351SOL     OW24688   4.281   2.877   0.451  0.7705  0.3273  0.2066
 4351SOL    HW124689   4.267   2.844   0.362 -2.8994 -0.6694  1.1977
 4351SOL    HW224690   4.367   2.847   0.480 -0.5847 -3.0296  0.7407
 4352SOL     OW24691   1.705   3.998   2.251  0.2100 -0.8844  0.4248
 4352SOL    HW124692   1.671   4.052   2.179  1.4331 -0.7823 -0.0740
 4352SOL    HW224693   1.751   4.068   2.298 -0.5305 -0.0435 -0.0899
 4353SOL     OW24694   3.858   4.236   4.872  0.0949  0.2739 -0.0152
 4353SOL    HW124695   3.847   4.189   4.955  1.3573 -0.6269 -0.3689
 4353SOL    HW224696   3.872   4.161   4.815 -0.9999  0.3692 -0.4177
 4354SOL     OW24697   2.926   3.872  16.634 -0.5030 -1.3133 -0.6700
 4354SOL    HW124698   2.837   3.853  16.663 -1.0386  0.5974 -1.0279
 4354SOL    HW224699   2.905   3.930  16.561 -1.6648  2.0595  2.3324
 4355SOL     OW24700   3.717   0.287   2.642  0.2753  0.0001 -0.5960
 4355SOL    HW124701   3.650   0.354   2.632  1.3110  0.6945 -3.0101
 4355SOL    HW224702   3.759   0.286   2.556 -0.2896 -0.5276 -0.8655
 4356SOL     OW24703   0.473   1.362  14.204  0.6024 -0.0203  0.7990
 4356SOL    HW124704   0.445   1.287  14.256  0.4754  0.3197  1.2191
 4356SOL    HW224705   0.567   1.350  14.213  0.9197  1.7616 -0.1255
 4357SOL     OW24706   2.559   2.610   3.872 -0.6309 -0.0907  0.0144
 4357SOL    HW124707   2.587   2.699   3.853  0.9999 -0.0941  2.3619
 4357SOL    HW224708   2.514   2.618   3.956  0.1876  2.9080  0.1545
 4358SOL     OW24709   2.518   2.083   8.464 -1.3051 -0.6732 -0.4763
 4358SOL    HW124710   2.468   2.044   8.535 -2.4448  0.5631 -0.6094
 4358SOL    HW224711   2.573   2.139   8.519  0.3052 -0.9950 -1.7642
 4359SOL     OW24712   3.126   3.811   4.675  0.6594 -0.4647 -0.2294
 4359SOL    HW124713   3.048   3.834   4.625  0.0218 -1.6284  0.2379
 4359SOL    HW224714   3.185   3.784   4.604  2.5901  2.3219  0.3069
 4360SOL     OW24715   0.311   4.043  12.767 -0.0926 -0.4108  0.3856
 4360SOL    HW124716   0.253   3.999  12.705  2.8043 -0.7978 -2.0113
 4360SOL    HW224717   0.246   4.058  12.836  1.2542 -0.2287  1.6261
 4361SOL     OW24718   2.960   4.004   4.215 -0.5321  0.1986  0.2172
 4361SOL    HW124719   2.879   4.046   4.186 -1.6811 -0.3435  2.6413
 4361SOL    HW224720   3.025   4.032   4.151  0.3866 -0.9129  0.6752
 4362SOL     OW24721   1.995   1.008   8.855 -0.4482 -0.0218 -0.4461
 4362SOL    HW124722   2.018   0.962   8.774 -0.4188  1.2409 -1.1708
 4362SOL    HW224723   2.074   1.004   8.907 -0.6556 -0.2079 -0.1461
 4363SOL     OW24724   0.034   0.667   2.504 -0.1343  0.4352  0.0332
 4363SOL    HW124725   0.076   0.646   2.421 -5.5029  1.3310 -2.8972
 4363SOL    HW224726   0.080   0.608   2.565  2.2509  0.6508 -1.5593
 4364SOL     OW24727   0.578   2.095   1.817 -0.1618  0.0338 -0.2553
 4364SOL    HW124728   0.642   2.097   1.746  0.9297 -1.2482  0.6792
 4364SOL    HW224729   0.609   2.174   1.861 -0.7702  0.0663  0.1208
 4365SOL     OW24730   2.116   1.760   5.985  0.4859 -0.0251  0.8249
 4365SOL    HW124731   2.160   1.821   6.045 -4.9739  3.1166  1.6370
 4365SOL    HW224732   2.189   1.701   5.966  2.3102  2.5762 -0.2865
 4366SOL     OW24733   4.388   1.126   8.112  0.5691 -0.2985  0.9552
 4366SOL    HW124734   4.472   1.109   8.070  0.0477  1.6267 -0.8810
 4366SOL    HW224735   4.385   1.221   8.129  1.0201 -0.1567  0.2464
 4367SOL     OW24736   1.235   3.341   5.630  0.1484  0.0616  0.1129
 4367SOL    HW124737   1.271   3.401   5.565  1.5398 -0.5498  0.3265
 4367SOL    HW224738   1.164   3.299   5.581  0.6164 -0.1824 -0.3608
 4368SOL     OW24739   3.215   1.931   5.272 -0.0865 -0.3332  0.2529
 4368SOL    HW124740   3.193   1.846   5.234  1.1648 -1.1592  1.3634
 4368SOL    HW224741   3.219   1.989   5.196 -0.8797  0.1766  0.5888
 4369SOL     OW24742   0.537   0.347   5.449 -0.6802 -0.6698  0.4046
 4369SOL    HW124743   0.593   0.332   5.373  0.9739 -0.1111  1.5332
 4369SOL    HW224744   0.589   0.412   5.495  0.4928 -0.8417 -0.6661
 4370SOL     OW24745   2.462   3.275   3.814  0.0241  0.3909 -0.0895
 4370SOL    HW124746   2.471   3.360   3.856  1.0349  1.1644 -1.9016
 4370SOL    HW224747   2.372   3.287   3.782  0.2220 -1.6497 -1.4215
 4371SOL     OW24748   0.979   4.666   5.819 -0.0604  0.8684  0.2136
 4371SOL    HW124749   0.982   0.021   5.843 -0.6463  1.2969 -1.3407
 4371SOL    HW224750   0.901   4.658   5.764  0.0405  0.5641  0.1153
 4372SOL     OW24751   0.998   2.792   1.438 -0.3438  0.2493  0.1508
 4372SOL    HW124752   0.956   2.721   1.486 -0.8397 -0.0416 -0.7169
 4372SOL    HW224753   1.042   2.734   1.376 -2.3116 -1.8651  0.7327
 4373SOL     OW24754   4.714   3.015  15.077 -0.0034 -0.1216 -0.1246
 4373SOL    HW124755   4.719   2.983  14.988  0.9991  0.8090 -0.4116
 4373SOL    HW224756   4.619   3.017  15.082 -0.0385 -0.7408 -0.6398
 4374SOL     OW24757   3.339   3.591   1.063 -0.1987 -0.4730 -0.4408
 4374SOL    HW124758   3.249   3.564   1.042 -0.0971 -0.5906 -0.7382
 4374SOL    HW224759   3.327   3.604   1.157 -0.5181 -0.9446 -0.4147
 4375SOL     OW24760   4.224   2.184  13.367 -0.7375  0.5559 -0.1130
 4375SOL    HW124761   4.267   2.235  13.435 -0.3704 -0.0291  0.0955
 4375SOL    HW224762   4.157   2.250  13.349  1.3117  2.7412  0.2642
 4376SOL     OW24763   3.988   1.054   5.158  0.0624  0.4397  0.4091
 4376SOL    HW124764   4.046   1.081   5.087 -0.3299  0.4617  0.0985
 4376SOL    HW224765   4.001   1.127   5.219  1.5567  0.3725  0.1810
 4377SOL     OW24766   2.436   4.462   4.928 -0.2124  0.4556  0.4394
 4377SOL    HW124767   2.427   4.528   4.997  0.6444 -3.3678  4.2323
 4377SOL    HW224768   2.532   4.458   4.936  0.0056  0.7997 -2.1781
 4378SOL     OW24769   1.712   3.657   4.237  0.3397 -0.3427  0.2044
 4378SOL    HW124770   1.652   3.629   4.168  1.3122  0.3352 -0.9046
 4378SOL    HW224771   1.688   3.740   4.279  0.5768 -0.2855  0.2225
 4379SOL     OW24772   3.548   0.331   5.848  0.7353 -0.2010 -0.0767
 4379SOL    HW124773   3.635   0.293   5.863  1.5821  1.1867 -1.4747
 4379SOL    HW224774   3.560   0.358   5.757 -2.3225  2.1894  0.2435
 4380SOL     OW24775   1.804   2.839   1.365  0.2097  0.3575 -0.2494
 4380SOL    HW124776   1.812   2.840   1.460  2.0366 -1.1737 -0.3818
 4380SOL    HW224777   1.863   2.765   1.350 -0.2828  0.3014 -1.9752
 4381SOL     OW24778   2.175   1.352   4.919  0.2862 -0.7083 -0.4917
 4381SOL    HW124779   2.207   1.442   4.918 -1.0527 -0.2243 -0.0864
 4381SOL    HW224780   2.114   1.350   4.992  0.9870  1.4727  0.1626
 4382SOL     OW24781   1.869   2.925  17.057 -0.2044 -0.2079 -0.0312
 4382SOL    HW124782   1.780   2.958  17.074  0.0363  0.8387 -0.8908
 4382SOL    HW224783   1.859   2.850  17.117  1.1581 -0.7687 -0.4989
 4383SOL     OW24784   4.456   1.546   8.351  0.1684 -0.2795 -0.1974
 4383SOL    HW124785   4.513   1.509   8.284 -0.3241 -0.0340 -0.7547
 4383SOL    HW224786   4.513   1.612   8.390 -1.0499  1.3043 -1.0543
 4384SOL     OW24787   1.215   1.510   2.858  0.1691 -0.2750  0.2828
 4384SOL    HW124788   1.130   1.499   2.901 -0.0876  2.1356  0.3608
 4384SOL    HW224789   1.236   1.425   2.819  1.3549  1.2514 -2.4631
 4385SOL     OW24790   1.496   3.453  11.774  0.2398 -0.1082 -0.0995
 4385SOL    HW124791   1.472   3.546  11.779  1.5419  0.2931 -1.3739
 4385SOL    HW224792   1.557   3.454  11.701 -1.3222 -1.7512 -1.4451
 4386SOL     OW24793   0.861   3.963   8.570 -0.0117 -0.1352  0.4122
 4386SOL    HW124794   0.818   3.973   8.485  1.3391  0.4512 -0.2035
 4386SOL    HW224795   0.924   3.893   8.553 -0.7626 -0.5576 -0.5900
 4387SOL     OW24796   3.219   3.059   2.416 -0.2893 -0.2410 -0.1834
 4387SOL    HW124797   3.282   3.054   2.344 -0.8437 -0.1120 -0.6800
 4387SOL    HW224798   3.182   3.145   2.396 -2.8034 -1.7347 -1.9908
 4388SOL     OW24799   3.299   3.281   7.399  0.1399 -0.3653  0.4689
 4388SOL    HW124800   3.255   3.216   7.454  2.4426 -1.0116  1.5557
 4388SOL    HW224801   3.328   3.239   7.318 -1.1324  0.9031 -0.6447
 4389SOL     OW24802   1.255   2.138   1.941  0.0187 -0.3884 -0.5117
 4389SOL    HW124803   1.211   2.169   1.861  1.4867 -0.2685 -1.2727
 4389SOL    HW224804   1.229   2.205   2.004 -0.9537 -0.5666 -0.7250
 4390SOL     OW24805   4.271   4.494   3.465  0.0665 -0.0580  0.5075
 4390SOL    HW124806   4.354   4.458   3.433 -0.5050 -1.3458  0.4862
 4390SOL    HW224807   4.246   4.440   3.540 -0.5067  0.8208  0.9487
 4391SOL     OW24808   0.851   2.851   1.700  0.3709  0.3808  0.3288
 4391SOL    HW124809   0.907   2.867   1.624 -0.2001  2.2728  0.2842
 4391SOL    HW224810   0.773   2.809   1.663  1.4707 -2.5409  1.3455
 4392SOL     OW24811   1.653   1.662  17.313  0.6443  0.1056  0.6088
 4392SOL    HW124812   1.725   1.717  17.345  1.1624 -0.3550  0.2323
 4392SOL    HW224813   1.650   1.666  17.218 -1.2066 -0.8413  0.6251
 4393SOL     OW24814   0.348   0.120   8.281  0.2063 -0.4258  0.7761
 4393SOL    HW124815   0.281   0.084   8.339 -0.6735  1.5436  0.9976
 4393SOL    HW224816   0.301   0.197   8.249  0.8599 -0.3781 -0.0622
 4394SOL     OW24817   3.805   0.649   2.345  0.4097 -0.2962 -0.5055
 4394SOL    HW124818   3.747   0.599   2.288 -0.5177  1.8475 -1.4571
 4394SOL    HW224819   3.808   0.726   2.288 -2.4457  0.3805  0.2184
 4395SOL     OW24820   3.694   0.911   9.850  0.2680 -0.3557 -0.5573
 4395SOL    HW124821   3.722   0.982   9.908 -0.5853  0.1966 -0.8375
 4395SOL    HW224822   3.702   0.958   9.767  0.5712 -0.4161 -0.5637
 4396SOL     OW24823   2.630   0.661  10.450 -0.2413 -0.1049  0.2650
 4396SOL    HW124824   2.634   0.578  10.403  3.1435  0.3495 -0.2457
 4396SOL    HW224825   2.661   0.636  10.537  1.6122 -1.7809 -0.8912
 4397SOL     OW24826   1.083   4.326   5.691 -0.0087 -0.0673  0.5772
 4397SOL    HW124827   0.992   4.342   5.664 -0.0648 -2.9872 -1.0623
 4397SOL    HW224828   1.093   4.350   5.783 -0.4676  0.6567  0.4381
 4398SOL     OW24829   0.746   2.103   9.110  0.0864 -0.5418  0.1147
 4398SOL    HW124830   0.703   2.026   9.148 -0.5166 -0.9536 -1.3949
 4398SOL    HW224831   0.701   2.104   9.025 -0.2065 -2.2189  0.2391
 4399SOL     OW24832   0.778   2.391   5.896  0.3478  0.1577  0.1452
 4399SOL    HW124833   0.696   2.352   5.867  1.0363  0.4160 -2.1562
 4399SOL    HW224834   0.834   2.370   5.822  1.8614  0.3254  1.2414
 4400SOL     OW24835   4.413   2.016   2.276 -0.0405  0.0231 -0.6783
 4400SOL    HW124836   4.422   2.102   2.319  2.7197 -0.1033 -1.0053
 4400SOL    HW224837   4.376   1.971   2.352 -0.5845 -0.4880 -1.2468
 4401SOL     OW24838   4.139   0.407  14.204  0.3495 -0.0595  0.0822
 4401SOL    HW124839   4.199   0.386  14.275 -0.2469 -0.5743  0.4393
 4401SOL    HW224840   4.057   0.406  14.252  0.6826 -1.3663  0.6219
 4402SOL     OW24841   0.375   1.635   2.506 -0.5727  0.2632 -0.4045
 4402SOL    HW124842   0.318   1.560   2.487 -1.4318  0.9368 -0.4575
 4402SOL    HW224843   0.337   1.707   2.457  0.1163  0.7270 -0.2534
 4403SOL     OW24844   4.610   2.520   9.815  0.0892 -0.3714 -0.3052
 4403SOL    HW124845   4.642   2.430   9.819 -0.2186 -0.3592  2.8435
 4403SOL    HW224846   4.654   2.553   9.737  0.3100 -0.6491 -0.2992
 4404SOL     OW24847   2.616   3.191   6.408 -0.4645  0.6315  0.2160
 4404SOL    HW124848   2.642   3.169   6.497 -2.9605 -2.7233  0.1121
 4404SOL    HW224849   2.660   3.276   6.399  1.5548 -0.4580 -0.2283
 4405SOL     OW24850   2.209   2.712   5.052 -0.0068  1.1811 -0.1013
 4405SOL    HW124851   2.259   2.784   5.090  1.5331  0.6929 -1.1627
 4405SOL    HW224852   2.287   2.663   5.025 -1.1198 -0.9349  0.5410
 4406SOL     OW24853   4.399   3.773   5.332  0.1033  0.2445  0.2176
 4406SOL    HW124854   4.485   3.730   5.328  0.3376  0.8623 -1.3561
 4406SOL    HW224855   4.346   3.743   5.406  1.0321  0.2123  0.8698
 4407SOL     OW24856   0.986   0.517   6.433  0.0837 -0.2354 -0.0346
 4407SOL    HW124857   1.066   0.493   6.480 -0.3799  1.2012  1.4938
 4407SOL    HW224858   1.016   0.488   6.347  0.5091 -1.2169  0.4445
 4408SOL     OW24859   0.457   2.414   7.746 -0.4045  0.1951  0.0378
 4408SOL    HW124860   0.485   2.360   7.820  1.1072  2.0804  0.8498
 4408SOL    HW224861   0.413   2.479   7.800  0.4717 -0.1075  1.1320
 4409SOL     OW24862   4.102   1.453   8.456  0.1663  0.3029 -0.4676
 4409SOL    HW124863   4.109   1.506   8.377  1.9229  1.2938  0.3443
 4409SOL    HW224864   4.049   1.385   8.416  0.8561  0.1246 -1.0727
 4410SOL     OW24865   0.790   3.979   8.827  0.2961 -0.0714  0.1002
 4410SOL    HW124866   0.823   3.991   8.738 -0.8045  1.3149 -0.1244
 4410SOL    HW224867   0.761   3.888   8.819  2.9767 -0.6399 -3.0971
 4411SOL     OW24868   3.885   2.174  16.517 -0.4119 -0.0019  0.2904
 4411SOL    HW124869   3.816   2.236  16.539 -0.6719  0.1615 -1.0134
 4411SOL    HW224870   3.869   2.097  16.572 -1.8144  1.9664  2.6666
 4412SOL     OW24871   0.141   4.678   8.384  0.2674 -0.2142  0.0338
 4412SOL    HW124872   0.080   0.008   8.353 -0.7089 -0.6118  1.0895
 4412SOL    HW224873   0.151   4.632   8.301  0.9272  0.0135 -0.0106
 4413SOL     OW24874   1.138   3.721   3.281  0.8589 -0.0969 -0.8741
 4413SOL    HW124875   1.159   3.790   3.344 -0.9736 -0.7213  0.4077
 4413SOL    HW224876   1.225   3.684   3.268  1.7855  1.4783  0.8529
 4414SOL     OW24877   4.140   2.933   7.052 -0.1664  0.1831 -0.0265
 4414SOL    HW124878   4.166   2.905   6.964 -1.1603  0.0620 -0.2753
 4414SOL    HW224879   4.133   3.026   7.033 -0.6305 -0.1547 -1.5279
 4415SOL     OW24880   0.364   3.864   0.512 -0.4470 -0.2932 -0.5327
 4415SOL    HW124881   0.416   3.928   0.465 -0.9407  0.3654 -0.1787
 4415SOL    HW224882   0.364   3.885   0.606  1.5053 -1.4511 -0.2635
 4416SOL     OW24883   2.166   2.398   9.187  0.3858 -0.3151 -0.2518
 4416SOL    HW124884   2.148   2.482   9.229 -1.1138 -0.8732  0.2000
 4416SOL    HW224885   2.092   2.376   9.131 -1.1257  1.6055  0.9842
 4417SOL     OW24886   0.172   0.406   7.747 -0.1313 -0.3482 -0.5856
 4417SOL    HW124887   0.222   0.440   7.821 -0.3470 -0.0131 -0.5958
 4417SOL    HW224888   0.109   0.476   7.729  0.7657  0.1308 -1.7931
 4418SOL     OW24889   2.339   4.258   6.706 -0.2197  0.2735 -0.1335
 4418SOL    HW124890   2.390   4.337   6.689  1.3610 -0.5844  0.5470
 4418SOL    HW224891   2.394   4.205   6.647  1.4232 -0.9935  2.5492
 4419SOL     OW24892   3.637   2.141   1.894  0.1160  0.2826  0.3542
 4419SOL    HW124893   3.605   2.206   1.831 -0.8225  1.4146  2.0070
 4419SOL    HW224894   3.654   2.192   1.974 -1.1741  2.0819 -0.5262
 4420SOL     OW24895   2.260   4.325   3.904  0.5198 -0.3204  0.0472
 4420SOL    HW124896   2.334   4.276   3.868 -0.3294 -0.3060 -1.7013
 4420SOL    HW224897   2.304   4.405   3.932  2.2269 -0.7546 -1.3911
 4421SOL     OW24898   3.778   4.324   9.272 -0.5210 -0.1628  0.2947
 4421SOL    HW124899   3.831   4.283   9.339 -0.0057 -1.2962 -0.8060
 4421SOL    HW224900   3.793   4.414   9.302  2.9635 -0.4214 -0.6797
 4422SOL     OW24901   2.714   0.544   8.850 -0.0914  0.2992  0.2225
 4422SOL    HW124902   2.656   0.484   8.803  1.7483 -0.9899 -0.4230
 4422SOL    HW224903   2.678   0.535   8.938 -0.3113  3.1664  0.4353
 4423SOL     OW24904   0.808   3.468   2.787  0.0487  0.3714  0.5779
 4423SOL    HW124905   0.787   3.487   2.878 -1.4062 -1.4804  0.6478
 4423SOL    HW224906   0.735   3.510   2.741  0.3334 -0.2254 -0.4314
 4424SOL     OW24907   0.084   0.958  16.694 -0.5200  0.3471 -0.3033
 4424SOL    HW124908   0.074   1.024  16.763 -0.9527 -0.4700  0.4119
 4424SOL    HW224909   0.016   0.896  16.718 -0.3791 -0.4867 -2.0531
 4425SOL     OW24910   0.773   2.965   9.296 -0.2727 -0.0763 -0.6529
 4425SOL    HW124911   0.801   2.974   9.205  0.1188  1.0552 -0.4157
 4425SOL    HW224912   0.842   3.017   9.336 -2.5611  1.7270  0.9237
 4426SOL     OW24913   0.567   4.228   3.808  0.3997  0.1667  0.3002
 4426SOL    HW124914   0.495   4.194   3.862  0.5447 -1.5700 -0.5802
 4426SOL    HW224915   0.569   4.163   3.737  0.9291 -0.1786  0.6374
 4427SOL     OW24916   2.916   2.722   4.177  0.4048 -0.7548  0.0065
 4427SOL    HW124917   2.999   2.679   4.198  1.0840  0.2518 -0.6228
 4427SOL    HW224918   2.860   2.647   4.195 -0.3980  0.0227  0.7250
 4428SOL     OW24919   2.762   1.211  11.598 -0.0527  0.0950 -0.0426
 4428SOL    HW124920   2.795   1.297  11.622 -0.9503  0.4076  0.0776
 4428SOL    HW224921   2.840   1.156  11.601 -0.0201  0.1005 -0.7955
 4429SOL     OW24922   2.372   2.970  15.881  0.1414 -0.1444  0.2479
 4429SOL    HW124923   2.378   2.900  15.815  1.1508  0.2373 -0.0608
 4429SOL    HW224924   2.390   2.918  15.960 -1.0196 -2.1308 -0.7906
 4430SOL     OW24925   2.792   4.318   2.214  0.1374 -0.0395  0.1837
 4430SOL    HW124926   2.828   4.254   2.152 -1.5802 -0.5610 -0.2688
 4430SOL    HW224927   2.803   4.395   2.157  0.3875 -0.8115 -0.8093
 4431SOL     OW24928   1.944   3.290   4.216 -0.1904 -0.0682  0.3542
 4431SOL    HW124929   1.848   3.293   4.207  0.0474  2.0710 -1.4175
 4431SOL    HW224930   1.954   3.277   4.310 -0.7137 -0.0937  0.4069
 4432SOL     OW24931   2.935   0.616   8.024  0.9127 -0.8439  0.3137
 4432SOL    HW124932   2.965   0.696   7.981  3.1553 -1.5286  0.5934
 4432SOL    HW224933   2.933   0.566   7.942 -1.9368 -1.2647  0.6276
 4433SOL     OW24934   0.517   0.411   4.810 -0.2144  1.0409 -0.4581
 4433SOL    HW124935   0.584   0.429   4.744  0.1804 -1.6884 -0.8196
 4433SOL    HW224936   0.568   0.385   4.887 -1.4236 -1.1476 -0.4024
 4434SOL     OW24937   0.823   0.312   2.078 -0.4377  0.1040  0.2843
 4434SOL    HW124938   0.915   0.297   2.055 -0.7037 -0.7249 -0.2352
 4434SOL    HW224939   0.821   0.278   2.167 -0.2046  1.4407  0.7992
 4435SOL     OW24940   2.691   2.581  17.045  0.1219 -0.5533 -0.1694
 4435SOL    HW124941   2.638   2.630  17.108  0.1295  0.7619 -1.1944
 4435SOL    HW224942   2.736   2.655  17.005 -0.9736 -0.2660 -0.8476
 4436SOL     OW24943   4.145   1.723   6.970 -0.4042 -0.1124 -0.2675
 4436SOL    HW124944   4.231   1.739   7.008  0.3832 -1.8111 -1.3280
 4436SOL    HW224945   4.151   1.758   6.881  1.6582 -1.7913 -0.8000
 4437SOL     OW24946   4.272   4.258   4.371 -0.3763  0.1970 -0.2430
 4437SOL    HW124947   4.216   4.279   4.446 -1.2039  1.6599 -1.2644
 4437SOL    HW224948   4.295   4.348   4.345 -1.2412  0.3217 -0.5547
 4438SOL     OW24949   2.963   2.462   7.719 -0.4637 -0.6660  0.1317
 4438SOL    HW124950   3.027   2.533   7.727 -1.2997 -0.0861  1.8360
 4438SOL    HW224951   2.980   2.430   7.631  0.7528 -0.5337  0.3277
 4439SOL     OW24952   2.704   2.813   3.748 -0.3344 -0.5628 -0.6753
 4439SOL    HW124953   2.782   2.852   3.786  0.0911  0.2609 -2.3709
 4439SOL    HW224954   2.652   2.886   3.714  2.3350  0.5225 -2.4027
 4440SOL     OW24955   4.000   3.020  11.297 -0.1343  0.0991 -0.2865
 4440SOL    HW124956   4.004   3.084  11.226 -0.2005  0.6357  0.2031
 4440SOL    HW224957   4.002   3.086  11.366  0.7474  0.6767 -0.8682
 4441SOL     OW24958   1.820   1.736   1.419  0.5330 -0.2015  0.0471
 4441SOL    HW124959   1.799   1.802   1.354 -2.0509 -1.0973 -0.0176
 4441SOL    HW224960   1.893   1.784   1.459  2.0779 -2.2381 -0.2704
 4442SOL     OW24961   4.466   3.312   8.499 -0.1287 -0.3039  0.0701
 4442SOL    HW124962   4.556   3.278   8.497 -0.2338 -0.7107  2.3741
 4442SOL    HW224963   4.458   3.339   8.407 -2.0802  0.8586  0.5825
 4443SOL     OW24964   3.710   1.478   8.685  0.0721  0.5991 -0.1166
 4443SOL    HW124965   3.640   1.494   8.623 -0.8034  1.5713  1.1165
 4443SOL    HW224966   3.674   1.415   8.747 -0.5697 -0.5983 -1.7373
 4444SOL     OW24967   1.296   2.467   9.649  0.0163 -0.1897 -0.7142
 4444SOL    HW124968   1.213   2.506   9.623  1.0343  1.8359 -0.8920
 4444SOL    HW224969   1.255   2.399   9.702 -0.0647 -0.1669 -0.7476
 4445SOL     OW24970   2.061   0.170   8.969 -0.2754 -0.2924 -0.0685
 4445SOL    HW124971   2.076   0.076   8.980 -1.7766 -0.5500 -0.2280
 4445SOL    HW224972   2.084   0.202   9.057 -1.5357  0.4776 -0.0266
 4446SOL     OW24973   1.843   0.135   7.888 -0.0349 -0.1419 -0.4611
 4446SOL    HW124974   1.843   0.226   7.916  1.1776 -0.2938  0.0159
 4446SOL    HW224975   1.933   0.105   7.899  0.6227  1.4434 -1.5954
 4447SOL     OW24976   1.818   0.800  14.540 -1.1857  0.3666 -0.4821
 4447SOL    HW124977   1.870   0.728  14.574 -1.8858  1.5428  3.1666
 4447SOL    HW224978   1.876   0.861  14.495 -1.9030  2.0876  0.8648
 4448SOL     OW24979   3.537   4.444   2.444 -0.1452  0.3817 -0.0205
 4448SOL    HW124980   3.537   4.535   2.471 -0.5301  0.2701  0.3582
 4448SOL    HW224981   3.509   4.403   2.525 -0.9724 -0.2197 -0.6032
 4449SOL     OW24982   3.841   0.520  11.662 -0.7979 -0.0044  0.0835
 4449SOL    HW124983   3.910   0.555  11.604 -0.7870  1.2705  0.8728
 4449SOL    HW224984   3.781   0.594  11.654  0.5512  1.3040  1.8963
 4450SOL     OW24985   2.107   0.769  17.532 -0.1305  0.2378 -0.3253
 4450SOL    HW124986   2.052   0.768  17.454  2.4332 -1.1234 -2.0982
 4450SOL    HW224987   2.171   0.710  17.492 -0.5185 -0.6291  0.3239
 4451SOL     OW24988   0.209   2.242   9.158 -0.0153  0.5636 -0.0954
 4451SOL    HW124989   0.226   2.153   9.126  0.1327  0.6502 -0.2597
 4451SOL    HW224990   0.288   2.259   9.208  0.5419 -0.9506 -0.4422
 4452SOL     OW24991   2.529   0.745   0.523 -0.3825 -0.3901 -0.6393
 4452SOL    HW124992   2.612   0.779   0.557  0.5881 -1.8408 -1.5223
 4452SOL    HW224993   2.571   0.678   0.469  1.7089  0.9151 -0.6481
 4453SOL     OW24994   1.123   0.681   4.784 -0.1407 -0.1659 -1.0156
 4453SOL    HW124995   1.029   0.691   4.796 -0.1735 -1.5011 -0.0090
 4453SOL    HW224996   1.144   0.636   4.866  0.8144 -0.1288 -1.2371
 4454SOL     OW24997   2.338   4.016   6.275 -0.2898 -0.3610  0.0768
 4454SOL    HW124998   2.265   3.954   6.275  0.8525 -1.7238 -1.9092
 4454SOL    HW224999   2.370   4.002   6.186  1.3495 -0.8566  0.7418
 4455SOL     OW25000   1.461   3.934   7.802  0.4832  0.0349  0.0884
 4455SOL    HW125001   1.521   4.005   7.780 -0.9648  1.6994  1.5320
 4455SOL    HW225002   1.410   3.968   7.875 -1.1758  1.5697 -1.7989
 4456SOL     OW25003   3.069   0.644   5.445 -0.0212  0.0642  0.1407
 4456SOL    HW125004   3.033   0.557   5.430 -1.1331  0.3263  1.2409
 4456SOL    HW225005   3.161   0.639   5.418  0.2232  1.9188  0.5843
 4457SOL     OW25006   2.389   1.035  11.031 -0.0250 -0.0612  0.2100
 4457SOL    HW125007   2.419   0.955  10.988  0.6707  0.0146  0.5674
 4457SOL    HW225008   2.470   1.085  11.029 -0.3375  0.4339 -0.0606
 4458SOL     OW25009   2.294   1.233   7.363  0.5236  0.1706  0.1004
 4458SOL    HW125010   2.297   1.168   7.433  2.0185  0.1722  0.0408
 4458SOL    HW225011   2.281   1.314   7.411 -0.1716  1.4819 -2.3014
 4459SOL     OW25012   1.316   2.742   0.900 -0.1918 -0.1247 -0.3700
 4459SOL    HW125013   1.333   2.799   0.825  2.4710  0.0990  0.4103
 4459SOL    HW225014   1.293   2.811   0.962 -0.4855 -0.4819 -0.0873
 4460SOL     OW25015   0.700   2.150  14.203  0.6505 -0.4194 -0.3240
 4460SOL    HW125016   0.711   2.220  14.139  0.1223 -0.4434 -0.4431
 4460SOL    HW225017   0.762   2.178  14.270 -0.1460 -0.5835  0.4852
 4461SOL     OW25018   4.379   0.736  12.002 -0.2740 -0.3524  0.4000
 4461SOL    HW125019   4.386   0.688  11.920 -1.1296  0.0828  0.0733
 4461SOL    HW225020   4.363   0.823  11.967 -0.2056  0.2471  1.8357
 4462SOL     OW25021   2.229   0.934   2.249  0.5496  0.2638 -0.2433
 4462SOL    HW125022   2.261   1.015   2.210 -2.4485  2.2222  1.3561
 4462SOL    HW225023   2.137   0.961   2.259  1.1849  1.9640  1.0508
 4463SOL     OW25024   3.872   1.883  17.528  0.3086 -0.1095  0.2950
 4463SOL    HW125025   3.888   1.932  17.447  0.9214 -0.6089  0.1122
 4463SOL    HW225026   3.918   1.801  17.510 -1.5870 -0.8169 -1.3049
 4464SOL     OW25027   1.137   0.050   0.292  0.0982 -0.6298 -0.3393
 4464SOL    HW125028   1.223   0.084   0.267  0.0399  0.0392  0.3873
 4464SOL    HW225029   1.120   0.085   0.379 -2.1566  1.1566 -1.5144
 4465SOL     OW25030   4.613   4.149   5.795  0.6671  0.4575  0.1766
 4465SOL    HW125031   4.607   4.191   5.710 -0.0722  1.8417  0.8964
 4465SOL    HW225032   4.631   4.058   5.774 -1.3019 -0.6608  3.2209
 4466SOL     OW25033   4.327   1.526   7.916 -0.7875 -0.4182  0.1699
 4466SOL    HW125034   4.340   1.597   7.853 -0.5003  1.2164  2.0515
 4466SOL    HW225035   4.307   1.456   7.854  0.7817  0.6373 -1.5299
 4467SOL     OW25036   0.595   1.699   1.176  0.1819 -0.0500 -0.7636
 4467SOL    HW125037   0.609   1.614   1.218 -3.2160 -0.6295 -0.8280
 4467SOL    HW225038   0.513   1.724   1.219  1.5029  1.0619  1.0953
 4468SOL     OW25039   4.223   0.809   2.665  0.3800 -0.1810 -0.5640
 4468SOL    HW125040   4.155   0.876   2.659 -0.1612 -0.4368  2.6500
 4468SOL    HW225041   4.214   0.787   2.572  0.0516  1.6711 -0.9727
 4469SOL     OW25042   0.406   1.251  12.842  0.1068  0.2003  0.3966
 4469SOL    HW125043   0.462   1.175  12.826  1.1327  1.4370 -1.9059
 4469SOL    HW225044   0.354   1.216  12.914 -2.8347 -1.0638 -2.3633
 4470SOL     OW25045   3.869   3.429   1.238  0.0826 -0.3834  0.2062
 4470SOL    HW125046   3.852   3.518   1.268 -0.6891 -1.0004  1.6401
 4470SOL    HW225047   3.790   3.409   1.189 -1.0089  1.5239  1.2049
 4471SOL     OW25048   1.368   0.441   7.726 -0.0494 -0.2124 -0.4655
 4471SOL    HW125049   1.310   0.378   7.770 -0.0147  0.8115  1.0673
 4471SOL    HW225050   1.454   0.413   7.757 -1.1466 -1.7655  1.1748
 4472SOL     OW25051   3.136   2.990  12.829 -0.1637 -0.0254  0.1664
 4472SOL    HW125052   3.186   2.915  12.796  1.5619  1.3045 -0.2137
 4472SOL    HW225053   3.049   2.952  12.839  0.7269 -2.0375  0.2542
 4473SOL     OW25054   0.404   2.702   4.613 -0.6023 -0.3908 -0.3647
 4473SOL    HW125055   0.480   2.645   4.607  0.8971  1.9157 -3.1345
 4473SOL    HW225056   0.434   2.792   4.621 -2.2681  0.1832 -0.5039
 4474SOL     OW25057   0.555   4.273   5.137 -0.2835  0.4455  0.1201
 4474SOL    HW125058   0.539   4.227   5.220  0.2013  1.0166  0.5336
 4474SOL    HW225059   0.477   4.326   5.125 -1.6543 -2.0075 -1.7045
 4475SOL     OW25060   2.097   2.552   3.240  0.4880 -0.2795 -0.4353
 4475SOL    HW125061   2.072   2.638   3.273  1.2953 -0.2266  0.0381
 4475SOL    HW225062   2.008   2.523   3.223 -0.1079 -0.6632  3.2870
 4476SOL     OW25063   3.786   0.163   7.866 -0.1871  0.4847 -0.3359
 4476SOL    HW125064   3.743   0.235   7.911 -0.3209  0.0536  0.2227
 4476SOL    HW225065   3.875   0.198   7.865 -0.0975  0.3144  2.4438
 4477SOL     OW25066   2.259   3.572  17.245 -0.2073 -0.2174  0.8926
 4477SOL    HW125067   2.183   3.617  17.280  0.0464  0.8611  0.0691
 4477SOL    HW225068   2.238   3.547  17.155 -0.7061 -1.0777  1.2426
 4478SOL     OW25069   2.038   2.593   5.604  0.2446 -0.1140 -0.0083
 4478SOL    HW125070   2.072   2.682   5.605 -0.8611  0.3194 -2.3370
 4478SOL    HW225071   2.082   2.549   5.678  0.8693  0.1596 -0.2153
 4479SOL     OW25072   2.378   4.133   4.107 -0.3298  0.4182  0.0335
 4479SOL    HW125073   2.430   4.146   4.028  0.9609 -0.7040  0.6781
 4479SOL    HW225074   2.300   4.088   4.076  0.9501 -1.7794  0.0073
 4480SOL     OW25075   3.166   2.877   9.098  0.5547 -0.1640 -0.3363
 4480SOL    HW125076   3.105   2.852   9.028  0.9481  1.0931 -1.1341
 4480SOL    HW225077   3.132   2.960   9.129  1.8480  0.1262  0.3174
 4481SOL     OW25078   4.553   0.730   3.713  0.0188  0.1768  0.0983
 4481SOL    HW125079   4.555   0.786   3.791 -0.8768  1.6550 -0.9367
 4481SOL    HW225080   4.643   0.726   3.679  0.9704  0.7545  2.5281
 4482SOL     OW25081   0.330   1.705   5.902  0.4576  0.1899 -0.5066
 4482SOL    HW125082   0.326   1.630   5.961 -0.1658 -0.4656 -1.3929
 4482SOL    HW225083   0.254   1.751   5.939 -0.4024 -1.6403 -0.0186
 4483SOL     OW25084   1.907   1.937   5.373  0.2869  0.0632  0.2666
 4483SOL    HW125085   1.830   1.943   5.430  2.8993 -0.4017  3.8261
 4483SOL    HW225086   1.863   1.975   5.297  0.6582 -2.1181 -1.0409
 4484SOL     OW25087   0.512   3.865   2.800  0.2622 -0.4206 -0.2337
 4484SOL    HW125088   0.541   3.935   2.743  1.9946 -0.0497  1.0987
 4484SOL    HW225089   0.418   3.878   2.806  0.6210  1.8616  0.2807
 4485SOL     OW25090   4.636   3.384   6.318  0.2583 -0.7887  0.2429
 4485SOL    HW125091   4.656   3.423   6.403 -0.8456 -3.1151  1.5450
 4485SOL    HW225092   4.727   3.357   6.306  0.4006 -0.0653 -0.3878
 4486SOL     OW25093   3.175   0.930   5.695  0.0858  0.3290 -0.0182
 4486SOL    HW125094   3.220   0.953   5.614  0.8607 -1.7170 -0.1766
 4486SOL    HW225095   3.252   0.898   5.741 -0.2601 -0.9139 -0.2820
 4487SOL     OW25096   4.019   0.249   6.186  0.0411  0.8184  0.3110
 4487SOL    HW125097   4.022   0.250   6.090 -0.5503 -1.4247  0.2726
 4487SOL    HW225098   4.105   0.210   6.204 -1.5283 -0.9178  3.9208
 4488SOL     OW25099   1.126   0.899   5.460  0.1034 -0.5793 -0.3849
 4488SOL    HW125100   1.166   0.948   5.388 -0.7247 -0.2427 -0.6138
 4488SOL    HW225101   1.164   0.933   5.541 -0.9599  0.6007 -0.3701
 4489SOL     OW25102   2.265   0.101  14.211  0.0983  0.2146 -0.1908
 4489SOL    HW125103   2.261   0.193  14.236  0.6392  0.3959 -0.7575
 4489SOL    HW225104   2.340   0.064  14.258  0.1729  0.4974 -0.0865
 4490SOL     OW25105   0.932   3.910   1.866  0.9609 -0.3232 -0.2912
 4490SOL    HW125106   0.887   3.908   1.781 -0.1440  1.4922  0.2365
 4490SOL    HW225107   0.906   3.826   1.905  0.1793 -0.4893 -1.1751
 4491SOL     OW25108   4.146   2.849  17.706 -0.7410  0.0111  0.8714
 4491SOL    HW125109   4.162   2.892  17.622 -2.2718  1.2936  1.2352
 4491SOL    HW225110   4.223   2.793  17.716 -0.4388  0.5219  1.3577
 4492SOL     OW25111   3.780   0.043  17.369  0.6044  0.0463  0.0034
 4492SOL    HW125112   3.693   0.048  17.328  0.3828 -3.2199  0.0811
 4492SOL    HW225113   3.769   4.708  17.431  1.5160 -0.9028 -0.9545
 4493SOL     OW25114   3.770   2.971   9.763  0.2553  0.1626  0.1725
 4493SOL    HW125115   3.815   2.889   9.786  1.4336  0.3864 -1.3190
 4493SOL    HW225116   3.841   3.008   9.710 -1.2215 -1.5359 -3.0168
 4494SOL     OW25117   0.059   3.468   5.045  0.1538  0.2470  0.2078
 4494SOL    HW125118   0.023   3.381   5.027 -0.1692  0.1631  1.2895
 4494SOL    HW225119   0.131   3.476   4.982 -0.9473  1.7960 -0.8566
 4495SOL     OW25120   1.843   4.118   9.151 -0.2951 -0.5562 -0.6411
 4495SOL    HW125121   1.828   4.143   9.242  1.4650 -1.7154 -0.0378
 4495SOL    HW225122   1.853   4.023   9.160  0.3906 -0.4114  0.0488
 4496SOL     OW25123   0.196   1.391   9.741  0.0161 -0.0490  0.0986
 4496SOL    HW125124   0.252   1.319   9.770 -1.2934 -1.1595 -0.1213
 4496SOL    HW225125   0.174   1.377   9.649  0.5589  0.2698 -0.0773
 4497SOL     OW25126   1.973   2.569   8.277 -0.1181 -0.0759  0.5946
 4497SOL    HW125127   1.927   2.528   8.204  0.0788  0.5935  0.0936
 4497SOL    HW225128   1.989   2.486   8.323  0.4020  0.0215  0.5974
 4498SOL     OW25129   2.065   3.975   8.645  0.4498 -0.0360 -0.5442
 4498SOL    HW125130   2.131   3.935   8.590  1.7995  0.3265  0.8070
 4498SOL    HW225131   2.112   4.056   8.664 -1.5242  1.3601 -1.6019
 4499SOL     OW25132   4.278   2.453   7.288 -0.1223  0.5148  0.4075
 4499SOL    HW125133   4.206   2.515   7.292 -1.1040 -0.5941 -0.0884
 4499SOL    HW225134   4.235   2.368   7.296  1.7461 -0.3906  0.7938
 4500SOL     OW25135   1.826   1.229   3.409  0.1860  0.0649 -0.0546
 4500SOL    HW125136   1.839   1.295   3.341  2.2040 -0.8466 -0.5856
 4500SOL    HW225137   1.797   1.157   3.352 -0.2618 -0.7677  1.2212
 4501SOL     OW25138   2.692   4.141   2.564 -0.2976  0.3198 -0.1953
 4501SOL    HW125139   2.730   4.214   2.613  1.6510 -0.0125 -1.2232
 4501SOL    HW225140   2.758   4.073   2.580  0.5465  1.3566  0.7390
 4502SOL     OW25141   3.089   1.847   2.070  0.0104  0.6952  0.1882
 4502SOL    HW125142   2.997   1.843   2.046  0.3120 -0.0480 -0.8208
 4502SOL    HW225143   3.110   1.754   2.068 -0.5858  0.5956 -1.0708
 4503SOL     OW25144   3.366   0.380   7.611 -0.0024 -0.3177  0.2478
 4503SOL    HW125145   3.417   0.458   7.632 -2.0278  0.8924  0.6499
 4503SOL    HW225146   3.276   0.410   7.627  0.6257  2.1320 -0.8402
 4504SOL     OW25147   3.610   3.673   8.866 -0.8569  0.2382  0.8218
 4504SOL    HW125148   3.590   3.590   8.909  1.6881 -1.5976 -1.5947
 4504SOL    HW225149   3.684   3.647   8.812 -2.0454 -0.3353 -0.5330
 4505SOL     OW25150   1.671   0.465  16.048 -0.2822  0.1251  0.1216
 4505SOL    HW125151   1.616   0.442  15.974  0.5819 -0.1828 -0.4286
 4505SOL    HW225152   1.694   0.378  16.082 -1.0657 -0.3473 -0.5649
 4506SOL     OW25153   2.533   0.865  10.336  0.0752  0.2045  0.4445
 4506SOL    HW125154   2.563   0.779  10.367  1.1404 -0.1918 -1.7081
 4506SOL    HW225155   2.617   0.887  10.297  0.6703 -2.3066  0.2896
 4507SOL     OW25156   1.431   0.295   4.743 -0.3810  0.4025 -0.0655
 4507SOL    HW125157   1.347   0.339   4.727 -2.0105 -2.8962 -0.4582
 4507SOL    HW225158   1.464   0.359   4.807 -0.1633  0.8770 -0.6566
 4508SOL     OW25159   0.146   4.398   5.369  0.0835 -0.5269 -0.3064
 4508SOL    HW125160   0.146   4.489   5.401  0.3203 -0.4033 -0.6540
 4508SOL    HW225161   0.092   4.359   5.438  1.1572 -1.4091  0.0328
 4509SOL     OW25162   2.542   3.631   3.360  0.6724 -0.2282  0.5506
 4509SOL    HW125163   2.530   3.726   3.363  1.2022 -0.1305 -0.8106
 4509SOL    HW225164   2.518   3.608   3.450 -1.6009 -2.3207 -0.5735
 4510SOL     OW25165   2.536   4.209   7.442  0.0800 -0.1297  0.3726
 4510SOL    HW125166   2.527   4.130   7.494  1.0281 -1.5965 -1.6612
 4510SOL    HW225167   2.623   4.197   7.402  0.0901  0.9494  0.0482
 4511SOL     OW25168   4.673   1.492   3.570  0.4140  0.0791 -0.1674
 4511SOL    HW125169   0.027   1.492   3.599  0.4791 -0.3907 -0.3670
 4511SOL    HW225170   4.670   1.571   3.515 -0.5005 -0.2617 -0.6089
 4512SOL     OW25171   0.410   1.821   7.682 -0.3325 -0.0717 -0.1294
 4512SOL    HW125172   0.376   1.788   7.766 -0.2088 -1.8430 -0.7662
 4512SOL    HW225173   0.423   1.914   7.699 -4.0644  0.5908 -0.8661
 4513SOL     OW25174   2.523   3.938   3.340  0.2459  0.2691 -0.2462
 4513SOL    HW125175   2.516   4.030   3.315 -0.1130 -0.2385 -2.0063
 4513SOL    HW225176   2.596   3.904   3.288  0.4662 -2.7662  2.0780
 4514SOL     OW25177   0.615   1.019   9.118 -0.5960 -0.9695  0.2859
 4514SOL    HW125178   0.701   0.976   9.117  0.8242  1.8226  1.0504
 4514SOL    HW225179   0.642   1.103   9.154 -1.8235  0.6416 -2.5826
 4515SOL     OW25180   0.572   2.232   2.248 -0.0674 -0.1268 -0.3465
 4515SOL    HW125181   0.590   2.250   2.156 -1.2264  2.2254 -0.1022
 4515SOL    HW225182   0.602   2.315   2.285 -2.2456  0.5678 -0.1674
 4516SOL     OW25183   2.525   3.656  13.494 -0.0872 -0.2426  0.3494
 4516SOL    HW125184   2.469   3.622  13.425 -1.5744  3.2149 -0.1705
 4516SOL    HW225185   2.496   3.603  13.568  0.0251  1.3476  1.5429
 4517SOL     OW25186   3.647   0.629   6.453  0.0186 -0.7095  0.0461
 4517SOL    HW125187   3.724   0.651   6.505  0.6450 -0.7615 -0.8598
 4517SOL    HW225188   3.673   0.565   6.387  1.3280  0.3105 -0.4253
 4518SOL     OW25189   2.898   1.933   2.638 -0.3786 -0.2031  0.4218
 4518SOL    HW125190   2.856   2.013   2.606 -1.6401 -1.1077 -0.1993
 4518SOL    HW225191   2.975   1.940   2.582 -1.0317  1.5853 -0.2409
 4519SOL     OW25192   2.785   2.346   7.315 -0.5751  0.1409 -0.1944
 4519SOL    HW125193   2.743   2.423   7.355 -0.0877 -0.0196  0.6326
 4519SOL    HW225194   2.702   2.321   7.274 -1.2721  2.1406 -0.0038
 4520SOL     OW25195   3.502   1.412  12.247 -0.1531 -0.1151 -0.3465
 4520SOL    HW125196   3.564   1.419  12.175  0.0917  1.0356 -0.0235
 4520SOL    HW225197   3.440   1.354  12.203 -0.7553  1.4318 -1.5484
 4521SOL     OW25198   1.208   3.001   7.889  0.5165  0.8026 -0.0988
 4521SOL    HW125199   1.135   3.058   7.866 -0.7443 -1.0857 -0.6850
 4521SOL    HW225200   1.219   3.014   7.983 -1.3102 -1.0624  0.3558
 4522SOL     OW25201   0.867   0.781   9.779 -0.1345 -0.0164 -0.7027
 4522SOL    HW125202   0.895   0.812   9.865 -3.2546 -0.8240  0.5922
 4522SOL    HW225203   0.854   0.688   9.801  1.1214 -0.3917 -1.5972
 4523SOL     OW25204   1.790   0.024   6.410 -0.3750  0.0412 -0.4256
 4523SOL    HW125205   1.785   0.024   6.505 -0.2533  0.5601 -0.4207
 4523SOL    HW225206   1.705   4.725   6.387  0.0677 -0.9765 -0.4940
 4524SOL     OW25207   4.309   3.633   7.743  0.5035 -0.5323 -0.7606
 4524SOL    HW125208   4.237   3.690   7.772  1.6566  0.7272 -0.3892
 4524SOL    HW225209   4.261   3.550   7.744  0.2144 -0.3645  0.9626
 4525SOL     OW25210   0.568   2.446   3.191 -0.5110 -0.0839 -0.0712
 4525SOL    HW125211   0.605   2.417   3.274 -0.7372  1.2971  0.5175
 4525SOL    HW225212   0.514   2.522   3.216  1.2573  1.3357 -0.5964
 4526SOL     OW25213   3.268   0.884   0.108  0.3268 -0.0115  0.2960
 4526SOL    HW125214   3.267   0.875   0.203  0.6603 -1.3756  0.1646
 4526SOL    HW225215   3.356   0.853   0.089 -0.0658 -1.9721  1.7039
 4527SOL     OW25216   2.345   1.910   0.690 -0.2721 -0.0253  0.1752
 4527SOL    HW125217   2.279   1.960   0.641 -0.4406 -0.0320  0.3974
 4527SOL    HW225218   2.408   1.924   0.619 -0.7377  0.9285 -0.0572
 4528SOL     OW25219   3.070   0.313  17.610 -0.4598  0.1007  0.4091
 4528SOL    HW125220   2.981   0.348  17.610 -0.1512  0.9077  4.0045
 4528SOL    HW225221   3.045   0.227  17.577  1.5035 -0.0435 -0.6818
 4529SOL     OW25222   4.555   2.069   0.910  0.0063 -0.1859  0.0882
 4529SOL    HW125223   4.553   1.996   0.972 -0.9903 -0.3193 -0.0916
 4529SOL    HW225224   4.556   2.015   0.831 -2.9380  1.1016 -0.8517
 4530SOL     OW25225   2.766   0.246  10.546 -0.4494  0.1580  0.7821
 4530SOL    HW125226   2.769   0.290  10.631 -0.1118 -0.0322  0.8693
 4530SOL    HW225227   2.842   0.188  10.550  1.4214  2.6204  0.5086
 4531SOL     OW25228   2.759   0.222   7.207 -0.2065  0.7866 -0.6081
 4531SOL    HW125229   2.850   0.210   7.235 -0.1156 -0.2533 -1.3304
 4531SOL    HW225230   2.722   0.150   7.258  0.6246 -0.5142 -1.8166
 4532SOL     OW25231   3.208   2.828   6.438 -0.4329 -0.4314  0.0105
 4532SOL    HW125232   3.146   2.900   6.433  0.4933  0.4548  1.2164
 4532SOL    HW225233   3.222   2.814   6.532  1.2637  0.5299 -0.1072
 4533SOL     OW25234   2.737   4.077   5.527 -0.2656  0.1733  0.4580
 4533SOL    HW125235   2.680   4.152   5.546  0.9410  0.6566  2.2172
 4533SOL    HW225236   2.685   4.009   5.569 -1.3859  0.4629 -0.4785
 4534SOL     OW25237   1.529   1.624   2.903  0.1582 -0.1457  0.5343
 4534SOL    HW125238   1.467   1.696   2.887  0.0354 -0.3316  0.1783
 4534SOL    HW225239   1.612   1.665   2.926 -0.2249 -0.3938  2.3698
 4535SOL     OW25240   1.960   2.169  10.309  0.1541 -0.4146  0.5693
 4535SOL    HW125241   2.035   2.201  10.359  1.0764 -1.7887  0.0517
 4535SOL    HW225242   1.976   2.187  10.217 -0.0783 -1.1485  0.3920
 4536SOL     OW25243   2.586   0.563  13.523 -0.3063  0.1431 -0.8195
 4536SOL    HW125244   2.649   0.631  13.498 -0.5669  0.4392 -0.6717
 4536SOL    HW225245   2.528   0.569  13.447 -1.1437  1.1870 -0.1008
 4537SOL     OW25246   3.836   2.230  17.320 -0.3683 -0.1804 -0.4495
 4537SOL    HW125247   3.887   2.150  17.334 -0.9984 -0.4601  0.2406
 4537SOL    HW225248   3.857   2.248  17.229 -1.4585 -1.9822 -1.0470
 4538SOL     OW25249   0.532   1.861   3.625 -0.2899 -0.1803  0.3785
 4538SOL    HW125250   0.442   1.893   3.626 -0.4382 -0.6312  1.0168
 4538SOL    HW225251   0.566   1.892   3.709  1.2916  0.3575 -0.4672
 4539SOL     OW25252   2.433   2.510   5.274 -0.0059  0.8056 -0.2879
 4539SOL    HW125253   2.425   2.441   5.208  0.6737 -0.3638  0.8656
 4539SOL    HW225254   2.340   2.524   5.293  0.0414  1.3078 -0.4242
 4540SOL     OW25255   0.135   1.726  13.592 -0.3613 -0.1627  0.2360
 4540SOL    HW125256   0.165   1.799  13.538  1.5073 -0.9887  0.1431
 4540SOL    HW225257   0.048   1.722  13.552 -0.4998 -0.5977  0.5754
 4541SOL     OW25258   0.401   0.993   9.290 -0.3621 -0.3070 -0.3761
 4541SOL    HW125259   0.466   1.002   9.359 -0.7288 -0.9089  0.0495
 4541SOL    HW225260   0.460   1.013   9.218 -1.7443  1.1888 -1.0996
 4542SOL     OW25261   1.007   0.484   0.452 -0.5121 -0.6923  0.1441
 4542SOL    HW125262   0.999   0.483   0.547  1.5278 -1.2145  0.3246
 4542SOL    HW225263   1.097   0.517   0.448 -0.6867 -0.3938 -1.4306
 4543SOL     OW25264   0.017   2.872   5.686  0.2945 -0.1378  0.3503
 4543SOL    HW125265   0.027   2.897   5.594 -1.1404  0.2578  0.3089
 4543SOL    HW225266   4.661   2.880   5.705 -0.0247 -2.0609 -0.3708
 4544SOL     OW25267   1.051   4.099  17.141  0.5585 -0.0923  0.2475
 4544SOL    HW125268   0.984   4.060  17.198 -0.4609  1.7174  0.2856
 4544SOL    HW225269   1.019   4.056  17.061 -0.4884  0.3836  0.4098
 4545SOL     OW25270   3.330   4.641   4.757  0.4793 -0.5445  1.0708
 4545SOL    HW125271   3.353   4.669   4.846  1.7689 -0.9594  0.8718
 4545SOL    HW225272   3.238   4.640   4.781  0.4460 -0.0910  0.9619
 4546SOL     OW25273   2.115   4.439   7.289  0.8532 -0.4984 -0.0190
 4546SOL    HW125274   2.063   4.359   7.297 -0.5460  0.3889 -0.1763
 4546SOL    HW225275   2.107   4.463   7.196 -0.7183  1.3971  0.5910
 4547SOL     OW25276   2.513   2.044   1.070  0.4598  0.1661  0.4780
 4547SOL    HW125277   2.505   2.136   1.048 -1.1693 -0.3998 -1.3051
 4547SOL    HW225278   2.556   2.012   0.991 -1.3828 -1.5107  0.1323
 4548SOL     OW25279   3.942   4.164  17.534  0.2837 -0.4650 -0.3285
 4548SOL    HW125280   3.857   4.163  17.576  0.2993  2.3252 -0.2607
 4548SOL    HW225281   3.979   4.251  17.551  1.7052 -0.9256 -1.0154
 4549SOL     OW25282   1.591   4.709   5.157 -0.3142  0.0453 -0.1123
 4549SOL    HW125283   1.583   0.067   5.157 -2.1377 -0.1136 -1.2983
 4549SOL    HW225284   1.504   4.695   5.119 -0.6276 -0.7406  0.8931
 4550SOL     OW25285   1.738   1.111  13.426 -0.4404 -0.2636 -0.3302
 4550SOL    HW125286   1.811   1.071  13.474  1.7862  2.2778 -1.6015
 4550SOL    HW225287   1.782   1.159  13.356  0.0197  0.1776  0.2607
 4551SOL     OW25288   0.391   3.463   9.209  0.6272  0.2078 -0.6679
 4551SOL    HW125289   0.370   3.554   9.229 -2.2719 -0.4765 -0.6382
 4551SOL    HW225290   0.344   3.459   9.126 -2.3973  1.1759  1.0426
 4552SOL     OW25291   0.890   0.866   9.024 -0.0503  0.6050 -0.6719
 4552SOL    HW125292   0.908   0.907   9.109  0.2241 -0.8936 -0.0026
 4552SOL    HW225293   0.958   0.799   9.017 -1.8498 -1.4473  1.3953
 4553SOL     OW25294   2.341   4.212   5.017 -0.5455 -0.1343  0.4182
 4553SOL    HW125295   2.353   4.208   5.112 -0.2642  0.6918  0.4214
 4553SOL    HW225296   2.373   4.300   4.995  1.2434 -0.7923  0.3870
 4554SOL     OW25297   4.127   2.956   7.342 -0.0830  0.1926 -0.4473
 4554SOL    HW125298   4.098   3.013   7.271  1.0160  0.8606 -0.3571
 4554SOL    HW225299   4.215   2.991   7.355  0.3975 -1.5652  1.0350
 4555SOL     OW25300   3.965   4.655   4.559  0.2358 -0.3612 -0.0932
 4555SOL    HW125301   4.038   4.605   4.595  0.5963  0.8138  0.8379
 4555SOL    HW225302   3.924   4.589   4.503 -1.1717  0.5446 -0.1341
 4556SOL     OW25303   1.615   4.712   6.074  0.0614  0.0200  0.0370
 4556SOL    HW125304   1.560   4.723   6.151  0.5008 -1.0351  0.4967
 4556SOL    HW225305   1.668   4.637   6.101  0.5289  0.4485  0.3093
 4557SOL     OW25306   2.693   4.073   5.942 -0.4508  0.0912  0.2841
 4557SOL    HW125307   2.745   4.150   5.966  0.0540 -0.5736  1.2988
 4557SOL    HW225308   2.757   4.009   5.912 -0.1449 -0.0244  1.1929
 4558SOL     OW25309   0.407   0.158   5.628 -0.2314 -0.4354 -0.1138
 4558SOL    HW125310   0.419   0.235   5.572  0.5447 -0.2434  0.3141
 4558SOL    HW225311   0.398   0.196   5.716 -2.5063 -0.8482 -0.1729
 4559SOL     OW25312   1.300   3.460   4.469  0.1590 -0.4464  0.2491
 4559SOL    HW125313   1.384   3.502   4.451 -1.0831  1.1683 -1.7859
 4559SOL    HW225314   1.249   3.513   4.530 -1.9374  0.8445 -2.5881
 4560SOL     OW25315   3.347   1.502  12.698 -0.6341 -0.2510  0.3122
 4560SOL    HW125316   3.375   1.424  12.649 -1.8239 -0.4344 -0.0937
 4560SOL    HW225317   3.429   1.550  12.688 -0.3564 -0.1944  2.9581
 4561SOL     OW25318   1.854   2.543   8.783 -0.0785  0.6384 -0.2305
 4561SOL    HW125319   1.815   2.464   8.747 -0.5944 -0.5245  2.9388
 4561SOL    HW225320   1.924   2.563   8.720  0.3454  2.5678  0.8394
 4562SOL     OW25321   4.029   1.493   5.152 -0.6388  0.4023  0.2060
 4562SOL    HW125322   4.023   1.571   5.207 -0.8722  0.5791 -0.0749
 4562SOL    HW225323   4.117   1.499   5.115 -0.3881  1.9939  1.0351
 4563SOL     OW25324   3.573   3.289   6.755 -0.1068 -0.0990 -0.1316
 4563SOL    HW125325   3.603   3.220   6.814 -1.4160 -0.4033  0.1693
 4563SOL    HW225326   3.598   3.364   6.808  0.5718 -0.9181  0.7132
 4564SOL     OW25327   4.482   3.121   8.278 -0.0603 -0.7822  0.6507
 4564SOL    HW125328   4.576   3.111   8.263 -0.5611 -1.7098 -1.8863
 4564SOL    HW225329   4.450   3.130   8.189 -4.1999 -1.0959  2.0780
 4565SOL     OW25330   3.545   0.813   5.473  0.3896 -0.4415 -0.1961
 4565SOL    HW125331   3.519   0.880   5.410 -0.8209  0.2700  1.0530
 4565SOL    HW225332   3.634   0.801   5.439  0.7601  1.2828  0.2058
 4566SOL     OW25333   0.738   4.653   0.746 -0.3756 -0.3833  0.5968
 4566SOL    HW125334   0.782   4.733   0.775  1.4718 -1.2120  0.0337
 4566SOL    HW225335   0.799   4.580   0.756 -0.4669 -0.6571 -0.8492
 4567SOL     OW25336   2.533   1.020   5.815 -0.3723 -0.0197  0.5739
 4567SOL    HW125337   2.497   1.109   5.814 -2.3998 -0.8205  1.3981
 4567SOL    HW225338   2.595   1.019   5.742 -0.5945  0.7064  0.3710
 4568SOL     OW25339   4.363   1.845   3.458 -0.0368  0.4855 -0.4495
 4568SOL    HW125340   4.434   1.898   3.494  0.3509  0.6112 -1.3780
 4568SOL    HW225341   4.288   1.905   3.459 -0.0873  0.3358  3.1734
 4569SOL     OW25342   4.708   1.371   5.523  0.3655 -0.2489  0.2162
 4569SOL    HW125343   4.735   1.405   5.438  0.2835  2.1757  1.1744
 4569SOL    HW225344   0.037   1.302   5.529  0.4830 -0.1091  0.5111
 4570SOL     OW25345   0.838   3.807   7.220  0.2715  0.0413  0.1753
 4570SOL    HW125346   0.820   3.714   7.206 -0.5099  0.3894 -1.1358
 4570SOL    HW225347   0.863   3.810   7.313 -2.4510  2.0788  0.8154
 4571SOL     OW25348   2.110   2.383   3.541 -0.4739  0.1580  0.6904
 4571SOL    HW125349   2.182   2.435   3.507  0.2650 -1.6688 -0.5511
 4571SOL    HW225350   2.049   2.372   3.468 -0.1543 -1.9593  0.7417
 4572SOL     OW25351   4.249   0.399   4.297 -0.0042 -0.0857 -0.4635
 4572SOL    HW125352   4.217   0.476   4.251  0.8668  0.2826 -0.4650
 4572SOL    HW225353   4.266   0.343   4.221  2.3919  1.4968 -1.1024
 4573SOL     OW25354   1.146   3.051   6.702 -0.0416 -0.6190  0.0717
 4573SOL    HW125355   1.165   2.987   6.634 -0.0818  1.0238 -1.4864
 4573SOL    HW225356   1.226   3.105   6.703 -3.1228  3.9983 -2.4411
 4574SOL     OW25357   1.862   4.510   7.468  0.5256  0.1263 -0.2383
 4574SOL    HW125358   1.911   4.506   7.385  0.0615  1.0376 -0.5581
 4574SOL    HW225359   1.814   4.427   7.462  1.1537 -0.2767  0.4068
 4575SOL     OW25360   0.623   0.679   2.477  0.4207 -0.7488 -0.0254
 4575SOL    HW125361   0.543   0.629   2.491 -0.9475  1.1689 -1.0315
 4575SOL    HW225362   0.607   0.734   2.554  0.1692  0.9978 -1.3118
 4576SOL     OW25363   0.166   1.997  13.058  0.2385 -0.1671 -0.0250
 4576SOL    HW125364   0.116   2.079  13.066 -0.4008 -0.6069  0.4759
 4576SOL    HW225365   0.117   1.951  12.991 -0.0107  0.6786 -0.4260
 4577SOL     OW25366   0.788   0.831  13.706  0.1402 -0.1503  0.0313
 4577SOL    HW125367   0.832   0.906  13.668 -0.3615 -0.4433 -1.1173
 4577SOL    HW225368   0.713   0.814  13.649  0.9750  0.3443 -1.2046
 4578SOL     OW25369   4.513   2.886  10.337 -0.9565  0.1620 -0.1101
 4578SOL    HW125370   4.585   2.837  10.378 -0.3196  0.1734 -1.2199
 4578SOL    HW225371   4.453   2.816  10.364  0.6663 -2.3583 -3.0137
 4579SOL     OW25372   1.325   4.432   2.198  0.4868  0.2194  0.2644
 4579SOL    HW125373   1.235   4.433   2.166 -0.1130 -1.6362  1.9175
 4579SOL    HW225374   1.346   4.339   2.211 -2.1803 -0.3124  0.6875
 4580SOL     OW25375   2.453   0.923   0.891 -0.3281  0.1070 -0.1437
 4580SOL    HW125376   2.544   0.895   0.891 -0.5095 -0.4501 -1.3824
 4580SOL    HW225377   2.405   0.847   0.858  1.3539 -1.3761  0.8108
 4581SOL     OW25378   1.783   3.280   2.165  0.1285 -0.0307  0.6780
 4581SOL    HW125379   1.793   3.358   2.111 -0.2442  0.8693  1.9172
 4581SOL    HW225380   1.697   3.249   2.136 -0.9910  1.1387  2.6936
 4582SOL     OW25381   2.064   0.335   6.197 -0.4608  0.1212 -0.3434
 4582SOL    HW125382   2.040   0.253   6.153  1.6547  0.1602 -1.5597
 4582SOL    HW225383   2.148   0.309   6.235  0.0502  1.6930 -0.4139
 4583SOL     OW25384   2.313   0.843  13.915 -0.2549  0.1060 -0.0125
 4583SOL    HW125385   2.363   0.924  13.912 -1.8113  1.0799  0.4866
 4583SOL    HW225386   2.348   0.805  13.834 -1.0718  0.0786 -0.3530
 4584SOL     OW25387   1.711   3.679   2.819 -0.0538  0.4928 -0.2079
 4584SOL    HW125388   1.775   3.746   2.839  0.4083 -0.1005  0.3162
 4584SOL    HW225389   1.752   3.637   2.743  0.0588  0.3347 -0.0605
 4585SOL     OW25390   3.307   1.909   8.657 -0.3183 -0.1375  0.0906
 4585SOL    HW125391   3.314   1.816   8.635  1.8197  0.4259 -1.5649
 4585SOL    HW225392   3.345   1.943   8.576 -1.6388  0.1688 -0.4030
 4586SOL     OW25393   1.725   2.572   1.471 -0.4467 -0.2428 -0.2271
 4586SOL    HW125394   1.815   2.550   1.445 -0.2813 -1.6244  1.4881
 4586SOL    HW225395   1.669   2.498   1.445 -1.4273  0.2049  0.6330
 4587SOL     OW25396   0.945   0.712   1.980 -0.3967  0.0447  0.6156
 4587SOL    HW125397   0.948   0.616   1.974 -1.4906  0.0487 -0.0223
 4587SOL    HW225398   0.924   0.738   2.070 -2.9698  0.0949 -0.0069
 4588SOL     OW25399   0.842   3.774  14.951 -0.2166  0.1981  0.3336
 4588SOL    HW125400   0.922   3.760  14.900 -0.3122 -3.0104  1.1056
 4588SOL    HW225401   0.768   3.747  14.897 -0.1478  0.5636  0.0563
 4589SOL     OW25402   0.915   3.767   5.645 -0.4413 -0.0714 -0.3114
 4589SOL    HW125403   0.969   3.800   5.717 -1.2809 -0.3398  0.4397
 4589SOL    HW225404   0.981   3.768   5.576  1.7171  1.3942  1.7932
 4590SOL     OW25405   0.495   0.395   1.515  0.3096 -0.2017 -0.0430
 4590SOL    HW125406   0.529   0.457   1.579  1.8701 -0.3563 -0.7013
 4590SOL    HW225407   0.504   0.315   1.567 -2.3322  0.4229  1.3409
 4591SOL     OW25408   3.539   0.223  16.995 -0.4641  0.2058 -0.1580
 4591SOL    HW125409   3.594   0.300  16.985  1.8240 -1.1675  1.9961
 4591SOL    HW225410   3.469   0.234  16.931  0.1325 -2.9302 -1.3379
 4592SOL     OW25411   3.434   4.028  12.449  0.1679 -0.0820 -0.0072
 4592SOL    HW125412   3.456   3.947  12.496  1.4007  0.1592 -0.1705
 4592SOL    HW225413   3.485   4.092  12.498 -0.5127  1.0469 -0.7966
 4593SOL     OW25414   3.703   4.254   8.058 -0.1955  0.3797 -0.0462
 4593SOL    HW125415   3.699   4.329   7.998 -2.3351  1.6674  1.6917
 4593SOL    HW225416   3.645   4.198   8.007 -0.3851  0.3914  0.1568
 4594SOL     OW25417   0.303   1.080   6.645 -0.7458  0.3287 -0.1182
 4594SOL    HW125418   0.314   1.156   6.703 -0.1058 -0.9343  1.4185
 4594SOL    HW225419   0.226   1.042   6.688 -0.5362  0.4425  0.3569
 4595SOL     OW25420   1.799   4.185   4.275  0.3061 -0.0313  0.6132
 4595SOL    HW125421   1.890   4.213   4.264 -0.3567  1.0567 -2.0546
 4595SOL    HW225422   1.760   4.272   4.284  0.0668  0.0987 -1.5958
 4596SOL     OW25423   2.882   1.281   1.430  0.1545  0.1868  0.3538
 4596SOL    HW125424   2.885   1.334   1.350 -1.9716 -0.1409  0.0560
 4596SOL    HW225425   2.799   1.319   1.460  0.0119  0.8422 -0.8689
 4597SOL     OW25426   1.087   0.322   6.999 -0.2086  0.2807  0.3161
 4597SOL    HW125427   1.153   0.359   6.940 -0.0786  0.4502  0.5699
 4597SOL    HW225428   1.139   0.282   7.069  1.0979  4.2534  1.6249
 4598SOL     OW25429   2.728   1.493   3.797 -0.1319 -0.0956 -0.1376
 4598SOL    HW125430   2.761   1.535   3.876 -1.5598  1.1688 -0.2239
 4598SOL    HW225431   2.696   1.409   3.831 -2.5898  0.7460 -0.3917
 4599SOL     OW25432   3.309   3.503  15.247 -0.7222 -0.4257 -0.0040
 4599SOL    HW125433   3.403   3.522  15.246 -0.7759 -0.0524  2.8506
 4599SOL    HW225434   3.307   3.421  15.296  1.2058 -1.1648 -1.1378
 4600SOL     OW25435   2.831   1.851   3.368  0.4389  0.0676  0.4197
 4600SOL    HW125436   2.894   1.895   3.424  1.5934 -1.3624  0.2306
 4600SOL    HW225437   2.880   1.819   3.293  0.3566 -0.6682  0.6876
 4601SOL     OW25438   1.322   2.247   0.699 -0.0873  0.4026 -0.1094
 4601SOL    HW125439   1.396   2.209   0.653  0.0809  0.9026 -0.2599
 4601SOL    HW225440   1.362   2.320   0.748  2.3365  0.1713 -1.7550
 4602SOL     OW25441   0.679   1.608   5.154 -0.1926  0.6752 -0.2412
 4602SOL    HW125442   0.595   1.651   5.171 -0.5665  0.0879 -0.5980
 4602SOL    HW225443   0.724   1.685   5.189  1.4398  0.2689 -1.4290
 4603SOL     OW25444   1.927   1.966   7.721 -0.1080 -0.1142  0.1231
 4603SOL    HW125445   1.961   2.052   7.747  0.4745 -0.1241 -0.5792
 4603SOL    HW225446   1.867   1.977   7.647 -0.5199 -0.0484  0.4680
 4604SOL     OW25447   1.535   1.229   6.620  0.3453  0.1797 -0.1327
 4604SOL    HW125448   1.585   1.289   6.564 -1.3627  1.5296 -0.2030
 4604SOL    HW225449   1.598   1.185   6.677 -0.3791  0.9452  1.2612
 4605SOL     OW25450   0.615   3.636   2.666  0.4458 -0.0873 -0.2484
 4605SOL    HW125451   0.592   3.690   2.591 -0.2899 -1.2016 -0.8414
 4605SOL    HW225452   0.574   3.690   2.734  0.5860 -1.6980  1.1388
 4606SOL     OW25453   0.744   0.552   9.839  0.3783 -0.3881  0.3145
 4606SOL    HW125454   0.700   0.493   9.901  0.8413 -2.5785 -1.4469
 4606SOL    HW225455   0.759   0.496   9.763 -2.6174 -1.1136  0.2401
 4607SOL     OW25456   3.734   2.920   2.998 -0.0520 -0.2267 -0.4018
 4607SOL    HW125457   3.728   2.988   2.930  0.3042  0.4873  0.2792
 4607SOL    HW225458   3.694   2.956   3.077  1.5426 -1.3146  0.9040
 4608SOL     OW25459   2.660   1.368   8.538  0.7613 -0.0690 -0.1899
 4608SOL    HW125460   2.654   1.312   8.616  0.0756  1.1485  0.6277
 4608SOL    HW225461   2.737   1.327   8.497  1.7234 -0.8148  2.3574
 4609SOL     OW25462   4.326   2.117   5.095  0.0891 -0.1312  0.4349
 4609SOL    HW125463   4.236   2.100   5.124  0.4944 -2.6148  0.2368
 4609SOL    HW225464   4.340   2.202   5.137  0.4525 -0.7513  1.5734
 4610SOL     OW25465   1.566   1.634   1.001  0.1915  0.0902  0.1814
 4610SOL    HW125466   1.537   1.680   1.080  1.8939 -0.5034  1.1569
 4610SOL    HW225467   1.648   1.674   0.973 -0.0876 -0.6122 -1.6330
 4611SOL     OW25468   4.357   0.248   3.807 -0.2937  0.0085 -0.3133
 4611SOL    HW125469   4.425   0.213   3.749  0.3064  1.9416 -0.7858
 4611SOL    HW225470   4.365   0.342   3.790 -0.9004  0.0440 -0.3997
 4612SOL     OW25471   2.957   3.339   6.674 -0.6208 -0.3472  0.1129
 4612SOL    HW125472   2.986   3.360   6.763  1.6378 -0.4443 -0.5855
 4612SOL    HW225473   3.019   3.396   6.628 -0.0095 -0.9397  0.2052
 4613SOL     OW25474   1.095   1.783   5.017  0.1215 -0.3399 -0.2964
 4613SOL    HW125475   1.086   1.736   5.100 -2.7190 -1.3305 -1.1485
 4613SOL    HW225476   1.085   1.709   4.957  1.1795  2.1697 -3.5596
 4614SOL     OW25477   4.096   0.655   5.756 -0.0181  0.2694  0.2361
 4614SOL    HW125478   4.084   0.743   5.792 -0.2101  0.1650  0.4268
 4614SOL    HW225479   4.080   0.605   5.836  1.5873 -2.6860 -1.2671
 4615SOL     OW25480   1.616   1.411  16.364  0.2091  0.2259  0.6465
 4615SOL    HW125481   1.682   1.477  16.341 -0.8551  1.6863  1.8111
 4615SOL    HW225482   1.539   1.456  16.331  0.3846 -1.1947 -1.6964
 4616SOL     OW25483   0.647   1.588   2.569  0.2581  0.0859 -0.1525
 4616SOL    HW125484   0.558   1.602   2.537 -0.0914 -2.5581 -0.3423
 4616SOL    HW225485   0.677   1.679   2.565  0.8195  0.0764  4.6849
 4617SOL     OW25486   0.854   3.312   9.424 -0.4806  0.4355  0.0205
 4617SOL    HW125487   0.772   3.310   9.473 -0.6639 -1.7459 -0.3868
 4617SOL    HW225488   0.895   3.390   9.463  0.9538 -0.8294  1.0507
 4618SOL     OW25489   4.050   3.141  10.043  0.0347 -0.1926 -0.2283
 4618SOL    HW125490   4.130   3.180  10.008  0.6384 -0.7883  0.4654
 4618SOL    HW225491   4.071   3.048  10.031 -1.4045 -0.3720 -1.3357
 4619SOL     OW25492   3.489   2.309   8.317  0.0551  0.6658  0.3950
 4619SOL    HW125493   3.416   2.328   8.259  0.8848  0.1552 -0.8135
 4619SOL    HW225494   3.491   2.387   8.372  0.6358  0.6722  0.3614
 4620SOL     OW25495   3.113   3.857  14.606 -0.4084  0.2881 -0.0389
 4620SOL    HW125496   3.140   3.769  14.577  0.2643 -0.2840  2.3592
 4620SOL    HW225497   3.121   3.846  14.700  1.2667 -1.9757 -0.4529
 4621SOL     OW25498   0.783   3.125   2.139 -0.1758 -0.0836 -0.1803
 4621SOL    HW125499   0.698   3.127   2.183  0.0354  0.0059  0.2183
 4621SOL    HW225500   0.766   3.040   2.098 -1.0500  0.1321 -0.2777
 4622SOL     OW25501   2.718   1.943  17.609  0.4951 -0.5741  0.8320
 4622SOL    HW125502   2.803   1.919  17.574  0.1368 -0.3865 -0.1851
 4622SOL    HW225503   2.660   1.880  17.567 -0.8627  0.4272  1.1808
 4623SOL     OW25504   0.246   2.389   9.917 -0.3168  0.1787  0.6880
 4623SOL    HW125505   0.223   2.348  10.000 -0.1863  1.5058  1.3769
 4623SOL    HW225506   0.340   2.374   9.919  0.1126  2.3089 -2.9750
 4624SOL     OW25507   1.243   2.668   8.387  0.2255 -0.1569 -0.4680
 4624SOL    HW125508   1.172   2.731   8.372  0.4081 -0.1303 -1.2180
 4624SOL    HW225509   1.227   2.660   8.482  1.1727  2.3495 -0.0939
 4625SOL     OW25510   0.184   4.696   8.896 -0.2538 -0.2910 -0.4151
 4625SOL    HW125511   0.225   0.041   8.867 -1.6035  0.5043 -0.0725
 4625SOL    HW225512   0.103   4.736   8.928  1.2625  2.9488 -0.5868
 4626SOL     OW25513   1.089   0.508   3.276  1.2489 -0.3355 -0.2846
 4626SOL    HW125514   1.089   0.482   3.185 -2.3050 -2.2204  0.2395
 4626SOL    HW225515   1.177   0.541   3.294  1.4780 -0.3953 -1.3543
 4627SOL     OW25516   0.650   0.407  13.201 -0.2768  0.2919  0.2373
 4627SOL    HW125517   0.604   0.486  13.229 -0.0145  1.3640 -2.3465
 4627SOL    HW225518   0.703   0.394  13.280  0.5254 -0.6937 -0.4497
 4628SOL     OW25519   2.964   0.284   6.952 -0.2305  0.2049  0.2667
 4628SOL    HW125520   2.967   0.196   6.990  0.8247 -1.0433 -2.6728
 4628SOL    HW225521   2.960   0.269   6.858  2.9091  1.2623 -0.0395
 4629SOL     OW25522   1.627   2.691   7.650 -0.0670  0.2433  0.2760
 4629SOL    HW125523   1.619   2.636   7.572 -0.2011  0.1477  0.3553
 4629SOL    HW225524   1.537   2.693   7.684 -0.7924 -1.3726 -1.5328
 4630SOL     OW25525   4.570   3.745   7.859 -0.5979  0.3934  0.2019
 4630SOL    HW125526   4.606   3.804   7.793  0.2484 -0.9472 -0.5357
 4630SOL    HW225527   4.495   3.714   7.809 -0.5968  0.8873 -0.1044
 4631SOL     OW25528   4.263   0.216  14.047  0.3597 -0.3388 -0.1595
 4631SOL    HW125529   4.328   0.278  14.013  0.8053 -1.7851 -1.9185
 4631SOL    HW225530   4.205   0.276  14.094  1.5537  1.5167 -1.0482
 4632SOL     OW25531   2.347   0.536   4.669  0.1442  0.4154  0.5147
 4632SOL    HW125532   2.311   0.448   4.654 -1.8409  1.9324 -3.3796
 4632SOL    HW225533   2.287   0.572   4.734  0.4134  2.4135 -0.3615
 4633SOL     OW25534   1.538   2.380   4.581 -0.6278  0.3291  0.1471
 4633SOL    HW125535   1.561   2.289   4.562  1.0848  0.9654 -0.7529
 4633SOL    HW225536   1.486   2.371   4.662 -1.2562 -3.6958 -0.7047
 4634SOL     OW25537   1.419   2.041   2.997  0.2282  0.1650 -0.3373
 4634SOL    HW125538   1.383   1.963   2.956 -2.5463  1.3149 -0.0657
 4634SOL    HW225539   1.510   2.039   2.967  0.2476  2.6450 -0.4320
 4635SOL     OW25540   1.003   1.488   6.075 -0.0340  0.1135  0.2922
 4635SOL    HW125541   1.054   1.435   6.137  1.6947 -1.2547 -2.3317
 4635SOL    HW225542   1.041   1.473   5.989 -2.1280 -0.0936 -0.6127
 4636SOL     OW25543   1.645   3.210   1.440  0.1274  0.6898 -0.0998
 4636SOL    HW125544   1.608   3.154   1.508  0.4769 -0.7563 -1.1032
 4636SOL    HW225545   1.723   3.249   1.480  1.6134 -2.3599  0.0375
 4637SOL     OW25546   3.439   0.659   9.698 -0.0725  0.0106  0.3199
 4637SOL    HW125547   3.361   0.706   9.669 -0.9699 -0.8016  1.4216
 4637SOL    HW225548   3.416   0.676   9.789 -1.2927  0.4668 -0.0710
 4638SOL     OW25549   1.473   1.986   1.794  0.1550  0.2845 -0.0005
 4638SOL    HW125550   1.502   1.906   1.836 -0.0734  1.6013  2.6402
 4638SOL    HW225551   1.378   1.972   1.799  0.0526  1.1138  0.4443
 4639SOL     OW25552   0.781   0.100   8.956  0.2891  0.5526  0.2797
 4639SOL    HW125553   0.709   0.094   9.018 -0.1448  0.9535 -0.1903
 4639SOL    HW225554   0.850   0.053   9.004  1.3412  1.5653 -0.2393
 4640SOL     OW25555   2.698   4.100  15.706 -0.2253 -0.3639 -0.6471
 4640SOL    HW125556   2.647   4.175  15.736  2.2361  0.1223  2.2882
 4640SOL    HW225557   2.766   4.147  15.658  0.1802 -1.7114 -1.3851
 4641SOL     OW25558   3.336   1.185   2.956 -0.2590 -0.6964 -0.1382
 4641SOL    HW125559   3.276   1.134   3.009 -0.9705 -0.2466 -0.5113
 4641SOL    HW225560   3.411   1.196   3.015 -0.7285  0.4655  0.2422
 4642SOL     OW25561   0.414   0.237  13.371  0.4576 -0.7869  0.9423
 4642SOL    HW125562   0.372   0.323  13.372 -1.0832 -1.5294  0.5741
 4642SOL    HW225563   0.504   0.265  13.387  0.1847 -0.0777  1.2103
 4643SOL     OW25564   4.488   0.271   7.852  0.5957 -0.0288  0.2328
 4643SOL    HW125565   4.486   0.199   7.915 -0.5492  0.9891  1.3818
 4643SOL    HW225566   4.516   0.347   7.904 -1.2723  0.9055 -0.1157
 4644SOL     OW25567   1.794   1.884   9.980 -0.1565  0.5244 -0.0387
 4644SOL    HW125568   1.849   1.914   9.907  0.0935 -0.5350 -0.2821
 4644SOL    HW225569   1.865   1.857  10.039  0.2049 -0.1898 -0.7965
 4645SOL     OW25570   2.959   3.896   6.515  0.0706 -0.3070 -0.2275
 4645SOL    HW125571   2.882   3.939   6.551  0.1526 -0.1953 -0.1826
 4645SOL    HW225572   2.925   3.866   6.431 -1.1792 -1.4217  0.6782
 4646SOL     OW25573   4.419   3.148  13.377  0.1439 -0.3352  0.9866
 4646SOL    HW125574   4.514   3.152  13.373  0.1114  0.3826  0.8981
 4646SOL    HW225575   4.397   3.240  13.357  1.4094 -0.7020 -2.1755
 4647SOL     OW25576   2.215   3.674   1.599  0.3431  0.0773  0.3443
 4647SOL    HW125577   2.256   3.594   1.632  0.6974 -0.4677 -1.4412
 4647SOL    HW225578   2.288   3.724   1.564  2.1864 -3.6408 -1.0193
 4648SOL     OW25579   0.108   3.246   9.452  0.2408  0.1486 -0.3028
 4648SOL    HW125580   0.169   3.176   9.472 -1.7847 -0.8412  2.3967
 4648SOL    HW225581   0.026   3.204   9.476 -0.3956  2.0567  0.8362
 4649SOL     OW25582   1.250   2.158   2.504 -0.1961 -0.2130  0.3565
 4649SOL    HW125583   1.244   2.066   2.478 -0.1620 -0.5684  1.5752
 4649SOL    HW225584   1.208   2.206   2.433  0.5396  1.1082  0.8207
 4650SOL     OW25585   3.880   0.771   7.054  0.4542  0.0303 -0.1660
 4650SOL    HW125586   3.902   0.715   7.129  2.1776 -0.3313 -0.9345
 4650SOL    HW225587   3.943   0.843   7.060  0.0830  0.1951  1.6671
 4651SOL     OW25588   1.700   0.970  14.765  0.3583 -0.1095  0.6298
 4651SOL    HW125589   1.744   1.048  14.730 -0.1653 -0.1524 -0.1335
 4651SOL    HW225590   1.732   0.908  14.699 -0.2496  1.0084 -0.7121
 4652SOL     OW25591   0.070   4.233   7.129  0.7289  0.3211 -0.0832
 4652SOL    HW125592   0.111   4.311   7.166 -0.4288  0.5159  0.7994
 4652SOL    HW225593   0.126   4.159   7.154 -0.1448 -0.3857 -0.2134
 4653SOL     OW25594   2.528   3.765  14.953 -0.4488 -0.0120  0.1071
 4653SOL    HW125595   2.448   3.810  14.979  0.9745  2.2500  0.5845
 4653SOL    HW225596   2.509   3.744  14.861  2.0839 -1.4494 -0.0955
 4654SOL     OW25597   2.738   4.645   3.436 -0.5175  0.0482 -0.2938
 4654SOL    HW125598   2.748   4.617   3.527 -3.0789 -3.2396 -1.0313
 4654SOL    HW225599   2.828   4.636   3.405 -0.2414 -1.9003  1.0568
 4655SOL     OW25600   1.662   3.349   8.673  0.0731  0.2638 -0.1427
 4655SOL    HW125601   1.704   3.263   8.672  1.1624  0.8318 -1.6866
 4655SOL    HW225602   1.639   3.346   8.766  1.4538 -0.5391  0.1636
 4656SOL     OW25603   4.415   1.445   2.034 -0.0691  0.1437  0.5230
 4656SOL    HW125604   4.323   1.420   2.033  0.1015 -0.5042  0.3723
 4656SOL    HW225605   4.432   1.476   1.945  1.8591  1.0047  1.1815
 4657SOL     OW25606   3.523   3.242   8.465  0.1308  0.2523  0.0226
 4657SOL    HW125607   3.593   3.220   8.527 -1.8302 -1.1920  1.7138
 4657SOL    HW225608   3.481   3.315   8.511  0.7785 -0.9301  2.4940
 4658SOL     OW25609   3.035   4.069   2.446 -0.3312 -0.1775  0.4633
 4658SOL    HW125610   3.065   4.028   2.365  4.5819  1.1119  1.6751
 4658SOL    HW225611   3.105   4.133   2.455 -2.4834  1.9882  1.8366
 4659SOL     OW25612   4.380   2.669   8.195  0.0283 -0.1523  0.3327
 4659SOL    HW125613   4.451   2.712   8.243  0.4492  0.4739 -0.8523
 4659SOL    HW225614   4.428   2.625   8.125  1.2889  0.9409  0.5050
 4660SOL     OW25615   1.251   3.007   1.361  0.4019  0.3916  0.5726
 4660SOL    HW125616   1.240   3.096   1.395  0.3924  1.4325 -2.1501
 4660SOL    HW225617   1.292   2.972   1.439  1.0056 -0.7680 -0.2705
 4661SOL     OW25618   4.469   0.545  11.789 -0.2745 -0.2566  0.3783
 4661SOL    HW125619   4.389   0.512  11.747  0.4747  0.9522 -2.0205
 4661SOL    HW225620   4.496   0.462  11.829 -1.9182 -1.2396 -0.5650
 4662SOL     OW25621   0.593   2.086   5.314 -0.3364 -0.2849 -0.4570
 4662SOL    HW125622   0.634   2.140   5.247  2.6724  0.4947  2.0065
 4662SOL    HW225623   0.561   2.146   5.380 -2.8072 -4.0067  1.7208
 4663SOL     OW25624   0.049   2.692   8.453  0.8054 -0.2685 -0.6516
 4663SOL    HW125625   0.033   2.675   8.546  2.1760 -1.3930 -0.6264
 4663SOL    HW225626   4.705   2.739   8.433  0.9003  0.3390  0.3430
 4664SOL     OW25627   2.265   0.500   7.612 -0.0785  0.2417 -0.0608
 4664SOL    HW125628   2.346   0.537   7.646  0.6684  0.5530 -2.2457
 4664SOL    HW225629   2.286   0.469   7.524 -1.8143  0.4780 -0.5680
 4665SOL     OW25630   1.536   2.654   1.737 -0.0891 -0.0359 -0.4590
 4665SOL    HW125631   1.560   2.644   1.645  1.2870  1.8728 -0.3062
 4665SOL    HW225632   1.592   2.724   1.769  2.6680 -2.6975  0.5437
 4666SOL     OW25633   0.103   4.605   8.116 -0.6971 -0.2321  0.2161
 4666SOL    HW125634   0.088   4.516   8.084 -0.2807 -0.1570 -0.1827
 4666SOL    HW225635   0.164   4.630   8.046 -0.0482  0.2986  0.9674
 4667SOL     OW25636   3.867   1.654  13.050  0.0337  0.7553  0.0633
 4667SOL    HW125637   3.894   1.676  13.140  2.6407  0.7192 -0.7062
 4667SOL    HW225638   3.823   1.570  13.059  1.0858  0.0597 -1.2708
 4668SOL     OW25639   0.069   0.243   6.963  0.0866 -0.1415 -0.0302
 4668SOL    HW125640   0.019   0.192   6.898 -1.8023 -0.2753  1.5323
 4668SOL    HW225641   0.061   0.328   6.922 -2.7506 -0.5862 -0.3989
 4669SOL     OW25642   0.299   3.033  12.230  0.4615  0.1892  0.5954
 4669SOL    HW125643   0.274   2.988  12.149 -0.8682  1.1728  0.4601
 4669SOL    HW225644   0.343   2.962  12.276  1.6364  1.0006  0.7129
 4670SOL     OW25645   3.393   1.367   3.483  0.2015  0.3558  0.1440
 4670SOL    HW125646   3.317   1.312   3.466  1.3891 -1.3089  0.2738
 4670SOL    HW225647   3.463   1.328   3.432 -0.4693  0.3126 -0.7464
 4671SOL     OW25648   1.734   3.360   8.277 -0.2601  0.0595  0.2490
 4671SOL    HW125649   1.774   3.447   8.281 -1.1878  0.4197  1.8805
 4671SOL    HW225650   1.812   3.306   8.268 -0.6695 -0.5535  0.3669
 4672SOL     OW25651   2.998   3.159  15.742 -0.3092  0.2698 -0.5126
 4672SOL    HW125652   2.927   3.116  15.694 -2.6702  2.0816  1.3678
 4672SOL    HW225653   2.982   3.130  15.831  1.1839 -1.7056 -0.8787
 4673SOL     OW25654   0.795   4.361  13.548 -0.2321  0.1335 -0.2146
 4673SOL    HW125655   0.773   4.285  13.602 -0.6859  0.1657 -0.3468
 4673SOL    HW225656   0.890   4.365  13.555 -0.3484  0.5846  1.1122
 4674SOL     OW25657   3.271   2.459   7.163  0.2245  0.2099 -0.8736
 4674SOL    HW125658   3.221   2.490   7.239  0.1364  0.2073 -0.9305
 4674SOL    HW225659   3.227   2.486   7.083 -0.4683  0.3462 -0.4468
 4675SOL     OW25660   1.506   2.027  14.886  0.4332 -0.0934 -0.1344
 4675SOL    HW125661   1.561   2.100  14.858  0.2151  0.2579  0.3495
 4675SOL    HW225662   1.438   2.046  14.821  1.3625  2.2423 -0.4343
 4676SOL     OW25663   3.546   2.272  11.766 -0.3625 -0.0746  0.3897
 4676SOL    HW125664   3.631   2.253  11.726  0.4342  0.1426  1.9691
 4676SOL    HW225665   3.477   2.221  11.723  0.8574 -0.7568 -0.7374
 4677SOL     OW25666   0.232   4.635  16.273 -0.1930  0.0310  0.6744
 4677SOL    HW125667   0.138   4.655  16.272  0.3669  2.5944 -3.3547
 4677SOL    HW225668   0.263   4.725  16.280 -0.7217  0.2473  0.2527
 4678SOL     OW25669   3.879   3.620  11.934 -0.0264 -0.0384 -0.1863
 4678SOL    HW125670   3.910   3.709  11.920  0.4991 -0.5352 -2.1935
 4678SOL    HW225671   3.827   3.602  11.855 -0.9811  1.4961  0.0949
 4679SOL     OW25672   4.315   0.893   3.987  0.3498  0.1719 -0.2620
 4679SOL    HW125673   4.405   0.878   3.959 -0.7564 -1.2220 -2.9856
 4679SOL    HW225674   4.335   0.958   4.055  3.3922 -0.6374 -0.3515
 4680SOL     OW25675   1.544   1.991  10.122 -0.3429  0.1650 -0.5594
 4680SOL    HW125676   1.636   1.996  10.097 -0.5450 -0.5769 -1.4761
 4680SOL    HW225677   1.510   1.906  10.092 -3.0109  0.8606  0.4667
 4681SOL     OW25678   3.050   2.831   2.973  0.4015 -0.0870  0.0058
 4681SOL    HW125679   3.020   2.741   2.965  1.5834 -0.2669 -2.5245
 4681SOL    HW225680   3.002   2.854   3.052  1.5446  0.1197  0.6405
 4682SOL     OW25681   3.680   1.784  15.269  0.1993  0.1112 -0.1312
 4682SOL    HW125682   3.650   1.778  15.178  1.2039 -3.8559 -0.2204
 4682SOL    HW225683   3.615   1.842  15.308  1.2044 -0.0599  1.8466
 4683SOL     OW25684   3.477   3.969   9.187 -0.3383  0.5371  0.2338
 4683SOL    HW125685   3.538   4.005   9.123  0.3164 -2.3441 -0.8008
 4683SOL    HW225686   3.493   4.040   9.248 -0.0597  3.0038 -2.7283
 4684SOL     OW25687   2.483   0.195  11.529  0.2373 -0.0528  0.1018
 4684SOL    HW125688   2.557   0.254  11.541  0.8687 -1.0297  1.0235
 4684SOL    HW225689   2.422   0.227  11.595  0.7392  0.4960  0.2920
 4685SOL     OW25690   3.169   1.151   3.193  0.4357  0.1177 -0.0527
 4685SOL    HW125691   3.093   1.100   3.165 -0.3820  1.0074  0.5848
 4685SOL    HW225692   3.131   1.237   3.212 -0.1085 -0.1700  0.1617
 4686SOL     OW25693   2.379   2.928   2.479 -0.9795  0.3935 -0.0910
 4686SOL    HW125694   2.297   2.963   2.443 -2.0015 -1.4111  0.4309
 4686SOL    HW225695   2.404   2.876   2.403  1.7141  2.1160 -0.3828
 4687SOL     OW25696   3.551   0.865   3.071  0.3327  0.5097  0.8550
 4687SOL    HW125697   3.569   0.802   3.140  1.3063 -0.0570  0.0911
 4687SOL    HW225698   3.611   0.936   3.095  1.4760 -0.4416  0.7631
 4688SOL     OW25699   0.428   3.891   6.484 -0.5927 -0.0646  0.5161
 4688SOL    HW125700   0.500   3.828   6.477  0.2669  1.1311 -1.7768
 4688SOL    HW225701   0.406   3.903   6.391  1.8194  0.5123  0.0134
 4689SOL     OW25702   3.666   1.986   5.571 -0.5864 -0.1335 -0.2983
 4689SOL    HW125703   3.578   1.949   5.572 -0.6905  0.1331  1.2317
 4689SOL    HW225704   3.714   1.918   5.619 -0.9266 -0.8595 -0.9899
 4690SOL     OW25705   4.312   3.443   2.267 -0.1097  0.3748 -0.5075
 4690SOL    HW125706   4.305   3.531   2.231 -3.1295  0.1579 -0.3787
 4690SOL    HW225707   4.223   3.410   2.258  0.2873 -1.2991  1.7639
 4691SOL     OW25708   3.045   1.503   4.839 -0.5065  0.2797 -0.2467
 4691SOL    HW125709   2.967   1.482   4.891 -0.0427 -1.0342 -0.0661
 4691SOL    HW225710   3.066   1.414   4.809  0.1692 -0.1201  1.3620
 4692SOL     OW25711   0.603   3.109   5.557 -0.1682  0.2967  0.4519
 4692SOL    HW125712   0.565   3.197   5.557  2.0509  1.2435  1.2102
 4692SOL    HW225713   0.693   3.135   5.577 -0.3891  0.6898  0.9270
 4693SOL     OW25714   1.316   3.715  17.313  0.0269 -0.1516  0.3424
 4693SOL    HW125715   1.222   3.732  17.309 -0.3013 -2.2639 -1.3353
 4693SOL    HW225716   1.335   3.713  17.407 -0.2236  0.9640  0.4113
 4694SOL     OW25717   1.607   3.963   5.682  0.1478 -0.0596  0.4745
 4694SOL    HW125718   1.543   3.999   5.620 -0.7759  1.0614  2.0612
 4694SOL    HW225719   1.683   4.015   5.654 -0.2642 -1.3705 -3.0283
 4695SOL     OW25720   2.381   0.345   1.815 -0.1678  0.8563 -0.3814
 4695SOL    HW125721   2.400   0.351   1.908  1.9536  0.0794 -0.7672
 4695SOL    HW225722   2.381   0.438   1.795 -0.2487  0.9372  0.0013
 4696SOL     OW25723   1.373   2.292  15.624 -0.4875  0.0862 -0.6669
 4696SOL    HW125724   1.291   2.336  15.645 -0.6614 -0.1846 -0.7680
 4696SOL    HW225725   1.404   2.345  15.550 -2.3752  2.5713  0.3173
 4697SOL     OW25726   3.390   0.700   2.209 -0.0997  0.2556  0.4375
 4697SOL    HW125727   3.349   0.786   2.206  0.6588  0.5757 -1.0551
 4697SOL    HW225728   3.432   0.708   2.295  1.9279 -3.1826 -0.2157
 4698SOL     OW25729   0.286   0.860  12.771  0.2642 -0.4563  0.3586
 4698SOL    HW125730   0.233   0.940  12.766  0.6125 -0.3313 -1.3552
 4698SOL    HW225731   0.278   0.830  12.861  0.9310 -1.4750  0.0758
 4699SOL     OW25732   0.296   3.037   9.554  0.8746 -0.1784 -0.3124
 4699SOL    HW125733   0.338   3.109   9.600  0.2520 -1.1644  1.8033
 4699SOL    HW225734   0.280   2.968   9.618 -1.5587  1.0157  0.3882
 4700SOL     OW25735   4.644   2.229  11.362  0.3119  0.3618 -0.2578
 4700SOL    HW125736   0.001   2.223  11.380  0.3372 -0.8789 -0.8062
 4700SOL    HW225737   4.641   2.164  11.292  0.0656  1.4909 -1.3052
 4701SOL     OW25738   3.473   1.946   8.152 -0.5353 -0.4773 -0.3869
 4701SOL    HW125739   3.526   1.868   8.133 -0.8884 -0.0012 -3.3093
 4701SOL    HW225740   3.531   2.017   8.124  2.2384 -2.8225 -0.6940
 4702SOL     OW25741   3.393   1.117   3.739  0.4041  0.5082 -0.7658
 4702SOL    HW125742   3.458   1.104   3.671  1.3409  0.4093  0.1441
 4702SOL    HW225743   3.315   1.112   3.684 -0.5472  3.4495  0.3398
 4703SOL     OW25744   0.350   4.199   3.419  0.0040 -0.1956 -0.2080
 4703SOL    HW125745   0.442   4.226   3.414 -0.0182 -0.4551 -2.3981
 4703SOL    HW225746   0.313   4.286   3.412  2.9015  0.9483 -1.5184
 4704SOL     OW25747   0.182   2.818   3.708  0.0365  0.6108  0.3544
 4704SOL    HW125748   0.193   2.809   3.613 -1.2788 -0.2266  0.2919
 4704SOL    HW225749   0.269   2.805   3.745 -0.5292 -2.2470  0.6595
 4705SOL     OW25750   3.109   4.482  12.118 -0.7142 -0.3511 -0.0115
 4705SOL    HW125751   3.090   4.544  12.048  0.7295  2.4548  2.0550
 4705SOL    HW225752   3.192   4.522  12.146  0.2885 -2.0402 -0.5701
 4706SOL     OW25753   0.282   4.579   2.376  0.0863 -0.3522 -0.1911
 4706SOL    HW125754   0.348   4.586   2.446  0.2132 -1.0774 -0.2363
 4706SOL    HW225755   0.311   4.652   2.321 -0.4609  0.2740  0.3442
 4707SOL     OW25756   1.244   3.625   6.160  0.0211  0.0581 -0.0562
 4707SOL    HW125757   1.313   3.561   6.177  1.0410  1.2009  0.0770
 4707SOL    HW225758   1.214   3.594   6.075  1.8049 -0.7336 -0.4091
 4708SOL     OW25759   2.099   1.973   4.692  0.4898  0.6211 -0.3186
 4708SOL    HW125760   2.047   2.037   4.741  0.8194  0.5633  0.1038
 4708SOL    HW225761   2.037   1.901   4.690  0.6832  0.4565 -0.4884
 4709SOL     OW25762   1.334   0.567  10.327 -0.5114  0.0248 -0.4297
 4709SOL    HW125763   1.343   0.631  10.398 -1.9809  1.0543 -1.1832
 4709SOL    HW225764   1.418   0.521  10.333 -0.4745  0.4346  2.0428
 4710SOL     OW25765   1.414   4.066   4.426  0.4224 -0.2485  0.5326
 4710SOL    HW125766   1.453   4.030   4.506 -0.9318  0.9494  1.7132
 4710SOL    HW225767   1.397   3.987   4.375  2.1218 -0.1820 -0.1642
 4711SOL     OW25768   2.586   4.413   8.258 -0.4649  0.3225 -0.4208
 4711SOL    HW125769   2.639   4.401   8.337  0.1963 -0.1500 -0.9348
 4711SOL    HW225770   2.526   4.339   8.263 -0.4321  0.4805  2.4554
 4712SOL     OW25771   1.136   2.129  15.363  0.0364  0.1182  0.2232
 4712SOL    HW125772   1.142   2.069  15.437  0.2961  0.3252  0.3684
 4712SOL    HW225773   1.117   2.074  15.286  1.2770 -0.5103  0.3572
 4713SOL     OW25774   4.373   3.974   5.674 -1.0139  0.3571  0.3029
 4713SOL    HW125775   4.354   3.915   5.746 -0.3570 -1.5203 -1.0632
 4713SOL    HW225776   4.314   4.048   5.689  0.0596  1.6402 -1.7493
 4714SOL     OW25777   3.806   3.230   5.561  0.3754  0.1059 -0.4125
 4714SOL    HW125778   3.859   3.167   5.610 -2.4244 -0.3523  1.9876
 4714SOL    HW225779   3.733   3.249   5.619  1.3860 -0.9645  1.2163
 4715SOL     OW25780   3.134   1.826   4.031  0.3274 -0.2305  0.2565
 4715SOL    HW125781   3.178   1.781   3.959 -1.8362 -0.9674 -0.6114
 4715SOL    HW225782   3.202   1.852   4.093  0.9589  0.7505 -0.8657
 4716SOL     OW25783   2.129   2.845  17.019  0.6829  0.3138  0.8849
 4716SOL    HW125784   2.142   2.939  17.004 -2.2013  0.5686  0.0326
 4716SOL    HW225785   2.033   2.848  17.017  0.6913  0.2482  0.4232
 4717SOL     OW25786   2.347   3.755   4.714  0.0087 -0.6923 -0.2344
 4717SOL    HW125787   2.349   3.666   4.750  1.3731  0.6325  3.0410
 4717SOL    HW225788   2.353   3.813   4.790 -0.3955  0.1864 -0.8851
 4718SOL     OW25789   4.176   4.725   4.337  0.4026 -0.1945  0.0201
 4718SOL    HW125790   4.083   4.736   4.352  0.0674 -1.9832 -0.7105
 4718SOL    HW225791   4.215   0.029   4.414 -1.0906  1.2935 -0.0288
 4719SOL     OW25792   1.399   1.111   9.613  0.7991  0.0191  0.3055
 4719SOL    HW125793   1.419   1.083   9.523 -0.0006  1.5972 -0.3692
 4719SOL    HW225794   1.441   1.197   9.612  0.1702  0.3309  1.0422
 4720SOL     OW25795   0.166   2.213  13.484 -0.1240  0.2147 -0.0790
 4720SOL    HW125796   0.110   2.291  13.494 -1.3696 -0.7072  0.0904
 4720SOL    HW225797   0.106   2.149  13.522  0.0971 -0.7765 -1.3734
 4721SOL     OW25798   4.136   2.895   8.615  0.3588  0.3369 -0.2409
 4721SOL    HW125799   4.063   2.839   8.640  0.4226 -0.0259 -0.8634
 4721SOL    HW225800   4.100   2.929   8.533 -1.3314  0.0778  0.3991
 4722SOL     OW25801   0.916   4.147   3.155 -0.0379 -0.0051 -0.2176
 4722SOL    HW125802   0.893   4.192   3.073 -2.5583 -0.6563  0.1248
 4722SOL    HW225803   1.007   4.119   3.146  0.3701  0.7686  1.5031
 4723SOL     OW25804   1.466   1.002  11.287  0.5038  0.3439  0.5101
 4723SOL    HW125805   1.513   0.926  11.253  0.7474  0.1111  1.3620
 4723SOL    HW225806   1.404   1.022  11.217 -0.1228 -0.8243  0.7377
 4724SOL     OW25807   4.128   4.219   8.952  0.5484  0.0406 -0.9285
 4724SOL    HW125808   4.049   4.201   8.901 -0.2929  0.8822  0.0887
 4724SOL    HW225809   4.134   4.141   9.007  0.2661  0.7119  0.0444
 4725SOL     OW25810   2.480   3.939   2.110 -0.3781 -0.3434 -0.2944
 4725SOL    HW125811   2.475   3.968   2.201 -2.3913  0.0414 -0.5203
 4725SOL    HW225812   2.574   3.923   2.105 -0.4536 -1.0282  0.5813
 4726SOL     OW25813   4.120   3.083   0.832 -0.1444 -0.3198 -0.7320
 4726SOL    HW125814   4.076   3.120   0.908 -0.5378 -1.5050 -0.3711
 4726SOL    HW225815   4.062   3.011   0.807 -0.4265  0.4284 -2.2679
 4727SOL     OW25816   3.026   3.074   6.203  0.1813  0.4189  0.0866
 4727SOL    HW125817   2.945   3.056   6.155 -1.3144 -0.0508  2.8046
 4727SOL    HW225818   2.997   3.055   6.292 -0.3212  0.1406 -0.1380
 4728SOL     OW25819   0.612   4.417   1.935  0.1837  0.6478  0.6897
 4728SOL    HW125820   0.516   4.414   1.932  0.1855 -0.2082  1.5665
 4728SOL    HW225821   0.628   4.326   1.910 -1.7445  0.7484 -0.9730
 4729SOL     OW25822   3.064   1.723   5.862 -0.1195 -0.6066  0.3366
 4729SOL    HW125823   2.996   1.670   5.820 -0.7019 -0.2515  0.8343
 4729SOL    HW225824   3.029   1.809   5.884  1.1098  0.3380 -1.3695
 4730SOL     OW25825   3.195   2.274   8.508  0.0522 -0.4595  0.0924
 4730SOL    HW125826   3.216   2.352   8.457 -0.6922  1.0764  2.0985
 4730SOL    HW225827   3.174   2.211   8.440  0.7066 -0.5050 -0.0649
 4731SOL     OW25828   1.646   0.171  11.140  0.4331 -0.5022  0.0642
 4731SOL    HW125829   1.631   0.078  11.127  2.9927 -0.7455 -1.2547
 4731SOL    HW225830   1.575   0.189  11.202  1.6457 -1.1798  1.6576
 4732SOL     OW25831   1.068   1.139   7.539  0.3083  0.1024 -0.3016
 4732SOL    HW125832   1.014   1.187   7.477  1.7640 -0.4575 -2.0043
 4732SOL    HW225833   1.103   1.067   7.487 -0.0596  0.5148 -1.1105
 4733SOL     OW25834   1.109   2.792  14.966  0.1021 -0.4469  0.5781
 4733SOL    HW125835   1.180   2.756  15.019 -1.0389 -2.6618  0.6519
 4733SOL    HW225836   1.047   2.833  15.026 -0.7957  0.6363 -1.0922
 4734SOL     OW25837   4.472   2.300   1.019  0.2870  0.1734 -0.2031
 4734SOL    HW125838   4.495   2.234   0.954  0.9584 -0.3525  0.5815
 4734SOL    HW225839   4.383   2.326   0.995  0.1354  2.4314  2.8663
 4735SOL     OW25840   2.727   2.674   7.405  0.5892  0.2363 -0.1260
 4735SOL    HW125841   2.802   2.732   7.400 -0.5437  1.5423 -2.1582
 4735SOL    HW225842   2.686   2.735   7.467 -0.4298 -0.2306 -0.3373
 4736SOL     OW25843   1.342   3.190   9.548 -0.2823  0.0180  0.4776
 4736SOL    HW125844   1.258   3.160   9.512  0.7427 -3.9579  1.4006
 4736SOL    HW225845   1.349   3.138   9.629 -0.0120  2.7928  2.2467
 4737SOL     OW25846   0.242   4.015   3.137 -0.0191 -0.6063 -0.1461
 4737SOL    HW125847   0.153   4.010   3.171 -0.0712  1.9136  0.1047
 4737SOL    HW225848   0.283   4.042   3.219 -1.1865 -0.9599  0.5462
 4738SOL     OW25849   4.187   2.904   9.992  0.2669  0.1425 -0.3832
 4738SOL    HW125850   4.247   2.910  10.066  0.2264  0.6822 -0.3955
 4738SOL    HW225851   4.232   2.907   9.908  0.8707  1.7216 -0.0051
 4739SOL     OW25852   2.688   2.884  14.086  0.2744 -0.0465 -0.5051
 4739SOL    HW125853   2.633   2.839  14.150  1.0095  1.6734  1.3805
 4739SOL    HW225854   2.631   2.895  14.010 -0.0028 -0.5632 -0.3673
 4740SOL     OW25855   3.140   4.066   9.607 -0.5507  0.6749  0.1407
 4740SOL    HW125856   3.054   4.027   9.595 -0.2507 -0.2578  1.0919
 4740SOL    HW225857   3.202   3.994   9.617 -0.4643  0.6861 -0.2769
 4741SOL     OW25858   2.367   3.550  12.232  0.4190  0.7053  0.2263
 4741SOL    HW125859   2.429   3.525  12.301 -0.2311 -2.1758 -0.2584
 4741SOL    HW225860   2.297   3.486  12.246  0.5272  1.5945  4.8644
 4742SOL     OW25861   4.543   1.676   1.231  0.2312 -0.1352 -1.1290
 4742SOL    HW125862   4.534   1.581   1.229  0.0105 -0.2189  2.7625
 4742SOL    HW225863   4.607   1.698   1.299 -0.4639 -0.0549 -0.4979
 4743SOL     OW25864   3.118   4.478   3.687 -0.1413 -0.7417 -0.1477
 4743SOL    HW125865   3.042   4.523   3.724 -0.8705 -2.1464  0.0750
 4743SOL    HW225866   3.123   4.500   3.594  1.1800  1.1096  0.3601
 4744SOL     OW25867   0.321   4.107   6.591  0.2851  0.0736 -0.3357
 4744SOL    HW125868   0.358   4.033   6.544 -0.3713 -0.0641 -0.6383
 4744SOL    HW225869   0.393   4.167   6.609 -0.1210  0.6036 -0.4703
 4745SOL     OW25870   0.166   2.653   9.883 -0.0934  0.1086 -0.0223
 4745SOL    HW125871   0.187   2.560   9.885 -0.1957  0.0584 -1.0062
 4745SOL    HW225872   0.091   2.660   9.942  0.4896  1.9339  0.4896
 4746SOL     OW25873   1.268   2.571   9.175  0.1042 -0.0755 -0.1781
 4746SOL    HW125874   1.342   2.510   9.176  1.0477  1.0785  0.5288
 4746SOL    HW225875   1.261   2.597   9.267  0.8959  0.7345 -0.3486
 4747SOL     OW25876   4.077   3.842  12.788  0.3296  0.0964  0.3508
 4747SOL    HW125877   3.988   3.806  12.782  1.2028 -2.5259  2.9189
 4747SOL    HW225878   4.101   3.826  12.697 -0.8846  1.3076 -0.1846
 4748SOL     OW25879   0.270   0.541   8.810  0.2690 -0.4394  0.0217
 4748SOL    HW125880   0.351   0.532   8.760  0.2790 -0.8098  0.0984
 4748SOL    HW225881   0.274   0.634   8.833 -1.3712 -0.0469 -1.2806
 4749SOL     OW25882   0.661   0.070   6.546 -0.2356  0.2957  0.3094
 4749SOL    HW125883   0.735   0.092   6.488 -0.6712 -0.3533 -0.4959
 4749SOL    HW225884   0.692   4.724   6.581  1.7503 -0.5541 -3.3907
 4750SOL     OW25885   1.994   0.782  16.653  0.3982 -0.3175 -0.1276
 4750SOL    HW125886   2.057   0.815  16.589  0.3818 -0.6301 -0.3069
 4750SOL    HW225887   2.049   0.715  16.696 -0.2454  0.5144  1.9786
 4751SOL     OW25888   4.061   3.010   2.876 -0.0981  0.3892  0.3193
 4751SOL    HW125889   4.141   3.039   2.920 -0.2435 -0.4964  1.1759
 4751SOL    HW225890   3.992   3.054   2.926 -0.2855 -2.2135  2.3356
 4752SOL     OW25891   0.010   0.618   7.781  0.5455  0.0130 -0.0999
 4752SOL    HW125892   0.080   0.677   7.811 -1.5550  0.7263  3.3551
 4752SOL    HW225893   4.721   0.578   7.864  1.1596 -0.7426 -0.2764
 4753SOL     OW25894   1.373   1.847   6.134  0.0518 -0.3810 -0.1441
 4753SOL    HW125895   1.429   1.845   6.056  0.4860 -1.4498  0.2050
 4753SOL    HW225896   1.348   1.757   6.153 -0.6353 -0.0495  0.5298
 4754SOL     OW25897   2.444   4.552   2.075  0.2445  0.2559  0.2206
 4754SOL    HW125898   2.452   4.558   2.170  0.0610  0.9639  0.1914
 4754SOL    HW225899   2.481   4.466   2.054 -1.2255  0.1262 -1.8724
 4755SOL     OW25900   1.971   3.136   1.799  0.2767 -0.0316  0.0097
 4755SOL    HW125901   2.017   3.113   1.718  1.5588  2.2902  0.0927
 4755SOL    HW225902   2.015   3.220   1.806  2.2808 -1.0064 -0.8830
 4756SOL     OW25903   2.990   2.118   3.885  0.4572 -0.6921 -0.7711
 4756SOL    HW125904   2.917   2.063   3.857 -1.2909  0.9793  0.5425
 4756SOL    HW225905   3.056   2.058   3.920  0.5942 -1.3344 -2.1437
 4757SOL     OW25906   2.647   0.799   8.504 -0.0961  0.1779  0.3363
 4757SOL    HW125907   2.651   0.711   8.465  1.9771  0.8598 -0.9952
 4757SOL    HW225908   2.578   0.778   8.567  0.5592 -0.4913  0.8517
 4758SOL     OW25909   2.962   4.077   8.857  0.8851  0.0179 -0.2612
 4758SOL    HW125910   3.045   4.084   8.810  1.1447 -1.1252  0.0066
 4758SOL    HW225911   2.993   4.002   8.909  1.0831  0.9726  1.0135
 4759SOL     OW25912   0.233   3.727   6.563 -0.3268 -0.0593  0.1796
 4759SOL    HW125913   0.189   3.766   6.488 -0.6217 -1.2195 -0.2417
 4759SOL    HW225914   0.299   3.795   6.574  0.2557 -0.1502 -2.7855
 4760SOL     OW25915   0.339   4.310   1.904  0.8258 -0.0584 -0.2501
 4760SOL    HW125916   0.295   4.395   1.907 -0.1482 -0.5508 -0.3569
 4760SOL    HW225917   0.319   4.269   1.988 -1.2511 -0.7995 -1.0962
 4761SOL     OW25918   2.851   1.762   1.968 -0.3312  0.5013 -0.2988
 4761SOL    HW125919   2.827   1.780   1.877  0.2406  0.7760 -0.3914
 4761SOL    HW225920   2.778   1.702   1.985  0.7129 -0.8014 -0.4990
 4762SOL     OW25921   2.605   0.533   8.452  0.5496 -0.0494  0.8809
 4762SOL    HW125922   2.571   0.481   8.525 -1.8829 -0.7535 -0.7395
 4762SOL    HW225923   2.659   0.472   8.402  3.0032  0.2191  3.2361
 4763SOL     OW25924   2.292   0.926   4.508  0.4788  1.1343  0.8380
 4763SOL    HW125925   2.252   0.954   4.425 -1.4640  1.4631  1.8883
 4763SOL    HW225926   2.212   0.905   4.557  0.6350  2.5183  1.6585
 4764SOL     OW25927   2.902   2.223   5.279 -0.6599  0.1929  0.2783
 4764SOL    HW125928   2.946   2.209   5.363  0.4365 -0.4325 -0.4184
 4764SOL    HW225929   2.971   2.270   5.233 -1.6736  1.2139 -0.1947
 4765SOL     OW25930   0.762   2.624   8.457 -0.5366  0.0135 -0.1000
 4765SOL    HW125931   0.675   2.599   8.488 -0.9385  0.5941 -0.7589
 4765SOL    HW225932   0.751   2.714   8.426 -1.2584 -0.1958 -0.4759
 4766SOL     OW25933   4.455   1.918   9.323  0.1698 -1.1334 -0.1812
 4766SOL    HW125934   4.488   1.961   9.244  0.2086  2.1056  1.5869
 4766SOL    HW225935   4.365   1.952   9.323  1.0487  1.1905  0.3907
 4767SOL     OW25936   0.567   0.974   0.097 -0.3713 -0.2811 -0.0689
 4767SOL    HW125937   0.618   0.897   0.070  2.4256  0.8827  1.9346
 4767SOL    HW225938   0.634   1.041   0.086  0.6698 -1.2090  0.6667
 4768SOL     OW25939   1.515   0.529   4.304  0.4924 -0.2224  0.1184
 4768SOL    HW125940   1.501   0.437   4.324 -0.0565  0.1379  1.3746
 4768SOL    HW225941   1.425   0.547   4.278  0.0927 -0.1283  1.5528
 4769SOL     OW25942   0.339   3.124   4.483  0.7129 -0.0836  0.3953
 4769SOL    HW125943   0.260   3.071   4.482 -1.5415  3.3141 -0.6894
 4769SOL    HW225944   0.405   3.074   4.532  2.2409  0.3573 -1.2108
 4770SOL     OW25945   2.691   2.128   9.473  0.0819 -0.2757  0.3831
 4770SOL    HW125946   2.695   2.202   9.413 -1.8403 -0.9428 -0.5722
 4770SOL    HW225947   2.737   2.066   9.416  0.0848 -1.3361  1.5151
 4771SOL     OW25948   1.645   4.508   0.264  0.1467  0.2264  0.2310
 4771SOL    HW125949   1.630   4.592   0.306  2.0917  0.5264  0.2897
 4771SOL    HW225950   1.592   4.453   0.322 -1.8566  1.8573 -0.0654
 4772SOL     OW25951   3.652   3.941  16.854  0.1154 -0.3059 -0.6478
 4772SOL    HW125952   3.565   3.927  16.892 -0.3677  0.1658 -1.5740
 4772SOL    HW225953   3.666   4.035  16.868 -0.5647  0.0351 -2.2314
 4773SOL     OW25954   0.697   1.080  10.687 -0.5791  0.0893 -0.0487
 4773SOL    HW125955   0.608   1.077  10.721 -0.3086 -0.9990  0.5794
 4773SOL    HW225956   0.741   1.072  10.772  0.1377  1.4994 -0.2927
 4774SOL     OW25957   1.451   4.284  16.636 -0.3677 -0.5831  0.0826
 4774SOL    HW125958   1.390   4.275  16.710  0.1421  1.4427  0.7627
 4774SOL    HW225959   1.516   4.235  16.687 -0.2181  1.6589  2.0329
 4775SOL     OW25960   0.541   0.876  13.499  0.0473 -0.1124 -0.2383
 4775SOL    HW125961   0.507   0.951  13.548 -0.6902 -1.3689  1.1688
 4775SOL    HW225962   0.595   0.921  13.434 -0.4888  1.4030  0.3585
 4776SOL     OW25963   3.048   3.108   8.047  0.8064  0.0124 -0.4667
 4776SOL    HW125964   2.984   3.053   8.093 -1.2553  0.9511 -2.1873
 4776SOL    HW225965   3.114   3.048   8.013  0.3224  0.6975 -2.6182
 4777SOL     OW25966   0.550   2.259  14.454 -0.1286 -0.1060 -0.0288
 4777SOL    HW125967   0.456   2.244  14.469 -0.4692 -0.3632 -2.5410
 4777SOL    HW225968   0.599   2.188  14.495 -0.2573  0.4227  1.0378
 4778SOL     OW25969   3.623   4.658   2.888  0.6468  0.0635 -0.3076
 4778SOL    HW125970   3.668   4.735   2.852 -0.5234  0.5687 -0.6798
 4778SOL    HW225971   3.561   4.633   2.820 -0.8333 -0.5093  1.2683
 4779SOL     OW25972   2.524   2.618   4.133 -0.2606 -0.0226  0.0857
 4779SOL    HW125973   2.500   2.667   4.212 -0.3184 -1.7089  1.1118
 4779SOL    HW225974   2.510   2.526   4.158  0.6853  0.2645  1.6975
 4780SOL     OW25975   2.764   0.865  13.705  0.4495  0.0197  0.5992
 4780SOL    HW125976   2.805   0.952  13.710 -0.8289  0.6043  1.0257
 4780SOL    HW225977   2.749   0.850  13.799 -0.3655 -0.2199  0.4320
 4781SOL     OW25978   4.312   2.174  15.115  0.0511 -0.3828 -0.4268
 4781SOL    HW125979   4.408   2.181  15.121  0.0189 -1.7213  1.7543
 4781SOL    HW225980   4.287   2.237  15.183 -0.6121 -0.4888 -0.5777
 4782SOL     OW25981   2.821   0.872  12.635 -0.1027  0.4000 -0.2698
 4782SOL    HW125982   2.905   0.915  12.651 -1.1829  2.1984  0.5859
 4782SOL    HW225983   2.792   0.860  12.726 -1.0468  0.6014 -0.5448
 4783SOL     OW25984   2.745   0.845  12.881  0.0683  0.2179 -0.4065
 4783SOL    HW125985   2.687   0.896  12.937  1.6803  0.3008  1.2033
 4783SOL    HW225986   2.795   0.794  12.945 -0.2155  1.0121  0.4600
 4784SOL     OW25987   2.295   4.283  15.346  0.0023  0.5763 -0.1387
 4784SOL    HW125988   2.246   4.211  15.306 -0.4968  0.7522  0.1590
 4784SOL    HW225989   2.280   4.343  15.273 -0.5419 -0.9998 -1.3536
 4785SOL     OW25990   2.449   1.279   5.959 -0.0810 -0.0111  0.1871
 4785SOL    HW125991   2.508   1.293   5.885  1.6421 -0.5434  1.4573
 4785SOL    HW225992   2.456   1.365   6.002 -2.8492  0.6310 -0.7033
 4786SOL     OW25993   1.182   3.149   2.212 -0.3473 -0.1040 -0.4705
 4786SOL    HW125994   1.216   3.065   2.244  2.3256  0.5893 -1.5169
 4786SOL    HW225995   1.104   3.152   2.267  0.5724  0.6063  0.7643
 4787SOL     OW25996   4.331   2.638  13.851 -0.1913  0.1346 -0.2491
 4787SOL    HW125997   4.405   2.696  13.832 -0.2845  0.4204  0.2539
 4787SOL    HW225998   4.259   2.698  13.827  0.3592  0.8099 -0.2216
 4788SOL     OW25999   1.780   3.100   8.657 -0.1126  0.5501 -0.0128
 4788SOL    HW126000   1.717   3.048   8.607  0.0476  0.2911  0.0540
 4788SOL    HW226001   1.839   3.032   8.689 -1.0328 -0.9161 -1.3912
 4789SOL     OW26002   3.668   2.697   3.745 -0.2086  0.2916  0.0787
 4789SOL    HW126003   3.754   2.655   3.744 -0.2138  0.2715  0.3101
 4789SOL    HW226004   3.596   2.635   3.751  1.2484 -1.4578 -0.5643
 4790SOL     OW26005   2.493   0.384   3.720 -0.0679 -0.2327  0.1187
 4790SOL    HW126006   2.581   0.409   3.692 -0.1842 -0.9092 -0.8334
 4790SOL    HW226007   2.447   0.466   3.739 -0.3288  0.2325 -2.5948
 4791SOL     OW26008   0.177   1.734   8.852 -0.4284  0.2805  0.3137
 4791SOL    HW126009   0.215   1.671   8.913 -1.9347 -0.2125  0.7642
 4791SOL    HW226010   0.087   1.702   8.845  0.1915 -1.7453  1.8800
 4792SOL     OW26011   2.844   1.722   6.951  0.2179  0.1021  0.4580
 4792SOL    HW126012   2.810   1.678   6.874 -2.1662 -1.2761  2.3227
 4792SOL    HW226013   2.770   1.708   7.010 -1.7037  1.8428 -1.5704
 4793SOL     OW26014   1.237   2.216   3.502  0.0604 -0.6309  0.4951
 4793SOL    HW126015   1.200   2.153   3.564 -2.7363 -1.0255 -1.5552
 4793SOL    HW226016   1.297   2.170   3.444 -0.4649 -2.0182  1.0708
 4794SOL     OW26017   2.847   0.430   0.224  0.2581  0.5439 -0.0519
 4794SOL    HW126018   2.912   0.499   0.234  0.6450  0.2709 -0.6273
 4794SOL    HW226019   2.815   0.429   0.133  0.0150  1.9445  0.0321
 4795SOL     OW26020   4.490   1.125   8.953 -0.2797  0.3550 -0.4203
 4795SOL    HW126021   4.541   1.206   8.950  1.7978 -0.8536  1.7987
 4795SOL    HW226022   4.439   1.122   8.872  0.6288 -0.8614 -0.9464
 4796SOL     OW26023   2.648   1.963  15.165  0.7563 -0.2377  0.0831
 4796SOL    HW126024   2.611   1.939  15.250  1.5298  0.7225  0.6942
 4796SOL    HW226025   2.693   1.885  15.132 -1.3258 -0.7599 -1.5161
 4797SOL     OW26026   0.395   4.629   5.545 -0.1242  0.4467 -0.0817
 4797SOL    HW126027   0.413   4.720   5.569  0.3275  0.6635 -1.2286
 4797SOL    HW226028   0.300   4.620   5.543 -0.3416  2.4754  1.3354
 4798SOL     OW26029   4.708   0.583   1.459 -0.1504 -0.7508  0.1845
 4798SOL    HW126030   4.701   0.592   1.364  0.4811  2.7023  0.4665
 4798SOL    HW226031   0.061   0.557   1.474  0.5674  2.4548  1.3379
 4799SOL     OW26032   2.042   2.031   8.425  0.0116 -0.2107  0.1294
 4799SOL    HW126033   1.952   1.997   8.434  0.6439 -1.2929  2.3278
 4799SOL    HW226034   2.083   1.956   8.468 -0.3705  0.6771  2.0117
 4800SOL     OW26035   2.127   1.615   4.461 -0.4024  0.6497 -0.1413
 4800SOL    HW126036   2.185   1.640   4.388 -0.6489 -0.0720 -0.5850
 4800SOL    HW226037   2.052   1.580   4.412  0.2303 -0.6064 -0.2260
 4801SOL     OW26038   2.966   1.452   7.189  0.3768 -0.5038  0.2162
 4801SOL    HW126039   2.964   1.542   7.224  0.0583  0.2050 -1.6518
 4801SOL    HW226040   2.993   1.464   7.098 -0.5157  2.0699  0.2684
 4802SOL     OW26041   1.425   1.551  10.785  0.0073  0.6472  0.8992
 4802SOL    HW126042   1.493   1.610  10.816  0.1323  0.5173  0.8745
 4802SOL    HW226043   1.459   1.518  10.701 -0.6753  2.7957 -0.2236
 4803SOL     OW26044   2.757   3.304   4.476  0.1287 -0.1988  0.1635
 4803SOL    HW126045   2.814   3.374   4.509 -0.6650  0.3774  0.3306
 4803SOL    HW226046   2.690   3.360   4.436  0.8727  1.5062  1.2677
 4804SOL     OW26047   0.199   2.991   7.705  0.3532 -0.4376 -0.0388
 4804SOL    HW126048   0.222   2.954   7.620 -0.2165  1.3692 -0.9883
 4804SOL    HW226049   0.220   2.915   7.759  0.0980 -0.3374  0.1984
 4805SOL     OW26050   2.031   1.902  10.312  0.1861  0.0433  0.2875
 4805SOL    HW126051   2.093   1.921  10.382 -0.6926 -2.4699  1.7536
 4805SOL    HW226052   1.983   1.985  10.317  0.8603  0.3940  0.9665
 4806SOL     OW26053   1.302   2.252   4.933  0.0018 -0.2097 -0.3313
 4806SOL    HW126054   1.316   2.209   4.849  0.6804  0.4337 -0.5471
 4806SOL    HW226055   1.275   2.170   4.973  1.0152  1.3599  3.5358
 4807SOL     OW26056   3.690   3.458   6.523  0.4169 -0.2255  0.0165
 4807SOL    HW126057   3.733   3.476   6.440 -2.5944 -1.6355 -1.8638
 4807SOL    HW226058   3.749   3.477   6.596  0.3870 -0.5301  0.1223
 4808SOL     OW26059   0.431   0.823   3.920 -0.5853  0.1235 -0.3168
 4808SOL    HW126060   0.498   0.796   3.983 -1.6494 -2.8436 -0.4400
 4808SOL    HW226061   0.419   0.908   3.962  1.5751  0.0346  0.4434
 4809SOL     OW26062   3.041   1.624   2.599  0.0829 -0.7190 -0.5711
 4809SOL    HW126063   3.118   1.616   2.655 -0.6957 -2.0425  0.3331
 4809SOL    HW226064   3.068   1.701   2.549  2.4463 -1.0791  0.1433
 4810SOL     OW26065   1.345   0.007  11.225 -0.1623  0.3138 -0.0221
 4810SOL    HW126066   1.421   4.717  11.173 -0.5564 -1.0855  0.1294
 4810SOL    HW226067   1.341   0.100  11.206  0.0487 -0.2872 -3.0255
 4811SOL     OW26068   1.261   1.655   5.777  0.2348  0.5453  0.3291
 4811SOL    HW126069   1.210   1.719   5.728  0.7421  0.2777 -0.5448
 4811SOL    HW226070   1.259   1.585   5.712 -2.5798  0.2279  0.7482
 4812SOL     OW26071   0.324   3.008   0.591 -0.1052 -0.9040  0.3164
 4812SOL    HW126072   0.233   2.992   0.616 -0.2839  1.0719  0.9424
 4812SOL    HW226073   0.349   3.050   0.674 -0.4189  0.5167 -0.3138
 4813SOL     OW26074   0.747   1.999  12.020  0.4631 -0.4365 -0.3987
 4813SOL    HW126075   0.800   1.972  12.096 -1.0252  0.5808  1.0054
 4813SOL    HW226076   0.668   1.949  12.041 -0.0816 -0.4243 -2.4695
 4814SOL     OW26077   3.225   1.200  15.160 -0.2804  0.3321  0.4738
 4814SOL    HW126078   3.285   1.137  15.122 -1.1787 -0.4814  0.3878
 4814SOL    HW226079   3.215   1.162  15.248 -0.8676  1.4270  0.8756
 4815SOL     OW26080   1.196   1.665   1.873 -0.2162  0.3769 -0.3320
 4815SOL    HW126081   1.106   1.697   1.874  0.5269  2.3725  1.5387
 4815SOL    HW226082   1.231   1.730   1.813  1.0169  0.6157  0.6478
 4816SOL     OW26083   4.572   2.096   5.312 -0.0226  0.0834  0.2921
 4816SOL    HW126084   4.540   2.132   5.395  1.1283  2.9101 -0.4773
 4816SOL    HW226085   4.524   2.143   5.244 -1.0153 -4.8683 -2.4331
 4817SOL     OW26086   0.450   3.105  14.119 -0.0228  0.0235 -0.0570
 4817SOL    HW126087   0.450   3.201  14.113  0.2140  0.1338  1.6438
 4817SOL    HW226088   0.410   3.091  14.204 -0.0603  2.0941  0.2607
 4818SOL     OW26089   3.725   4.669  14.417 -0.1146  0.0961  0.2274
 4818SOL    HW126090   3.809   4.647  14.377  0.1931  1.0524  0.3447
 4818SOL    HW226091   3.697   4.585  14.453  2.5353 -0.9603 -0.1473
 4819SOL     OW26092   2.102   1.998   0.922  0.1524 -0.0649 -0.7541
 4819SOL    HW126093   2.169   2.029   0.861 -1.2620  2.5886 -0.9822
 4819SOL    HW226094   2.112   1.903   0.932  1.5140  0.0618 -0.8678
 4820SOL     OW26095   3.907   3.331  14.385  0.0588  0.5121 -0.0679
 4820SOL    HW126096   3.860   3.251  14.362  1.1688 -0.3877  0.7959
 4820SOL    HW226097   3.939   3.300  14.469 -0.8182  2.3793  0.9357
 4821SOL     OW26098   2.345   3.712   6.834 -0.1256 -0.0531 -0.1498
 4821SOL    HW126099   2.392   3.796   6.835  1.4971 -0.9611  0.2403
 4821SOL    HW226100   2.288   3.725   6.758 -0.2479 -1.0417 -0.2244
 4822SOL     OW26101   2.488   1.297   0.738  0.0770  0.3089 -0.2271
 4822SOL    HW126102   2.525   1.385   0.735 -0.2098  0.4493  0.4121
 4822SOL    HW226103   2.409   1.313   0.789 -1.9217  0.5204 -3.3542
 4823SOL     OW26104   2.520   1.089  16.657  0.0084 -0.5640 -0.1914
 4823SOL    HW126105   2.608   1.066  16.626  0.7086  3.4462 -1.1748
 4823SOL    HW226106   2.481   1.033  16.590 -0.9890  0.2855 -0.3188
 4824SOL     OW26107   1.406   2.300  11.965 -0.2739  0.0268 -0.0174
 4824SOL    HW126108   1.427   2.362  12.036  1.2866 -1.2869  0.6837
 4824SOL    HW226109   1.347   2.361  11.920 -1.5631  0.0856  1.7232
 4825SOL     OW26110   1.645   0.615  13.772  0.1468  0.0953  0.3861
 4825SOL    HW126111   1.553   0.622  13.798  0.8305  1.8411  2.3740
 4825SOL    HW226112   1.681   0.583  13.855  0.5130 -0.0009  0.1887
 4826SOL     OW26113   4.561   4.502  10.470  0.1381 -0.3249  0.1745
 4826SOL    HW126114   4.639   4.557  10.485 -2.1756  2.7426  0.8685
 4826SOL    HW226115   4.493   4.569  10.468 -0.5884 -1.0851 -0.5401
 4827SOL     OW26116   1.066   3.739   6.895  0.0489 -0.5806  0.4374
 4827SOL    HW126117   1.153   3.729   6.934  0.5665 -1.7623 -1.0103
 4827SOL    HW226118   1.026   3.819   6.929  0.8669 -0.8391  2.0081
 4828SOL     OW26119   3.204   3.785   4.385 -0.0815 -0.2476  0.1914
 4828SOL    HW126120   3.168   3.738   4.310  0.5444  0.4803 -0.5748
 4828SOL    HW226121   3.214   3.875   4.352 -2.6193 -0.5337 -1.3125
 4829SOL     OW26122   3.665   4.504   2.229 -0.3946  0.1614 -0.4970
 4829SOL    HW126123   3.629   4.469   2.311 -0.2239  2.4753  0.5552
 4829SOL    HW226124   3.586   4.538   2.188  0.8167  2.8989 -0.5148
 4830SOL     OW26125   2.040   0.363   0.539  0.1731  0.9997  0.6547
 4830SOL    HW126126   2.024   0.453   0.566  0.8389  1.1963  0.4007
 4830SOL    HW226127   2.135   0.369   0.526 -0.0818  1.5930 -1.0343
 4831SOL     OW26128   4.078   3.718   3.952  0.2056 -0.1003 -0.5655
 4831SOL    HW126129   4.090   3.666   3.873  0.7337 -0.2233 -0.4058
 4831SOL    HW226130   4.051   3.801   3.913  1.8488  0.5270 -0.4159
 4832SOL     OW26131   1.265   2.850  15.395 -0.0946 -0.0053 -0.0723
 4832SOL    HW126132   1.248   2.929  15.447 -0.0317  0.1526 -0.2949
 4832SOL    HW226133   1.256   2.780  15.460  3.0195 -1.4796 -1.2549
 4833SOL     OW26134   3.093   0.562   8.246  0.5238 -0.0711 -0.3272
 4833SOL    HW126135   3.048   0.593   8.168  0.9838  2.0170  0.2346
 4833SOL    HW226136   3.098   0.639   8.303  0.8990 -0.8938  0.7667
 4834SOL     OW26137   2.257   2.469   7.974 -0.3058 -0.1929 -0.5103
 4834SOL    HW126138   2.279   2.506   8.059  1.7067 -2.3119 -0.0998
 4834SOL    HW226139   2.165   2.465   7.949 -0.8290  0.4964  1.3004
 4835SOL     OW26140   2.831   3.919   7.731  0.2122  0.6316 -0.1647
 4835SOL    HW126141   2.808   3.853   7.665  0.8297  0.2876 -0.0416
 4835SOL    HW226142   2.844   3.862   7.808 -0.6521  0.5942 -0.0401
 4836SOL     OW26143   0.594   4.100   3.137 -0.5847  0.5722 -0.5344
 4836SOL    HW126144   0.581   4.168   3.202 -1.2757  0.4731 -0.5636
 4836SOL    HW226145   0.688   4.084   3.142 -0.6362  0.7350  0.8229
 4837SOL     OW26146   0.850   2.890   8.627  1.2597 -0.0837  0.1689
 4837SOL    HW126147   0.887   2.863   8.711 -0.6362  0.6072  1.2198
 4837SOL    HW226148   0.759   2.898   8.654  0.6812  0.2366 -1.8278
 4838SOL     OW26149   3.848   0.648   3.721  0.2454 -0.6345  0.1366
 4838SOL    HW126150   3.890   0.563   3.705  1.7613 -0.0697  1.0991
 4838SOL    HW226151   3.855   0.658   3.816 -1.4540  1.0090  0.0825
 4839SOL     OW26152   1.297   3.024   2.701  1.1743 -0.6292  0.3833
 4839SOL    HW126153   1.250   3.015   2.784  0.0869  0.3460 -0.1427
 4839SOL    HW226154   1.235   3.037   2.630  3.1171  1.5102 -0.9132
 4840SOL     OW26155   2.899   3.205   4.077 -0.0338  0.4994  0.2834
 4840SOL    HW126156   2.949   3.286   4.078  1.8545 -0.6428 -1.9758
 4840SOL    HW226157   2.922   3.167   4.162 -0.0402  0.0520  0.0889
 4841SOL     OW26158   1.396   3.184   5.783 -0.3537 -0.4579 -0.1722
 4841SOL    HW126159   1.332   3.207   5.716  1.3746  1.1504 -1.2711
 4841SOL    HW226160   1.438   3.270   5.790  1.4221 -1.1000 -2.8229
 4842SOL     OW26161   0.882   2.002   1.950  0.0948  0.4594 -0.2580
 4842SOL    HW126162   0.927   2.086   1.958  0.2357  0.5657 -2.1110
 4842SOL    HW226163   0.800   2.006   1.999  0.4665 -1.6528  0.5505
 4843SOL     OW26164   1.630   2.854   0.359  0.9085 -0.0527  0.4098
 4843SOL    HW126165   1.662   2.828   0.445  2.4632  1.5584  0.3095
 4843SOL    HW226166   1.677   2.799   0.296 -0.2167  0.7234 -1.1418
 4844SOL     OW26167   0.942   0.728   4.069 -0.3567 -0.4104 -0.0287
 4844SOL    HW126168   0.929   0.723   4.164  0.9915  1.2334  0.2481
 4844SOL    HW226169   0.924   0.639   4.041 -1.2520 -0.2438  0.0116
 4845SOL     OW26170   2.455   0.170  17.442 -0.1926  0.1601 -0.0015
 4845SOL    HW126171   2.363   0.186  17.464 -0.2426 -1.6273  1.0507
 4845SOL    HW226172   2.462   0.076  17.427  0.6369  0.0499  1.1655
 4846SOL     OW26173   3.011   4.435  12.383 -0.4971  0.1479 -0.0039
 4846SOL    HW126174   2.954   4.512  12.385  3.0793  2.8435 -0.8036
 4846SOL    HW226175   3.046   4.448  12.295  0.0940  0.4057  0.2713
 4847SOL     OW26176   3.407   0.718   1.115  0.3712 -0.6664  0.3553
 4847SOL    HW126177   3.344   0.749   1.180  1.6450 -0.9573  1.7330
 4847SOL    HW226178   3.347   0.718   1.041  2.8104  1.5705 -1.6296
 4848SOL     OW26179   2.890   2.488   2.427  0.1237 -0.3799 -0.2072
 4848SOL    HW126180   2.929   2.410   2.466  1.6465 -0.4351 -1.8803
 4848SOL    HW226181   2.953   2.505   2.357  0.4961  1.2265  0.5024
 4849SOL     OW26182   3.639   2.706  16.712 -0.4697  0.2149 -0.0817
 4849SOL    HW126183   3.706   2.700  16.644  0.0401  2.6349  0.2229
 4849SOL    HW226184   3.560   2.678  16.666  0.4487 -1.0098 -0.9117
 4850SOL     OW26185   1.397   1.457  17.206  0.5996  0.1885 -0.3825
 4850SOL    HW126186   1.331   1.503  17.153  0.9912  1.1316 -0.0596
 4850SOL    HW226187   1.399   1.509  17.286  0.3413  0.7132 -0.7119
 4851SOL     OW26188   0.257   2.810   4.048  0.2840  0.4218 -1.1842
 4851SOL    HW126189   0.197   2.878   4.080  0.0048 -0.5519  0.3303
 4851SOL    HW226190   0.205   2.742   4.006  0.2440 -0.0248 -0.4019
 4852SOL     OW26191   0.282   3.740   7.839  0.2559 -0.0664 -0.6046
 4852SOL    HW126192   0.364   3.698   7.869 -0.7011  0.0096  2.1616
 4852SOL    HW226193   0.242   3.667   7.792  0.3616 -1.8285  2.0556
 4853SOL     OW26194   4.440   0.837   0.724  0.2358 -0.4820 -0.1207
 4853SOL    HW126195   4.499   0.910   0.704 -0.0167 -0.4128 -0.6040
 4853SOL    HW226196   4.465   0.789   0.645  0.8366  0.3262 -0.4234
 4854SOL     OW26197   2.308   3.096   6.542 -0.0316  0.8730 -0.1362
 4854SOL    HW126198   2.319   3.042   6.463  0.6410  1.1991 -0.2694
 4854SOL    HW226199   2.259   3.172   6.512 -2.3511 -0.9879 -1.0671
 4855SOL     OW26200   3.831   2.679  16.947 -0.5706 -0.2990 -0.2653
 4855SOL    HW126201   3.842   2.664  17.041 -0.7686 -2.5234 -0.5935
 4855SOL    HW226202   3.918   2.696  16.912 -0.4399  0.6688  0.5654
 4856SOL     OW26203   4.731   0.426   5.433  0.1846  0.3602 -0.5034
 4856SOL    HW126204   4.649   0.473   5.418 -0.7889 -1.3924 -0.6633
 4856SOL    HW226205   0.036   0.483   5.497 -0.3952  0.6949 -0.4171
 4857SOL     OW26206   3.326   4.249   8.331  0.1928 -0.5798 -0.4207
 4857SOL    HW126207   3.282   4.211   8.255 -0.4839 -1.8193  0.5900
 4857SOL    HW226208   3.377   4.322   8.295  1.7895 -0.3428  2.3291
 4858SOL     OW26209   1.538   1.335   2.891  0.3146  0.2220  0.2966
 4858SOL    HW126210   1.576   1.327   2.978  1.7342  0.1975 -0.3289
 4858SOL    HW226211   1.526   1.430   2.895 -1.2531  0.1422 -1.9815
 4859SOL     OW26212   1.277   0.026  15.206 -0.2611 -0.3255 -0.1140
 4859SOL    HW126213   1.214   4.723  15.145  1.0812 -0.2951 -1.5267
 4859SOL    HW226214   1.226   0.028  15.287 -0.3599 -0.9878 -0.1517
 4860SOL     OW26215   3.871   1.573  15.703  0.1900 -0.0702  0.4951
 4860SOL    HW126216   3.905   1.582  15.614 -1.9403  0.3986 -0.2676
 4860SOL    HW226217   3.793   1.521  15.686  1.0924 -0.8406 -1.3054
 4861SOL     OW26218   1.961   0.024   6.859  0.5193 -0.5579 -0.8993
 4861SOL    HW126219   1.870   0.012   6.887  0.8173  1.3026  0.8893
 4861SOL    HW226220   1.995   0.079   6.930  2.8087 -1.4384 -1.3104
 4862SOL     OW26221   1.625   1.986   6.593 -0.5410  0.0273  0.0275
 4862SOL    HW126222   1.586   1.982   6.680  1.6597  1.0905  1.0373
 4862SOL    HW226223   1.564   1.930   6.544  0.3582 -2.5207  1.8121
 4863SOL     OW26224   1.022   0.282  11.231 -0.7304 -0.0778  0.0526
 4863SOL    HW126225   0.948   0.300  11.290 -1.6937  1.1372 -1.5239
 4863SOL    HW226226   1.091   0.261  11.294  0.3198  1.0685 -0.7135
 4864SOL     OW26227   4.648   2.707   0.924 -0.2599  0.1261 -0.5548
 4864SOL    HW126228   4.723   2.767   0.927  1.2732 -1.7418 -1.8624
 4864SOL    HW226229   4.585   2.771   0.890 -0.9571 -0.8222 -1.0216
 4865SOL     OW26230   4.682   2.522   7.769  0.1274 -0.0237  0.0776
 4865SOL    HW126231   4.595   2.491   7.794  0.8249 -1.9099  0.1314
 4865SOL    HW226232   4.671   2.542   7.676 -0.4663 -0.8906 -0.0335
 4866SOL     OW26233   0.491   3.261   1.306  0.3160  0.0291  0.3451
 4866SOL    HW126234   0.472   3.217   1.388 -0.3435  2.2749  1.4027
 4866SOL    HW226235   0.564   3.212   1.268 -0.4285  1.7182 -3.3597
 4867SOL     OW26236   2.341   2.059   5.470  0.5845 -0.5286  0.3129
 4867SOL    HW126237   2.427   2.033   5.436 -0.0633 -1.5642 -0.5318
 4867SOL    HW226238   2.372   2.133   5.523  0.0003 -1.7603  2.3883
 4868SOL     OW26239   3.868   2.642   5.972  0.1197  0.2149 -0.1871
 4868SOL    HW126240   3.918   2.600   6.041  0.9536 -1.6290 -1.9145
 4868SOL    HW226241   3.877   2.733   6.003 -1.0353 -0.7786  3.0337
 4869SOL     OW26242   4.141   3.291   0.636  0.2664  0.6789 -0.1220
 4869SOL    HW126243   4.128   3.216   0.693  3.4049 -0.5075 -0.9366
 4869SOL    HW226244   4.166   3.244   0.557 -0.0843 -1.7941  1.2432
 4870SOL     OW26245   2.024   2.863   1.877 -0.5321  0.0009  0.5154
 4870SOL    HW126246   2.054   2.864   1.967  1.8383 -0.9148 -0.2797
 4870SOL    HW226247   2.006   2.956   1.863 -0.6412 -0.0218  0.5047
 4871SOL     OW26248   2.692   2.396   1.785  0.0130 -0.4564 -0.1214
 4871SOL    HW126249   2.668   2.329   1.720 -0.5820 -1.1051  0.7642
 4871SOL    HW226250   2.782   2.416   1.762 -0.2136 -1.8710 -2.2260
 4872SOL     OW26251   3.833   3.755   6.765  1.5170 -0.3909 -0.0235
 4872SOL    HW126252   3.815   3.816   6.836  2.3686  1.2139 -1.1836
 4872SOL    HW226253   3.885   3.799   6.697  0.4061  1.9176  0.6375
 4873SOL     OW26254   0.541   2.951   3.265 -0.1594  0.0031 -0.0778
 4873SOL    HW126255   0.591   3.022   3.306  0.4692 -0.9169  0.7408
 4873SOL    HW226256   0.556   2.976   3.174  0.8662 -0.1918  0.0370
 4874SOL     OW26257   3.704   3.527  10.917 -0.5014 -0.2151 -0.2577
 4874SOL    HW126258   3.716   3.607  10.969  0.2131 -0.6755  0.2823
 4874SOL    HW226259   3.739   3.461  10.976 -0.7413 -0.5242 -0.4634
 4875SOL     OW26260   1.924   0.097   6.104 -0.3202 -0.3528 -0.0639
 4875SOL    HW126261   1.879   0.100   6.020  1.9693  0.9569 -1.2414
 4875SOL    HW226262   1.861   0.061   6.166  1.0757  0.1828  1.6493
 4876SOL     OW26263   2.570   2.906   8.197 -0.2893  0.2550  0.3322
 4876SOL    HW126264   2.575   3.001   8.211  2.3532  0.2407 -0.5584
 4876SOL    HW226265   2.566   2.869   8.285 -1.6374 -0.1839  0.0899
 4877SOL     OW26266   3.329   1.770   3.204  0.2768 -0.1692 -0.1603
 4877SOL    HW126267   3.416   1.752   3.239  0.0417  0.9631  1.0074
 4877SOL    HW226268   3.334   1.862   3.230 -0.5313 -0.8429  2.3437
 4878SOL     OW26269   3.992   3.067  15.979  0.0257 -0.2546  0.4256
 4878SOL    HW126270   3.957   2.995  16.030  3.5988 -3.1574 -1.1815
 4878SOL    HW226271   3.973   3.029  15.893  0.0211 -1.3992  0.9405
 4879SOL     OW26272   2.552   1.867  12.439 -0.6420 -0.4095 -0.1898
 4879SOL    HW126273   2.591   1.888  12.524 -2.9563  0.0004  0.7680
 4879SOL    HW226274   2.631   1.839  12.393  0.5516  0.4035  1.3543
 4880SOL     OW26275   4.281   0.408  12.794  0.4249  0.0774 -0.3714
 4880SOL    HW126276   4.253   0.381  12.706  0.9328 -0.2163 -0.4459
 4880SOL    HW226277   4.196   0.438  12.826  0.2600 -0.4257 -0.3412
 4881SOL     OW26278   2.019   2.768   8.098  0.1214 -0.4423 -0.2038
 4881SOL    HW126279   2.075   2.839   8.129 -2.0461  0.2363  2.1362
 4881SOL    HW226280   2.003   2.710   8.173 -3.2311  0.5584 -0.1815
 4882SOL     OW26281   0.032   1.755   5.090  0.0277 -0.1714 -0.0867
 4882SOL    HW126282   0.083   1.778   5.012  1.9070  0.0889  1.2275
 4882SOL    HW226283   4.680   1.761   5.056 -0.1388  0.4933  0.4574
 4883SOL     OW26284   1.371   3.198   2.402 -0.5875  0.7335  0.1279
 4883SOL    HW126285   1.287   3.157   2.421 -1.8523  2.4306 -1.7295
 4883SOL    HW226286   1.344   3.289   2.386 -1.2065  0.9256  2.2825
 4884SOL     OW26287   2.293   4.425  12.033  0.5440  0.1477 -0.1716
 4884SOL    HW126288   2.381   4.388  12.041  0.6782  0.8112  1.5002
 4884SOL    HW226289   2.324   4.513  12.013 -0.3336  1.1526  2.8464
 4885SOL     OW26290   0.888   4.524   8.541 -0.2137 -0.8592 -0.2682
 4885SOL    HW126291   0.876   4.605   8.591 -0.3212  0.2773 -2.1350
 4885SOL    HW226292   0.866   4.457   8.606  1.0478 -1.2588 -0.2519
 4886SOL     OW26293   1.069   3.378  14.321  1.0436 -0.2485  0.0497
 4886SOL    HW126294   1.107   3.407  14.404 -1.1586  2.4666  0.0914
 4886SOL    HW226295   1.120   3.437  14.266 -0.5164  0.4964 -0.5958
 4887SOL     OW26296   3.372   4.228   2.833  0.6726  0.0881  0.0806
 4887SOL    HW126297   3.348   4.301   2.890 -1.0406  0.0055 -0.5474
 4887SOL    HW226298   3.441   4.187   2.886  0.2847 -0.0551  0.4718
 4888SOL     OW26299   1.574   2.876  15.010 -0.0163 -0.1786  0.3273
 4888SOL    HW126300   1.581   2.845  15.100 -0.1232  1.3711  0.8704
 4888SOL    HW226301   1.489   2.847  14.978  0.7195 -1.5030 -0.4201
 4889SOL     OW26302   2.233   2.643  11.045 -0.0393  0.5114  0.4397
 4889SOL    HW126303   2.297   2.636  10.974  0.8262  0.2376  1.2468
 4889SOL    HW226304   2.225   2.554  11.077  3.0705  0.9178  2.3311
 4890SOL     OW26305   0.612   3.408   1.863 -0.0787  0.0573  0.2537
 4890SOL    HW126306   0.694   3.435   1.903  0.0734  0.8818 -0.6188
 4890SOL    HW226307   0.606   3.478   1.798  0.4556 -0.2854 -0.1600
 4891SOL     OW26308   0.888   4.475   1.958 -0.2389  0.0240 -0.1187
 4891SOL    HW126309   0.795   4.453   1.965 -0.6568  0.7425 -3.1373
 4891SOL    HW226310   0.914   4.407   1.896  0.8314 -1.2968  1.7814
 4892SOL     OW26311   2.928   2.877   3.941 -0.6181  0.4061  0.2466
 4892SOL    HW126312   2.850   2.868   3.995 -1.5420  0.4215 -1.0732
 4892SOL    HW226313   2.999   2.870   4.005  0.3962  1.4955 -0.7477
 4893SOL     OW26314   1.331   2.480   3.398 -0.8111 -0.0037  0.0206
 4893SOL    HW126315   1.250   2.475   3.347 -3.0166 -1.1452  3.5656
 4893SOL    HW226316   1.310   2.408   3.458 -0.0600  0.7224  1.1504
 4894SOL     OW26317   4.563   0.355  16.744  0.2358  0.4636  0.4701
 4894SOL    HW126318   4.524   0.401  16.669  0.8767  0.9382  0.4219
 4894SOL    HW226319   4.651   0.342  16.710 -0.6782 -1.6689 -1.0949
 4895SOL     OW26320   2.400   1.931  14.202  0.1705  0.1425 -0.3716
 4895SOL    HW126321   2.376   1.903  14.291 -0.3440 -1.4042 -1.0125
 4895SOL    HW226322   2.492   1.951  14.221 -0.0418  1.6654 -0.9200
 4896SOL     OW26323   2.651   2.742   6.230  0.3943  0.7834 -0.2574
 4896SOL    HW126324   2.562   2.745   6.195 -0.0825  0.8285  0.9411
 4896SOL    HW226325   2.686   2.721   6.144  3.4081  1.2407  0.8780
 4897SOL     OW26326   1.101   2.083   4.006  0.3057  0.0988 -0.3014
 4897SOL    HW126327   1.117   2.141   4.081  1.6125 -0.6220 -0.0314
 4897SOL    HW226328   1.166   2.109   3.941  1.5933 -1.9904  0.1738
 4898SOL     OW26329   4.197   1.278   0.063 -0.3418  0.5981  0.1557
 4898SOL    HW126330   4.249   1.206   0.029 -0.2396  0.3855  0.7628
 4898SOL    HW226331   4.121   1.262   0.006  0.1249 -0.9922  0.0004
 4899SOL     OW26332   1.831   1.414   6.905 -0.0339 -0.2685  0.0880
 4899SOL    HW126333   1.792   1.475   6.842 -0.8167 -1.7480 -0.8334
 4899SOL    HW226334   1.889   1.465   6.963  0.3623 -0.5590 -0.0496
 4900SOL     OW26335   2.625   2.270   8.036 -0.1530 -0.0546  0.3274
 4900SOL    HW126336   2.604   2.352   8.082 -0.6113  1.0797 -1.8829
 4900SOL    HW226337   2.620   2.303   7.946  3.5661  0.0385  0.1708
 4901SOL     OW26338   0.768   2.114  16.829 -0.1884  0.1259  0.3148
 4901SOL    HW126339   0.803   2.025  16.825  1.6754  0.7590  2.9054
 4901SOL    HW226340   0.804   2.164  16.756  0.8342 -0.5975  0.3282
 4902SOL     OW26341   0.948   0.711  15.975  0.0901 -0.1784 -0.1139
 4902SOL    HW126342   1.020   0.771  15.993 -0.2980 -0.2310  1.6898
 4902SOL    HW226343   0.976   0.661  15.899 -1.3044 -2.9465  1.1627
 4903SOL     OW26344   3.914   2.565  16.076 -0.3698  0.4813  0.8395
 4903SOL    HW126345   3.907   2.555  15.981 -0.2820 -0.3829  0.9282
 4903SOL    HW226346   3.972   2.641  16.082 -1.2493  1.2368 -0.4642
 4904SOL     OW26347   4.613   0.476   6.224  0.1814  0.0151 -0.1112
 4904SOL    HW126348   4.615   0.570   6.207 -1.5386 -0.2077 -1.5884
 4904SOL    HW226349   4.588   0.477   6.316  0.5472 -1.3899 -0.0069
 4905SOL     OW26350   2.804   0.943   5.180 -0.4260  0.2058  0.0604
 4905SOL    HW126351   2.817   0.885   5.255 -1.3863  0.8768  0.7334
 4905SOL    HW226352   2.885   0.994   5.192 -0.1776  0.2094 -1.6237
 4906SOL     OW26353   2.030   1.751   1.103  0.0441  0.4152  0.1934
 4906SOL    HW126354   2.057   1.717   1.188  3.0906 -0.3858 -1.1023
 4906SOL    HW226355   2.093   1.822   1.089  0.4680  0.1187  0.6196
 4907SOL     OW26356   2.114   0.963  17.272 -0.3281  0.2300  0.7773
 4907SOL    HW126357   2.073   1.018  17.339 -0.9533 -1.0758  1.4764
 4907SOL    HW226358   2.048   0.967  17.202  1.6858 -0.9386 -1.1902
 4908SOL     OW26359   3.317   0.721   7.601 -0.2257  0.0651 -0.1132
 4908SOL    HW126360   3.364   0.691   7.523  0.8943  0.4933  0.3875
 4908SOL    HW226361   3.393   0.762   7.644  0.7100 -0.0328 -1.6664
 4909SOL     OW26362   2.027   0.143   8.673 -0.3038  0.0622  0.7660
 4909SOL    HW126363   2.023   0.162   8.767  0.8824 -0.3641  0.9114
 4909SOL    HW226364   1.939   0.113   8.653 -0.1309  1.1435 -1.5058
 4910SOL     OW26365   1.925   4.013   2.591 -0.7137  0.3295  0.0497
 4910SOL    HW126366   1.989   3.966   2.538  0.6172  0.5984  1.4056
 4910SOL    HW226367   1.987   4.078   2.625 -0.7766  0.1142  0.5717
 4911SOL     OW26368   3.968   4.244   8.104 -0.3014 -0.5632 -0.1461
 4911SOL    HW126369   3.876   4.226   8.085  0.2629 -1.9135 -1.6019
 4911SOL    HW226370   3.958   4.310   8.173  0.2428 -1.9470  1.2439
 4912SOL     OW26371   3.499   2.078  10.441 -0.1449 -0.2749  0.7318
 4912SOL    HW126372   3.536   2.062  10.354 -0.5644  0.4446  0.4121
 4912SOL    HW226373   3.460   2.165  10.433  1.7054  0.4173 -0.6298
 4913SOL     OW26374   3.268   4.382   3.876  0.8359 -0.2349  0.5035
 4913SOL    HW126375   3.297   4.302   3.830  0.6708  0.0894 -0.1709
 4913SOL    HW226376   3.234   4.430   3.801  1.7115  0.9728  0.8960
 4914SOL     OW26377   4.488   1.099   4.960  0.8617 -0.5391  0.0700
 4914SOL    HW126378   4.551   1.133   5.024 -1.0671  1.9689  0.6468
 4914SOL    HW226379   4.403   1.115   5.002  1.4693  4.5788 -0.6418
 4915SOL     OW26380   0.546   2.073   0.253  0.0052  0.4496 -0.0473
 4915SOL    HW126381   0.517   1.995   0.300  0.2983 -0.0158 -0.6417
 4915SOL    HW226382   0.557   2.131   0.328 -1.3699 -0.1022  0.5735
 4916SOL     OW26383   4.285   3.969   8.696  0.0458 -0.4294 -0.4069
 4916SOL    HW126384   4.363   3.948   8.646  0.1962 -1.4893  0.2573
 4916SOL    HW226385   4.260   3.877   8.707  2.1629 -0.7729  1.6632
 4917SOL     OW26386   3.013   4.282  17.737  0.5809 -0.1412  0.5423
 4917SOL    HW126387   3.073   4.298  17.664 -0.2405  0.6113  0.0301
 4917SOL    HW226388   2.927   4.265  17.700  0.1348  0.7190  1.1587
 4918SOL     OW26389   2.046   4.641  10.555  0.1263 -0.1917 -0.3423
 4918SOL    HW126390   1.968   4.693  10.577  0.4482  0.3974 -0.5815
 4918SOL    HW226391   2.042   4.563  10.610 -1.0665  0.1020 -0.0178
 4919SOL     OW26392   4.580   3.325   7.863  0.6550 -0.2980 -0.1101
 4919SOL    HW126393   4.562   3.265   7.935 -0.1394  1.9620  1.5544
 4919SOL    HW226394   4.628   3.259   7.813  0.1331  0.5011 -1.6741
 4920SOL     OW26395   3.699   3.015  11.343 -0.0399 -0.4521  0.0952
 4920SOL    HW126396   3.681   3.040  11.253  2.5120 -0.2226 -0.3489
 4920SOL    HW226397   3.791   2.987  11.338 -0.2221 -1.1607  0.6587
 4921SOL     OW26398   0.504   0.347   7.867 -0.5159  0.1942 -0.4158
 4921SOL    HW126399   0.467   0.427   7.904  1.6226  2.8565 -4.0616
 4921SOL    HW226400   0.441   0.290   7.912  0.5109 -1.7999 -1.4690
 4922SOL     OW26401   1.141   3.079   2.491  0.3086  0.3346 -0.2352
 4922SOL    HW126402   1.144   2.984   2.486 -1.3138  0.3476 -1.5950
 4922SOL    HW226403   1.050   3.091   2.464 -0.2762  1.1920  2.1012
 4923SOL     OW26404   1.918   4.101  16.758 -0.4487  0.3580 -0.4724
 4923SOL    HW126405   1.893   4.063  16.674  0.7188 -3.6245  0.9772
 4923SOL    HW226406   1.992   4.156  16.732  1.0771 -0.4289  2.2312
 4924SOL     OW26407   2.876   0.672   3.444 -0.0741 -0.2840  0.6176
 4924SOL    HW126408   2.914   0.757   3.421  0.5855 -0.9243 -0.6191
 4924SOL    HW226409   2.956   0.628   3.474 -0.1148 -1.1940 -0.6007
 4925SOL     OW26410   2.372   1.975   3.555  0.0598 -0.0621 -0.2009
 4925SOL    HW126411   2.392   2.050   3.611  2.0684 -1.0870  0.4873
 4925SOL    HW226412   2.418   2.000   3.475 -0.4710 -0.2444 -0.5581
 4926SOL     OW26413   0.197   4.208  12.409 -0.1599  0.0314 -0.1326
 4926SOL    HW126414   0.121   4.203  12.467 -0.0049  0.9288  0.1395
 4926SOL    HW226415   0.264   4.232  12.473 -2.2396  0.3774  1.9225
 4927SOL     OW26416   2.053   1.698   2.111 -0.2652 -0.4080 -0.2849
 4927SOL    HW126417   2.115   1.718   2.041 -0.6064 -0.0427 -0.4829
 4927SOL    HW226418   2.109   1.657   2.177 -1.9885 -0.2039  1.3071
 4928SOL     OW26419   2.558   3.669  10.978 -0.1372 -0.0625  0.0178
 4928SOL    HW126420   2.616   3.620  10.920 -1.8366 -0.5785 -1.2336
 4928SOL    HW226421   2.581   3.761  10.968  0.9622 -0.1158  2.0050
 4929SOL     OW26422   1.111   1.050  15.008  0.0158  0.0416 -0.0696
 4929SOL    HW126423   1.142   1.027  14.921  1.0360 -0.2091  0.3695
 4929SOL    HW226424   1.059   1.124  14.976  0.0970 -0.2448 -0.8620
 4930SOL     OW26425   0.043   4.153   4.515  0.4893 -0.8237  0.0058
 4930SOL    HW126426   0.010   4.083   4.459  1.6891 -1.7986  0.5040
 4930SOL    HW226427   4.727   4.142   4.594  1.2691 -1.2686  0.4608
 4931SOL     OW26428   3.193   4.337   9.640 -0.0196 -0.3442 -0.3566
 4931SOL    HW126429   3.196   4.255   9.591 -0.8940  0.3888 -1.6111
 4931SOL    HW226430   3.220   4.306   9.727 -0.8800  1.1472  0.4499
 4932SOL     OW26431   4.472   3.247   4.277  0.3144 -0.0987  0.4444
 4932SOL    HW126432   4.402   3.205   4.327 -0.0092 -0.7479 -0.5428
 4932SOL    HW226433   4.439   3.335   4.293  1.9989  0.1315  2.5979
 4933SOL     OW26434   4.094   4.128  13.131  0.9263 -0.3886 -0.2100
 4933SOL    HW126435   3.999   4.141  13.121  1.0157  1.7786  1.6707
 4933SOL    HW226436   4.111   4.139  13.224 -0.5948 -0.2737  0.0599
 4934SOL     OW26437   1.475   0.937   1.070  0.5833 -0.2876 -0.0479
 4934SOL    HW126438   1.442   0.970   1.154  1.1909 -0.4871  0.2656
 4934SOL    HW226439   1.409   0.973   1.011 -0.0236 -0.0054  0.7991
 4935SOL     OW26440   2.999   2.499  13.718  0.2791 -0.2665 -0.1820
 4935SOL    HW126441   3.017   2.481  13.810 -1.2564  0.6932  0.3013
 4935SOL    HW226442   2.938   2.571  13.732  0.8277 -0.0177  0.8807
 4936SOL     OW26443   3.757   0.158  15.376 -0.1665  0.2093  0.2411
 4936SOL    HW126444   3.734   0.212  15.452  1.1033  1.7912 -0.5089
 4936SOL    HW226445   3.814   0.221  15.333  0.6073 -0.0405  0.8950
 4937SOL     OW26446   2.114   4.095  15.236  0.5814 -0.1062 -0.3759
 4937SOL    HW126447   2.046   4.147  15.193  0.4296  0.0418  0.0447
 4937SOL    HW226448   2.154   4.061  15.156  0.8130 -1.9820  0.5330
 4938SOL     OW26449   3.310   4.291   6.060 -0.6029  0.9534  0.3707
 4938SOL    HW126450   3.272   4.314   5.975 -1.2970  1.7644  0.8993
 4938SOL    HW226451   3.338   4.378   6.087  0.1551  0.6586  0.5284
 4939SOL     OW26452   1.043   0.066  14.094  0.1614 -0.3300  0.4495
 4939SOL    HW126453   1.125   0.031  14.062  0.0617 -1.0277  0.9549
 4939SOL    HW226454   1.032   0.010  14.171  1.1326 -0.9977  0.1004
 4940SOL     OW26455   4.664   2.661   2.646  0.2544 -0.7774 -0.0281
 4940SOL    HW126456   4.618   2.578   2.659 -1.0217  0.1588  1.4281
 4940SOL    HW226457   4.601   2.714   2.596 -1.8956 -1.5829  1.7990
 4941SOL     OW26458   4.065   4.153   6.699 -0.5748  0.0193  0.5347
 4941SOL    HW126459   4.035   4.230   6.747  1.5553  1.8400 -1.1152
 4941SOL    HW226460   4.151   4.170   6.660 -0.6236 -0.4711  0.2078
 4942SOL     OW26461   4.691   2.621   6.227 -0.2181 -0.1380  0.2989
 4942SOL    HW126462   4.707   2.653   6.316 -0.6964 -0.7070  0.5852
 4942SOL    HW226463   4.664   2.704   6.187  0.4834 -0.4661 -0.8516
 4943SOL     OW26464   0.545   1.661   3.013 -0.1146  0.1318  0.1016
 4943SOL    HW126465   0.575   1.571   3.025 -1.5954 -0.2588  0.8127
 4943SOL    HW226466   0.493   1.662   2.933  0.9862  0.4664 -0.6125
 4944SOL     OW26467   3.021   0.575   7.017 -0.0031 -0.0174 -0.5832
 4944SOL    HW126468   3.010   0.510   6.949 -2.6281 -0.5322  0.3408
 4944SOL    HW226469   3.117   0.575   7.025 -0.0022  2.2366 -0.5932
 4945SOL     OW26470   3.010   2.575   3.009 -0.1950 -0.0855  0.1971
 4945SOL    HW126471   2.963   2.511   2.956 -0.0436 -1.2196  1.4299
 4945SOL    HW226472   3.046   2.525   3.083 -1.2474 -1.8673 -0.4986
 4946SOL     OW26473   3.320   2.383   4.906 -0.2056  0.2172 -0.5434
 4946SOL    HW126474   3.364   2.341   4.980  0.4644 -0.4617 -1.3319
 4946SOL    HW226475   3.395   2.397   4.849 -0.0729 -2.6914 -1.1013
 4947SOL     OW26476   3.138   2.347  13.094 -0.2038 -0.1035 -0.0047
 4947SOL    HW126477   3.134   2.431  13.048  2.8637  0.6164  1.0399
 4947SOL    HW226478   3.233   2.351  13.102 -0.3034  0.4839  0.8883
 4948SOL     OW26479   2.317   2.062  17.161 -0.0160 -0.2230 -0.2842
 4948SOL    HW126480   2.363   2.124  17.103  0.6248 -1.7415 -1.3900
 4948SOL    HW226481   2.388   1.999  17.167  1.2631  1.3728  1.5827
 4949SOL     OW26482   2.618   4.451  17.486 -0.6067 -0.1912  0.4068
 4949SOL    HW126483   2.548   4.391  17.458  0.1158 -0.4875 -0.7829
 4949SOL    HW226484   2.667   4.461  17.405 -2.2099 -0.0961 -0.5584
 4950SOL     OW26485   3.713   0.143   6.907 -0.0350  0.1095 -0.1214
 4950SOL    HW126486   3.805   0.119   6.921  0.0343 -0.2988 -1.2462
 4950SOL    HW226487   3.671   0.120   6.989 -0.4858 -1.0995 -0.6948
 4951SOL     OW26488   2.380   0.486   5.494  0.4615  0.3986  0.1024
 4951SOL    HW126489   2.470   0.453   5.498  0.1523 -0.7576 -2.6488
 4951SOL    HW226490   2.364   0.515   5.584  0.4902 -0.9126  0.5229
 4952SOL     OW26491   0.427   0.305   3.220  0.1481  0.2875 -0.0895
 4952SOL    HW126492   0.393   0.216   3.228  0.1110  0.2688 -0.4968
 4952SOL    HW226493   0.511   0.275   3.184  0.2568 -0.3574  0.7029
 4953SOL     OW26494   1.958   2.386   6.387  0.2370 -0.3935 -0.0353
 4953SOL    HW126495   1.919   2.328   6.322  0.2606 -1.1114  0.5900
 4953SOL    HW226496   1.973   2.328   6.462  2.5713 -0.1976 -0.3318
 4954SOL     OW26497   3.502   1.503   8.525  0.0750  0.4865 -0.5589
 4954SOL    HW126498   3.457   1.542   8.450 -0.1420  1.4715  0.0877
 4954SOL    HW226499   3.471   1.414   8.541 -1.3782  1.5853  2.7895
 4955SOL     OW26500   0.745   4.159   4.159 -0.1790  0.1428 -0.3651
 4955SOL    HW126501   0.771   4.068   4.144  0.0599  0.2605 -0.6563
 4955SOL    HW226502   0.777   4.191   4.075 -0.9490  0.6847 -0.4416
 4956SOL     OW26503   0.078   3.010   4.533  0.2631 -0.1990 -0.3816
 4956SOL    HW126504   0.056   2.967   4.616 -0.9682 -1.1116 -1.1955
 4956SOL    HW226505   4.737   2.988   4.483  0.4327 -4.1362  1.1330
 4957SOL     OW26506   0.505   0.610  16.599  0.3853  0.2737 -0.0264
 4957SOL    HW126507   0.494   0.522  16.563 -1.7768  1.0073 -1.1573
 4957SOL    HW226508   0.414   0.639  16.602  0.4357  0.5884 -1.7380
 4958SOL     OW26509   2.426   0.651   3.763 -0.1960  0.2801 -0.4738
 4958SOL    HW126510   2.466   0.699   3.835  0.4932 -1.9800  0.6293
 4958SOL    HW226511   2.488   0.670   3.693 -1.8780 -0.0504 -2.0655
 4959SOL     OW26512   2.393   4.319   5.833 -0.0599 -0.0649  0.0492
 4959SOL    HW126513   2.368   4.231   5.806 -3.2749  0.5858  0.8861
 4959SOL    HW226514   2.389   4.323   5.929 -0.1625  1.3790 -0.0157
 4960SOL     OW26515   0.725   4.307  10.475 -0.1372  0.3142 -0.1349
 4960SOL    HW126516   0.674   4.245  10.528  1.6049  0.6136  1.9108
 4960SOL    HW226517   0.783   4.344  10.541 -0.5140  1.7868 -0.6363
 4961SOL     OW26518   4.346   0.066  13.353  0.4732 -0.2348  0.0947
 4961SOL    HW126519   4.394   0.011  13.291  0.7484 -1.2410  1.1898
 4961SOL    HW226520   4.311   4.736  13.411  2.3493 -0.4404  0.9967
 4962SOL     OW26521   1.840   1.501  11.321  0.5926 -0.0011  0.0186
 4962SOL    HW126522   1.790   1.582  11.317 -1.3152 -1.1125  1.5565
 4962SOL    HW226523   1.781   1.445  11.370  0.9935 -1.1844 -0.8320
 4963SOL     OW26524   1.764   2.138   3.846 -0.0236  0.0422  0.0838
 4963SOL    HW126525   1.731   2.225   3.870  1.7589  1.3689 -2.2372
 4963SOL    HW226526   1.853   2.160   3.817  0.9208 -0.8832  2.3197
 4964SOL     OW26527   2.779   3.207   3.620  0.5880 -0.0524 -0.6414
 4964SOL    HW126528   2.779   3.295   3.659 -3.0442 -0.5199  0.3499
 4964SOL    HW226529   2.729   3.163   3.688  1.1096  1.0527  0.4718
 4965SOL     OW26530   2.099   2.714   5.990  0.0727 -0.0078 -0.1210
 4965SOL    HW126531   2.082   2.726   5.896 -1.5263 -0.5041  0.1181
 4965SOL    HW226532   2.086   2.619   5.997 -1.3790  0.3341  1.6056
 4966SOL     OW26533   0.077   4.491  12.425  0.1819  0.0159  0.0828
 4966SOL    HW126534   0.104   4.402  12.402 -3.9948 -1.3598  0.5381
 4966SOL    HW226535   0.133   4.534  12.361 -0.6077 -0.1184 -0.6984
 4967SOL     OW26536   4.555   0.341   8.723  0.8916  0.3113  0.4789
 4967SOL    HW126537   4.640   0.376   8.747  1.6089 -0.1748 -1.2893
 4967SOL    HW226538   4.488   0.370   8.784 -1.0652  1.0855 -2.0233
 4968SOL     OW26539   0.454   2.976  15.921  1.0001 -0.7118  0.2102
 4968SOL    HW126540   0.380   3.000  15.977 -0.0345 -2.3587 -0.4278
 4968SOL    HW226541   0.519   3.032  15.964 -1.4810  1.6820  0.8290
 4969SOL     OW26542   2.711   3.992   6.237 -0.8840  0.4849  0.3219
 4969SOL    HW126543   2.667   4.074   6.259 -1.0703  0.5217 -0.2080
 4969SOL    HW226544   2.714   4.011   6.144  0.9012  0.1357  0.2982
 4970SOL     OW26545   2.549   3.399  12.424  0.1193  0.0473  0.3034
 4970SOL    HW126546   2.517   3.408  12.514 -2.3461 -0.8430 -0.4904
 4970SOL    HW226547   2.641   3.426  12.433 -0.3052  1.8155 -0.5789
 4971SOL     OW26548   0.017   3.361  17.554 -0.5742  0.2926  0.6116
 4971SOL    HW126549   0.074   3.436  17.538  0.6843 -0.4310  1.7460
 4971SOL    HW226550   4.668   3.385  17.520 -0.4835  1.1532  0.9900
 4972SOL     OW26551   2.882   1.061  16.831 -0.1556 -0.3380  0.2046
 4972SOL    HW126552   2.791   1.058  16.861  0.4649  2.2092  2.2579
 4972SOL    HW226553   2.901   1.154  16.830  0.4025 -0.4284  2.4452
 4973SOL     OW26554   0.340   0.730   7.366 -0.0236  0.1746 -0.6218
 4973SOL    HW126555   0.399   0.715   7.440 -0.7376 -1.9443 -0.4816
 4973SOL    HW226556   0.312   0.639   7.354 -0.9435  0.5668 -1.4521
 4974SOL     OW26557   1.755   0.775   3.117 -0.1050  0.5905  0.3232
 4974SOL    HW126558   1.827   0.732   3.163 -1.2359 -1.7939 -0.1352
 4974SOL    HW226559   1.695   0.702   3.125 -0.2730  0.7473  0.5058
 4975SOL     OW26560   2.970   3.460   4.112 -0.4076 -0.4671 -0.0385
 4975SOL    HW126561   2.984   3.550   4.142  0.4246  0.0905 -2.0744
 4975SOL    HW226562   2.876   3.458   4.131 -0.1033 -2.4400  1.1970
 4976SOL     OW26563   0.484   4.029   8.772  0.0750 -0.2250  0.0135
 4976SOL    HW126564   0.449   3.943   8.749 -0.8009  0.1415  0.0074
 4976SOL    HW226565   0.577   4.015   8.754  0.0428  1.1384 -1.1688
 4977SOL     OW26566   1.990   1.654  13.177  0.5188  0.0071 -0.1116
 4977SOL    HW126567   2.045   1.578  13.156  0.8094 -0.2006  1.4052
 4977SOL    HW226568   1.912   1.633  13.125 -0.7976 -0.2645  1.9553
 4978SOL     OW26569   2.120   2.293   9.567  0.1719  0.5122 -0.4790
 4978SOL    HW126570   2.039   2.308   9.616  0.9076 -1.6406  1.3559
 4978SOL    HW226571   2.175   2.358   9.611 -0.3821  1.6807 -1.4917
 4979SOL     OW26572   3.347   3.450   3.044 -0.3016 -0.2502  0.1441
 4979SOL    HW126573   3.350   3.365   3.001 -1.5765 -1.0562  1.6426
 4979SOL    HW226574   3.291   3.437   3.120  0.6060 -1.5144  0.5900
 4980SOL     OW26575   2.120   4.587   6.680  0.6759  0.3837 -0.3329
 4980SOL    HW126576   2.055   4.520   6.658  1.9668 -0.6829 -0.8863
 4980SOL    HW226577   2.061   4.655   6.712  0.9205  0.4397 -0.0002
 4981SOL     OW26578   3.088   3.857   9.008  0.4848 -0.1026  0.1283
 4981SOL    HW126579   3.108   3.764   9.015  0.9003  0.1760  2.8412
 4981SOL    HW226580   3.101   3.885   9.099  0.2940 -0.7739  0.3668
 4982SOL     OW26581   0.853   2.834   8.927  0.0912  0.2413 -0.4841
 4982SOL    HW126582   0.891   2.773   8.990  1.2135 -0.1227 -1.5297
 4982SOL    HW226583   0.792   2.769   8.892 -1.3513  1.1613  0.3197
 4983SOL     OW26584   1.419   1.856   4.854 -0.4897 -0.0187 -0.9728
 4983SOL    HW126585   1.512   1.863   4.876 -0.8279  0.2184  0.4066
 4983SOL    HW226586   1.385   1.891   4.936  1.1311  1.9235 -1.1188
 4984SOL     OW26587   1.782   3.313   1.668  0.0319  0.0665  0.0943
 4984SOL    HW126588   1.821   3.236   1.711  0.8305  1.6447  2.2239
 4984SOL    HW226589   1.747   3.359   1.744  0.8608  0.6309  0.1323
 4985SOL     OW26590   3.883   2.851   8.182  0.6784 -0.0884  0.6329
 4985SOL    HW126591   3.790   2.844   8.204  1.1162 -2.8282  1.6797
 4985SOL    HW226592   3.911   2.929   8.230 -0.6626  1.8181 -1.6872
 4986SOL     OW26593   0.635   3.374   6.465  0.6568  0.0120 -0.4198
 4986SOL    HW126594   0.606   3.459   6.499 -2.1784 -0.7636 -0.9560
 4986SOL    HW226595   0.709   3.406   6.414  0.5037  0.5937 -0.2729
 4987SOL     OW26596   4.705   3.003  11.609 -0.6505  0.0852  0.0732
 4987SOL    HW126597   4.737   2.921  11.647  0.0460 -0.2942 -1.3098
 4987SOL    HW226598   0.050   3.041  11.575 -1.5707  2.8246  0.8764
 4988SOL     OW26599   0.574   1.878   6.726 -0.5457  0.2861  0.1669
 4988SOL    HW126600   0.566   1.784   6.744  1.5835  0.2616  1.0007
 4988SOL    HW226601   0.664   1.893   6.756  0.1104 -0.3609 -1.4339
 4989SOL     OW26602   2.496   1.408   8.321  0.0601 -0.2115  0.0351
 4989SOL    HW126603   2.409   1.418   8.360 -0.3112  1.4346 -1.2307
 4989SOL    HW226604   2.551   1.429   8.396  0.7615 -0.2529 -0.4647
 4990SOL     OW26605   1.510   1.049   9.362 -0.5629 -0.2138  0.0658
 4990SOL    HW126606   1.502   1.126   9.306  2.3892 -1.4646 -2.0912
 4990SOL    HW226607   1.576   1.004   9.308  0.0223  0.8419 -0.1017
 4991SOL     OW26608   2.367   1.650   3.207 -0.3628 -0.3876  0.0129
 4991SOL    HW126609   2.438   1.635   3.270  0.0319 -1.7039 -0.7361
 4991SOL    HW226610   2.371   1.743   3.185  1.6566 -0.4051  0.2942
 4992SOL     OW26611   0.093   2.538   3.583 -0.3439 -0.1582 -0.2414
 4992SOL    HW126612   4.737   2.557   3.588 -0.3683 -0.6106  1.0441
 4992SOL    HW226613   0.129   2.625   3.566 -1.5516  0.1896 -1.0175
 4993SOL     OW26614   4.361   3.651   2.742  0.1670 -0.7134 -0.3580
 4993SOL    HW126615   4.378   3.666   2.835  1.5274  2.1205 -1.0682
 4993SOL    HW226616   4.286   3.592   2.751 -0.0130 -0.5282 -0.6234
 4994SOL     OW26617   3.187   1.088  17.689  0.1591  0.1367 -0.0392
 4994SOL    HW126618   3.179   1.159   0.006  1.1605 -0.4272  0.7188
 4994SOL    HW226619   3.208   1.009  17.738  0.8009  0.0951 -0.3742
 4995SOL     OW26620   1.663   3.738  12.522  0.1950 -0.0015  0.1823
 4995SOL    HW126621   1.735   3.768  12.577  1.6332  0.3625 -1.8794
 4995SOL    HW226622   1.621   3.680  12.585  1.3474 -1.2512 -0.1968
 4996SOL     OW26623   4.608   3.992   6.279  0.4487 -0.2041  0.1580
 4996SOL    HW126624   4.668   4.024   6.347 -1.1862  0.1624  1.4082
 4996SOL    HW226625   4.619   4.062   6.214  1.6670  1.7385  2.4592
 4997SOL     OW26626   0.310   1.523   6.078  0.1594 -0.2795  0.2251
 4997SOL    HW126627   0.321   1.580   6.155 -0.2581 -2.7513  2.1113
 4997SOL    HW226628   0.384   1.463   6.087 -0.2887 -0.7817  0.6189
 4998SOL     OW26629   0.125   1.644   9.693 -0.4740 -0.3138 -0.2597
 4998SOL    HW126630   0.208   1.680   9.660 -0.1129 -0.8702  0.0437
 4998SOL    HW226631   0.161   1.566   9.735 -0.7857 -1.0592 -1.4090
 4999SOL     OW26632   3.980   2.028   8.006 -0.1379 -0.7988 -0.7465
 4999SOL    HW126633   3.899   1.995   8.045 -0.0416 -1.0019 -0.7196
 4999SOL    HW226634   3.960   2.121   7.995 -2.3783 -1.3224 -1.1081
 5000SOL     OW26635   4.305   0.718   8.213 -0.1232  0.1545 -0.0378
 5000SOL    HW126636   4.313   0.675   8.298 -0.1238  0.7964  0.2907
 5000SOL    HW226637   4.321   0.810   8.234 -2.8746  0.5634  0.1454
 5001SOL     OW26638   3.451   3.024   3.451 -0.3698 -0.1828  0.1813
 5001SOL    HW126639   3.399   3.100   3.423  0.4128  0.8525  1.5544
 5001SOL    HW226640   3.519   3.070   3.500 -0.1920  2.1682 -2.2387
 5002SOL     OW26641   4.445   4.721  10.689  0.7967  0.1309 -0.4373
 5002SOL    HW126642   4.497   0.050  10.643  0.2742 -0.6758 -2.2027
 5002SOL    HW226643   4.395   4.699  10.610  0.3304  0.7540 -0.3104
 5003SOL     OW26644   2.523   1.579   5.075  0.8067 -0.1128 -0.4195
 5003SOL    HW126645   2.582   1.553   5.146  1.8869  0.4414 -1.1057
 5003SOL    HW226646   2.564   1.535   5.000  1.3318 -0.6391  0.1735
 5004SOL     OW26647   1.936   1.321  15.084 -0.1455  0.0405 -0.1089
 5004SOL    HW126648   1.842   1.325  15.068 -0.1966 -3.7332 -0.6366
 5004SOL    HW226649   1.931   1.291  15.175 -1.1492 -0.6716 -0.4054
 5005SOL     OW26650   3.636   2.858   5.765 -0.1832 -0.1560 -0.2427
 5005SOL    HW126651   3.666   2.772   5.796 -0.9606 -0.5613 -0.6159
 5005SOL    HW226652   3.541   2.846   5.767 -0.5200  2.3389 -1.2886
 5006SOL     OW26653   4.100   4.730   5.337  0.6063 -0.4490  0.5296
 5006SOL    HW126654   4.151   4.682   5.402  0.5722 -0.1320  0.7899
 5006SOL    HW226655   4.162   0.029   5.274  2.5463 -1.4737  1.8416
 5007SOL     OW26656   1.999   4.339  14.541  0.0985  0.6135  0.3334
 5007SOL    HW126657   1.993   4.246  14.563  2.5233  0.6078  0.9043
 5007SOL    HW226658   1.907   4.362  14.558  0.0794  1.4916 -1.0512
 5008SOL     OW26659   0.567   3.976  12.645  0.1856 -0.1874 -0.3274
 5008SOL    HW126660   0.480   3.998  12.676 -0.2545 -1.2054 -0.8436
 5008SOL    HW226661   0.587   4.051  12.589  0.9508  0.4242  0.7753
 5009SOL     OW26662   4.701   4.383  17.385  0.3257 -0.1010 -0.2435
 5009SOL    HW126663   4.735   4.368  17.297 -0.6854  2.7404 -1.1157
 5009SOL    HW226664   4.636   4.452  17.372 -0.8383 -0.4040  4.0023
 5010SOL     OW26665   2.037   0.367  10.295 -0.2698 -0.1016  0.2844
 5010SOL    HW126666   2.085   0.382  10.214  0.3231  1.5502  0.9360
 5010SOL    HW226667   2.096   0.412  10.355  0.2440  0.1556 -0.4179
 5011SOL     OW26668   4.323   1.363   0.279 -0.5052 -0.3333 -0.6304
 5011SOL    HW126669   4.265   1.363   0.203 -1.2082 -0.2374 -0.0919
 5011SOL    HW226670   4.396   1.305   0.255 -1.1146 -0.2936 -2.6234
 5012SOL     OW26671   2.947   2.834   7.489  0.1608 -0.4678 -0.3176
 5012SOL    HW126672   3.039   2.832   7.465  0.5245  2.2996  0.7406
 5012SOL    HW226673   2.949   2.872   7.578 -1.3115 -1.7054  0.2302
 5013SOL     OW26674   1.389   1.785  10.606 -0.2679 -0.2455 -0.3005
 5013SOL    HW126675   1.467   1.733  10.622 -0.3907  0.2436  1.9036
 5013SOL    HW226676   1.421   1.875  10.611 -1.1548  0.1860 -2.4077
 5014SOL     OW26677   0.196   3.320  11.375 -0.3277 -0.3302  0.4070
 5014SOL    HW126678   0.267   3.384  11.375 -1.9763  1.5197  4.5839
 5014SOL    HW226679   0.203   3.299  11.469 -0.2377  0.2790  0.5355
 5015SOL     OW26680   3.839   4.643   1.851  0.1880  0.2750 -0.2176
 5015SOL    HW126681   3.879   4.556   1.849  0.1545  0.2134  1.2373
 5015SOL    HW226682   3.806   4.663   1.764 -1.1912 -2.6566 -0.3618
 5016SOL     OW26683   3.371   2.821   8.254 -0.4117  0.0114 -0.2293
 5016SOL    HW126684   3.343   2.873   8.330  0.8008  0.2542  0.0499
 5016SOL    HW226685   3.308   2.749   8.257  0.0906 -0.4785 -2.2212
 5017SOL     OW26686   2.629   0.762   3.532 -0.3251  0.1768 -0.2039
 5017SOL    HW126687   2.685   0.704   3.481  2.9447 -0.5416  4.1830
 5017SOL    HW226688   2.600   0.817   3.459  1.9833 -2.3555 -3.0175
 5018SOL     OW26689   1.734   1.150   1.000 -0.2475  0.2819 -0.0904
 5018SOL    HW126690   1.676   1.191   1.064 -0.9166  0.1965 -0.6439
 5018SOL    HW226691   1.669   1.094   0.958  0.6842 -0.7194 -0.1865
 5019SOL     OW26692   3.525   0.388   5.596 -0.2807 -0.2221  0.1549
 5019SOL    HW126693   3.581   0.439   5.537  1.2504  0.7281  2.4335
 5019SOL    HW226694   3.446   0.442   5.605 -0.9713 -1.3229  0.5920
 5020SOL     OW26695   2.215   0.700   2.890 -0.4871 -0.5013 -0.2116
 5020SOL    HW126696   2.124   0.697   2.920 -0.2689 -0.6043  0.4249
 5020SOL    HW226697   2.201   0.732   2.801  3.0699  1.6247 -0.0157
 5021SOL     OW26698   4.248   1.472   7.212  0.3495  0.1767  0.3821
 5021SOL    HW126699   4.270   1.503   7.124 -0.0714 -3.4541 -0.9978
 5021SOL    HW226700   4.158   1.448   7.190  0.5710 -1.7001  1.5121
 5022SOL     OW26701   1.904   0.390   7.495  0.4601  0.2327  0.2313
 5022SOL    HW126702   1.965   0.349   7.557  0.6764 -0.3909 -0.3917
 5022SOL    HW226703   1.837   0.420   7.555 -1.4244 -1.7360 -0.8918
 5023SOL     OW26704   0.718   0.007   2.528  0.2595  0.2921 -0.1869
 5023SOL    HW126705   0.634   4.705   2.554  0.5111 -0.9386 -1.2186
 5023SOL    HW226706   0.716   4.706   2.440 -0.9097  3.1790 -1.4112
 5024SOL     OW26707   2.219   1.088  15.634  0.0783 -0.9063 -0.3231
 5024SOL    HW126708   2.309   1.080  15.603  0.5511  3.8550 -0.1601
 5024SOL    HW226709   2.235   1.076  15.728 -3.7616 -0.9134  0.3426
 5025SOL     OW26710   0.537   4.375   0.351 -0.5008 -0.8122 -0.4077
 5025SOL    HW126711   0.501   4.370   0.440  0.8595  3.2283  0.3799
 5025SOL    HW226712   0.621   4.418   0.367 -0.3031 -0.3420 -2.7247
 5026SOL     OW26713   0.369   4.540   4.073 -0.4843  0.2203  0.3975
 5026SOL    HW126714   0.284   4.497   4.083 -0.1275 -0.8710 -1.2096
 5026SOL    HW226715   0.425   4.469   4.105 -1.3639  0.3757  2.3252
 5027SOL     OW26716   3.175   0.182   8.924 -0.0465 -0.5954  0.1297
 5027SOL    HW126717   3.221   0.262   8.900 -0.5066 -0.2236  0.4757
 5027SOL    HW226718   3.109   0.212   8.987 -0.6494 -3.3365  0.7921
 5028SOL     OW26719   1.224   1.285  14.405  0.1633 -0.0301  0.3518
 5028SOL    HW126720   1.267   1.367  14.378  0.3929 -0.0872  0.5492
 5028SOL    HW226721   1.299   1.226  14.409  0.7436  0.6166 -0.8375
 5029SOL     OW26722   0.322   2.405   2.477  0.4494  0.2098 -0.0587
 5029SOL    HW126723   0.278   2.432   2.557  1.3435 -2.5671  1.3616
 5029SOL    HW226724   0.264   2.436   2.407 -0.5853  1.8313  1.5388
 5030SOL     OW26725   1.115   0.907   3.231  0.1478 -1.0640  0.0348
 5030SOL    HW126726   1.148   0.935   3.316 -0.9952 -2.6230  0.9729
 5030SOL    HW226727   1.136   0.985   3.179  1.2669 -0.7755  0.9092
 5031SOL     OW26728   3.623   3.232   1.817  0.1696  0.5368  0.1226
 5031SOL    HW126729   3.681   3.252   1.891 -0.8747  1.4182  0.7090
 5031SOL    HW226730   3.634   3.315   1.771  1.4973  0.2927  0.0053
 5032SOL     OW26731   4.225   4.664  13.601  0.1878  0.7217 -0.9175
 5032SOL    HW126732   4.196   4.730  13.664  1.3545  0.8734 -0.5328
 5032SOL    HW226733   4.309   4.631  13.634  0.0497  1.6884  0.3876
 5033SOL     OW26734   1.797   1.137   4.590  0.1387 -0.7259  0.1618
 5033SOL    HW126735   1.778   1.228   4.566 -0.3069 -0.9221 -0.2415
 5033SOL    HW226736   1.749   1.129   4.672 -0.6585  0.1408 -0.2121
 5034SOL     OW26737   0.735   1.519  13.457 -0.0286  0.0627  0.4729
 5034SOL    HW126738   0.655   1.567  13.480  0.2810  0.0410  1.5881
 5034SOL    HW226739   0.801   1.573  13.499 -0.8910  0.1968  1.6687
 5035SOL     OW26740   3.083   4.372   5.455 -0.1440  0.2027 -0.0395
 5035SOL    HW126741   3.062   4.283   5.481  0.7301  1.6614  5.7241
 5035SOL    HW226742   3.171   4.378   5.492 -0.1167 -0.7265  0.0314
 5036SOL     OW26743   3.238   2.707  16.278  0.2875  0.7508 -0.3131
 5036SOL    HW126744   3.249   2.799  16.301 -0.3071  0.9044 -0.6244
 5036SOL    HW226745   3.308   2.665  16.327 -0.1419  0.1384 -0.2223
 5037SOL     OW26746   3.401   3.112   4.813 -0.2272  0.1033  0.4269
 5037SOL    HW126747   3.429   3.027   4.848  0.5522 -0.9037 -2.5830
 5037SOL    HW226748   3.487   3.153   4.809  0.5100 -1.2648  2.3689
 5038SOL     OW26749   0.307   4.494   5.976  0.6121  0.3403  0.0670
 5038SOL    HW126750   0.372   4.522   6.041  0.1140  0.4221  0.5285
 5038SOL    HW226751   0.252   4.444   6.036  1.4015 -1.0050 -0.3214
 5039SOL     OW26752   4.731   0.819   5.344 -0.0999  0.5771  0.0692
 5039SOL    HW126753   0.031   0.830   5.432  1.4247  1.6831 -0.7118
 5039SOL    HW226754   0.074   0.792   5.299 -0.3603  0.2055 -0.1648
 5040SOL     OW26755   1.735   4.128  16.152 -0.4893  0.0086 -0.2613
 5040SOL    HW126756   1.754   4.208  16.104  0.4968  0.3682  0.7231
 5040SOL    HW226757   1.812   4.081  16.123  0.1020  0.2860  0.8494
 5041SOL     OW26758   4.492   1.617   5.395 -0.1004  0.1806 -0.2556
 5041SOL    HW126759   4.541   1.536   5.388 -0.9286 -0.3487  0.1019
 5041SOL    HW226760   4.565   1.673   5.369 -0.5917 -0.5599 -3.2506
 5042SOL     OW26761   1.199   2.887   6.464 -0.4122  0.0915 -0.1368
 5042SOL    HW126762   1.147   2.867   6.386 -1.5328 -0.0779  0.6568
 5042SOL    HW226763   1.288   2.887   6.429 -0.4131 -3.1915 -0.1552
 5043SOL     OW26764   0.623   1.969   9.353  0.9892 -0.2086 -0.5826
 5043SOL    HW126765   0.592   1.888   9.312 -2.0201  0.2478  0.8009
 5043SOL    HW226766   0.543   1.996   9.398  1.4383  0.4647 -0.1974
 5044SOL     OW26767   4.274   1.881   5.954 -0.1267  0.2496 -0.1425
 5044SOL    HW126768   4.197   1.835   5.920  0.1113  1.7755 -2.7164
 5044SOL    HW226769   4.344   1.817   5.942 -0.1623  0.0332  0.8347
 5045SOL     OW26770   2.401   0.206   7.997 -0.8276 -0.2620  0.1016
 5045SOL    HW126771   2.379   0.277   7.936 -0.3300  0.3667  0.6452
 5045SOL    HW226772   2.441   0.144   7.937 -0.2089  2.8068 -2.6418
 5046SOL     OW26773   0.489   0.784   8.465  0.4104 -0.2082 -0.3995
 5046SOL    HW126774   0.474   0.703   8.514 -0.3944  0.1945  0.0093
 5046SOL    HW226775   0.552   0.843   8.507  0.2235 -0.6072  0.4595
 5047SOL     OW26776   0.732   1.256   6.474  0.2166 -0.2789  0.4941
 5047SOL    HW126777   0.688   1.217   6.549  0.6407 -1.0887  0.3140
 5047SOL    HW226778   0.744   1.347   6.501 -0.3733  0.4181 -1.5678
 5048SOL     OW26779   3.243   2.033   2.698 -0.0024  0.1195  0.1863
 5048SOL    HW126780   3.201   2.096   2.756 -1.0078 -0.7559  0.4014
 5048SOL    HW226781   3.312   2.092   2.667 -0.0323 -0.4856 -1.0562
 5049SOL     OW26782   2.224   2.208  13.168 -0.0184  0.2955  0.0131
 5049SOL    HW126783   2.143   2.160  13.184 -0.7515 -0.0966 -5.1010
 5049SOL    HW226784   2.255   2.230  13.256  0.5876  2.4547 -0.7259
 5050SOL     OW26785   0.027   1.207   0.824 -0.2329  0.3601 -0.8332
 5050SOL    HW126786   0.050   1.141   0.889 -1.1581  1.4099  0.5887
 5050SOL    HW226787   0.004   1.279   0.884 -1.3989  0.2102 -1.1022
 5051SOL     OW26788   0.530   1.027  17.472  0.3436 -0.2968  0.5923
 5051SOL    HW126789   0.478   1.015  17.552  1.6585 -0.7658  1.3726
 5051SOL    HW226790   0.592   1.092  17.505 -1.1526  0.9169  1.0225
 5052SOL     OW26791   2.833   2.333   3.195 -0.4320  0.8120  0.1661
 5052SOL    HW126792   2.854   2.294   3.110 -1.4646  0.3672  0.1115
 5052SOL    HW226793   2.738   2.325   3.208  0.0270 -0.9458  2.4459
 5053SOL     OW26794   1.124   2.014   5.980 -0.8103 -0.3779 -0.2939
 5053SOL    HW126795   1.080   2.003   5.896 -0.1213 -1.2022 -0.5361
 5053SOL    HW226796   1.136   1.921   5.998 -1.1753 -0.0929  1.4161
 5054SOL     OW26797   2.428   1.215  11.753  0.8164  0.6941  0.0915
 5054SOL    HW126798   2.469   1.136  11.718 -1.2985  0.3920 -1.6891
 5054SOL    HW226799   2.336   1.196  11.770  0.8652 -0.0310 -0.4385
 5055SOL     OW26800   1.747   3.891   7.051 -1.0903  0.0730  0.7548
 5055SOL    HW126801   1.796   3.970   7.074  1.0725 -1.2594  0.6861
 5055SOL    HW226802   1.692   3.921   6.978  0.9817 -3.5396 -2.2699
 5056SOL     OW26803   1.682   2.913   8.304  0.4489  0.6430 -0.4595
 5056SOL    HW126804   1.717   2.825   8.291 -2.8516 -1.0587  2.1830
 5056SOL    HW226805   1.658   2.909   8.396  1.2348  0.5011 -0.2657
 5057SOL     OW26806   4.292   1.804   5.345 -0.1955  0.1690 -0.4362
 5057SOL    HW126807   4.304   1.884   5.397 -1.6270 -0.8511  1.4795
 5057SOL    HW226808   4.359   1.741   5.371  0.9747  0.6784 -2.2044
 5058SOL     OW26809   0.998   3.400   8.053 -0.4933  0.2875  0.3908
 5058SOL    HW126810   1.077   3.415   8.106 -0.4090 -0.8586  0.6022
 5058SOL    HW226811   0.941   3.391   8.129  1.1751  0.6247  1.6963
 5059SOL     OW26812   3.820   0.452   8.878  0.0729  0.0039 -0.2996
 5059SOL    HW126813   3.843   0.521   8.816  1.7918 -0.7053 -0.4612
 5059SOL    HW226814   3.788   0.496   8.957 -0.9173  0.4449 -0.9441
 5060SOL     OW26815   3.252   3.241   1.956  0.3396  0.3542  0.3683
 5060SOL    HW126816   3.178   3.213   1.903 -0.3667 -0.5504  1.8475
 5060SOL    HW226817   3.260   3.329   1.919  0.0087 -0.3161 -1.2944
 5061SOL     OW26818   3.306   2.830   3.857  0.6538 -0.3078  0.3475
 5061SOL    HW126819   3.315   2.744   3.897 -2.6550 -1.0822 -0.5847
 5061SOL    HW226820   3.318   2.807   3.765 -0.5295 -3.0578  0.8880
 5062SOL     OW26821   0.243   1.666   3.594 -0.7022  0.2298 -0.3917
 5062SOL    HW126822   0.249   1.688   3.501 -1.8493  0.1224 -0.4937
 5062SOL    HW226823   0.240   1.570   3.586  0.0217  0.3853 -2.5198
 5063SOL     OW26824   0.157   3.173   6.838  0.2547 -0.7186  0.2935
 5063SOL    HW126825   0.239   3.125   6.827  0.6465 -0.1068  0.4895
 5063SOL    HW226826   0.157   3.192   6.932  1.1143  0.0735  0.1415
 5064SOL     OW26827   2.594   1.344   5.743  0.0455  0.2044 -0.7600
 5064SOL    HW126828   2.589   1.397   5.663  2.0940 -1.5000 -2.0132
 5064SOL    HW226829   2.674   1.297   5.723  0.5379  0.8760 -0.3662
 5065SOL     OW26830   2.940   3.822   3.668  0.3201  0.1969  0.1476
 5065SOL    HW126831   2.953   3.731   3.644 -1.2829  0.1883 -0.7048
 5065SOL    HW226832   2.927   3.860   3.581  1.1008 -0.3232 -0.1885
 5066SOL     OW26833   3.357   4.599   5.536  0.1953  0.2917 -0.4602
 5066SOL    HW126834   3.344   4.694   5.528  0.5474  0.2392 -1.6306
 5066SOL    HW226835   3.316   4.584   5.621 -0.4856 -0.9809 -1.0143
 5067SOL     OW26836   4.211   4.690   4.070 -0.1737  0.4121 -0.4619
 5067SOL    HW126837   4.152   4.615   4.063  0.9028 -0.4157 -0.6361
 5067SOL    HW226838   4.217   4.687   4.166  2.0970  0.7957 -0.5855
 5068SOL     OW26839   3.844   3.716   2.658 -0.3586 -0.8672  0.4266
 5068SOL    HW126840   3.774   3.736   2.595  0.1963  0.7710  0.3154
 5068SOL    HW226841   3.914   3.720   2.593  0.5734  2.3117  1.6276
 5069SOL     OW26842   3.173   0.185  11.128 -0.0184 -0.0988 -0.2666
 5069SOL    HW126843   3.104   0.192  11.194 -0.8896  1.8964 -1.3741
 5069SOL    HW226844   3.251   0.213  11.176  0.1333 -1.4357  0.2627
 5070SOL     OW26845   3.521   3.377   4.521 -0.1161  0.0360 -0.4407
 5070SOL    HW126846   3.584   3.449   4.512  1.2065 -0.6996  2.8617
 5070SOL    HW226847   3.501   3.402   4.611  0.0081 -0.5425 -0.2539
 5071SOL     OW26848   0.538   0.178  12.591  0.2291 -0.2869 -0.0453
 5071SOL    HW126849   0.485   0.207  12.665  0.8507  2.3715 -0.6097
 5071SOL    HW226850   0.626   0.167  12.627  0.6130 -0.5773 -1.0721
 5072SOL     OW26851   1.689   0.199  16.151  0.1384 -0.3016 -0.0371
 5072SOL    HW126852   1.604   0.160  16.129 -0.4934  1.2471 -0.3358
 5072SOL    HW226853   1.701   0.187  16.245 -2.4501 -1.3192  0.1778
 5073SOL     OW26854   4.126   3.174   8.876 -0.7861 -0.0674  0.0128
 5073SOL    HW126855   4.191   3.106   8.860 -1.2734 -0.7992  1.0854
 5073SOL    HW226856   4.096   3.186   8.786 -2.4189  2.0698  0.8317
 5074SOL     OW26857   0.748   1.467  11.608 -0.0595  0.1002 -0.2142
 5074SOL    HW126858   0.825   1.440  11.657  0.4461  0.8901 -0.5697
 5074SOL    HW226859   0.720   1.543  11.659  2.7580  1.0436 -0.0690
 5075SOL     OW26860   1.834   0.880   6.539 -0.0193 -0.4700  0.2409
 5075SOL    HW126861   1.744   0.911   6.543 -0.3920 -1.5841  0.4971
 5075SOL    HW226862   1.824   0.784   6.536 -1.8136 -0.3055  1.0163
 5076SOL     OW26863   3.345   1.700  15.521  0.2387  0.9040 -0.2063
 5076SOL    HW126864   3.345   1.632  15.453 -2.6936 -0.6059  1.3240
 5076SOL    HW226865   3.424   1.678  15.570  1.2949  2.4658 -1.1901
 5077SOL     OW26866   1.214   4.554   6.210 -0.0746 -0.1104 -0.2174
 5077SOL    HW126867   1.218   4.471   6.162  0.3036  0.0122 -0.3919
 5077SOL    HW226868   1.267   4.620   6.166 -0.6088  0.8741  0.6307
 5078SOL     OW26869   3.061   2.302   1.922  0.4022  0.0200 -0.2770
 5078SOL    HW126870   3.025   2.360   1.989  0.3140  0.2884 -0.5581
 5078SOL    HW226871   2.984   2.254   1.891 -0.3530  2.3886 -2.0890
 5079SOL     OW26872   1.845   1.339  13.287 -0.0029  0.3955  0.7595
 5079SOL    HW126873   1.941   1.337  13.279 -0.0637  1.7621 -0.2395
 5079SOL    HW226874   1.823   1.352  13.195 -0.3634 -1.1939  0.6109
 5080SOL     OW26875   2.682   1.927   2.267 -0.6125  0.1952  0.0629
 5080SOL    HW126876   2.645   1.840   2.253  2.2540 -1.1306  0.6759
 5080SOL    HW226877   2.631   1.971   2.199  2.5890 -0.0275 -2.4728
 5081SOL     OW26878   0.953   3.068  10.282 -0.6115 -0.1473 -0.0851
 5081SOL    HW126879   0.860   3.092  10.281 -0.4919  0.3095 -0.2848
 5081SOL    HW226880   0.972   3.062  10.188 -1.1505 -0.9892 -0.1446
 5082SOL     OW26881   3.722   4.513  15.157 -0.7802 -0.2859 -0.6943
 5082SOL    HW126882   3.802   4.482  15.115  1.6722 -0.5137  4.1449
 5082SOL    HW226883   3.698   4.426  15.190  0.5572 -0.6068 -0.5743
 5083SOL     OW26884   1.675   4.269   2.681  0.1669  0.0575  0.3259
 5083SOL    HW126885   1.697   4.314   2.600 -0.3031 -1.4072 -0.6226
 5083SOL    HW226886   1.704   4.179   2.667 -1.0012 -0.8168  3.5311
 5084SOL     OW26887   0.192   1.125   6.972  0.0461  0.2505  0.2815
 5084SOL    HW126888   0.151   1.093   6.892 -0.0321  0.0226  0.4140
 5084SOL    HW226889   0.250   1.195   6.942  0.6856 -1.0487 -1.4837
 5085SOL     OW26890   4.193   4.627   8.797 -0.2886 -0.2338  0.2298
 5085SOL    HW126891   4.121   4.570   8.772 -1.4377  1.3093  0.0674
 5085SOL    HW226892   4.265   4.567   8.778 -0.1447 -0.2057  0.6913
 5086SOL     OW26893   0.812   0.664   4.852 -0.1348 -0.2411 -0.3577
 5086SOL    HW126894   0.796   0.621   4.768 -0.7833 -0.9812  0.1395
 5086SOL    HW226895   0.830   0.749   4.814 -1.9161 -1.1917 -3.3358
 5087SOL     OW26896   1.535   4.737   0.375 -0.2883  0.4467 -0.3387
 5087SOL    HW126897   1.470   4.686   0.424 -1.1826 -0.3235 -2.3213
 5087SOL    HW226898   1.469   0.057   0.335  1.0012  1.1404 -1.4874
 5088SOL     OW26899   1.094   3.110   3.810  0.2809  1.7149 -0.6873
 5088SOL    HW126900   1.086   3.057   3.890 -0.2378  0.9167 -1.2638
 5088SOL    HW226901   1.005   3.098   3.778  0.7997 -0.7390 -1.2392
 5089SOL     OW26902   1.573   2.752  14.656  0.3497  0.5026 -0.2017
 5089SOL    HW126903   1.532   2.834  14.684 -0.2527  0.5653 -1.2456
 5089SOL    HW226904   1.500   2.691  14.653 -0.4949  1.5256 -0.5496
 5090SOL     OW26905   1.116   2.280   5.365  0.0787  0.4952  0.4115
 5090SOL    HW126906   1.168   2.357   5.345 -0.5777  0.6473 -0.7264
 5090SOL    HW226907   1.027   2.315   5.366 -1.4698 -3.3714 -1.6091
 5091SOL     OW26908   2.255   2.199   8.956 -0.2777 -0.2592 -0.6423
 5091SOL    HW126909   2.329   2.147   8.926  1.3122  2.2138 -1.0121
 5091SOL    HW226910   2.208   2.148   9.021 -0.5738  1.1321  0.2420
 5092SOL     OW26911   3.126   0.266   2.166 -0.0771 -0.2792  0.0970
 5092SOL    HW126912   3.133   0.358   2.192  1.1102 -0.3020 -0.1300
 5092SOL    HW226913   3.115   0.275   2.072 -0.2895  1.7676  0.3351
 5093SOL     OW26914   0.548   1.442   8.279  0.1545  0.2032 -0.4428
 5093SOL    HW126915   0.625   1.480   8.319 -0.3925  0.9794 -0.1222
 5093SOL    HW226916   0.581   1.370   8.225  1.4584  0.4759  0.0091
 5094SOL     OW26917   0.875   2.218   3.249 -0.1232 -0.1762  0.0568
 5094SOL    HW126918   0.892   2.236   3.157 -0.9884  0.2235 -0.0224
 5094SOL    HW226919   0.823   2.297   3.266 -0.9831 -1.2175  2.2378
 5095SOL     OW26920   3.882   4.649  15.344  0.6696 -0.5977 -0.0970
 5095SOL    HW126921   3.827   4.619  15.272  0.0626 -1.2095  0.6300
 5095SOL    HW226922   3.845   4.735  15.366  2.6740 -0.3557  2.3426
 5096SOL     OW26923   0.117   4.664   3.362 -0.1553 -0.4801 -0.3326
 5096SOL    HW126924   0.068   4.625   3.289 -1.6588 -0.0773  0.4759
 5096SOL    HW226925   0.044   4.678   3.422 -0.7568  0.9841 -1.4148
 5097SOL     OW26926   1.257   1.561  16.949  0.1309  0.2615  0.0308
 5097SOL    HW126927   1.293   1.489  16.896 -2.3818  2.5429 -4.7959
 5097SOL    HW226928   1.172   1.569  16.907 -0.3849  1.4600  1.3163
 5098SOL     OW26929   0.841   1.373  10.237  0.4320  0.3935  0.0816
 5098SOL    HW126930   0.832   1.297  10.294 -0.4054  0.4215 -0.0162
 5098SOL    HW226931   0.906   1.428  10.280  0.7163  1.6361 -1.9435
 5099SOL     OW26932   3.119   2.357   3.899  0.1274  0.2107  0.1600
 5099SOL    HW126933   3.056   2.285   3.895  0.5623 -0.1841  0.3650
 5099SOL    HW226934   3.057   2.429   3.888 -0.6168 -0.6129 -1.0072
 5100SOL     OW26935   3.558   2.529   4.804  0.1179 -0.0345  0.7681
 5100SOL    HW126936   3.585   2.470   4.734  0.4782  0.7437  0.2595
 5100SOL    HW226937   3.505   2.584   4.747 -0.5392 -2.0409 -0.5340
 5101SOL     OW26938   3.668   3.287  11.858 -0.1262 -0.1947  0.1423
 5101SOL    HW126939   3.648   3.379  11.838 -0.4135  0.1065  1.7991
 5101SOL    HW226940   3.672   3.290  11.954  3.2453 -1.3460  0.0279
 5102SOL     OW26941   2.035   3.587   5.862 -0.0922  0.1351  0.3273
 5102SOL    HW126942   1.981   3.661   5.886  1.0016  1.1369 -0.3229
 5102SOL    HW226943   2.117   3.615   5.902  1.5597 -1.5718 -1.8569
 5103SOL     OW26944   2.763   0.292   8.394  0.0950 -0.4673  0.0780
 5103SOL    HW126945   2.688   0.268   8.339  0.7714 -1.3716 -0.4553
 5103SOL    HW226946   2.751   0.212   8.445  0.2635 -0.0165  0.8265
 5104SOL     OW26947   2.325   2.944   4.770 -0.2108 -0.1130 -0.0015
 5104SOL    HW126948   2.391   2.910   4.831 -0.1954 -0.5900 -0.2892
 5104SOL    HW226949   2.276   2.867   4.742  0.2476 -0.8405  1.1919
 5105SOL     OW26950   4.330   0.261   2.952 -0.0603 -0.2436 -0.1947
 5105SOL    HW126951   4.330   0.221   3.039  0.7716 -2.4789 -1.2219
 5105SOL    HW226952   4.374   0.196   2.897 -1.7571 -1.8400  0.3144
 5106SOL     OW26953   3.411   2.152  17.019  0.2289 -0.1237 -0.3773
 5106SOL    HW126954   3.456   2.068  17.023 -0.9034 -0.6759  0.7811
 5106SOL    HW226955   3.470   2.203  16.964 -1.6073  0.4436 -1.8433
 5107SOL     OW26956   2.498   1.795   8.093 -0.6416  0.4172  0.1911
 5107SOL    HW126957   2.407   1.804   8.123 -0.7355 -1.5654  0.5165
 5107SOL    HW226958   2.533   1.874   8.133 -1.4720  0.5475  0.6695
 5108SOL     OW26959   1.872   3.676  11.143  0.2801 -0.0142 -1.1370
 5108SOL    HW126960   1.830   3.714  11.065  0.2511 -0.1598 -1.1922
 5108SOL    HW226961   1.928   3.608  11.105  0.3811  0.4488 -1.8304
 5109SOL     OW26962   2.452   2.198  13.623  0.1951 -0.4030 -0.3666
 5109SOL    HW126963   2.389   2.171  13.689  2.0178 -0.5689  1.3118
 5109SOL    HW226964   2.534   2.196  13.672 -1.0936 -1.6444  1.7188
 5110SOL     OW26965   4.033   0.670   7.538 -0.3240 -0.8154 -0.2430
 5110SOL    HW126966   3.996   0.758   7.551  0.4527 -0.3232 -1.3266
 5110SOL    HW226967   3.965   0.613   7.574 -0.0158 -1.2307 -0.3304
 5111SOL     OW26968   0.870   2.409  11.859  0.4049  0.5670 -0.5117
 5111SOL    HW126969   0.779   2.391  11.880 -0.3289  2.5079 -2.0724
 5111SOL    HW226970   0.915   2.376  11.937  1.4410  1.0005 -0.9231
 5112SOL     OW26971   1.580   1.733   5.074 -0.1434  0.7438  0.0695
 5112SOL    HW126972   1.669   1.749   5.042  0.2046  1.3863  1.3333
 5112SOL    HW226973   1.569   1.667   5.006 -1.4289  1.4690 -0.4265
 5113SOL     OW26974   3.563   3.136  17.084 -0.6087  0.5558  0.0028
 5113SOL    HW126975   3.610   3.055  17.066 -0.9727  0.5943 -1.1350
 5113SOL    HW226976   3.561   3.170  16.994  2.1222 -0.7264 -0.5419
 5114SOL     OW26977   4.437   0.871   6.409  0.2385  0.3157 -0.0650
 5114SOL    HW126978   4.444   0.957   6.368 -1.2469  0.3656 -0.2091
 5114SOL    HW226979   4.433   0.896   6.501 -0.3125  0.9990 -0.2736
 5115SOL     OW26980   1.344   2.882  13.836 -0.0890 -0.0523  0.7146
 5115SOL    HW126981   1.368   2.922  13.919  1.2716 -0.0930  0.3483
 5115SOL    HW226982   1.308   2.800  13.869 -1.4720  0.3865  0.2966
 5116SOL     OW26983   1.493   4.403  13.452  0.3093 -0.4068 -0.1444
 5116SOL    HW126984   1.587   4.412  13.465  0.0895  1.4494  0.1225
 5116SOL    HW226985   1.474   4.348  13.529  1.9959 -1.5277 -0.5221
 5117SOL     OW26986   2.082   2.889   7.732 -0.1104  0.0057  0.4981
 5117SOL    HW126987   2.092   2.873   7.638  0.4287  0.8135  0.4120
 5117SOL    HW226988   2.036   2.972   7.740 -0.3254 -0.0888  0.2168
 5118SOL     OW26989   1.161   4.514   7.686 -0.3421  0.5780  0.4477
 5118SOL    HW126990   1.243   4.540   7.729  0.8654 -1.8911 -0.3180
 5118SOL    HW226991   1.159   4.419   7.697 -1.4062  0.6886  1.1414
 5119SOL     OW26992   1.012   3.345   4.737  0.9494 -0.2070  0.0412
 5119SOL    HW126993   1.085   3.402   4.715  0.4263  0.5640  0.3231
 5119SOL    HW226994   1.055   3.267   4.702 -1.1529 -1.4872  0.3218
 5120SOL     OW26995   4.191   4.404   2.995  0.5201 -0.1690 -0.4116
 5120SOL    HW126996   4.142   4.322   3.006  1.9240 -1.3185 -2.6843
 5120SOL    HW226997   4.214   4.394   2.903 -0.7065 -0.8745 -0.6531
 5121SOL     OW26998   0.935   1.776   1.810 -0.1314  0.9780  0.2430
 5121SOL    HW126999   0.887   1.801   1.732 -0.0967  2.5776  0.7333
 5121SOL    HW227000   0.925   1.857   1.860  1.8679  1.0589  0.5313
 5122SOL     OW27001   2.535   4.231  10.537  0.3548  0.3653  0.5267
 5122SOL    HW127002   2.550   4.267  10.624 -0.8137  0.8789  0.5165
 5122SOL    HW227003   2.506   4.309  10.490  0.9093  0.4018  0.2428
 5123SOL     OW27004   0.891   1.420   1.281  0.1366 -0.0349 -0.3527
 5123SOL    HW127005   0.816   1.372   1.315 -0.7885 -0.4929 -3.0261
 5123SOL    HW227006   0.895   1.388   1.191 -0.7948  0.0269 -0.4176
 5124SOL     OW27007   2.215   1.318  11.491 -0.2827  0.4201 -0.1921
 5124SOL    HW127008   2.194   1.314  11.397 -2.4060  2.1847  0.1891
 5124SOL    HW227009   2.145   1.269  11.534 -0.0253  0.2069 -0.0211
 5125SOL     OW27010   3.740   0.996   3.935  0.3300  0.3216  0.0098
 5125SOL    HW127011   3.756   0.909   3.971  2.3905  0.6824 -0.0263
 5125SOL    HW227012   3.833   1.012   3.914  0.3444  0.3131  0.0669
 5126SOL     OW27013   4.572   2.292  10.814 -0.0898 -0.1923 -0.7226
 5126SOL    HW127014   4.638   2.228  10.786  0.9283 -0.3256  1.9388
 5126SOL    HW227015   4.518   2.230  10.863  1.5629 -0.8545  0.2936
 5127SOL     OW27016   0.048   0.935   7.402  0.2125 -0.1630 -0.1817
 5127SOL    HW127017   0.065   1.014   7.351 -0.4188 -0.2203 -0.4856
 5127SOL    HW227018   0.068   0.866   7.338 -2.1569  0.9929 -2.1891
 5128SOL     OW27019   0.209   2.444   6.549  0.1102 -0.0569 -0.3334
 5128SOL    HW127020   0.254   2.384   6.490  1.1903  0.7554 -0.3307
 5128SOL    HW227021   0.245   2.528   6.521  1.2114 -1.1958 -2.3729
 5129SOL     OW27022   0.879   1.918  11.786  0.5568  0.6271  0.1402
 5129SOL    HW127023   0.850   1.974  11.858 -0.6060 -0.9976  0.9323
 5129SOL    HW227024   0.974   1.911  11.796  0.3706 -1.1093  0.6162
 5130SOL     OW27025   2.486   4.115  15.962  0.3044  0.2371  0.2013
 5130SOL    HW127026   2.496   4.199  15.918  0.4899  0.6668  1.0620
 5130SOL    HW227027   2.396   4.090  15.940  0.8233  0.1947 -1.8593
 5131SOL     OW27028   3.650   4.042   4.506  0.0290 -0.7768 -0.2336
 5131SOL    HW127029   3.710   4.091   4.450 -1.3192 -0.9740 -1.8583
 5131SOL    HW227030   3.596   4.106   4.553  1.9562  2.8719 -2.9533
 5132SOL     OW27031   4.453   2.175   7.101 -0.0511  0.2860  0.1315
 5132SOL    HW127032   4.384   2.117   7.134  0.6309  0.7261  2.3256
 5132SOL    HW227033   4.480   2.213   7.184 -0.3032 -0.4472  0.5522
 5133SOL     OW27034   2.616   2.746   3.267  0.2119  0.1605 -0.7468
 5133SOL    HW127035   2.527   2.713   3.251  0.8745 -2.2667  0.5780
 5133SOL    HW227036   2.608   2.788   3.353  2.6192 -2.6082  0.8346
 5134SOL     OW27037   1.360   0.227   3.748 -0.3527  0.1060  0.7137
 5134SOL    HW127038   1.408   0.300   3.710  0.0074 -1.5680 -2.0428
 5134SOL    HW227039   1.423   0.192   3.810 -0.5958  0.7065  1.2954
 5135SOL     OW27040   2.013   2.551  16.988 -0.3900 -0.0561  0.1916
 5135SOL    HW127041   1.950   2.584  16.925 -0.0878  2.0369  0.9999
 5135SOL    HW227042   2.018   2.625  17.048 -1.6936  0.2818 -0.1228
 5136SOL     OW27043   0.504   2.432  16.743  0.1727  0.0005 -0.5787
 5136SOL    HW127044   0.488   2.514  16.790 -0.7015 -1.6405  2.0498
 5136SOL    HW227045   0.482   2.369  16.812 -1.6549  2.7142  1.2936
 5137SOL     OW27046   1.961   4.692  13.587 -0.1329 -0.1374 -0.2589
 5137SOL    HW127047   1.983   4.732  13.670  1.4104  0.4874 -0.9657
 5137SOL    HW227048   2.036   4.632  13.576  0.8021  1.1749 -0.9951
 5138SOL     OW27049   4.504   0.608   3.015 -0.1370 -0.3761 -0.4466
 5138SOL    HW127050   4.571   0.552   2.975  0.7754  0.2198  0.2401
 5138SOL    HW227051   4.500   0.572   3.103 -0.2958 -0.9517 -0.6895
 5139SOL     OW27052   3.455   4.535   8.228 -0.2513  0.4712 -0.4648
 5139SOL    HW127053   3.393   4.571   8.291 -0.9505 -2.1095  0.3451
 5139SOL    HW227054   3.403   4.525   8.148  0.8269 -2.7429 -0.7609
 5140SOL     OW27055   1.340   2.670   3.726  0.2291  0.6528 -0.2533
 5140SOL    HW127056   1.389   2.636   3.651  0.1412  1.0344 -0.4809
 5140SOL    HW227057   1.332   2.598   3.788  3.1845  1.0607  0.5649
 5141SOL     OW27058   3.390   3.336   5.523  0.3041 -0.1723 -0.3564
 5141SOL    HW127059   3.398   3.310   5.431 -1.0841  0.4763 -0.6626
 5141SOL    HW227060   3.318   3.281   5.555  1.5503 -0.0260  2.7251
 5142SOL     OW27061   1.296   4.429   7.106  0.2944  0.6211 -0.4073
 5142SOL    HW127062   1.247   4.484   7.166 -0.0191  0.8338 -0.8623
 5142SOL    HW227063   1.228   4.367   7.079  0.5093  0.5322 -0.7469
 5143SOL     OW27064   0.659   4.457   6.444  0.4072 -0.3249 -0.1314
 5143SOL    HW127065   0.723   4.484   6.378  0.7364  2.5213  1.3488
 5143SOL    HW227066   0.588   4.425   6.389  0.8002 -0.5630 -0.5007
 5144SOL     OW27067   2.009   0.715   9.765 -0.2732 -0.1772 -1.0176
 5144SOL    HW127068   1.946   0.786   9.780 -1.4318 -1.3559 -0.1877
 5144SOL    HW227069   2.041   0.706   9.855 -0.8166  1.5320 -0.6429
 5145SOL     OW27070   1.204   4.552   9.209  0.1700 -0.4361 -0.6251
 5145SOL    HW127071   1.193   4.580   9.300 -2.1959 -0.8589 -0.7834
 5145SOL    HW227072   1.134   4.607   9.174 -0.0299  0.4028  1.1129
 5146SOL     OW27073   0.164   2.516  13.719  0.0627  0.3356  0.2617
 5146SOL    HW127074   0.116   2.593  13.749 -0.8527  0.0762 -0.5510
 5146SOL    HW227075   0.211   2.550  13.643  0.7841 -1.9185 -0.3021
 5147SOL     OW27076   3.669   3.987   7.528 -0.1831 -0.3225  0.3300
 5147SOL    HW127077   3.746   3.972   7.474  0.3342  0.1005  0.9523
 5147SOL    HW227078   3.707   4.029   7.605  1.1174  2.4168 -1.8379
 5148SOL     OW27079   3.846   3.009   3.446  0.1524  0.0408 -0.0490
 5148SOL    HW127080   3.797   2.931   3.471  0.3384  0.1514  0.6555
 5148SOL    HW227081   3.931   2.969   3.427  0.4584  0.9251 -0.5409
 5149SOL     OW27082   4.155   2.468   8.767  0.3274 -0.1918  0.2234
 5149SOL    HW127083   4.115   2.550   8.737 -1.5164 -1.5098 -0.9479
 5149SOL    HW227084   4.077   2.416   8.746  0.9971 -0.5414 -1.3915
 5150SOL     OW27085   1.566   3.610   6.868  0.4712 -0.6012 -0.1013
 5150SOL    HW127086   1.487   3.582   6.823  0.1062 -1.9819  1.4425
 5150SOL    HW227087   1.596   3.527   6.904 -0.7825 -0.4365  1.3061
 5151SOL     OW27088   4.101   0.606   6.125 -0.0189  0.1063  0.0826
 5151SOL    HW127089   4.134   0.662   6.195 -1.8275 -0.8265  1.6978
 5151SOL    HW227090   4.009   0.604   6.152  0.0320 -1.8822  0.0959
 5152SOL     OW27091   4.089   0.182   7.015 -0.3327 -0.2723  0.0219
 5152SOL    HW127092   4.182   0.198   6.998 -0.1170 -1.2234  0.2669
 5152SOL    HW227093   4.053   0.270   7.009  0.7715  0.2463  1.0871
 5153SOL     OW27094   2.385   2.661   5.567  0.4200  0.3511  0.6747
 5153SOL    HW127095   2.349   2.750   5.570  0.5156  0.3708  1.3255
 5153SOL    HW227096   2.344   2.625   5.489 -0.5052  0.3043  1.1777
 5154SOL     OW27097   2.297   3.424   6.803  0.1606  0.4324  0.1559
 5154SOL    HW127098   2.378   3.391   6.843  0.1920  0.1297 -0.1569
 5154SOL    HW227099   2.287   3.513   6.839 -0.6116  0.5766 -0.4255
 5155SOL     OW27100   0.204   2.362  17.510  0.6347 -0.3673 -0.3567
 5155SOL    HW127101   0.214   2.294  17.576  0.9621 -1.1966 -1.2488
 5155SOL    HW227102   0.234   2.435  17.563 -0.7083  0.1807 -0.3560
 5156SOL     OW27103   2.511   1.015   2.836 -0.1332 -0.1064  0.0282
 5156SOL    HW127104   2.523   0.979   2.748 -1.4544 -2.9692  1.0230
 5156SOL    HW227105   2.571   1.090   2.833 -1.9192  1.3481  1.1687
 5157SOL     OW27106   0.212   1.514   7.104 -0.1563  0.0535  0.8645
 5157SOL    HW127107   0.274   1.449   7.136  2.4139  2.1897  0.1780
 5157SOL    HW227108   0.239   1.571   7.176  1.3724  1.1657 -0.5976
 5158SOL     OW27109   2.124   0.371   8.090 -0.1481 -0.7634  1.2341
 5158SOL    HW127110   2.149   0.462   8.102 -0.5684 -0.4013 -0.5569
 5158SOL    HW227111   2.144   0.357   7.997  0.3527 -0.8436  1.3576
 5159SOL     OW27112   0.893   3.345   3.930  0.1073 -0.0334 -0.1968
 5159SOL    HW127113   0.906   3.337   4.025 -0.5265  1.7092  0.0364
 5159SOL    HW227114   0.941   3.426   3.911 -1.0833  0.7506  0.1534
 5160SOL     OW27115   1.222   0.633  10.097  0.1674 -0.4623  0.0203
 5160SOL    HW127116   1.312   0.628  10.064  0.6887  1.3614  1.1999
 5160SOL    HW227117   1.249   0.617  10.187 -2.2886  1.4989  1.0930
 5161SOL     OW27118   2.738   0.486   3.042  0.5853 -0.1548  0.4336
 5161SOL    HW127119   2.648   0.473   3.011  0.2111 -0.1937  1.5570
 5161SOL    HW227120   2.773   0.542   2.972  1.4998  0.5820  1.4899
 5162SOL     OW27121   4.015   2.503  10.702  0.0375 -0.7154  0.9062
 5162SOL    HW127122   4.099   2.548  10.706 -1.6597  2.5261  0.3163
 5162SOL    HW227123   3.981   2.525  10.789 -0.4122  2.7492 -0.1402
 5163SOL     OW27124   0.380   1.667   1.791  0.5265 -0.0476  0.2658
 5163SOL    HW127125   0.448   1.660   1.725  0.6226  1.3180  0.2060
 5163SOL    HW227126   0.416   1.745   1.834 -0.5377 -0.5121  2.0197
 5164SOL     OW27127   2.708   4.510   3.185  0.4330 -0.3046 -0.0686
 5164SOL    HW127128   2.694   4.569   3.259  1.7236 -0.3130  0.1909
 5164SOL    HW227129   2.780   4.458   3.222  0.3263 -0.2868  0.1642
 5165SOL     OW27130   4.486   1.090   6.923  0.5420  0.5380 -0.3276
 5165SOL    HW127131   4.564   1.145   6.909  0.4831  0.6767 -0.1204
 5165SOL    HW227132   4.490   1.069   7.017  0.1995 -2.4607 -0.9977
 5166SOL     OW27133   3.594   4.360   4.223  0.1606  0.1027 -0.1799
 5166SOL    HW127134   3.635   4.412   4.154  0.2782 -0.4529 -0.5343
 5166SOL    HW227135   3.555   4.288   4.173 -2.5969  0.0241  2.1070
 5167SOL     OW27136   0.179   0.636   6.966  1.0144  0.0504  0.3174
 5167SOL    HW127137   0.096   0.592   6.947  2.1092 -0.8031 -2.4842
 5167SOL    HW227138   0.140   0.712   7.010 -1.6089 -1.4365  0.5232
 5168SOL     OW27139   3.683   4.086   9.044  0.2091 -0.5112  0.6377
 5168SOL    HW127140   3.770   4.074   9.083  1.3689  0.4360 -1.6936
 5168SOL    HW227141   3.703   4.154   8.980 -0.7981 -0.3360  0.5057
 5169SOL     OW27142   4.544   0.014   5.497  0.0567 -0.0568 -0.0918
 5169SOL    HW127143   4.631   0.053   5.492  0.3098 -0.6469 -0.1600
 5169SOL    HW227144   4.527   0.024   5.591 -0.1234  0.9533 -0.2297
 5170SOL     OW27145   2.816   3.082   0.637  0.2743  0.4494 -0.0517
 5170SOL    HW127146   2.859   3.167   0.649  0.2261  0.3913  0.5301
 5170SOL    HW227147   2.842   3.070   0.546 -0.7581 -2.3913  0.0477
 5171SOL     OW27148   4.007   2.928   3.174  0.6301  0.0632  0.0960
 5171SOL    HW127149   4.063   2.911   3.249  0.3432  0.6206  0.4363
 5171SOL    HW227150   3.982   2.836   3.163 -1.2846  1.0015 -3.3439
 5172SOL     OW27151   0.377   3.517   5.150  0.0035  0.1699  0.2079
 5172SOL    HW127152   0.319   3.483   5.082  0.4396 -0.3211  0.0859
 5172SOL    HW227153   0.309   3.552   5.209 -3.9758 -1.5479 -3.3267
 5173SOL     OW27154   4.432   0.377   4.505 -0.4199 -0.4749  0.5144
 5173SOL    HW127155   4.505   0.431   4.471 -1.7508  0.3472 -1.0680
 5173SOL    HW227156   4.385   0.370   4.421 -0.3491 -0.6509  0.4896
 5174SOL     OW27157   1.582   0.327   7.944 -0.5387  0.0807  0.0043
 5174SOL    HW127158   1.554   0.384   8.016  2.1778  1.0679  0.2820
 5174SOL    HW227159   1.671   0.361   7.929  0.0549 -1.7669 -0.6489
 5175SOL     OW27160   1.907   2.375   9.716  0.1281 -0.3871  0.3562
 5175SOL    HW127161   1.880   2.416   9.799  1.5509  1.6060 -0.1704
 5175SOL    HW227162   1.828   2.326   9.695 -0.1030  0.7045 -1.2729
 5176SOL     OW27163   3.053   2.647   4.734 -0.5699  0.5450  0.3604
 5176SOL    HW127164   3.064   2.554   4.714  2.6964  0.6742  1.5988
 5176SOL    HW227165   3.098   2.680   4.656 -0.7888  1.9966  0.8578
 5177SOL     OW27166   3.763   2.681   8.525 -0.5543 -0.3278  0.6419
 5177SOL    HW127167   3.691   2.619   8.512 -2.2042  1.1497  2.9571
 5177SOL    HW227168   3.733   2.750   8.466  0.3499 -1.7203 -1.4651
 5178SOL     OW27169   0.964   4.034  11.070 -0.0168  0.2426  0.6969
 5178SOL    HW127170   0.936   4.067  11.156 -1.6249 -0.3136  0.3935
 5178SOL    HW227171   0.931   4.103  11.014 -0.8691  1.2377  2.4333
 5179SOL     OW27172   3.602   2.927   9.050 -0.0848  0.1641 -0.3142
 5179SOL    HW127173   3.663   2.930   9.124 -0.2184 -0.1240 -0.1902
 5179SOL    HW227174   3.591   3.020   9.033  0.9274 -0.0482 -2.0178
 5180SOL     OW27175   0.934   4.420  15.079 -0.4289  0.3742 -0.9137
 5180SOL    HW127176   0.890   4.426  15.164  0.2427 -0.2527 -0.5178
 5180SOL    HW227177   1.006   4.482  15.093 -0.6505 -0.0639  2.2716
 5181SOL     OW27178   2.424   0.159   4.498 -0.3998  0.1612 -0.0503
 5181SOL    HW127179   2.419   0.165   4.594 -1.3867  1.9549 -0.2187
 5181SOL    HW227180   2.421   0.063   4.493 -1.7159  0.2243 -0.3274
 5182SOL     OW27181   0.116   1.953   4.409 -0.6258 -0.0942 -0.4097
 5182SOL    HW127182   0.151   2.016   4.473  1.7503  1.2318 -2.9861
 5182SOL    HW227183   0.154   1.881   4.460 -2.1121  0.2714  1.2036
 5183SOL     OW27184   3.086   0.910   7.651 -0.3237  0.2683 -0.6459
 5183SOL    HW127185   3.112   0.863   7.730 -3.2840  1.4342  1.0241
 5183SOL    HW227186   3.117   0.857   7.578 -0.7278 -1.9048  0.7597
 5184SOL     OW27187   1.971   2.455   7.894  1.1163 -0.0310  0.1283
 5184SOL    HW127188   1.926   2.536   7.872  2.8343  1.0658  0.6524
 5184SOL    HW227189   1.923   2.426   7.971 -0.6945 -0.6038 -1.2294
 5185SOL     OW27190   2.673   2.423   6.368 -0.3035 -0.3493 -0.1724
 5185SOL    HW127191   2.629   2.498   6.408 -0.0927 -0.1345 -0.3433
 5185SOL    HW227192   2.687   2.444   6.276 -1.1184  0.1403 -0.1821
 5186SOL     OW27193   3.631   0.647   5.705 -0.0262 -0.1199 -0.7957
 5186SOL    HW127194   3.726   0.641   5.712  0.0732  1.2043 -0.9563
 5186SOL    HW227195   3.619   0.713   5.636 -0.8538  1.2032  0.6076
 5187SOL     OW27196   1.413   3.550   4.862  0.4981  0.6280 -0.1598
 5187SOL    HW127197   1.505   3.525   4.857  0.5966  0.5215  2.4641
 5187SOL    HW227198   1.376   3.464   4.840  0.0737  0.4834  1.1324
 5188SOL     OW27199   2.984   4.637   8.640  0.3203 -0.3399 -0.0389
 5188SOL    HW127200   2.970   4.630   8.546  0.5381 -1.2946 -0.0052
 5188SOL    HW227201   2.945   4.554   8.669 -0.7908 -0.0137 -0.6121
 5189SOL     OW27202   1.120   4.627   5.178  0.4778  0.1927  0.2055
 5189SOL    HW127203   1.109   4.540   5.138  0.2265  0.3442 -0.0532
 5189SOL    HW227204   1.052   4.670   5.126  0.9532  0.5203 -0.1372
 5190SOL     OW27205   0.903   0.974   9.265 -0.2532 -0.4535  0.1269
 5190SOL    HW127206   0.885   0.918   9.341 -0.7310  0.4044  0.6440
 5190SOL    HW227207   0.908   1.057   9.311 -2.2489 -0.4367  0.3247
 5191SOL     OW27208   3.233   2.091  13.512  0.3025 -0.6876  0.6595
 5191SOL    HW127209   3.252   2.073  13.420 -1.5782  0.7304 -0.0070
 5191SOL    HW227210   3.175   2.165  13.497  0.4392 -0.2860  2.1666
 5192SOL     OW27211   3.785   3.024   4.013  0.2421 -0.3327 -0.2969
 5192SOL    HW127212   3.695   3.029   3.981  0.1201 -0.4916  0.0226
 5192SOL    HW227213   3.819   3.113   4.001  1.0129 -0.6666 -0.5362
 5193SOL     OW27214   0.985   1.674   6.558 -0.0030 -0.0491 -0.2839
 5193SOL    HW127215   0.959   1.750   6.609  1.0814 -0.1388  0.4141
 5193SOL    HW227216   1.036   1.697   6.480  0.1203  2.2053  0.4633
 5194SOL     OW27217   3.246   2.055  15.428 -0.8977  0.0744 -0.2788
 5194SOL    HW127218   3.175   2.116  15.410  0.6600  2.3304  1.2359
 5194SOL    HW227219   3.240   2.047  15.523  4.9216  3.4408  0.3468
 5195SOL     OW27220   0.308   4.551  12.299 -0.0376 -0.3430 -0.2570
 5195SOL    HW127221   0.385   4.583  12.253 -0.7373 -0.5124 -1.5336
 5195SOL    HW227222   0.350   4.522  12.381 -0.7230 -0.6198 -0.0015
 5196SOL     OW27223   3.866   4.241  12.573  0.0570 -0.0786  0.5599
 5196SOL    HW127224   3.944   4.219  12.624 -1.1093 -1.8227  1.5698
 5196SOL    HW227225   3.892   4.316  12.520  1.7966 -0.3291  1.0675
 5197SOL     OW27226   1.702   0.384   1.937 -0.0868  0.3405  0.0435
 5197SOL    HW127227   1.676   0.399   2.028  0.3644 -2.1696  0.5851
 5197SOL    HW227228   1.739   0.468   1.912 -1.7868  1.6185  1.8071
 5198SOL     OW27229   4.561   3.885   5.085 -0.3624  0.2727  1.0231
 5198SOL    HW127230   4.640   3.938   5.096  0.6137 -0.3742 -2.9358
 5198SOL    HW227231   4.591   3.797   5.106 -1.3570 -0.0322  1.1805
 5199SOL     OW27232   0.123   4.628   5.801 -0.8223 -0.1888 -0.2431
 5199SOL    HW127233   0.195   4.613   5.862 -0.4915  0.5694 -0.4496
 5199SOL    HW227234   0.053   4.576   5.841  1.1865 -1.6918  1.2999
 5200SOL     OW27235   2.505   0.277   7.153 -0.2798 -0.4453  0.5911
 5200SOL    HW127236   2.599   0.271   7.168 -0.3491  0.0692  1.2505
 5200SOL    HW227237   2.482   0.210   7.089 -0.4201  0.0530  0.1133
 5201SOL     OW27238   1.755   1.426   9.006  0.1819  0.5924 -0.1538
 5201SOL    HW127239   1.825   1.491   9.009  1.3375 -0.6075 -1.3854
 5201SOL    HW227240   1.802   1.355   8.963 -0.8681 -0.4106  0.3587
 5202SOL     OW27241   2.860   2.089  13.521  0.0693  0.6033 -0.2284
 5202SOL    HW127242   2.918   2.141  13.466  0.0073 -2.7514 -3.4818
 5202SOL    HW227243   2.819   2.037  13.451  0.6421 -1.3021  0.8632
 5203SOL     OW27244   1.345   4.169   7.508  0.2989 -0.7786  0.0407
 5203SOL    HW127245   1.365   4.261   7.493 -0.2679 -0.5182  0.9051
 5203SOL    HW227246   1.374   4.121   7.430 -0.9240 -1.3746 -0.0360
 5204SOL     OW27247   2.815   3.239  16.563  0.6026  0.0886 -0.3565
 5204SOL    HW127248   2.884   3.239  16.630 -0.2027  3.0840  0.5005
 5204SOL    HW227249   2.778   3.151  16.565 -0.2085  0.4576  1.2748
 5205SOL     OW27250   3.639   0.128   4.289  0.1701  0.0030 -0.2540
 5205SOL    HW127251   3.575   0.066   4.323 -0.5653 -0.8199 -3.0971
 5205SOL    HW227252   3.596   0.137   4.204  1.3731  1.3259 -0.7216
 5206SOL     OW27253   4.041   0.503  12.873 -0.3277 -0.2174  0.0560
 5206SOL    HW127254   4.009   0.498  12.963 -1.6150 -0.5928 -0.4176
 5206SOL    HW227255   3.963   0.469  12.829  0.2724 -1.9134  0.3357
 5207SOL     OW27256   3.430   1.870  15.342  0.1185  0.2484  0.3715
 5207SOL    HW127257   3.372   1.941  15.369  0.4760  0.0693  1.5890
 5207SOL    HW227258   3.401   1.807  15.408 -1.4884 -1.2329 -1.7141
 5208SOL     OW27259   4.002   1.828  12.866  0.0919  0.1039  0.4322
 5208SOL    HW127260   3.947   1.780  12.929 -0.8010  0.4192 -0.1046
 5208SOL    HW227261   4.075   1.770  12.890  0.0351  0.7581  2.2048
 5209SOL     OW27262   1.251   3.694   9.532 -0.5426 -0.1907 -0.6396
 5209SOL    HW127263   1.287   3.654   9.453  0.8516 -0.9154  0.3737
 5209SOL    HW227264   1.301   3.774   9.516 -2.3997  0.8089 -1.5575
 5210SOL     OW27265   1.070   3.987   7.431 -0.5358 -0.2879 -0.0931
 5210SOL    HW127266   0.984   4.029   7.426 -0.4188  0.4179  3.6617
 5210SOL    HW227267   1.103   4.018   7.346 -0.5040  2.7639  1.0269
 5211SOL     OW27268   0.862   4.266   3.437 -0.6329 -0.4599 -0.2203
 5211SOL    HW127269   0.891   4.193   3.492 -0.6710 -1.0442 -0.9760
 5211SOL    HW227270   0.819   4.226   3.361 -2.3150 -0.4428  0.7447
 5212SOL     OW27271   3.281   1.687   7.690  0.0613 -0.2512 -0.3642
 5212SOL    HW127272   3.292   1.782   7.679  1.6178 -0.2058  1.5636
 5212SOL    HW227273   3.252   1.674   7.780  3.3277 -1.1066  0.5606
 5213SOL     OW27274   2.821   3.819  10.825  0.4505 -0.1635 -0.1793
 5213SOL    HW127275   2.833   3.911  10.801  0.7855 -0.6145 -1.7515
 5213SOL    HW227276   2.889   3.782  10.768 -0.3210 -1.8831  0.0453
 5214SOL     OW27277   1.293   0.221   5.745  0.4779  0.7368  0.0775
 5214SOL    HW127278   1.383   0.222   5.778  1.5195  3.5855 -2.7194
 5214SOL    HW227279   1.277   0.129   5.764  3.0029  0.4046  0.6870
 5215SOL     OW27280   3.483   1.367   0.322 -0.1319 -0.0453  0.5238
 5215SOL    HW127281   3.554   1.312   0.291 -1.4049 -1.0252 -0.6688
 5215SOL    HW227282   3.475   1.346   0.415 -0.7468  4.1626  1.4284
 5216SOL     OW27283   2.508   2.330   3.010  0.0559  0.1411 -0.8754
 5216SOL    HW127284   2.414   2.342   3.020  0.5111  2.8418 -0.0966
 5216SOL    HW227285   2.519   2.339   2.915 -1.1740  1.4143 -0.8918
 5217SOL     OW27286   4.636   3.948   2.058  0.0158  0.3506  0.4864
 5217SOL    HW127287   4.640   4.037   2.093  2.2464  0.9223 -1.2343
 5217SOL    HW227288   4.630   3.900   2.140 -2.7313  0.2000  0.1916
 5218SOL     OW27289   3.464   1.680   2.916  0.2211  0.0029 -0.0618
 5218SOL    HW127290   3.508   1.747   2.968 -1.4486  2.2302 -1.5137
 5218SOL    HW227291   3.454   1.607   2.977  1.9905  1.6357  2.2178
 5219SOL     OW27292   0.071   4.551  15.571 -0.0293 -0.1108  0.0064
 5219SOL    HW127293   4.727   4.527  15.527  0.4944 -0.9888 -0.4800
 5219SOL    HW227294   0.054   4.510  15.656  3.0178 -0.9253  0.2340
 5220SOL     OW27295   0.994   1.390   1.997 -0.5010  0.2910 -0.2723
 5220SOL    HW127296   0.912   1.432   2.021 -0.4317  0.3713 -0.1751
 5220SOL    HW227297   1.024   1.344   2.076  1.7697 -0.3602 -1.5228
 5221SOL     OW27298   1.841   0.415   2.435 -0.5338  0.3789  0.1006
 5221SOL    HW127299   1.893   0.444   2.360  2.5104  1.6281  2.6851
 5221SOL    HW227300   1.853   0.489   2.495  1.0653  1.2325 -1.2469
 5222SOL     OW27301   0.651   1.308  13.288  0.4500  0.1290  0.5433
 5222SOL    HW127302   0.616   1.347  13.207 -0.1444  2.2817  1.8424
 5222SOL    HW227303   0.668   1.382  13.346 -1.3998  1.1917 -0.2634
 5223SOL     OW27304   0.805   1.373   5.213  0.3409  0.2221  0.6301
 5223SOL    HW127305   0.756   1.446   5.176 -0.4463 -0.4049  0.4309
 5223SOL    HW227306   0.869   1.424   5.262  2.6177 -1.6829 -0.4231
 5224SOL     OW27307   0.879   0.056   8.692 -0.0317  0.1312  0.1429
 5224SOL    HW127308   0.904   0.140   8.654 -1.0266 -0.0026 -0.8114
 5224SOL    HW227309   0.826   0.086   8.766 -1.2400  0.6167 -0.9172
 5225SOL     OW27310   4.047   0.286   7.383  0.1480 -0.1953  0.4551
 5225SOL    HW127311   4.129   0.241   7.400  1.2279  1.6246 -0.0264
 5225SOL    HW227312   3.988   0.269   7.457 -0.7079 -1.7419 -0.5816
 5226SOL     OW27313   0.323   1.923  13.456  0.5184 -0.5927 -0.1396
 5226SOL    HW127314   0.376   2.001  13.441  0.6187 -1.0614 -2.1897
 5226SOL    HW227315   0.294   1.886  13.372 -1.5354 -0.0508  0.3289
 5227SOL     OW27316   1.217   3.886   2.539  0.1173  0.5474  0.1266
 5227SOL    HW127317   1.298   3.874   2.588  0.0323  1.5990  0.5098
 5227SOL    HW227318   1.217   3.976   2.508 -1.5884 -0.6121 -3.2623
 5228SOL     OW27319   0.844   4.100   8.325  0.3647 -0.1859 -0.0658
 5228SOL    HW127320   0.796   4.172   8.365 -1.8746  0.4956 -4.0603
 5228SOL    HW227321   0.888   4.151   8.257  1.7676 -0.1043  0.8947
 5229SOL     OW27322   0.968   2.340   5.709 -0.1500 -0.5249  0.0423
 5229SOL    HW127323   1.038   2.279   5.731 -0.0978 -0.7808 -0.8350
 5229SOL    HW227324   1.012   2.402   5.651  0.9496 -1.3553 -0.0130
 5230SOL     OW27325   4.204   0.206   8.120  1.1070 -0.0983  0.3885
 5230SOL    HW127326   4.186   0.298   8.138  0.1776 -0.1650 -0.1405
 5230SOL    HW227327   4.197   0.173   8.209 -1.6234 -0.3977  0.0895
 5231SOL     OW27328   2.849   1.947   5.119 -0.2435  0.2501 -0.1796
 5231SOL    HW127329   2.917   1.983   5.061  0.9114 -0.6788  0.5983
 5231SOL    HW227330   2.865   2.009   5.190 -0.0682  1.5508 -1.3303
 5232SOL     OW27331   2.205   4.594   8.134 -0.5202 -0.4979 -0.7091
 5232SOL    HW127332   2.129   4.544   8.102 -2.8651  3.2308 -0.9857
 5232SOL    HW227333   2.281   4.544   8.105 -0.1712 -1.5999  2.1296
 5233SOL     OW27334   1.632   3.571  17.696 -0.3502  0.3224  0.4167
 5233SOL    HW127335   1.596   3.617   0.025 -2.3037  0.1419 -0.3963
 5233SOL    HW227336   1.725   3.591  17.705 -0.6805  2.4527 -0.9023
 5234SOL     OW27337   2.954   2.408   8.314  0.3734 -0.3751 -0.7613
 5234SOL    HW127338   2.983   2.429   8.225 -0.6296  0.6435 -0.8568
 5234SOL    HW227339   2.904   2.327   8.305 -2.5588  1.5511 -1.8421
 5235SOL     OW27340   3.978   3.946   8.715  0.9048  0.3250 -0.0204
 5235SOL    HW127341   4.053   3.994   8.680  0.9575  0.2460 -0.0159
 5235SOL    HW227342   3.995   3.948   8.809  0.2215  0.2611  0.1072
 5236SOL     OW27343   2.914   1.955   4.779 -0.0661  0.1297 -0.1627
 5236SOL    HW127344   2.855   1.882   4.799  1.4894 -0.9263  0.5528
 5236SOL    HW227345   2.892   1.971   4.687  0.0229 -4.9230 -1.0487
 5237SOL     OW27346   0.705   4.689  15.082 -0.2601 -0.2636 -0.3060
 5237SOL    HW127347   0.751   0.023  15.126  0.2820 -1.8560  1.7015
 5237SOL    HW227348   0.686   4.625  15.151 -1.9737  1.5266  0.8964
 5238SOL     OW27349   3.617   3.273  12.126  0.1922  0.4302 -0.2847
 5238SOL    HW127350   3.612   3.263  12.221 -0.7188  0.4857 -0.3284
 5238SOL    HW227351   3.660   3.189  12.110  1.3333  1.4244 -2.4389
 5239SOL     OW27352   4.566   2.273   3.381  0.0689 -0.3803  0.4644
 5239SOL    HW127353   4.652   2.287   3.420  0.4235  0.4453 -0.6254
 5239SOL    HW227354   4.505   2.287   3.453  1.7160 -1.5751  2.0930
 5240SOL     OW27355   4.293   3.160   3.071 -0.2834 -0.2300 -0.3278
 5240SOL    HW127356   4.301   3.245   3.114  0.5261  0.4461 -1.8290
 5240SOL    HW227357   4.219   3.121   3.119 -1.4204  1.4196 -0.7385
 5241SOL     OW27358   0.813   0.537   9.281 -0.8426  0.5071  0.1249
 5241SOL    HW127359   0.772   0.618   9.311  3.4112  2.5435  0.5609
 5241SOL    HW227360   0.899   0.551   9.321 -1.0991  2.3376  0.0511
 5242SOL     OW27361   4.268   4.302   6.548  0.4935 -0.0909  0.1321
 5242SOL    HW127362   4.291   4.250   6.471  1.6602  1.1789 -0.4030
 5242SOL    HW227363   4.353   4.314   6.591  0.1979  1.4420  0.3022
 5243SOL     OW27364   0.661   3.053  13.950 -0.5497  0.1915  0.6215
 5243SOL    HW127365   0.579   3.075  13.994 -0.8129  1.0367 -0.2985
 5243SOL    HW227366   0.684   2.971  13.992  1.7890 -0.1161 -1.2634
 5244SOL     OW27367   3.874   3.002   4.627  0.0537  0.0523  0.1972
 5244SOL    HW127368   3.921   2.936   4.575  0.0301 -0.7545  1.1952
 5244SOL    HW227369   3.789   2.964   4.652 -0.0434  0.1888  0.0718
 5245SOL     OW27370   4.316   3.702   6.409 -0.7281  0.1451  0.2923
 5245SOL    HW127371   4.382   3.733   6.347 -2.1829  0.0616 -1.3243
 5245SOL    HW227372   4.338   3.611   6.432 -2.2335 -0.0753  0.8959
 5246SOL     OW27373   1.674   4.225  12.972 -0.1819  0.7172 -0.1780
 5246SOL    HW127374   1.677   4.302  12.916 -1.0204  0.8500 -0.0407
 5246SOL    HW227375   1.667   4.271  13.056 -1.3564 -3.5424  2.0736
 5247SOL     OW27376   2.389   3.590   7.296  0.4352  0.1851  0.2266
 5247SOL    HW127377   2.342   3.639   7.228  0.1146 -1.2531 -0.5961
 5247SOL    HW227378   2.454   3.551   7.237  0.8775 -0.3176  1.0421
 5248SOL     OW27379   3.867   0.675   8.715  0.1082 -0.7179 -0.0297
 5248SOL    HW127380   3.903   0.759   8.745 -0.0358 -0.8341  0.4623
 5248SOL    HW227381   3.923   0.670   8.637 -1.1399 -0.0496 -0.9633
 5249SOL     OW27382   3.970   1.399  11.310 -0.1330 -0.1855 -0.1345
 5249SOL    HW127383   3.931   1.418  11.395  1.3104 -2.7074  1.1129
 5249SOL    HW227384   3.977   1.303  11.305 -0.7686 -0.3250  1.5595
 5250SOL     OW27385   2.650   2.207  10.400 -0.2140 -0.1885  0.1655
 5250SOL    HW127386   2.585   2.273  10.377  0.2070  0.1223 -0.1226
 5250SOL    HW227387   2.687   2.258  10.472  0.6075 -0.7849  0.1682
 5251SOL     OW27388   4.030   0.888   8.747 -0.5110 -0.5420  0.1033
 5251SOL    HW127389   4.103   0.834   8.716 -0.0649  0.1885 -0.1123
 5251SOL    HW227390   4.078   0.971   8.738  1.0800 -1.3331  1.1542
 5252SOL     OW27391   1.981   0.791   7.505 -0.0862 -0.4804 -0.6362
 5252SOL    HW127392   2.075   0.781   7.487 -0.3556  0.3435 -2.4947
 5252SOL    HW227393   1.974   0.887   7.499 -1.0050 -0.4036  1.7804
 5253SOL     OW27394   2.235   2.232   6.094 -0.2556  0.1809 -0.3907
 5253SOL    HW127395   2.196   2.155   6.135  2.8428 -0.1163  2.0116
 5253SOL    HW227396   2.239   2.293   6.168  2.2756 -0.9309  0.3958
 5254SOL     OW27397   4.197   4.351   5.235 -0.0536  0.1286 -0.5366
 5254SOL    HW127398   4.189   4.278   5.297 -3.4019 -0.1936 -1.3010
 5254SOL    HW227399   4.250   4.414   5.283 -2.2605  0.8654  0.9310
 5255SOL     OW27400   2.960   1.862  11.109  0.3804 -0.1055 -0.1526
 5255SOL    HW127401   2.965   1.930  11.176 -4.3136  1.4500 -1.3621
 5255SOL    HW227402   2.886   1.906  11.066  1.3432  1.0770 -0.5801
 5256SOL     OW27403   0.747   0.224   1.850  0.0511  0.3382 -0.2586
 5256SOL    HW127404   0.775   0.260   1.934 -0.0689  1.4237 -0.6903
 5256SOL    HW227405   0.815   0.257   1.793 -0.0465  0.3383 -0.3746
 5257SOL     OW27406   3.883   0.000   4.827 -0.0130 -0.5604 -0.0732
 5257SOL    HW127407   3.894   4.723   4.733  0.8377  1.6695 -0.2985
 5257SOL    HW227408   3.816   0.068   4.831  1.3344  0.7560 -0.0108
 5258SOL     OW27409   0.066   0.280   1.145 -0.3296  0.7206  0.4904
 5258SOL    HW127410   0.027   0.273   1.233  0.5740 -2.4597  0.6430
 5258SOL    HW227411   0.076   0.375   1.144 -1.6477  0.8438 -1.4368
 5259SOL     OW27412   0.227   1.727   7.259  0.3904  0.2696  0.2176
 5259SOL    HW127413   0.163   1.795   7.238 -0.4478 -0.3253  0.8648
 5259SOL    HW227414   0.295   1.778   7.303  0.0245  0.9892 -0.0636
 5260SOL     OW27415   0.306   4.329  13.108 -0.4032 -0.5602  0.1805
 5260SOL    HW127416   0.259   4.410  13.091  1.7526  0.3853 -1.3889
 5260SOL    HW227417   0.351   4.357  13.188  0.9167 -2.5560  0.1473
 5261SOL     OW27418   3.967   4.670   7.850 -0.8216  0.1998  0.2017
 5261SOL    HW127419   3.997   0.013   7.808  0.5108 -1.0121 -1.1608
 5261SOL    HW227420   3.952   4.700   7.940 -0.0066  0.6574  0.1803
 5262SOL     OW27421   3.957   4.463   8.262 -0.8662  0.4583  0.2911
 5262SOL    HW127422   3.984   4.518   8.188 -2.7108 -0.0073 -0.7305
 5262SOL    HW227423   3.967   4.525   8.335  0.7582  2.6035 -1.7391
 5263SOL     OW27424   0.171   0.276  13.001  0.0156 -0.1258  1.0615
 5263SOL    HW127425   0.088   0.299  13.043  0.4711 -0.6324  2.2543
 5263SOL    HW227426   0.158   0.189  12.964  0.5403  0.9470 -1.6082
 5264SOL     OW27427   0.674   3.747   5.345 -0.3881 -0.1990 -0.1388
 5264SOL    HW127428   0.601   3.768   5.403  1.2768 -0.7530  2.1481
 5264SOL    HW227429   0.705   3.837   5.336 -0.8628 -0.1129 -0.9451
 5265SOL     OW27430   0.475   0.398   9.163  0.0325  0.6066  0.0885
 5265SOL    HW127431   0.405   0.464   9.166 -1.5800 -1.0730 -0.7056
 5265SOL    HW227432   0.420   0.322   9.184  0.6354 -0.2567 -1.5177
 5266SOL     OW27433   2.689   3.220   3.359 -0.1585  0.5301 -0.2114
 5266SOL    HW127434   2.707   3.191   3.449 -3.8660  0.2585  0.4605
 5266SOL    HW227435   2.593   3.224   3.360 -0.2376 -0.7882 -2.0242
 5267SOL     OW27436   3.199   3.570   6.908 -0.4370  0.5781  0.0678
 5267SOL    HW127437   3.213   3.642   6.969  0.2839  0.1237  0.4388
 5267SOL    HW227438   3.177   3.624   6.832  0.6039  0.5642 -0.2347
 5268SOL     OW27439   3.843   4.505   7.665 -0.1319  0.3370 -0.1200
 5268SOL    HW127440   3.884   4.570   7.722 -0.9902 -0.4219  1.3605
 5268SOL    HW227441   3.820   4.562   7.592  0.2502 -0.6887 -1.0314
 5269SOL     OW27442   1.810   0.697  16.026  0.1159 -0.0943 -0.1405
 5269SOL    HW127443   1.783   0.608  16.003  0.8669 -0.2852 -0.3000
 5269SOL    HW227444   1.724   0.738  16.037 -0.0222 -0.2497 -0.6159
 5270SOL     OW27445   1.997   4.629   3.029 -0.1778  0.1139 -0.5047
 5270SOL    HW127446   1.959   4.578   2.958 -0.8493  0.4062 -0.3480
 5270SOL    HW227447   2.059   4.566   3.065  0.0552  0.4364 -0.3426
 5271SOL     OW27448   4.690   3.231   7.345  0.1867  0.0397 -0.2368
 5271SOL    HW127449   4.652   3.275   7.269  1.0222  1.0018 -0.0835
 5271SOL    HW227450   4.632   3.256   7.417 -0.7866 -0.3726 -0.8693
 5272SOL     OW27451   2.244   3.914   1.791  0.1525  0.1315  0.1186
 5272SOL    HW127452   2.161   3.897   1.748  1.0581 -1.2167 -1.0760
 5272SOL    HW227453   2.234   4.009   1.804  1.0742  0.3820 -0.9722
 5273SOL     OW27454   2.344   2.684   3.635  0.2486 -0.2436  0.2081
 5273SOL    HW127455   2.322   2.604   3.588  0.8670  0.2988 -1.0195
 5273SOL    HW227456   2.404   2.654   3.703 -0.7522  0.8603  1.5987
 5274SOL     OW27457   1.804   0.625   1.906 -1.0108 -0.6705 -0.4236
 5274SOL    HW127458   1.748   0.703   1.916  0.5494  0.5059 -0.8373
 5274SOL    HW227459   1.864   0.653   1.837  1.4913 -5.4268 -0.1229
 5275SOL     OW27460   0.254   1.973   5.533  0.0592  0.1086 -0.4376
 5275SOL    HW127461   0.282   2.036   5.598  2.1019 -0.7565 -0.4616
 5275SOL    HW227462   0.243   2.042   5.467 -0.5419  0.0351 -0.4118
 5276SOL     OW27463   0.232   2.330   7.622 -0.4335 -0.3252  0.0527
 5276SOL    HW127464   0.289   2.356   7.695  0.2921  1.2695 -1.0968
 5276SOL    HW227465   0.226   2.411   7.573 -2.1517 -0.3925  0.1413
 5277SOL     OW27466   1.149   0.277   9.108 -0.0254 -0.2033  0.5417
 5277SOL    HW127467   1.069   0.320   9.138  0.5703  0.3635  1.3425
 5277SOL    HW227468   1.161   0.326   9.027 -1.6014 -0.3483  0.2197
 5278SOL     OW27469   2.245   3.210   5.103 -0.0540  0.2647 -0.6806
 5278SOL    HW127470   2.303   3.283   5.126 -1.0582 -0.1111  2.9787
 5278SOL    HW227471   2.255   3.219   5.008 -2.9876 -0.2359 -1.0282
 5279SOL     OW27472   3.034   2.223   0.894  0.0695  0.7186 -0.1725
 5279SOL    HW127473   3.010   2.240   0.986 -1.4052 -1.8092 -0.1162
 5279SOL    HW227474   3.125   2.195   0.902 -0.3535 -0.6591 -0.1924
 5280SOL     OW27475   3.435   1.962   1.988  0.0785 -0.0182  0.4626
 5280SOL    HW127476   3.373   2.034   2.005 -0.0857 -0.5197  2.0394
 5280SOL    HW227477   3.512   2.015   1.969  0.9299 -1.5626 -0.2838
 5281SOL     OW27478   1.814   1.753   0.913 -0.3042 -0.2150 -0.1473
 5281SOL    HW127479   1.860   1.716   0.838  2.3668 -0.3588  1.5393
 5281SOL    HW227480   1.881   1.746   0.982 -1.6724  1.8442  1.3907
 5282SOL     OW27481   0.597   1.364   6.085  0.1243 -0.1843  0.0503
 5282SOL    HW127482   0.587   1.306   6.160 -0.6710  0.1238  0.1877
 5282SOL    HW227483   0.597   1.300   6.014 -1.7298 -1.5239  1.2447
 5283SOL     OW27484   4.541   3.542   8.267 -0.0951  0.0072 -0.0215
 5283SOL    HW127485   4.593   3.618   8.294 -2.4322  1.3215  0.7365
 5283SOL    HW227486   4.593   3.523   8.188 -0.5425 -1.2277 -0.0173
 5284SOL     OW27487   2.294   0.807   7.425 -0.5131  0.3077 -0.8719
 5284SOL    HW127488   2.352   0.881   7.407 -0.2335 -0.6735 -4.1218
 5284SOL    HW227489   2.294   0.808   7.520  0.1097  1.5385 -0.8769
 5285SOL     OW27490   0.577   2.774   6.818  0.3452  0.1978 -0.0433
 5285SOL    HW127491   0.547   2.684   6.825  1.1057 -0.0208  0.4458
 5285SOL    HW227492   0.614   2.775   6.729  0.3057 -0.3826 -0.0632
 5286SOL     OW27493   4.030   3.901  15.405  0.0457 -0.1976  0.0500
 5286SOL    HW127494   3.991   3.815  15.420 -0.8518 -0.1074 -1.7516
 5286SOL    HW227495   4.078   3.896  15.322  2.2417 -1.0198  1.3852
 5287SOL     OW27496   4.410   0.692   3.372  0.5552  0.3486  0.7913
 5287SOL    HW127497   4.428   0.600   3.351 -0.2941  0.2212  0.6385
 5287SOL    HW227498   4.315   0.691   3.372  0.5730 -1.3865 -0.0702
 5288SOL     OW27499   1.853   0.079  10.206  0.3331  0.1182  0.2326
 5288SOL    HW127500   1.863   4.722  10.193  2.1813  0.4038 -0.4699
 5288SOL    HW227501   1.941   0.102  10.174  1.3684 -0.2403  2.8283
 5289SOL     OW27502   2.430   2.278  13.023  0.0050  0.5412 -0.2813
 5289SOL    HW127503   2.354   2.260  13.078  0.8251 -2.1477 -0.0330
 5289SOL    HW227504   2.398   2.272  12.933 -1.1374  1.3425  0.0712
 5290SOL     OW27505   0.952   2.036   5.740 -0.1844 -0.2505 -0.8270
 5290SOL    HW127506   0.881   2.021   5.803  1.5141  0.2479  1.2216
 5290SOL    HW227507   0.915   2.090   5.670  0.2314  1.5857  0.3787
 5291SOL     OW27508   3.546   4.444   3.945  0.0491 -0.0488  0.0332
 5291SOL    HW127509   3.477   4.387   3.912  1.5361 -1.4400 -0.6936
 5291SOL    HW227510   3.620   4.402   3.900  0.6020 -1.3736  2.1555
 5292SOL     OW27511   1.100   2.356  12.963 -0.1858  0.1815  0.0683
 5292SOL    HW127512   1.188   2.327  12.939 -0.5305  1.1651 -2.3961
 5292SOL    HW227513   1.119   2.449  12.956  0.2193  0.0441 -0.5922
 5293SOL     OW27514   1.333   2.397   6.781  0.0189 -0.0818 -0.0679
 5293SOL    HW127515   1.258   2.453   6.801  0.1897 -0.5322  1.8531
 5293SOL    HW227516   1.333   2.417   6.687  1.1351 -0.4758 -0.1531
 5294SOL     OW27517   1.500   1.091  17.674  0.0153  0.0636 -0.1963
 5294SOL    HW127518   1.543   1.154  17.616 -2.5372  0.1243 -2.0363
 5294SOL    HW227519   1.570   1.065  17.734  0.4657  0.1196 -0.6886
 5295SOL     OW27520   1.037   3.208   5.422  0.1044 -0.3769 -0.3375
 5295SOL    HW127521   1.008   3.117   5.430 -2.3037  0.2085 -2.4483
 5295SOL    HW227522   1.104   3.199   5.354  1.9135 -0.6766  1.4719
 5296SOL     OW27523   2.714   2.197   6.660  0.9603 -0.7926 -0.1898
 5296SOL    HW127524   2.786   2.253   6.630 -0.0375 -0.1851 -1.4784
 5296SOL    HW227525   2.692   2.155   6.576 -2.8467  1.3353 -0.2210
 5297SOL     OW27526   1.866   1.530   8.695 -0.1485 -0.7286 -0.1982
 5297SOL    HW127527   1.826   1.447   8.671 -0.9402  0.7480 -3.9371
 5297SOL    HW227528   1.787   1.575   8.725 -0.6403 -0.7114 -1.5382
 5298SOL     OW27529   1.355   1.295   2.240  0.0061 -0.3376  0.4685
 5298SOL    HW127530   1.359   1.307   2.334 -0.0891 -2.4494  0.7234
 5298SOL    HW227531   1.412   1.362   2.201 -0.5386 -0.4605 -0.5480
 5299SOL     OW27532   0.153   3.051   4.993  0.1311 -0.1638  0.3295
 5299SOL    HW127533   0.142   2.977   4.933  1.9835  0.7559 -1.1453
 5299SOL    HW227534   0.068   3.095   4.982 -1.0435 -3.1657 -2.4740
 5300SOL     OW27535   0.757   2.825  17.361 -0.0688 -0.7464 -0.0072
 5300SOL    HW127536   0.675   2.783  17.334 -0.5700 -0.4929  1.0874
 5300SOL    HW227537   0.736   2.879  17.438  0.0869  0.5007 -0.8471
 5301SOL     OW27538   0.653   3.027   6.622 -0.3665 -0.3655 -0.0330
 5301SOL    HW127539   0.680   2.958   6.560 -1.1164 -0.4721 -0.2417
 5301SOL    HW227540   0.594   3.079   6.567 -0.6710  1.3170  1.9189
 5302SOL     OW27541   2.914   4.131   0.219 -0.3691 -0.3807 -0.0517
 5302SOL    HW127542   2.942   4.195   0.153 -0.6134  1.9819  2.1293
 5302SOL    HW227543   2.822   4.119   0.194 -0.9490  1.5832  1.1555
 5303SOL     OW27544   3.067   3.521   7.429 -0.2922  0.0225 -0.0392
 5303SOL    HW127545   3.006   3.557   7.364  1.4090 -1.7281 -2.6507
 5303SOL    HW227546   3.112   3.602   7.450 -1.4928  0.6498  0.1177
 5304SOL     OW27547   3.554   1.867  13.528  0.3088  0.0147 -0.2650
 5304SOL    HW127548   3.546   1.850  13.434 -1.4475 -2.3936  0.3135
 5304SOL    HW227549   3.596   1.785  13.555  2.5008  1.6975  1.4690
 5305SOL     OW27550   3.340   0.242   7.956 -0.0089 -0.1871 -0.7370
 5305SOL    HW127551   3.255   0.199   7.960 -0.4201  0.8405  1.2657
 5305SOL    HW227552   3.385   0.191   7.888  0.6834  0.0744 -0.4820
 5306SOL     OW27553   0.127   3.584   2.905 -0.3760 -0.3882  0.5262
 5306SOL    HW127554   0.207   3.551   2.864  1.5275 -0.9864  4.7994
 5306SOL    HW227555   0.130   3.679   2.890 -2.0369 -0.3237  0.6345
 5307SOL     OW27556   2.477   2.205   3.673 -0.1328 -0.1405  0.8050
 5307SOL    HW127557   2.435   2.290   3.664 -0.0490 -0.1131  0.6784
 5307SOL    HW227558   2.566   2.238   3.678 -0.2453 -0.1478  2.8324
 5308SOL     OW27559   2.632   0.300   2.199 -0.1408  0.1677  0.0786
 5308SOL    HW127560   2.615   0.206   2.187 -1.7334  0.5131 -0.3582
 5308SOL    HW227561   2.549   0.318   2.244 -0.8956 -1.4116 -0.6751
 5309SOL     OW27562   3.300   2.568   5.289  0.3936 -0.5444 -0.3014
 5309SOL    HW127563   3.343   2.623   5.354  0.0330 -3.1379  2.1142
 5309SOL    HW227564   3.375   2.512   5.268  0.2712 -1.5538  1.9238
 5310SOL     OW27565   4.534   1.578   2.236 -0.9606  0.0530  0.0836
 5310SOL    HW127566   4.477   1.538   2.170  1.5205  0.3962 -2.2756
 5310SOL    HW227567   4.604   1.513   2.235  0.2719  1.4296 -1.7823
 5311SOL     OW27568   2.318   4.198   5.407  0.1549  0.0557 -0.2153
 5311SOL    HW127569   2.385   4.130   5.405  0.7198  0.5834  0.9417
 5311SOL    HW227570   2.261   4.153   5.469  0.7473 -1.6382 -0.8975
 5312SOL     OW27571   4.447   0.560  16.127  0.2607 -0.3881  0.8280
 5312SOL    HW127572   4.468   0.643  16.169  1.3748  0.3156 -1.0918
 5312SOL    HW227573   4.464   0.507  16.204 -1.1514  0.7766  1.9396
 5313SOL     OW27574   1.120   2.852   8.835  0.3433 -0.0988  0.2388
 5313SOL    HW127575   1.101   2.945   8.848 -0.3289  0.0312 -1.6488
 5313SOL    HW227576   1.173   2.834   8.912 -2.0831  1.9503  2.4018
 5314SOL     OW27577   0.330   0.465   7.470  0.7913 -0.4606  0.5836
 5314SOL    HW127578   0.379   0.388   7.441  0.8618  0.6978 -2.3580
 5314SOL    HW227579   0.238   0.440   7.484  0.2865  0.2371 -1.5345
 5315SOL     OW27580   2.352   4.194   8.481 -0.3492 -0.4234  0.3600
 5315SOL    HW127581   2.293   4.195   8.405 -0.9508  1.1562  0.8558
 5315SOL    HW227582   2.341   4.282   8.516 -0.8531 -0.0005 -0.8641
 5316SOL     OW27583   2.522   0.157  13.882  0.4565 -0.0636  0.4139
 5316SOL    HW127584   2.587   0.180  13.815  0.6272  0.2798  0.6965
 5316SOL    HW227585   2.561   0.213  13.950 -2.0177  2.8300 -0.5324
 5317SOL     OW27586   1.011   3.905   5.262  0.0917  0.4718 -0.5407
 5317SOL    HW127587   0.986   3.886   5.172 -3.4470  0.7729  0.3803
 5317SOL    HW227588   0.934   3.958   5.284 -0.5519 -0.2310 -1.0727
 5318SOL     OW27589   1.159   3.345   3.683  0.0071  0.3126 -0.3376
 5318SOL    HW127590   1.133   3.261   3.721  1.5639 -0.4097 -0.8209
 5318SOL    HW227591   1.140   3.415   3.745 -2.0147 -2.3429  2.0289
 5319SOL     OW27592   2.966   1.413   2.001 -0.1825  0.3264 -0.0189
 5319SOL    HW127593   2.962   1.357   1.924 -0.0575 -0.3654  0.4745
 5319SOL    HW227594   3.045   1.462   1.980 -0.6235  1.8094  1.8147
 5320SOL     OW27595   1.000   1.872   9.331  0.3534 -0.4549 -0.0562
 5320SOL    HW127596   0.999   1.962   9.297  0.5862 -0.1507  0.7393
 5320SOL    HW227597   1.024   1.825   9.251  0.9671  0.8965 -0.6603
 5321SOL     OW27598   2.237   1.619   1.383 -0.0927 -0.6251  0.0743
 5321SOL    HW127599   2.171   1.602   1.450  0.1919  2.3329  1.0812
 5321SOL    HW227600   2.261   1.712   1.385  0.5866 -0.7482 -2.6328
 5322SOL     OW27601   3.861   3.205   4.306  0.3017 -0.0537  0.1235
 5322SOL    HW127602   3.859   3.289   4.352  1.2040 -0.3751  0.7466
 5322SOL    HW227603   3.770   3.175   4.301 -0.3300  1.5382  2.0406
 5323SOL     OW27604   2.624   1.307   3.971 -0.1749 -0.1889  0.0073
 5323SOL    HW127605   2.656   1.332   4.058 -0.7030 -2.2710  0.7976
 5323SOL    HW227606   2.532   1.333   3.967 -0.6147 -1.4944  1.6470
 5324SOL     OW27607   0.661   3.704   2.045  0.3244 -0.0606 -0.2120
 5324SOL    HW127608   0.642   3.662   2.129  2.4649  1.9868  1.2988
 5324SOL    HW227609   0.582   3.758   2.041  0.3203 -0.1288 -1.0469
 5325SOL     OW27610   0.690   4.569   8.357  0.2607 -0.3050 -0.1693
 5325SOL    HW127611   0.767   4.555   8.411  0.8603 -0.6938 -1.1416
 5325SOL    HW227612   0.620   4.576   8.422  1.1356 -2.2949  0.9645
 5326SOL     OW27613   0.010   1.790   9.166 -0.6625  0.4817 -0.5825
 5326SOL    HW127614   4.698   1.799   9.085 -2.4991  0.3588  0.5175
 5326SOL    HW227615   0.002   1.695   9.180 -0.4672  0.5400 -0.0767
 5327SOL     OW27616   0.730   1.433   8.013  0.3271  0.1398  0.1544
 5327SOL    HW127617   0.696   1.344   8.002  1.9755 -0.3818 -0.7643
 5327SOL    HW227618   0.818   1.404   8.035 -0.1370 -0.6294  0.9763
 5328SOL     OW27619   1.469   2.552   1.985  0.1910  0.6131  0.1970
 5328SOL    HW127620   1.416   2.630   2.004  0.0773  0.2394  1.3982
 5328SOL    HW227621   1.499   2.582   1.899 -0.7363 -0.1272 -0.3953
 5329SOL     OW27622   2.065   3.834   8.127  0.2612 -0.0855  0.2785
 5329SOL    HW127623   2.093   3.920   8.095  0.7688  0.6021  2.5753
 5329SOL    HW227624   2.046   3.870   8.213  1.0272 -3.3033  1.8204
 5330SOL     OW27625   1.935   1.309   6.446  0.1794  0.1884  0.2757
 5330SOL    HW127626   1.971   1.232   6.490  1.3353  0.5086 -0.1179
 5330SOL    HW227627   2.021   1.335   6.413  0.3071  2.7322  2.6231
 5331SOL     OW27628   1.986   3.771   6.926 -0.1093 -0.1229  0.2818
 5331SOL    HW127629   1.894   3.784   6.950 -0.0876  0.6821 -0.0567
 5331SOL    HW227630   2.005   3.863   6.905 -0.2133 -0.4059 -1.0789
 5332SOL     OW27631   1.222   3.202  13.242  0.1232  0.5226 -0.3450
 5332SOL    HW127632   1.148   3.154  13.280  1.7164 -0.2577  1.7558
 5332SOL    HW227633   1.274   3.132  13.203  1.9083  0.5392  1.9997
 5333SOL     OW27634   4.672   3.843   8.835 -0.3736  0.7892  0.7590
 5333SOL    HW127635   0.019   3.887   8.839  0.2980 -0.4734  0.4217
 5333SOL    HW227636   4.701   3.752   8.827  0.1611  0.9767  0.6006
 5334SOL     OW27637   0.864   0.079   0.926  0.1652  0.1412 -0.1520
 5334SOL    HW127638   0.932   0.022   0.961 -1.9038 -0.4708  2.9421
 5334SOL    HW227639   0.796   0.091   0.993 -0.6493 -0.7481 -0.8018
 5335SOL     OW27640   1.436   3.355   7.838 -0.2275 -0.2188  0.1382
 5335SOL    HW127641   1.508   3.349   7.901 -1.3030  0.9455  1.4684
 5335SOL    HW227642   1.450   3.439   7.796 -0.1828 -0.5259 -0.4702
 5336SOL     OW27643   3.115   0.014   7.008  0.1793  0.4194 -0.1408
 5336SOL    HW127644   3.118   4.696   6.930 -0.4468 -0.2930  0.3345
 5336SOL    HW227645   3.208   0.005   7.033 -0.2724  1.1181  1.8338
 5337SOL     OW27646   3.564   0.006  16.728  0.1032  0.1637 -0.6683
 5337SOL    HW127647   3.625   0.021  16.656  0.7112  0.0650 -0.1666
 5337SOL    HW227648   3.482   0.037  16.689 -0.3870 -0.5941 -0.2480
 5338SOL     OW27649   4.458   1.159  11.631  0.0905 -0.2068 -0.5446
 5338SOL    HW127650   4.453   1.249  11.661  2.2127  0.6062 -2.6487
 5338SOL    HW227651   4.549   1.154  11.600 -0.5207 -2.0254 -2.1010
 5339SOL     OW27652   0.102   1.383  15.638 -0.2622  0.7596  0.2892
 5339SOL    HW127653   0.036   1.317  15.616 -0.8846  1.0487  1.2446
 5339SOL    HW227654   0.085   1.399  15.731 -1.9323  0.6283  0.0059
 5340SOL     OW27655   1.163   2.651   5.032  0.6032 -0.9103  0.5380
 5340SOL    HW127656   1.244   2.666   5.081 -0.1505  2.4486  0.7663
 5340SOL    HW227657   1.214   2.640   4.952  0.5742  0.7281  0.2945
 5341SOL     OW27658   1.346   4.008   1.881  0.0821 -0.1680 -0.6492
 5341SOL    HW127659   1.315   3.919   1.894  0.7355 -0.4170 -0.7824
 5341SOL    HW227660   1.385   4.023   1.967  1.6156  0.3072 -1.4294
 5342SOL     OW27661   2.543   2.142   6.280  0.5762 -0.3602 -0.7493
 5342SOL    HW127662   2.584   2.228   6.275 -0.7305  0.2507 -1.1786
 5342SOL    HW227663   2.608   2.082   6.317  3.1175  1.9979 -1.4226
 5343SOL     OW27664   2.602   0.026   8.196  0.1116  0.3129  0.4780
 5343SOL    HW127665   2.602   4.720   8.281  1.3145 -2.7265 -1.0637
 5343SOL    HW227666   2.574   4.694   8.136 -2.1612  0.1184  1.7922
 5344SOL     OW27667   4.067   4.461   2.713  0.3100  0.0625  0.0001
 5344SOL    HW127668   4.000   4.473   2.781 -2.2066 -1.4997 -2.1908
 5344SOL    HW227669   4.058   4.539   2.658  0.7238 -0.0841 -0.2723
 5345SOL     OW27670   4.210   1.699  13.007 -0.5283 -0.6454  0.0794
 5345SOL    HW127671   4.185   1.628  13.066  0.8380 -2.7158 -1.8355
 5345SOL    HW227672   4.301   1.676  12.986 -0.0226  1.0691  0.3822
 5346SOL     OW27673   0.728   2.362   2.044  0.1335 -0.8306  0.7376
 5346SOL    HW127674   0.659   2.370   1.977  2.3202  0.9311 -1.3083
 5346SOL    HW227675   0.803   2.353   1.984  2.1523  1.1522  2.9765
 5347SOL     OW27676   4.126   0.961   6.038 -0.4611 -0.3895 -0.0854
 5347SOL    HW127677   4.084   0.930   6.118 -0.6068 -1.3127 -0.5147
 5347SOL    HW227678   4.204   0.907   6.031 -0.6712 -0.7301  0.1970
 5348SOL     OW27679   2.990   0.915   6.173  0.2984 -0.9425 -0.1328
 5348SOL    HW127680   3.047   0.841   6.191  1.2961 -0.1887 -0.2153
 5348SOL    HW227681   3.000   0.956   6.259 -0.2040 -4.6306  1.6805
 5349SOL     OW27682   2.358   4.098  10.904 -1.0366  0.1869  0.1720
 5349SOL    HW127683   2.322   4.043  10.974  0.8389 -0.4509  0.6322
 5349SOL    HW227684   2.426   4.047  10.861  1.3834  3.9316 -0.4675
 5350SOL     OW27685   3.570   4.176   5.951 -0.1448  0.1183  0.0882
 5350SOL    HW127686   3.544   4.089   5.922  0.6960  0.5166 -1.9101
 5350SOL    HW227687   3.495   4.195   6.007 -0.8244 -1.0612 -0.4159
 5351SOL     OW27688   2.120   1.586   7.649 -0.5903  0.3611  0.3047
 5351SOL    HW127689   2.139   1.676   7.623  1.5385 -0.1484  0.1710
 5351SOL    HW227690   2.042   1.587   7.706 -0.3015 -1.3326  0.7269
 5352SOL     OW27691   2.626   1.574   1.948  0.1327 -0.1655 -0.1315
 5352SOL    HW127692   2.548   1.569   1.892  0.4467 -1.8231 -0.4092
 5352SOL    HW227693   2.687   1.542   1.881  2.3172 -2.6750  3.0827
 5353SOL     OW27694   3.755   1.495   8.045 -0.3225 -0.1944 -0.2930
 5353SOL    HW127695   3.796   1.580   8.028  1.1700 -0.7479  0.4982
 5353SOL    HW227696   3.839   1.448   8.050 -0.2805 -0.1840 -0.9250
 5354SOL     OW27697   2.659   4.041  14.490 -0.0163 -0.2316 -0.9901
 5354SOL    HW127698   2.679   4.133  14.473 -0.0746  0.0136  0.2591
 5354SOL    HW227699   2.582   4.031  14.435  0.7511 -3.3208 -1.4919
 5355SOL     OW27700   1.373   0.473   2.963 -0.3399  0.3469  0.0244
 5355SOL    HW127701   1.438   0.482   2.893 -2.3477 -1.5809 -2.0818
 5355SOL    HW227702   1.305   0.431   2.910  1.5869 -1.2609 -1.1380
 5356SOL     OW27703   2.683   4.351   4.337  0.2938 -0.2730  0.0056
 5356SOL    HW127704   2.678   4.282   4.404 -1.1358  0.6163  0.8201
 5356SOL    HW227705   2.681   4.436   4.381 -0.8831  0.1418 -0.8488
 5357SOL     OW27706   3.438   3.749   0.269  0.0663  0.2885  0.3968
 5357SOL    HW127707   3.364   3.799   0.304  0.0272 -0.1173  0.9072
 5357SOL    HW227708   3.483   3.733   0.352 -1.0814 -0.5880  0.8484
 5358SOL     OW27709   0.058   3.795   2.693  0.0765  0.1454 -0.3528
 5358SOL    HW127710   4.718   3.828   2.739  0.7640 -0.1225  1.0000
 5358SOL    HW227711   0.025   3.707   2.675  0.5043 -0.4234  1.6439
 5359SOL     OW27712   4.296   0.324  14.404  0.0708 -0.4478 -0.3544
 5359SOL    HW127713   4.367   0.295  14.461 -1.4318 -1.7649  0.8281
 5359SOL    HW227714   4.220   0.316  14.462  0.1479  0.4854 -0.1244
 5360SOL     OW27715   3.443   2.711   8.999  0.5500 -0.2280  0.7399
 5360SOL    HW127716   3.508   2.776   9.026  0.4918 -0.4518  1.4361
 5360SOL    HW227717   3.371   2.763   8.964 -1.0712 -1.9795  1.4782
 5361SOL     OW27718   2.023   0.431   5.503 -0.2288  0.0107  0.1934
 5361SOL    HW127719   2.027   0.506   5.561 -0.4627  0.4812 -0.3950
 5361SOL    HW227720   1.957   0.454   5.437 -1.1362  0.0452  1.1173
 5362SOL     OW27721   0.444   3.991  17.230  0.0207 -0.7199  0.1574
 5362SOL    HW127722   0.484   3.922  17.282  1.4397 -1.0406 -1.3626
 5362SOL    HW227723   0.436   4.063  17.293 -0.8034 -1.1063  0.4874
 5363SOL     OW27724   1.558   4.300   3.407 -0.1742 -0.5893  0.0822
 5363SOL    HW127725   1.641   4.251   3.408 -0.6750 -1.4282  1.6308
 5363SOL    HW227726   1.534   4.309   3.500 -0.5906 -3.9257  0.2920
 5364SOL     OW27727   3.922   2.402   7.125 -0.3071  0.6911  0.1130
 5364SOL    HW127728   3.980   2.466   7.083 -0.8017  0.5335 -0.7926
 5364SOL    HW227729   3.950   2.399   7.217  3.0084 -0.7106 -0.9445
 5365SOL     OW27730   0.536   2.257   4.444 -0.2057 -0.0679  0.3141
 5365SOL    HW127731   0.609   2.297   4.491 -0.3437  0.3462  0.1683
 5365SOL    HW227732   0.518   2.176   4.493  0.6759 -1.4022 -1.5813
 5366SOL     OW27733   3.087   1.574   4.570 -0.0449 -0.7881  0.2842
 5366SOL    HW127734   3.004   1.539   4.537 -0.0377 -0.6577  0.1312
 5366SOL    HW227735   3.070   1.548   4.660  2.3035 -0.4421  0.8322
 5367SOL     OW27736   2.245   3.755  14.858  0.6371 -0.1635  0.0196
 5367SOL    HW127737   2.206   3.668  14.868 -0.0132 -0.0671 -1.6777
 5367SOL    HW227738   2.294   3.754  14.776 -1.3763 -0.5119 -1.1775
 5368SOL     OW27739   1.365   4.542   8.620 -0.1911 -0.0457 -0.0024
 5368SOL    HW127740   1.319   4.538   8.536  0.2740 -0.8611 -0.2192
 5368SOL    HW227741   1.366   4.451   8.647  1.3820  0.3475  1.2723
 5369SOL     OW27742   1.143   2.623  15.517 -0.2240 -0.3982  0.0342
 5369SOL    HW127743   1.097   2.640  15.600  1.4368 -0.4701  0.9698
 5369SOL    HW227744   1.118   2.532  15.499  1.2547 -1.3001  2.4089
 5370SOL     OW27745   0.544   4.186  16.122 -0.1232 -0.1777 -0.4544
 5370SOL    HW127746   0.507   4.248  16.185 -2.1359 -0.1549 -1.6439
 5370SOL    HW227747   0.539   4.102  16.167  1.0319  1.5484  2.8568
 5371SOL     OW27748   0.692   2.508   3.836  0.2167  0.2945  0.8387
 5371SOL    HW127749   0.663   2.490   3.925 -2.0421 -3.9613 -0.7122
 5371SOL    HW227750   0.787   2.517   3.846  0.4004 -0.9504  0.2120
 5372SOL     OW27751   2.323   3.535  13.348 -0.2133 -0.3506  0.3811
 5372SOL    HW127752   2.248   3.591  13.369 -1.7208 -1.4775 -2.1044
 5372SOL    HW227753   2.284   3.449  13.335 -1.0711 -0.1951  1.8872
 5373SOL     OW27754   0.822   2.952   6.873 -0.1504 -0.1045  0.8800
 5373SOL    HW127755   0.770   2.879   6.908 -1.3816  0.1291 -0.4833
 5373SOL    HW227756   0.776   2.979   6.794  2.7153 -0.9442 -1.0985
 5374SOL     OW27757   3.298   3.172  17.553 -0.2740 -0.3819 -0.2992
 5374SOL    HW127758   3.255   3.245  17.508  1.0442  0.6579  0.1105
 5374SOL    HW227759   3.376   3.170  17.498 -1.7988  1.8387 -2.5360
 5375SOL     OW27760   3.226   2.710   9.661  0.0252 -0.3209  0.0428
 5375SOL    HW127761   3.307   2.679   9.620 -1.3341 -1.0221 -2.1199
 5375SOL    HW227762   3.158   2.657   9.619 -2.0397  2.4632 -0.1208
 5376SOL     OW27763   2.221   1.458   3.388 -0.0055  0.1916  0.3285
 5376SOL    HW127764   2.258   1.532   3.339 -0.4145  0.0301 -0.2306
 5376SOL    HW227765   2.151   1.509   3.428  0.7640 -0.0950  2.0011
 5377SOL     OW27766   2.005   3.536   4.807 -0.0691 -0.0025 -0.0397
 5377SOL    HW127767   1.979   3.444   4.814  1.8561 -0.5837 -0.5696
 5377SOL    HW227768   2.058   3.545   4.886 -0.2524  1.3207 -0.0707
 5378SOL     OW27769   2.452   4.145   3.826 -0.0266  0.3817  0.1324
 5378SOL    HW127770   2.441   4.051   3.817 -0.0202  0.2455  1.6480
 5378SOL    HW227771   2.434   4.168   3.734  1.4629  2.5762  0.3710
 5379SOL     OW27772   4.131   3.698  10.256  0.5528  0.1309  0.0221
 5379SOL    HW127773   4.061   3.742  10.208 -0.9024 -2.1920  0.0240
 5379SOL    HW227774   4.093   3.640  10.321  0.8226  0.8659  0.8328
 5380SOL     OW27775   4.623   0.529   8.038  0.2191  0.5692  0.2178
 5380SOL    HW127776   4.558   0.466   8.068  0.4207  0.5183  0.5488
 5380SOL    HW227777   4.660   0.544   8.125 -0.7664 -0.1870  0.7618
 5381SOL     OW27778   0.553   3.817   4.333  0.1122 -0.0488  0.1339
 5381SOL    HW127779   0.581   3.834   4.423 -0.6614  2.2768 -0.0715
 5381SOL    HW227780   0.546   3.721   4.334  3.6522 -0.2904 -1.2114
 5382SOL     OW27781   0.736   2.619   7.442 -0.5696 -0.0080 -0.1659
 5382SOL    HW127782   0.733   2.687   7.509 -1.5159  0.7993 -1.0330
 5382SOL    HW227783   0.786   2.558   7.496 -0.6221  0.7955  0.7872
 5383SOL     OW27784   2.159   2.518   3.931  0.3236  0.7763 -0.3768
 5383SOL    HW127785   2.219   2.475   3.869  0.9853 -1.0637  1.5448
 5383SOL    HW227786   2.084   2.542   3.876 -0.8628 -1.9424  0.0069
 5384SOL     OW27787   3.623   4.094  11.066  0.0790  0.2774  0.7050
 5384SOL    HW127788   3.693   4.046  11.111  0.0557  2.2074  2.8088
 5384SOL    HW227789   3.662   4.092  10.979  2.1176 -0.7322  1.6474
 5385SOL     OW27790   3.510   2.599   4.155  0.3358  0.3164 -0.2131
 5385SOL    HW127791   3.468   2.580   4.072  0.5194  1.0748 -0.4754
 5385SOL    HW227792   3.589   2.544   4.149  1.9314  2.6271 -0.3713
 5386SOL     OW27793   0.861   0.633   5.949  0.1415 -0.3708 -0.4832
 5386SOL    HW127794   0.912   0.674   6.019  0.2352  0.0061 -0.7690
 5386SOL    HW227795   0.775   0.632   5.990  0.8145  1.4896  1.0054
 5387SOL     OW27796   1.166   4.259   1.865 -0.1318 -0.1395 -0.2184
 5387SOL    HW127797   1.164   4.285   1.957 -1.6735 -3.3150  0.6415
 5387SOL    HW227798   1.207   4.172   1.870  2.4095  0.9729 -1.5691
 5388SOL     OW27799   3.207   0.109   8.287 -0.4322  0.3101 -0.1344
 5388SOL    HW127800   3.151   0.182   8.314  0.4713  2.3535 -3.7677
 5388SOL    HW227801   3.186   0.032   8.340 -1.0312  0.3859 -0.2647
 5389SOL     OW27802   2.953   1.573   6.680 -0.2001 -0.4486 -0.0749
 5389SOL    HW127803   2.877   1.625   6.656 -0.2461 -1.4658 -2.0907
 5389SOL    HW227804   2.921   1.483   6.670 -2.0315  0.0923  0.8079
 5390SOL     OW27805   2.924   2.417  11.546  0.3228  0.2323 -0.7335
 5390SOL    HW127806   3.011   2.418  11.506  1.3200  1.5750  1.5006
 5390SOL    HW227807   2.902   2.510  11.541 -1.4563 -0.2132 -1.1059
 5391SOL     OW27808   1.317   2.744  15.148  0.5465  0.5261  0.4249
 5391SOL    HW127809   1.289   2.775  15.235  1.9835  0.5381  0.8822
 5391SOL    HW227810   1.413   2.742  15.151  0.5889 -0.9047 -2.4133
 5392SOL     OW27811   4.636   2.902   6.069  0.1800  0.4556  1.3508
 5392SOL    HW127812   4.579   2.933   6.139 -0.5044  0.1167  0.9483
 5392SOL    HW227813   4.573   2.892   5.997 -0.1628  1.1989  1.5493
 5393SOL     OW27814   1.625   0.349   7.105  0.2055  0.0392  0.3522
 5393SOL    HW127815   1.636   0.330   7.198  2.9544 -1.1787 -0.2133
 5393SOL    HW227816   1.552   0.411   7.105  0.3836  0.2504  0.2922
 5394SOL     OW27817   4.541   2.016  14.257 -0.2999  0.0502 -0.0558
 5394SOL    HW127818   4.518   2.079  14.189 -0.1183 -0.6826 -0.7946
 5394SOL    HW227819   4.590   1.952  14.205 -0.4493  0.3761 -0.5997
 5395SOL     OW27820   3.948   2.097   9.617 -0.3370  0.3513  0.5813
 5395SOL    HW127821   3.918   2.157   9.549 -0.8905 -0.1183  0.4091
 5395SOL    HW227822   3.916   2.140   9.696  1.0482  1.2266  0.6598
 5396SOL     OW27823   3.498   3.692  11.284 -0.2282 -1.0592  0.0125
 5396SOL    HW127824   3.436   3.692  11.211 -1.3417  3.3187  0.9431
 5396SOL    HW227825   3.583   3.716  11.246 -0.0973 -2.7829 -0.7638
 5397SOL     OW27826   1.391   4.075   4.717 -0.1948 -0.8837 -0.3848
 5397SOL    HW127827   1.455   4.134   4.756 -1.0489 -0.4910  0.4077
 5397SOL    HW227828   1.329   4.139   4.682  0.2687 -0.1659  0.1068
 5398SOL     OW27829   1.749   0.291   6.357 -0.2515 -0.1238 -0.9358
 5398SOL    HW127830   1.788   0.288   6.269  1.6941 -0.5535 -0.0699
 5398SOL    HW227831   1.739   0.197   6.374 -1.0250  0.2084  0.3899
 5399SOL     OW27832   0.296   0.794  13.032 -0.1286 -0.9222 -0.1883
 5399SOL    HW127833   0.389   0.798  13.057  0.5602 -0.8819 -2.7085
 5399SOL    HW227834   0.271   0.705  13.053  0.1972  0.0721  4.3986
 5400SOL     OW27835   3.096   3.501   8.478  0.4386  0.1068  0.1731
 5400SOL    HW127836   3.051   3.420   8.501 -0.0273  0.3709  0.2017
 5400SOL    HW227837   3.128   3.535   8.561 -0.4213  1.3983 -0.0241
 5401SOL     OW27838   0.499   0.559   5.982  0.4998  0.7148 -0.1450
 5401SOL    HW127839   0.444   0.483   5.961  1.3211 -0.0430  0.4396
 5401SOL    HW227840   0.517   0.595   5.895 -0.8577  2.2449  0.2017
 5402SOL     OW27841   1.416   0.219  16.689  0.5939 -0.4060 -0.4292
 5402SOL    HW127842   1.451   0.278  16.623 -0.1001  0.0888 -0.3542
 5402SOL    HW227843   1.364   0.160  16.635  0.2756 -0.2317 -0.3117
 5403SOL     OW27844   2.586   1.647   3.361 -0.1097  0.2249 -0.7740
 5403SOL    HW127845   2.619   1.726   3.319  1.8319  0.3031  0.9309
 5403SOL    HW227846   2.644   1.634   3.435 -0.2439 -0.0658 -0.7203
 5404SOL     OW27847   2.614   2.003  17.218  0.1813  0.8899 -0.0787
 5404SOL    HW127848   2.626   1.992  17.124  0.4095  1.4962 -0.1227
 5404SOL    HW227849   2.664   1.931  17.256 -1.4165  0.9098  2.0351
 5405SOL     OW27850   1.068   3.027  13.399 -0.1992  0.4235 -0.4980
 5405SOL    HW127851   1.111   3.008  13.482  0.8548 -0.7944 -1.3206
 5405SOL    HW227852   0.977   3.002  13.416  0.9808 -2.0494  2.1246
 5406SOL     OW27853   1.254   1.583   9.913  0.1093  0.0196 -0.3710
 5406SOL    HW127854   1.266   1.496   9.876 -0.2461  0.0460 -0.5401
 5406SOL    HW227855   1.175   1.606   9.865  0.4668  0.1137 -0.9154
 5407SOL     OW27856   1.638   0.006   2.176 -0.0899  0.8492 -0.2659
 5407SOL    HW127857   1.552   4.727   2.138  0.3853 -1.2275 -0.4341
 5407SOL    HW227858   1.627   0.100   2.191 -1.3056  0.5384  0.7974
 5408SOL     OW27859   0.071   2.269   3.554 -0.1371 -0.2632  0.1838
 5408SOL    HW127860   0.117   2.235   3.631 -0.5961  0.6825  0.8747
 5408SOL    HW227861   0.064   2.362   3.574 -0.3032 -0.3976  0.7724
 5409SOL     OW27862   4.577   3.774  17.043 -0.1996 -0.0540  0.4252
 5409SOL    HW127863   4.561   3.765  16.949  2.8731 -0.4082 -0.0894
 5409SOL    HW227864   4.540   3.860  17.060 -0.7244 -0.5604  1.9034
 5410SOL     OW27865   0.035   3.175   9.097  0.0830  0.3568  0.4983
 5410SOL    HW127866   4.686   3.171   9.055  1.2842 -3.1597 -1.6474
 5410SOL    HW227867   0.032   3.251   9.155  1.3450  0.6259  0.2051
 5411SOL     OW27868   2.764   4.287   3.941 -0.2909 -0.3593 -0.1152
 5411SOL    HW127869   2.744   4.371   3.982 -1.0579 -0.4305 -0.3397
 5411SOL    HW227870   2.752   4.230   4.016  0.8125 -0.7232 -0.2082
 5412SOL     OW27871   3.354   1.292  15.501  0.4125  0.0851  0.0629
 5412SOL    HW127872   3.430   1.244  15.467  0.5184  2.1016 -2.6139
 5412SOL    HW227873   3.341   1.356  15.431 -0.2180  0.4688  0.5342
 5413SOL     OW27874   0.877   2.879   2.345 -0.3445  0.1592  0.5712
 5413SOL    HW127875   0.848   2.823   2.417  0.7239  0.7438  1.4627
 5413SOL    HW227876   0.801   2.893   2.289  0.1498 -0.2258 -0.1942
 5414SOL     OW27877   4.407   2.780   5.962  0.0783 -0.4595 -0.0776
 5414SOL    HW127878   4.401   2.733   5.878 -1.3963 -0.4415  0.0250
 5414SOL    HW227879   4.381   2.716   6.029  0.1976 -1.2011 -0.7342
 5415SOL     OW27880   0.513   3.236   4.182 -0.0986  0.1935 -1.0048
 5415SOL    HW127881   0.567   3.164   4.151  0.6031  0.4435 -0.3713
 5415SOL    HW227882   0.570   3.273   4.249 -1.0595  1.5459 -0.9383
 5416SOL     OW27883   3.671   1.050   3.628 -0.6138  0.2371 -0.4325
 5416SOL    HW127884   3.722   1.013   3.700  0.9209  0.4796 -1.3931
 5416SOL    HW227885   3.639   0.968   3.592  2.0625 -1.2506  0.5312
 5417SOL     OW27886   4.395   1.804   1.940 -0.2845 -0.0108 -0.5802
 5417SOL    HW127887   4.448   1.852   2.003  1.0342 -2.7602  0.3828
 5417SOL    HW227888   4.467   1.744   1.919 -1.6129 -1.2362 -1.6817
 5418SOL     OW27889   4.030   3.561   6.620  0.6427  0.3414 -0.0254
 5418SOL    HW127890   4.030   3.583   6.527  0.1781  0.0481 -0.0964
 5418SOL    HW227891   3.982   3.637   6.654 -0.3969 -0.2037 -0.2556
 5419SOL     OW27892   2.922   4.191  12.334  0.4472  0.1293  0.0082
 5419SOL    HW127893   2.965   4.267  12.373 -0.2142  1.1948 -1.3519
 5419SOL    HW227894   2.896   4.227  12.249  2.4983 -0.4859 -0.8953
 5420SOL     OW27895   2.429   4.284  17.436 -0.2201 -0.6482 -0.0826
 5420SOL    HW127896   2.356   4.294  17.375  0.1291  1.3964 -0.1660
 5420SOL    HW227897   2.432   4.189  17.439 -0.1007 -0.6227  0.7225
 5421SOL     OW27898   1.276   2.305   9.891  0.2691 -0.1034 -0.7199
 5421SOL    HW127899   1.334   2.307   9.966  0.8107  1.0181 -1.1747
 5421SOL    HW227900   1.279   2.212   9.868  1.1598 -0.2027 -0.1885
 5422SOL     OW27901   1.735   0.483   9.388 -0.4241 -0.5116  0.5381
 5422SOL    HW127902   1.715   0.576   9.398  0.2889 -0.4682  1.5695
 5422SOL    HW227903   1.798   0.470   9.458 -0.0928 -1.1128  0.1257
 5423SOL     OW27904   3.700   1.767   8.686 -0.1908  0.0204 -0.2809
 5423SOL    HW127905   3.738   1.838   8.635 -2.3007  1.8736  0.7196
 5423SOL    HW227906   3.754   1.693   8.656  1.6129  1.6263 -1.0487
 5424SOL     OW27907   0.958   3.719   8.520  0.0922 -0.0603  0.4956
 5424SOL    HW127908   0.899   3.658   8.565  0.8952 -1.0570  0.2140
 5424SOL    HW227909   1.031   3.719   8.581 -0.1222  0.8688  0.7458
 5425SOL     OW27910   4.224   2.604  12.041 -0.8043  0.3491  0.0042
 5425SOL    HW127911   4.303   2.579  12.088 -0.5720  0.6701 -0.2192
 5425SOL    HW227912   4.153   2.584  12.103 -0.5708 -0.2426  0.0814
 5426SOL     OW27913   3.303   1.733   3.801  0.2924  0.5253  0.7228
 5426SOL    HW127914   3.325   1.642   3.779  2.8807  1.6913 -1.4700
 5426SOL    HW227915   3.347   1.774   3.727 -1.9496 -1.4600 -1.7494
 5427SOL     OW27916   3.047   0.191   3.159 -0.3700 -0.0052  0.3216
 5427SOL    HW127917   3.026   0.285   3.160 -1.7543 -0.3166  0.1630
 5427SOL    HW227918   2.984   0.155   3.098  0.1549 -0.7740  0.2341
 5428SOL     OW27919   4.614   0.893   2.451 -0.0460  0.6584  0.5505
 5428SOL    HW127920   4.692   0.940   2.422  1.1593 -2.6546 -1.5457
 5428SOL    HW227921   4.653   0.806   2.446 -1.2797  0.1683 -0.4133
 5429SOL     OW27922   3.865   4.278   3.298 -0.4415  0.5831  0.6107
 5429SOL    HW127923   3.892   4.237   3.216 -0.4578 -0.4045  1.0986
 5429SOL    HW227924   3.939   4.336   3.313 -0.8633  1.5041 -0.8822
 5430SOL     OW27925   4.676   1.994   1.224  0.1651  0.3789  0.3002
 5430SOL    HW127926   4.700   2.085   1.240  0.3532 -0.6554  5.6566
 5430SOL    HW227927   4.592   2.008   1.179  0.7612  1.7631 -0.3614
 5431SOL     OW27928   1.568   4.311   4.490 -0.1490 -0.5221  0.0719
 5431SOL    HW127929   1.524   4.227   4.478 -0.0694 -0.2569 -2.0852
 5431SOL    HW227930   1.515   4.360   4.552 -0.0310  1.2792 -1.2405
 5432SOL     OW27931   4.315   2.256  15.585 -0.4182  0.3138 -0.3959
 5432SOL    HW127932   4.306   2.291  15.673 -0.1402  0.8915 -0.5932
 5432SOL    HW227933   4.294   2.164  15.602  4.4024 -0.8089 -0.5019
 5433SOL     OW27934   1.639   4.290   6.571  0.3659  0.6897 -0.4288
 5433SOL    HW127935   1.579   4.310   6.499 -0.1527 -0.5239 -0.3353
 5433SOL    HW227936   1.614   4.203   6.602  0.3127 -0.2954 -3.2384
 5434SOL     OW27937   1.473   3.072   3.970  0.2683 -0.1793  0.0256
 5434SOL    HW127938   1.425   3.032   3.897  0.6741  0.9230 -0.8497
 5434SOL    HW227939   1.511   3.148   3.927  0.6590 -1.0006 -1.0891
 5435SOL     OW27940   3.351   3.914   3.839  0.0047  0.4599 -0.3056
 5435SOL    HW127941   3.318   3.834   3.798  1.8243  0.8906 -2.5918
 5435SOL    HW227942   3.413   3.949   3.775  0.4162 -1.6261 -1.0274
 5436SOL     OW27943   2.553   3.039   3.749 -0.1248 -0.1844  0.1753
 5436SOL    HW127944   2.514   3.126   3.757 -1.8868 -0.8673 -1.0606
 5436SOL    HW227945   2.559   3.029   3.844 -2.1917 -1.4172  0.1714
 5437SOL     OW27946   2.444   2.476   4.909 -0.0824  0.4317  0.8942
 5437SOL    HW127947   2.494   2.412   4.858 -2.3323  0.3988 -1.1932
 5437SOL    HW227948   2.438   2.431   4.994  2.7122  0.6308  1.2000
 5438SOL     OW27949   0.500   0.519   7.657  0.2739  0.1719 -0.1807
 5438SOL    HW127950   0.438   0.491   7.590 -0.0375  2.9051 -1.0443
 5438SOL    HW227951   0.481   0.461   7.731 -1.5931  1.2394  0.1901
 5439SOL     OW27952   0.525   3.031  15.221  0.2033  0.1023  0.1153
 5439SOL    HW127953   0.593   2.970  15.247 -0.0311 -0.4684 -0.5937
 5439SOL    HW227954   0.459   2.992  15.278  1.9302 -0.9949  1.3277
 5440SOL     OW27955   0.297   0.449   2.890  0.4549 -0.2856 -0.3148
 5440SOL    HW127956   0.243   0.393   2.945 -0.3072  1.1912  0.4448
 5440SOL    HW227957   0.382   0.444   2.934  0.3558 -0.0282 -0.0916
 5441SOL     OW27958   0.625   0.686   4.073  0.6678 -0.2317  0.3086
 5441SOL    HW127959   0.620   0.597   4.108 -2.6074 -1.1224 -2.4454
 5441SOL    HW227960   0.717   0.702   4.052  0.7615  0.6871  1.4481
 5442SOL     OW27961   0.462   0.437   5.156 -0.6773  0.0738  0.1998
 5442SOL    HW127962   0.488   0.396   5.074  0.0321 -0.8709  0.9075
 5442SOL    HW227963   0.406   0.373   5.200 -0.7199 -0.9774 -1.3897
 5443SOL     OW27964   1.133   4.179   7.037  0.3672  0.2498 -0.1120
 5443SOL    HW127965   1.046   4.153   7.009  0.9344 -1.7868  0.0363
 5443SOL    HW227966   1.102   4.229   7.113 -1.8500  3.0243 -2.8272
 5444SOL     OW27967   1.243   3.665   6.575 -0.0984 -0.0895  0.3586
 5444SOL    HW127968   1.264   3.690   6.665  2.4975 -1.5524  0.1623
 5444SOL    HW227969   1.321   3.611   6.562  1.8489  2.7733  0.2263
 5445SOL     OW27970   4.716   2.564   9.248  0.1096 -0.1051  0.2087
 5445SOL    HW127971   0.047   2.631   9.246  1.6210 -1.5612  3.5268
 5445SOL    HW227972   4.732   2.517   9.330 -2.5100 -0.6483  0.4055
 5446SOL     OW27973   1.691   1.415   6.519  0.5156 -0.4390  0.5391
 5446SOL    HW127974   1.776   1.379   6.495  0.0719 -1.3008  0.2658
 5446SOL    HW227975   1.709   1.502   6.553  0.7628 -0.3468  0.1581
 5447SOL     OW27976   4.503   2.326  11.549  0.2510  0.0719 -0.3799
 5447SOL    HW127977   4.554   2.292  11.475  1.3135 -1.1480  0.9059
 5447SOL    HW227978   4.415   2.350  11.519 -0.3070 -0.4435  0.8456
 5448SOL     OW27979   0.622   1.086   6.274 -0.4815 -0.0576 -0.2265
 5448SOL    HW127980   0.658   0.998   6.283 -0.0857 -0.0275 -1.5344
 5448SOL    HW227981   0.665   1.144   6.338 -0.6899 -0.9426  0.7193
 5449SOL     OW27982   0.602   3.899   8.389  0.6113  0.4742 -0.6599
 5449SOL    HW127983   0.650   3.891   8.307  0.1538  0.4056 -0.9178
 5449SOL    HW227984   0.513   3.921   8.362  1.5007  2.6256 -1.8462
 5450SOL     OW27985   4.709   1.825   2.852 -0.0544  0.8327  0.2434
 5450SOL    HW127986   0.065   1.833   2.833 -0.2068 -0.6177 -1.1233
 5450SOL    HW227987   4.674   1.913   2.838  0.0205  0.9492  0.8007
 5451SOL     OW27988   1.684   3.044   2.850 -0.0933  0.0271  0.0066
 5451SOL    HW127989   1.778   3.057   2.844  0.2022 -2.1017  0.2842
 5451SOL    HW227990   1.663   3.120   2.796 -2.1538  0.0678  0.8427
 5452SOL     OW27991   1.012   1.417   4.249  0.1499 -0.1013  0.4646
 5452SOL    HW127992   1.096   1.446   4.284 -0.0701 -0.3242  1.1695
 5452SOL    HW227993   0.958   1.478   4.299 -0.8893 -1.6753  1.2722
 5453SOL     OW27994   4.455   4.595  15.223  0.1237  0.0532 -0.0478
 5453SOL    HW127995   4.522   4.530  15.245  0.2226 -0.2772 -1.3104
 5453SOL    HW227996   4.379   4.541  15.246 -0.5079  0.7313 -0.5328
 5454SOL     OW27997   4.122   0.980  12.655 -0.5369  0.1085  0.7872
 5454SOL    HW127998   4.164   0.912  12.708  1.8367  2.5922  2.1286
 5454SOL    HW227999   4.117   1.050  12.720  0.3968  1.9592 -1.1394
 5455SOL     OW28000   2.014   4.535   7.909  0.2572 -0.0663  0.3581
 5455SOL    HW128001   2.025   4.629   7.894 -0.1575  0.1267  1.3000
 5455SOL    HW228002   2.101   4.506   7.883 -0.3115 -3.3673  2.1367
 5456SOL     OW28003   2.502   1.340   2.874 -0.0870  0.3291  0.0743
 5456SOL    HW128004   2.539   1.393   2.944 -0.2471 -0.1897  0.5498
 5456SOL    HW228005   2.574   1.356   2.812 -0.0111  2.0420  0.6032
 5457SOL     OW28006   4.398   1.334   3.450 -0.4352 -0.1589 -0.2293
 5457SOL    HW128007   4.409   1.400   3.517 -0.8442  1.3553 -1.6596
 5457SOL    HW228008   4.470   1.273   3.463 -0.8507 -0.4924  0.5078
 5458SOL     OW28009   0.900   1.938  11.491  0.0681 -0.1227  1.0310
 5458SOL    HW128010   0.852   2.020  11.508 -0.0820  0.3430 -1.6056
 5458SOL    HW228011   0.896   1.901  11.579  3.9093  0.8976  1.6061
 5459SOL     OW28012   0.058   0.195   8.564  0.0660 -0.5916  0.2301
 5459SOL    HW128013   0.069   0.290   8.566  1.2888 -0.7479  0.8970
 5459SOL    HW228014   0.136   0.171   8.614 -1.4316 -3.0843  1.4481
 5460SOL     OW28015   0.940   3.794   8.030  0.2960 -0.3846  0.2755
 5460SOL    HW128016   1.019   3.770   8.078  1.0226  2.5135  0.4976
 5460SOL    HW228017   0.973   3.847   7.958  0.4128 -1.0772 -0.1790
 5461SOL     OW28018   4.706   0.451   1.860 -0.0081 -0.3515  0.1396
 5461SOL    HW128019   0.030   0.384   1.890 -0.0139 -0.6085 -0.4275
 5461SOL    HW228020   4.625   0.402   1.848 -1.1815  1.3246  1.0741
 5462SOL     OW28021   0.715   3.264   3.037  0.1738  1.1181  0.0273
 5462SOL    HW128022   0.798   3.285   2.996  0.5262 -0.0030  0.1672
 5462SOL    HW228023   0.681   3.340   3.083  1.3348  2.7642 -1.8321
 5463SOL     OW28024   3.802   2.853  16.016 -0.2336 -0.4830  0.1280
 5463SOL    HW128025   3.735   2.818  16.074 -0.0713  1.5021  1.5395
 5463SOL    HW228026   3.812   2.794  15.942  0.6588 -1.3010  0.9003
 5464SOL     OW28027   0.157   0.520   0.054 -0.5960 -0.3082 -0.2194
 5464SOL    HW128028   0.170   0.426   0.049  0.2013 -0.3143  1.8645
 5464SOL    HW228029   0.080   0.535   0.108 -0.6595 -1.6114  0.0441
 5465SOL     OW28030   0.783   0.097   4.067  0.3946 -0.9156 -0.3466
 5465SOL    HW128031   0.795   0.004   4.084  2.4909 -0.9257 -1.9063
 5465SOL    HW228032   0.869   0.135   4.083 -1.2591  2.2898  0.9768
 5466SOL     OW28033   3.973   0.665   1.936 -0.1654  0.4896  0.2049
 5466SOL    HW128034   4.002   0.660   2.027 -0.6697  1.6937  0.4279
 5466SOL    HW228035   3.888   0.621   1.937  1.1796 -2.1340 -0.4516
 5467SOL     OW28036   3.940   4.553   5.013  0.6355 -0.1812  0.4535
 5467SOL    HW128037   3.904   4.615   4.949 -0.3114  0.4920  1.6255
 5467SOL    HW228038   4.009   4.510   4.963  1.0880  0.9296  0.1168
 5468SOL     OW28039   3.193   1.351  14.907  0.4841  0.3594 -0.2190
 5468SOL    HW128040   3.175   1.287  14.976 -1.2502 -0.3389 -1.3128
 5468SOL    HW228041   3.276   1.321  14.868 -1.4605 -1.4573 -2.9995
 5469SOL     OW28042   3.102   4.369  17.480  0.0072  0.3090  0.2439
 5469SOL    HW128043   3.143   4.388  17.395 -1.9972  1.8714 -0.3901
 5469SOL    HW228044   3.037   4.304  17.454  0.4596 -0.0114 -0.0790
 5470SOL     OW28045   4.650   2.184  15.397  0.3289 -0.1831  0.0519
 5470SOL    HW128046   0.004   2.164  15.418 -0.0328  0.1014  1.8932
 5470SOL    HW228047   4.622   2.244  15.467  1.0604 -1.3743  1.3738
 5471SOL     OW28048   0.199   2.747  10.652  0.5479  0.1573  0.0165
 5471SOL    HW128049   0.285   2.788  10.646  0.8868 -0.7223 -1.3035
 5471SOL    HW228050   0.210   2.661  10.693  0.2124 -1.1337 -2.5770
 5472SOL     OW28051   0.684   4.528  15.290 -0.3889  0.2468 -0.3973
 5472SOL    HW128052   0.755   4.492  15.343  0.2870  1.8901 -0.1773
 5472SOL    HW228053   0.608   4.504  15.342 -0.1111 -0.2724 -0.2290
 5473SOL     OW28054   0.957   3.804   6.533  0.2415  0.0693  0.4029
 5473SOL    HW128055   1.015   3.754   6.590  0.8300 -0.9819 -1.1413
 5473SOL    HW228056   1.005   3.797   6.450  0.0428 -3.4000  0.5981
 5474SOL     OW28057   2.762   1.598   3.549  0.8891  0.4185  0.1245
 5474SOL    HW128058   2.736   1.568   3.636 -3.0902 -1.8296 -1.8603
 5474SOL    HW228059   2.763   1.691   3.573 -1.7923  0.5785 -0.3629
 5475SOL     OW28060   4.317   3.864   2.289  0.1214 -0.4085  0.0644
 5475SOL    HW128061   4.281   3.789   2.241  0.3323  0.1741 -1.0160
 5475SOL    HW228062   4.263   3.934   2.253  0.0232  1.1037  3.1554
 5476SOL     OW28063   1.164   0.592   5.075  0.4045  0.3860  0.1863
 5476SOL    HW128064   1.258   0.610   5.076  0.6459 -0.8914 -3.1294
 5476SOL    HW228065   1.153   0.638   5.159 -1.1251  0.4554 -0.0576
 5477SOL     OW28066   4.185   4.294   3.619  0.2947  0.0416 -0.2296
 5477SOL    HW128067   4.103   4.275   3.664 -0.2704 -1.0652 -1.7125
 5477SOL    HW228068   4.245   4.252   3.682 -0.0086 -1.7020 -1.0933
 5478SOL     OW28069   2.331   0.366   2.610 -0.6883 -0.1616  0.2102
 5478SOL    HW128070   2.247   0.329   2.639 -0.1672 -0.6406  1.1147
 5478SOL    HW228071   2.319   0.460   2.596 -0.1930 -0.3626 -1.5799
 5479SOL     OW28072   2.214   0.281   3.917  0.5433  0.0262 -0.2789
 5479SOL    HW128073   2.208   0.364   3.964  2.2524 -0.1968  0.3306
 5479SOL    HW228074   2.141   0.297   3.858  1.6375 -1.8902 -2.1577
 5480SOL     OW28075   3.628   1.901   1.717  0.2549  0.4144  0.9481
 5480SOL    HW128076   3.611   1.975   1.775  0.7858  2.4594 -1.4820
 5480SOL    HW228077   3.722   1.916   1.707  0.2243 -0.3265 -0.4815
 5481SOL     OW28078   1.510   0.112   5.885  0.0062  0.8075 -0.1162
 5481SOL    HW128079   1.547   0.083   5.968  1.3107 -1.4359 -1.4975
 5481SOL    HW228080   1.563   0.070   5.817  0.5362  0.5815  0.4390
 5482SOL     OW28081   1.544   1.534   7.301  0.1563  0.3333  0.4228
 5482SOL    HW128082   1.556   1.627   7.320  2.2896  0.3143 -0.8653
 5482SOL    HW228083   1.554   1.502   7.391  2.3519 -2.1915 -0.7238
 5483SOL     OW28084   1.436   2.723   3.464  0.1272 -0.1025  0.6233
 5483SOL    HW128085   1.394   2.640   3.441  1.6995 -0.6908 -0.0824
 5483SOL    HW228086   1.360   2.781   3.453 -0.3070 -0.9154 -0.6301
 5484SOL     OW28087   1.631   2.154   6.375 -0.3003 -0.0139 -0.2456
 5484SOL    HW128088   1.554   2.110   6.339 -0.3491 -0.1302 -0.0059
 5484SOL    HW228089   1.647   2.116   6.462  0.5001 -0.7133 -0.7024
 5485SOL     OW28090   3.021   2.944  17.485 -0.2283 -0.1530 -0.8017
 5485SOL    HW128091   3.078   2.927  17.561 -0.2558  1.8657 -0.3431
 5485SOL    HW228092   2.999   2.854  17.460 -2.5819  0.0498  0.4984
 5486SOL     OW28093   4.619   1.198   8.470  0.4698  0.1126 -0.2076
 5486SOL    HW128094   4.667   1.245   8.538  0.3751  0.7272 -0.5612
 5486SOL    HW228095   4.656   1.236   8.390  1.7954  0.4628  0.5730
 5487SOL     OW28096   3.297   0.246   5.889 -0.2156 -0.2941 -0.4414
 5487SOL    HW128097   3.391   0.267   5.895 -0.0795 -1.2584  0.6015
 5487SOL    HW228098   3.261   0.305   5.822 -0.2807  0.2549  0.0776
 5488SOL     OW28099   3.930   2.870   4.884 -0.2119 -0.2502  0.4087
 5488SOL    HW128100   3.871   2.929   4.930 -0.4082  0.8660 -1.2761
 5488SOL    HW228101   3.947   2.924   4.807 -0.3485 -2.9105 -1.4931
 5489SOL     OW28102   3.970   1.040   2.406 -0.5063 -0.9609 -0.6561
 5489SOL    HW128103   3.956   1.134   2.401  0.4894 -0.8268 -0.9058
 5489SOL    HW228104   3.883   1.016   2.439  0.9368 -0.1047  3.7913
 5490SOL     OW28105   1.728   0.680   7.511  0.5904  0.2943 -0.0464
 5490SOL    HW128106   1.817   0.716   7.510  0.9520 -0.5851  0.8013
 5490SOL    HW228107   1.708   0.664   7.419 -0.1197  0.9758 -0.0120
 5491SOL     OW28108   2.827   1.206   2.426 -0.2391  0.3383  0.6392
 5491SOL    HW128109   2.856   1.170   2.342 -1.1771 -0.9815  0.8970
 5491SOL    HW228110   2.866   1.293   2.415 -0.7974  0.9321  3.3917
 5492SOL     OW28111   2.328   0.972  11.281 -0.0172  0.3629  0.1530
 5492SOL    HW128112   2.417   0.948  11.305  0.3842  0.1016 -1.5594
 5492SOL    HW228113   2.339   1.003  11.191  1.1743 -0.0051  0.1769
 5493SOL     OW28114   0.101   2.327  13.093  0.6447 -0.8552 -0.2382
 5493SOL    HW128115   0.016   2.286  13.080  0.0616 -0.6585  2.9013
 5493SOL    HW228116   0.078   2.395  13.157 -2.0415 -0.0897 -2.0465
 5494SOL     OW28117   4.226   2.281   2.575  0.2799 -0.2486 -0.1698
 5494SOL    HW128118   4.137   2.261   2.603 -0.1529  1.0086 -0.6259
 5494SOL    HW228119   4.254   2.356   2.627  1.0262 -1.4420  1.1227
 5495SOL     OW28120   4.145   2.439  13.233 -0.0504  0.6377  0.2740
 5495SOL    HW128121   4.054   2.412  13.250  0.1856 -1.1789 -1.3218
 5495SOL    HW228122   4.123   2.513  13.177  1.3989 -1.3427 -2.8981
 5496SOL     OW28123   2.499   4.240  12.061  0.2703 -0.4233  0.3598
 5496SOL    HW128124   2.493   4.214  11.969  0.0873  0.7203  0.0575
 5496SOL    HW228125   2.489   4.154  12.103  1.1099 -0.3241  0.7566
 5497SOL     OW28126   3.215   3.766   3.445  0.5089 -0.6000 -0.6814
 5497SOL    HW128127   3.214   3.802   3.356  0.5273 -0.3653 -0.5864
 5497SOL    HW228128   3.138   3.709   3.449  1.3953 -1.7302  0.5170
 5498SOL     OW28129   2.581   1.629   8.644  0.0819  0.9657  0.3403
 5498SOL    HW128130   2.504   1.589   8.686  1.2843 -1.0732  0.5864
 5498SOL    HW228131   2.620   1.547   8.615 -1.0351  0.0200  1.5010
 5499SOL     OW28132   2.627   0.646   7.265  0.2722  0.1646 -0.3127
 5499SOL    HW128133   2.650   0.735   7.238 -0.5313 -0.3666 -2.7416
 5499SOL    HW228134   2.699   0.606   7.216  1.4446 -0.3678  1.8723
 5500SOL     OW28135   4.325   0.459   2.656 -0.7075 -0.2409  0.5778
 5500SOL    HW128136   4.247   0.514   2.652 -0.3820  0.1064 -0.8616
 5500SOL    HW228137   4.396   0.522   2.646 -0.1465 -0.8925  0.4487
 5501SOL     OW28138   4.026   2.103  17.627 -0.0697  0.5929 -0.5247
 5501SOL    HW128139   3.954   2.040  17.633  1.5118 -1.3599 -2.0496
 5501SOL    HW228140   4.012   2.144  17.713  2.3753 -0.7984  0.5415
 5502SOL     OW28141   3.582   0.258   6.677  0.1979 -0.4252  0.0485
 5502SOL    HW128142   3.611   0.248   6.768 -2.3779 -0.8645  0.8213
 5502SOL    HW228143   3.667   0.260   6.634 -0.5576  0.9579 -1.3724
 5503SOL     OW28144   3.572   2.340   4.597 -0.2928  0.1173 -0.7164
 5503SOL    HW128145   3.660   2.326   4.561 -1.1026 -1.2269 -2.1620
 5503SOL    HW228146   3.524   2.394   4.535 -1.9033 -1.4743 -0.8477
 5504SOL     OW28147   4.579   0.736   6.232  0.1311 -0.1649 -0.1606
 5504SOL    HW128148   4.661   0.767   6.270  0.4270  0.5721 -1.4108
 5504SOL    HW228149   4.509   0.775   6.285  0.6469  0.2726  0.1965
 5505SOL     OW28150   4.049   3.024   4.208 -0.4029  0.2364  0.5679
 5505SOL    HW128151   4.116   3.053   4.271 -0.1402 -0.0716  0.4300
 5505SOL    HW228152   3.982   3.089   4.227 -2.2221 -1.6716  0.6659
 5506SOL     OW28153   1.391   3.782   4.306  0.3990  0.2518 -0.1719
 5506SOL    HW128154   1.321   3.729   4.269 -1.0623 -0.2937  3.4108
 5506SOL    HW228155   1.397   3.755   4.397  1.0176  0.3916 -0.1678
 5507SOL     OW28156   3.827   3.211   6.446  0.0336  0.3639  0.3013
 5507SOL    HW128157   3.753   3.232   6.503  0.9594  0.4766  1.4811
 5507SOL    HW228158   3.874   3.154   6.507 -1.1916  0.6296  1.4929
 5508SOL     OW28159   3.529   3.157   1.270 -0.3673 -0.1922  0.9092
 5508SOL    HW128160   3.464   3.088   1.257 -0.1925 -0.2192  0.1662
 5508SOL    HW228161   3.538   3.153   1.365  2.5537  1.6218  0.7088
 5509SOL     OW28162   4.686   2.570   5.329  0.6765 -0.1577  0.1045
 5509SOL    HW128163   4.691   2.659   5.363  0.0341 -0.7867  1.8248
 5509SOL    HW228164   4.593   2.548   5.338  0.7115  1.0173  3.2435
 5510SOL     OW28165   1.081   3.474   7.190 -0.4063 -0.2293  0.1101
 5510SOL    HW128166   1.017   3.464   7.261 -1.2458 -1.3765 -0.8102
 5510SOL    HW228167   1.138   3.398   7.191  0.7118  0.5788 -2.4028
 5511SOL     OW28168   3.396   4.160   8.815 -0.1056 -0.0562 -0.0148
 5511SOL    HW128169   3.395   4.065   8.828 -0.0047 -0.1501 -0.6874
 5511SOL    HW228170   3.376   4.162   8.721  0.6343  2.1600 -0.1134
 5512SOL     OW28171   0.691   4.311   8.753 -0.6759 -0.3162 -0.0421
 5512SOL    HW128172   0.620   4.372   8.771 -1.2781 -0.6420 -1.3377
 5512SOL    HW228173   0.702   4.279   8.842  1.3662  0.5319  0.0136
 5513SOL     OW28174   0.155   2.847   6.066  0.1203  0.3194 -0.6568
 5513SOL    HW128175   0.181   2.908   6.135 -0.3381  0.7663 -0.8834
 5513SOL    HW228176   0.060   2.855   6.078  0.2658 -0.1670  0.8773
 5514SOL     OW28177   4.706   2.389   5.088  0.1626 -0.1696 -0.1983
 5514SOL    HW128178   0.064   2.388   5.077  0.4590 -0.4179  2.2791
 5514SOL    HW228179   4.688   2.423   5.176 -0.6973 -1.4394  0.1141
 5515SOL     OW28180   2.894   2.993   2.755  0.0079 -0.0041 -0.3668
 5515SOL    HW128181   2.840   2.914   2.749 -0.0729 -0.1549  2.3416
 5515SOL    HW228182   2.967   2.964   2.810  2.1113  4.4492 -0.8195
 5516SOL     OW28183   0.289   3.240   6.037 -0.2435  0.1693 -0.2317
 5516SOL    HW128184   0.259   3.158   5.997  0.5834 -0.2449  0.0158
 5516SOL    HW228185   0.354   3.268   5.973  0.5172  1.9520  1.3288
 5517SOL     OW28186   2.158   3.467   7.969 -0.7177 -0.5265  0.0047
 5517SOL    HW128187   2.217   3.398   7.938 -0.4948 -0.0283 -0.6957
 5517SOL    HW228188   2.122   3.498   7.885  0.8249  1.7050  0.1534
 5518SOL     OW28189   0.311   3.212   8.177 -0.6055  0.1108 -0.5620
 5518SOL    HW128190   0.329   3.181   8.088  0.1557 -1.9663  0.3168
 5518SOL    HW228191   0.215   3.215   8.182 -0.5852 -2.5082  1.8437
 5519SOL     OW28192   0.735   4.679   5.710  0.0855  0.2104 -0.2209
 5519SOL    HW128193   0.736   0.035   5.732  1.5633 -0.2644  1.6461
 5519SOL    HW228194   0.646   4.657   5.737  0.3729  0.6169  1.0397
 5520SOL     OW28195   0.657   2.643  12.902  0.9802  0.1430  0.1651
 5520SOL    HW128196   0.686   2.734  12.908  1.3016  0.0100  0.6403
 5520SOL    HW228197   0.645   2.615  12.993 -0.1084 -1.1119 -0.3770
 5521SOL     OW28198   0.632   2.168  11.676 -0.2327 -0.1388 -0.1210
 5521SOL    HW128199   0.559   2.145  11.618 -0.1823  0.1101 -0.2835
 5521SOL    HW228200   0.665   2.078  11.677  2.8265  0.9737 -1.6056
 5522SOL     OW28201   4.734   1.615   9.459 -0.1592  0.3052 -0.5802
 5522SOL    HW128202   4.646   1.651   9.467 -1.1491 -1.9565 -1.1659
 5522SOL    HW228203   0.036   1.646   9.541  0.0885  1.7964 -1.2766
 5523SOL     OW28204   2.451   3.474   9.524 -0.6723  0.2270  0.2724
 5523SOL    HW128205   2.379   3.417   9.553 -0.8267  0.6118  0.6514
 5523SOL    HW228206   2.460   3.515   9.610 -0.6700 -2.2467  1.4252
 5524SOL     OW28207   2.668   2.781   6.849  0.1273  0.2220 -0.2884
 5524SOL    HW128208   2.707   2.783   6.762  2.1404 -3.5243  0.5544
 5524SOL    HW228209   2.585   2.827   6.830 -0.2057  0.6763  2.2235
 5525SOL     OW28210   3.520   0.137  14.430  0.2032 -0.2359  0.0829
 5525SOL    HW128211   3.592   0.074  14.433 -0.8630 -1.5161 -1.2668
 5525SOL    HW228212   3.578   0.211  14.411  1.0744 -1.2401 -1.2047
 5526SOL     OW28213   3.538   1.928   0.476 -0.8753 -0.5519  0.5108
 5526SOL    HW128214   3.571   1.841   0.454 -0.3900 -0.2071 -0.1093
 5526SOL    HW228215   3.534   1.969   0.389  0.4297 -0.1601  0.6460
 5527SOL     OW28216   2.649   1.870  10.715  0.3221  0.3245  0.3891
 5527SOL    HW128217   2.727   1.925  10.705 -0.9850  1.8941 -1.2941
 5527SOL    HW228218   2.595   1.923  10.773 -1.3835  1.0411 -1.8348
 5528SOL     OW28219   1.379   2.513   7.970 -0.2381  0.2338  0.4246
 5528SOL    HW128220   1.359   2.606   7.955  0.2320  0.2753  0.0531
 5528SOL    HW228221   1.471   2.506   7.943 -0.6954 -0.4639 -0.9585
 5529SOL     OW28222   4.548   1.626  13.961 -0.3659  0.1779  0.2809
 5529SOL    HW128223   4.578   1.535  13.967 -0.7199  0.0593  0.2579
 5529SOL    HW228224   4.454   1.612  13.952  0.0344 -0.8472 -2.3070
 5530SOL     OW28225   0.302   1.075  13.022 -0.3991 -0.6872 -0.4024
 5530SOL    HW128226   0.397   1.075  13.035 -0.3505  2.1524 -0.7760
 5530SOL    HW228227   0.296   0.981  13.040 -1.7884 -0.2722  1.2494
 5531SOL     OW28228   3.857   1.399   3.715 -0.2198  0.1845 -0.1611
 5531SOL    HW128229   3.841   1.363   3.802 -0.0548 -0.4364 -0.3883
 5531SOL    HW228230   3.949   1.415   3.734 -0.6767  1.0073  1.3037
 5532SOL     OW28231   4.511   2.585   7.196 -0.3496 -0.4018  0.6898
 5532SOL    HW128232   4.480   2.675   7.182  1.8691  0.5198  1.7068
 5532SOL    HW228233   4.433   2.538   7.224 -0.0252 -0.8391  0.8426
 5533SOL     OW28234   3.671   1.083   4.979 -0.5030 -0.0195  0.4516
 5533SOL    HW128235   3.701   1.037   4.900 -1.9786  0.9016 -0.6258
 5533SOL    HW228236   3.744   1.142   4.996  0.1695 -0.3034 -1.3830
 5534SOL     OW28237   1.498   3.668  10.423 -0.4233  0.8977 -0.1555
 5534SOL    HW128238   1.441   3.744  10.430 -2.2710 -0.3576 -1.2210
 5534SOL    HW228239   1.554   3.696  10.351  0.4446  0.2060  0.2566
 5535SOL     OW28240   4.215   0.724   4.651 -0.0646 -0.4129  0.1387
 5535SOL    HW128241   4.189   0.763   4.567 -1.3897 -1.4083  0.0787
 5535SOL    HW228242   4.298   0.679   4.636  0.6504  0.9820 -0.0040
 5536SOL     OW28243   1.701   3.683   8.838 -0.1065 -0.3391  0.0628
 5536SOL    HW128244   1.726   3.639   8.919 -0.3925 -0.5805  0.0175
 5536SOL    HW228245   1.778   3.740   8.828  0.5373 -1.1533  0.3320
 5537SOL     OW28246   0.654   1.390  11.932  0.1425  0.1283 -0.2331
 5537SOL    HW128247   0.728   1.420  11.880 -0.8337  0.9092 -1.1728
 5537SOL    HW228248   0.700   1.341  12.000 -2.1943 -1.3476  0.2993
 5538SOL     OW28249   4.681   3.969  15.714 -0.3815 -0.2534  0.5854
 5538SOL    HW128250   0.023   3.946  15.761  2.0262  1.6931 -2.5240
 5538SOL    HW228251   4.647   4.043  15.764 -0.6656  1.0800 -1.5715
 5539SOL     OW28252   0.693   4.414  11.709 -0.0894 -0.4510 -0.2924
 5539SOL    HW128253   0.699   4.358  11.787  1.1162 -0.7587 -0.6111
 5539SOL    HW228254   0.613   4.372  11.676  0.4181 -0.8773 -0.9806
 5540SOL     OW28255   2.301   2.804  17.262 -0.0447  0.0339  0.2073
 5540SOL    HW128256   2.276   2.773  17.349 -0.3817 -0.0113  0.0936
 5540SOL    HW228257   2.294   2.898  17.276  1.9339 -0.1374  2.3923
 5541SOL     OW28258   4.339   3.277  17.678  0.2204 -0.5491  0.7035
 5541SOL    HW128259   4.403   3.341  17.646 -0.3183 -0.1072  0.4986
 5541SOL    HW228260   4.293   3.269  17.595  2.2930 -0.1959 -0.4912
 5542SOL     OW28261   0.537   4.587   2.977  0.0199  0.2904  0.2940
 5542SOL    HW128262   0.482   4.519   2.939  1.3509  0.0865 -1.2728
 5542SOL    HW228263   0.620   4.540   2.980  0.9438  1.8177 -1.1032
 5543SOL     OW28264   2.515   3.641  13.125  0.7549  0.2424  0.4998
 5543SOL    HW128265   2.454   3.601  13.187  1.7635 -0.8843  0.7720
 5543SOL    HW228266   2.589   3.583  13.142  1.4780  1.0105 -0.0637
 5544SOL     OW28267   3.611   2.692  16.160 -0.2646  0.0577 -0.2306
 5544SOL    HW128268   3.642   2.603  16.142 -2.1692 -1.2162  2.6675
 5544SOL    HW228269   3.559   2.677  16.239  0.9508  0.3826  0.6262
 5545SOL     OW28270   2.587   2.993   7.932 -0.1212 -0.1385 -0.3248
 5545SOL    HW128271   2.496   2.963   7.940 -0.5192  0.9306 -0.8102
 5545SOL    HW228272   2.615   2.995   8.024  2.0205  2.2606 -1.0569
 5546SOL     OW28273   3.294   2.442   1.120  0.0085  0.0520 -0.1026
 5546SOL    HW128274   3.239   2.456   1.197  1.1018  0.3410  0.6343
 5546SOL    HW228275   3.269   2.351   1.102 -1.7538  0.2900  1.1647
 5547SOL     OW28276   3.235   0.600   3.889 -0.1535 -0.2524  0.6015
 5547SOL    HW128277   3.190   0.649   3.958 -1.5263 -0.5918 -0.0425
 5547SOL    HW228278   3.312   0.568   3.935  1.0873 -0.6891 -1.7649
 5548SOL     OW28279   2.216   0.300   4.694  0.0000 -0.2580 -0.2527
 5548SOL    HW128280   2.281   0.250   4.744 -0.8112 -0.3335  0.7321
 5548SOL    HW228281   2.163   0.235   4.648  0.7210 -1.7663  1.0484
 5549SOL     OW28282   3.398   4.293  16.520  0.8451 -0.3419  0.1338
 5549SOL    HW128283   3.422   4.205  16.550 -0.1686 -0.5806  0.2537
 5549SOL    HW228284   3.484   4.334  16.524  0.3428  0.5886  1.2044
 5550SOL     OW28285   4.165   1.387  15.947 -0.1938 -0.3301  0.1528
 5550SOL    HW128286   4.178   1.458  16.010 -1.4513 -0.8224  0.9717
 5550SOL    HW228287   4.232   1.322  15.967 -0.7058 -0.2546  2.1213
 5551SOL     OW28288   3.638   3.420   0.658  0.1430 -0.2202 -0.3719
 5551SOL    HW128289   3.613   3.461   0.741 -0.0734  2.1208 -1.6115
 5551SOL    HW228290   3.552   3.406   0.617  0.0201 -0.8247  0.0836
 5552SOL     OW28291   3.730   1.244   6.428 -0.2685 -0.2098  0.4470
 5552SOL    HW128292   3.668   1.307   6.390  1.5239  1.4986  0.3307
 5552SOL    HW228293   3.693   1.234   6.516 -2.2645 -1.7417 -0.5889
 5553SOL     OW28294   3.227   0.887   9.937 -0.0738 -0.1344 -0.0874
 5553SOL    HW128295   3.320   0.863   9.940 -0.4545 -1.6968 -0.8868
 5553SOL    HW228296   3.188   0.804   9.966 -1.1539  0.7933  1.1151
 5554SOL     OW28297   3.627   1.492   5.669 -0.2901 -0.4612 -0.3992
 5554SOL    HW128298   3.602   1.537   5.588  0.9867 -0.9574 -1.0729
 5554SOL    HW228299   3.556   1.428   5.673  0.3939 -1.1228  0.8788
 5555SOL     OW28300   2.481   3.220   4.323  0.1620 -0.0838  0.0128
 5555SOL    HW128301   2.522   3.207   4.237  2.2803  1.1756  0.8488
 5555SOL    HW228302   2.487   3.314   4.339  2.1679 -0.0519 -0.9487
 5556SOL     OW28303   3.750   1.471   0.973 -0.0506 -0.5480  0.1578
 5556SOL    HW128304   3.771   1.379   0.984 -1.4047 -0.8740  0.0761
 5556SOL    HW228305   3.795   1.510   1.048  0.7459 -1.2314  0.0337
 5557SOL     OW28306   2.013   2.436  14.916 -0.1940 -0.1839 -0.4667
 5557SOL    HW128307   2.080   2.371  14.896 -0.5017 -0.2808 -1.1854
 5557SOL    HW228308   2.052   2.523  14.909  0.4719 -0.6305 -2.0292
 5558SOL     OW28309   2.309   1.092   4.788  0.3028 -0.5793 -0.2255
 5558SOL    HW128310   2.253   1.170   4.787  2.5524  1.0235 -0.6538
 5558SOL    HW228311   2.355   1.097   4.705  0.4987  1.0259 -0.0298
 5559SOL     OW28312   2.251   2.365   1.659  0.0281 -0.2524 -0.0204
 5559SOL    HW128313   2.309   2.427   1.704 -1.1486  0.5549  0.3789
 5559SOL    HW228314   2.213   2.336   1.742 -1.0362 -0.4400 -0.5778
 5560SOL     OW28315   2.354   3.246   5.826  0.3486  0.0743  0.4639
 5560SOL    HW128316   2.321   3.197   5.751 -0.9796 -0.3720  1.3298
 5560SOL    HW228317   2.271   3.256   5.872 -0.3905 -0.7020 -0.7197
 5561SOL     OW28318   2.480   1.195   7.179 -0.1622 -0.2711 -0.6886
 5561SOL    HW128319   2.548   1.262   7.169 -0.5948  0.6528  2.4967
 5561SOL    HW228320   2.440   1.219   7.263  1.7494  1.8955 -0.3919
 5562SOL     OW28321   1.133   3.493   1.151  0.3318 -0.4668 -0.1445
 5562SOL    HW128322   1.143   3.585   1.128 -1.3875 -0.5965 -1.4508
 5562SOL    HW228323   1.104   3.451   1.070  1.3532 -1.6421  0.1098
 5563SOL     OW28324   0.213   0.428   5.739 -0.0547  0.0755 -0.6889
 5563SOL    HW128325   0.174   0.483   5.807 -2.2963 -1.1415 -0.9805
 5563SOL    HW228326   0.220   0.488   5.664 -0.1602 -0.1950 -0.9154
 5564SOL     OW28327   2.566   0.971   4.178  0.5434 -0.3890 -0.2645
 5564SOL    HW128328   2.538   0.967   4.269  1.2716  0.7638  0.0122
 5564SOL    HW228329   2.492   1.015   4.135 -0.2829  0.3759  1.9640
 5565SOL     OW28330   2.481   3.299   5.266  0.3148  0.1828 -0.3517
 5565SOL    HW128331   2.541   3.334   5.332  1.1107 -0.6756 -0.6147
 5565SOL    HW228332   2.520   3.215   5.240 -0.8527 -0.6994  0.7728
 5566SOL     OW28333   1.426   3.333   2.133  0.7064  0.2896  0.5274
 5566SOL    HW128334   1.349   3.355   2.186 -0.9778 -0.2365 -1.7080
 5566SOL    HW228335   1.463   3.420   2.120  2.2628 -0.1423  1.9874
 5567SOL     OW28336   0.377   2.824  16.863  0.4306  0.0929 -1.2201
 5567SOL    HW128337   0.421   2.751  16.907  1.9064  0.8884 -1.3952
 5567SOL    HW228338   0.313   2.770  16.816 -1.5548  1.8954 -0.5965
 5568SOL     OW28339   0.047   0.167   5.511  0.3906  0.4502  0.1296
 5568SOL    HW128340   0.029   0.259   5.492  2.3013  1.2283  2.0581
 5568SOL    HW228341   0.040   0.180   5.606  3.8001  1.5250  0.2530
 5569SOL     OW28342   0.018   2.868   5.346 -0.8844  0.4599 -0.0643
 5569SOL    HW128343   0.101   2.915   5.357 -0.7150  0.3775 -0.9096
 5569SOL    HW228344   4.706   2.921   5.283  0.1418 -0.0430 -1.2926
 5570SOL     OW28345   2.405   4.621  17.367  0.8811 -0.2393 -0.3183
 5570SOL    HW128346   2.349   4.662  17.301  1.6806 -0.6030 -1.2242
 5570SOL    HW228347   2.343   4.553  17.391 -0.3980  0.8657 -0.5135
 5571SOL     OW28348   0.245   1.546  16.057  0.4130  0.3017  0.0849
 5571SOL    HW128349   0.220   1.454  16.071 -0.0003 -0.1207 -3.4796
 5571SOL    HW228350   0.194   1.592  16.123  1.4912  0.0650  1.0835
 5572SOL     OW28351   1.056   4.105  14.026 -0.6008 -0.3459  0.4280
 5572SOL    HW128352   1.044   4.096  14.121  0.5781 -1.3090  0.4878
 5572SOL    HW228353   0.992   4.173  14.005  1.0469  0.7085 -1.2116
 5573SOL     OW28354   0.712   3.399   4.693  0.1480  0.0789 -0.1331
 5573SOL    HW128355   0.803   3.369   4.688 -0.4252 -1.7351  0.5779
 5573SOL    HW228356   0.721   3.492   4.716  0.0193 -0.0651  0.4892
 5574SOL     OW28357   4.355   0.129   5.319 -0.3084  0.7091 -0.1121
 5574SOL    HW128358   4.414   0.108   5.392  1.3117  0.9919 -1.3473
 5574SOL    HW228359   4.347   0.223   5.309  0.4019  0.7428 -0.3160
 5575SOL     OW28360   2.507   0.342   8.707  0.6585  0.3863 -0.0997
 5575SOL    HW128361   2.423   0.300   8.693  0.1074  1.3646  0.2559
 5575SOL    HW228362   2.545   0.277   8.767  0.6262  1.6293  1.2775
 5576SOL     OW28363   4.728   0.614   8.362 -0.0233 -0.0508 -0.5062
 5576SOL    HW128364   4.711   0.665   8.441 -0.5121 -0.1707 -0.5365
 5576SOL    HW228365   4.688   0.534   8.398 -0.5338 -0.6367 -2.3643
 5577SOL     OW28366   3.758   3.500   6.826  0.1034 -0.1367 -0.0333
 5577SOL    HW128367   3.669   3.524   6.855 -0.5957 -2.7553 -0.0747
 5577SOL    HW228368   3.796   3.585   6.803  0.8146  0.1365  2.2013
 5578SOL     OW28369   3.859   0.311   5.660  0.1307  0.5284 -0.3754
 5578SOL    HW128370   3.858   0.336   5.567  2.0900  0.9182 -0.2967
 5578SOL    HW228371   3.845   0.217   5.652  1.9716  0.1884  0.3772
 5579SOL     OW28372   0.655   2.111  13.294 -0.1840  0.2593  0.4974
 5579SOL    HW128373   0.601   2.134  13.369 -0.6748  0.2455  0.1464
 5579SOL    HW228374   0.742   2.111  13.335 -0.0901 -0.9569  0.3194
 5580SOL     OW28375   3.156   2.604   2.352 -1.0773  0.6593 -0.0997
 5580SOL    HW128376   3.172   2.681   2.406  0.5295 -0.3379  0.8674
 5580SOL    HW228377   3.188   2.632   2.266  1.3729  1.0370  0.9302
 5581SOL     OW28378   0.991   0.673   4.329  0.4065  1.2147  0.1831
 5581SOL    HW128379   1.032   0.626   4.401  0.1540 -0.3399 -0.6824
 5581SOL    HW228380   1.059   0.735   4.302  0.7517 -0.0035 -1.7391
 5582SOL     OW28381   2.294   1.525   2.766  0.2112 -0.6422 -0.5054
 5582SOL    HW128382   2.358   1.573   2.714 -0.3291  0.6211 -0.0102
 5582SOL    HW228383   2.335   1.439   2.774 -1.5015 -1.6735 -2.6457
 5583SOL     OW28384   1.344   1.300  12.657  0.4744  0.0317  0.6835
 5583SOL    HW128385   1.371   1.225  12.604  1.2085  1.1925 -0.5951
 5583SOL    HW228386   1.386   1.371  12.607  0.2313 -0.2299  0.1009
 5584SOL     OW28387   1.947   1.480   4.295 -0.0903 -0.4892  0.3408
 5584SOL    HW128388   1.871   1.483   4.353 -0.3896 -0.8256 -0.0277
 5584SOL    HW228389   1.910   1.445   4.214  0.0951  1.6786 -0.6793
 5585SOL     OW28390   0.154   4.576   8.654  0.0045 -0.0900 -0.3295
 5585SOL    HW128391   0.164   4.638   8.726 -0.4124  0.4382 -0.7230
 5585SOL    HW228392   0.127   4.633   8.582  0.5617  0.5231 -0.0571
 5586SOL     OW28393   2.775   0.083   8.580  0.3853 -0.2965  0.4222
 5586SOL    HW128394   2.868   0.063   8.584  0.3170 -0.8907 -1.0043
 5586SOL    HW228395   2.786   0.150   8.648 -0.3045 -0.5611  0.8013
 5587SOL     OW28396   4.734   0.299   6.511  0.7034 -0.8156 -0.3369
 5587SOL    HW128397   0.085   0.335   6.507  0.7260 -0.7486  0.7707
 5587SOL    HW228398   0.020   0.209   6.534  0.5218 -0.8221 -0.1824
 5588SOL     OW28399   3.994   3.935   2.281  0.6793 -0.2242 -0.2343
 5588SOL    HW128400   4.032   3.885   2.209 -0.9604  0.8240 -1.7936
 5588SOL    HW228401   4.048   4.013   2.271 -0.8989  0.9292  0.2728
 5589SOL     OW28402   0.869   4.062   5.874  0.2438  0.3704 -0.6229
 5589SOL    HW128403   0.921   4.054   5.794  0.2771 -0.3630 -0.5290
 5589SOL    HW228404   0.913   3.995   5.927  1.1100  0.5838 -1.0773
 5590SOL     OW28405   3.815   0.617   6.114  0.0062 -0.0380  0.7204
 5590SOL    HW128406   3.781   0.552   6.175 -4.9884  0.2101 -1.7951
 5590SOL    HW228407   3.821   0.563   6.035  1.3959  0.3318  0.5731
 5591SOL     OW28408   2.508   0.870   3.304 -0.0719  0.3117 -0.0623
 5591SOL    HW128409   2.417   0.844   3.291 -0.3767  0.7829  1.2255
 5591SOL    HW228410   2.509   0.962   3.280  0.3003  0.6842  1.3953
 5592SOL     OW28411   4.194   3.171   1.354  0.2151 -0.5593  0.0856
 5592SOL    HW128412   4.258   3.242   1.346  0.3750 -0.8237 -1.0023
 5592SOL    HW228413   4.141   3.175   1.275 -0.0220 -1.1725  0.2108
 5593SOL     OW28414   0.758   4.629  15.972  0.3837  0.2422  1.5539
 5593SOL    HW128415   0.735   4.536  15.976 -2.1859  0.7615 -0.8828
 5593SOL    HW228416   0.851   4.613  15.955  0.1351  0.0114  0.4244
 5594SOL     OW28417   4.380   0.889   8.986  0.0057 -0.2142 -0.7801
 5594SOL    HW128418   4.446   0.958   8.982 -0.5184  0.3376  0.3540
 5594SOL    HW228419   4.394   0.846   8.902 -0.0295 -3.5517  0.9236
 5595SOL     OW28420   1.831   2.851   3.926 -0.1000  0.4769 -0.4177
 5595SOL    HW128421   1.874   2.936   3.936  0.1981  0.3776 -0.8505
 5595SOL    HW228422   1.779   2.847   4.006  0.3034  1.4170 -0.1079
 5596SOL     OW28423   0.031   1.747   4.622  0.0724 -0.5059 -0.1282
 5596SOL    HW128424   0.065   1.745   4.711 -0.4456  0.0117  0.0868
 5596SOL    HW228425   4.713   1.825   4.632  0.4850 -0.3813  1.1237
 5597SOL     OW28426   0.038   2.204   0.850 -0.1339  0.4011  0.2970
 5597SOL    HW128427   0.017   2.257   0.773  0.9090  0.6920  0.2058
 5597SOL    HW228428   4.702   2.144   0.860 -1.3604  2.0326  1.2752
 5598SOL     OW28429   4.076   0.653   6.825 -0.4954 -0.5044 -0.1066
 5598SOL    HW128430   3.988   0.617   6.826 -1.6104  2.2368  0.3207
 5598SOL    HW228431   4.129   0.581   6.860  0.8188 -0.2761 -1.6343
 5599SOL     OW28432   2.694   0.933   5.556 -0.3588  0.0670 -0.4118
 5599SOL    HW128433   2.705   0.864   5.621  1.9732 -1.2433 -2.2079
 5599SOL    HW228434   2.718   0.888   5.475  0.6054 -0.6697  0.2754
 5600SOL     OW28435   1.063   4.597   8.083  0.2702 -0.3137 -0.3718
 5600SOL    HW128436   1.023   4.647   8.154 -3.2965 -3.5077 -0.0966
 5600SOL    HW228437   1.155   4.611   8.105  0.3443 -0.6426 -0.4724
 5601SOL     OW28438   3.091   2.217  13.336 -0.3322 -0.5596  0.0868
 5601SOL    HW128439   3.130   2.155  13.274 -1.8525 -1.0019 -0.4297
 5601SOL    HW228440   3.063   2.288  13.279  0.0874  0.9054  1.6938
 5602SOL     OW28441   0.210   3.112  15.820 -0.6262 -0.2758 -0.4599
 5602SOL    HW128442   0.245   3.029  15.852  0.8158  0.5112  0.0042
 5602SOL    HW228443   0.285   3.172  15.812 -0.9413  0.3345  1.1274
 5603SOL     OW28444   4.295   2.451   4.904  0.4366  0.6603 -1.0067
 5603SOL    HW128445   4.274   2.543   4.893 -0.6603  0.2327 -2.5592
 5603SOL    HW228446   4.218   2.422   4.954  0.9037  0.3113 -0.4904
 5604SOL     OW28447   4.070   2.752   7.998  0.6230  0.0757 -0.4906
 5604SOL    HW128448   4.139   2.810   8.032  1.7459 -1.1326 -0.7038
 5604SOL    HW228449   4.010   2.773   8.070  0.3139  0.8676 -0.9788
 5605SOL     OW28450   0.554   2.572   8.094  0.2229  0.0158 -0.3852
 5605SOL    HW128451   0.481   2.630   8.114  1.1117  0.2165  2.2664
 5605SOL    HW228452   0.522   2.484   8.112  0.5868 -0.3145 -1.3559
 5606SOL     OW28453   3.726   0.077   8.470 -0.2431 -0.0045  0.0006
 5606SOL    HW128454   3.715   4.724   8.438  3.0674 -0.8262  1.1479
 5606SOL    HW228455   3.637   0.090   8.504 -1.7319  0.1880 -4.0203
 5607SOL     OW28456   0.719   3.397   2.360 -0.5897 -0.1474  0.2686
 5607SOL    HW128457   0.655   3.468   2.353 -1.9490 -1.3263  0.6282
 5607SOL    HW228458   0.664   3.325   2.329  0.9050 -1.1182 -0.1325
 5608SOL     OW28459   0.630   3.847   3.037  0.3974  0.3891 -0.3551
 5608SOL    HW128460   0.596   3.929   3.073 -0.0466  0.2371 -0.4337
 5608SOL    HW228461   0.591   3.843   2.950 -2.4367  1.6545  0.8673
 5609SOL     OW28462   3.346   3.850   1.972  0.0930  0.1561  0.1244
 5609SOL    HW128463   3.354   3.914   1.901 -0.1777 -0.6792 -0.6643
 5609SOL    HW228464   3.397   3.772   1.951 -0.2559  0.1037 -0.5154
 5610SOL     OW28465   2.613   0.119   7.830  0.2873 -0.3497  0.1905
 5610SOL    HW128466   2.613   0.168   7.748 -1.5080 -0.1700  0.3040
 5610SOL    HW228467   2.703   0.086   7.828  0.5265  0.3709 -0.6744
 5611SOL     OW28468   2.744   2.693   9.064 -0.6107  0.0266  0.6645
 5611SOL    HW128469   2.690   2.627   9.020  2.4317  0.7835 -4.1822
 5611SOL    HW228470   2.750   2.658   9.153 -0.2917 -1.0630  0.2189
 5612SOL     OW28471   0.425   0.043   3.922  0.8422 -0.7971  0.5147
 5612SOL    HW128472   0.454   0.014   3.835  0.5904 -0.1900  0.2302
 5612SOL    HW228473   0.403   4.706   3.979 -0.2859 -0.1882  0.8620
 5613SOL     OW28474   2.742   0.746   5.742  0.5559  0.0136  0.2571
 5613SOL    HW128475   2.713   0.656   5.757  0.3474 -0.3695 -2.3948
 5613SOL    HW228476   2.834   0.731   5.719  0.1754 -1.9619  0.0096
 5614SOL     OW28477   3.195   0.976   1.180  0.8403 -0.1657 -0.1144
 5614SOL    HW128478   3.240   0.923   1.246  1.3980  0.5233  0.0572
 5614SOL    HW228479   3.144   1.030   1.241  0.1995 -0.2334 -0.5789
 5615SOL     OW28480   2.640   3.062  12.107  0.2534  0.5280  0.1966
 5615SOL    HW128481   2.595   2.978  12.111  3.2532 -1.0523  1.0947
 5615SOL    HW228482   2.733   3.038  12.100  0.9258  2.9374  1.0156
 5616SOL     OW28483   0.298   2.415   4.546 -0.6899  0.4443  0.0492
 5616SOL    HW128484   0.354   2.392   4.619  2.0746  0.5712 -2.0227
 5616SOL    HW228485   0.265   2.502   4.568 -2.1242  0.8824 -3.7121
 5617SOL     OW28486   3.851   3.316   0.759 -0.1128  0.0981  0.2098
 5617SOL    HW128487   3.768   3.347   0.724 -0.4006  2.0678  2.6613
 5617SOL    HW228488   3.918   3.348   0.699  0.6817 -0.5658  0.7310
 5618SOL     OW28489   0.024   1.092   2.680 -0.0194  0.2325 -0.6183
 5618SOL    HW128490   4.718   1.006   2.681 -0.3667  0.4034 -1.1102
 5618SOL    HW228491   4.728   1.138   2.757  2.8792 -0.8061  1.2263
 5619SOL     OW28492   4.200   1.893  17.746  0.0093 -0.2890  0.1351
 5619SOL    HW128493   4.258   1.918   0.072 -1.6098  2.6040  0.4177
 5619SOL    HW228494   4.179   1.983  17.721 -1.5024 -1.4098 -2.4746
 5620SOL     OW28495   1.761   2.828   6.205  0.3149 -0.3570 -0.5828
 5620SOL    HW128496   1.807   2.860   6.283  2.0382  2.1984 -2.6659
 5620SOL    HW228497   1.751   2.738   6.235  1.4351 -0.5536 -0.8052
 5621SOL     OW28498   1.500   4.664   1.687 -0.1281  0.5189  0.2359
 5621SOL    HW128499   1.463   4.596   1.743 -0.1920  0.5030  0.1733
 5621SOL    HW228500   1.559   4.711   1.746 -2.1609  0.4678  2.3131
 5622SOL     OW28501   0.278   4.570  11.558 -0.3080 -0.0437 -0.0288
 5622SOL    HW128502   0.300   4.525  11.640  1.8357  0.2455 -0.4359
 5622SOL    HW228503   0.244   4.505  11.497 -0.4692  0.1536 -0.1475
 5623SOL     OW28504   3.373   1.490   8.908  0.2245 -0.2265  0.5765
 5623SOL    HW128505   3.417   1.559   8.858  0.4864 -0.3347  0.6540
 5623SOL    HW228506   3.306   1.463   8.846  1.0330 -0.3632 -0.2463
 5624SOL     OW28507   0.967   4.187   4.857 -1.0487 -0.1167 -0.3027
 5624SOL    HW128508   1.017   4.112   4.889  1.6857  1.7630 -0.2092
 5624SOL    HW228509   0.905   4.147   4.797 -0.4790 -1.4744  0.0006
 5625SOL     OW28510   4.481   2.645   3.279 -0.4682 -0.6788 -0.3052
 5625SOL    HW128511   4.503   2.667   3.369  1.5884 -0.4230 -0.8677
 5625SOL    HW228512   4.408   2.585   3.294 -2.3082  1.0652 -2.2759
 5626SOL     OW28513   0.784   2.067   3.454  0.3475  0.0661  0.1008
 5626SOL    HW128514   0.811   2.109   3.372  0.2612 -0.3165 -0.1277
 5626SOL    HW228515   0.851   1.999   3.457  2.7951  2.5354  1.0064
 5627SOL     OW28516   1.187   4.484  10.726  0.4979  0.2720 -1.1336
 5627SOL    HW128517   1.202   4.411  10.787 -0.4623  0.4201 -0.7267
 5627SOL    HW228518   1.176   4.556  10.788 -0.6158  0.0128 -1.0228
 5628SOL     OW28519   2.776   2.155  12.143 -0.0736 -0.3925 -0.0206
 5628SOL    HW128520   2.762   2.207  12.222 -2.3328 -0.5990 -0.2867
 5628SOL    HW228521   2.703   2.094  12.142  0.0477 -0.5492  1.3136
 5629SOL     OW28522   2.018   2.674   9.024  0.2085  0.1130 -0.1522
 5629SOL    HW128523   1.993   2.664   8.932 -1.7051  2.6372  0.0837
 5629SOL    HW228524   2.008   2.583   9.052 -0.9889  0.1345 -0.5257
 5630SOL     OW28525   4.524   2.425   2.654 -0.0248 -0.1349  0.4773
 5630SOL    HW128526   4.561   2.381   2.731  1.5462  2.6981  1.3784
 5630SOL    HW228527   4.512   2.349   2.597 -1.8187  0.7140 -0.2750
 5631SOL     OW28528   3.187   4.560   4.077  0.4308 -0.0174  0.1199
 5631SOL    HW128529   3.262   4.601   4.119  0.3265  1.7331 -1.3937
 5631SOL    HW228530   3.228   4.506   4.010  1.1383 -1.3318  1.6190
 5632SOL     OW28531   4.008   2.239  15.123 -0.2177  0.5259  0.3860
 5632SOL    HW128532   3.997   2.296  15.199  4.7228 -0.1183  1.5675
 5632SOL    HW228533   4.083   2.192  15.160  0.7462  0.6605 -1.3952
 5633SOL     OW28534   2.372   2.658   3.208 -0.4710 -0.5587  0.2501
 5633SOL    HW128535   2.373   2.685   3.117 -1.9177 -0.3258  0.3160
 5633SOL    HW228536   2.284   2.621   3.215  0.1492 -2.1119 -0.1569
 5634SOL     OW28537   2.819   3.184   5.058 -0.5129 -0.4935 -0.1609
 5634SOL    HW128538   2.816   3.266   5.009 -3.2159 -0.3634  0.1879
 5634SOL    HW228539   2.899   3.196   5.109 -0.8325  0.5036  0.1121
 5635SOL     OW28540   3.942   3.626  13.747 -0.0789 -0.1142 -0.5282
 5635SOL    HW128541   4.019   3.660  13.791  1.7057 -2.4342 -1.8549
 5635SOL    HW228542   3.946   3.535  13.776 -0.7698  1.1154  3.3323
 5636SOL     OW28543   4.501   2.458   3.727  0.4564  0.4887 -0.0132
 5636SOL    HW128544   4.497   2.363   3.717 -0.6786  0.5206  0.1360
 5636SOL    HW228545   4.553   2.460   3.808  1.5992 -1.1423 -0.7087
 5637SOL     OW28546   4.360   2.839   3.060 -0.6145  0.4158 -0.2470
 5637SOL    HW128547   4.294   2.803   3.000 -1.0681  1.6865 -0.5093
 5637SOL    HW228548   4.440   2.800   3.027 -0.8892  1.0428 -1.6544
 5638SOL     OW28549   3.794   0.792  16.383  0.0466  0.0028  0.5386
 5638SOL    HW128550   3.875   0.818  16.426  1.2904  0.4759 -2.0824
 5638SOL    HW228551   3.744   0.774  16.463 -2.1297 -2.7591 -1.4288
 5639SOL     OW28552   0.862   2.666   5.839 -0.8874  0.7521 -0.6031
 5639SOL    HW128553   0.810   2.597   5.880  0.1008  0.6281  0.4495
 5639SOL    HW228554   0.944   2.660   5.888 -0.9218 -1.0323 -0.7599
 5640SOL     OW28555   2.946   1.362   4.238  0.4113 -0.4441 -0.2194
 5640SOL    HW128556   3.026   1.413   4.238 -0.5669  1.1045 -0.8547
 5640SOL    HW228557   2.945   1.320   4.152 -2.0936 -1.2395  0.1754
 5641SOL     OW28558   3.157   1.500   0.701  0.5352 -0.0809 -0.1416
 5641SOL    HW128559   3.173   1.549   0.620 -0.2351  0.6068  0.1223
 5641SOL    HW228560   3.169   1.408   0.679  0.3530 -0.4626  1.3522
 5642SOL     OW28561   0.139   4.708   9.307  0.0237 -0.2240  0.3885
 5642SOL    HW128562   0.113   0.000   9.394  2.8027  0.5171  0.9779
 5642SOL    HW228563   0.074   4.642   9.285  0.5977 -1.9233  3.7909
 5643SOL     OW28564   1.154   4.092   8.010  0.3564  0.7369  0.3783
 5643SOL    HW128565   1.227   4.048   8.053 -0.0019  0.0757  0.3049
 5643SOL    HW228566   1.180   4.184   8.022 -1.6047  1.1989  0.9694
 5644SOL     OW28567   3.660   3.018   3.223 -0.4162 -0.7099  0.1134
 5644SOL    HW128568   3.734   2.970   3.259 -0.6102 -0.0145  1.4490
 5644SOL    HW228569   3.585   2.986   3.274 -1.6976  1.1658 -0.5629
 5645SOL     OW28570   0.583   4.442   5.543 -0.0898  0.3554  0.3163
 5645SOL    HW128571   0.594   4.456   5.637 -1.8452 -0.0082  0.5782
 5645SOL    HW228572   0.504   4.492   5.525 -0.2266  0.5332  1.3954
 5646SOL     OW28573   4.197   1.107   3.586  0.4628  0.4204  0.1510
 5646SOL    HW128574   4.242   1.022   3.586  0.3794  0.3672  1.4345
 5646SOL    HW228575   4.171   1.123   3.496  1.8203  0.6706 -0.2015
 5647SOL     OW28576   0.775   0.737   7.304  0.0451 -0.1832 -0.0120
 5647SOL    HW128577   0.783   0.642   7.291  0.5516 -0.5576  2.9149
 5647SOL    HW228578   0.712   0.750   7.234 -1.1251 -0.0080  1.0640
 5648SOL     OW28579   0.437   2.709  15.858  0.0014 -0.5074 -0.2317
 5648SOL    HW128580   0.464   2.794  15.893  0.3210 -0.5102 -0.4679
 5648SOL    HW228581   0.373   2.683  15.924  2.5639 -0.8209  2.1406
 5649SOL     OW28582   3.577   1.712   3.321 -0.7148  0.1948  0.3880
 5649SOL    HW128583   3.632   1.635   3.305 -1.6159 -0.3178 -0.2765
 5649SOL    HW228584   3.588   1.760   3.239 -0.1792 -2.7110 -1.2228
 5650SOL     OW28585   2.472   1.582   4.114 -0.1648  0.1033 -0.5468
 5650SOL    HW128586   2.469   1.517   4.045  0.0485 -0.9804  0.4600
 5650SOL    HW228587   2.529   1.645   4.070  0.1580  0.8489  0.9067
 5651SOL     OW28588   3.638   3.121   9.303  0.0781  0.1126 -0.1586
 5651SOL    HW128589   3.623   3.110   9.397 -2.6438 -2.9665 -0.9697
 5651SOL    HW228590   3.545   3.129   9.281  0.1190  0.0800 -0.3463
 5652SOL     OW28591   0.136   1.992  15.401  0.2294  0.0401  0.5559
 5652SOL    HW128592   0.162   1.904  15.428  0.2536  0.1728  0.9602
 5652SOL    HW228593   0.131   1.978  15.307 -2.9907  0.7969  0.5961
 5653SOL     OW28594   0.881   4.381   6.977 -0.2546  0.6535 -0.4082
 5653SOL    HW128595   0.787   4.393   6.960  0.1393  2.2510 -1.5679
 5653SOL    HW228596   0.898   4.427   7.059 -1.4636  0.1485  0.1296
 5654SOL     OW28597   1.293   0.778   2.619 -0.4584 -0.1524 -0.0389
 5654SOL    HW128598   1.385   0.799   2.602  0.1174 -2.5168  0.1781
 5654SOL    HW228599   1.311   0.711   2.684 -1.7909 -2.6743 -2.2697
 5655SOL     OW28600   0.056   1.195  11.120  0.0358  0.3717 -0.7024
 5655SOL    HW128601   0.127   1.185  11.184 -0.5535 -1.2105 -0.2675
 5655SOL    HW228602   4.709   1.192  11.166 -1.0211  1.3238 -2.5946
 5656SOL     OW28603   3.238   0.326   5.501  0.0198  0.7212 -0.7069
 5656SOL    HW128604   3.279   0.401   5.458  0.1194  0.8534 -0.3794
 5656SOL    HW228605   3.227   0.364   5.587 -0.7207 -0.9780 -0.0525
 5657SOL     OW28606   3.985   0.738   4.852  0.0987 -0.0670  0.9371
 5657SOL    HW128607   4.052   0.757   4.918  0.6316 -1.4785  0.7974
 5657SOL    HW228608   4.039   0.720   4.774  0.6315 -1.2613  1.5883
 5658SOL     OW28609   1.980   1.993   4.360 -0.3156 -0.3959  0.3042
 5658SOL    HW128610   1.958   2.049   4.285  1.2015 -2.3248 -1.5726
 5658SOL    HW228611   1.993   2.064   4.423  3.5121  0.0974 -1.0287
 5659SOL     OW28612   0.855   2.786  14.372 -0.0944 -0.2290  0.1049
 5659SOL    HW128613   0.940   2.747  14.390 -0.1185  0.4773  1.7957
 5659SOL    HW228614   0.845   2.846  14.446 -1.8015  0.1604 -0.4416
 5660SOL     OW28615   0.203   1.730  15.448 -0.6140  0.3216  0.5704
 5660SOL    HW128616   0.195   1.642  15.410 -0.0323 -0.7718  2.9505
 5660SOL    HW228617   0.293   1.747  15.423 -0.7915 -0.0036 -0.2768
 5661SOL     OW28618   3.433   2.715   5.463  0.1087  0.1985  0.5040
 5661SOL    HW128619   3.420   2.739   5.554  0.5761 -1.5310  1.0295
 5661SOL    HW228620   3.503   2.651   5.474 -0.9360 -1.3428 -1.5787
 5662SOL     OW28621   4.538   3.694   9.119 -0.2198 -0.3572 -0.2800
 5662SOL    HW128622   4.521   3.643   9.198  5.5500 -0.2901  1.0424
 5662SOL    HW228623   4.557   3.624   9.057 -1.5937  1.2105 -2.4987
 5663SOL     OW28624   3.726   0.898   6.872 -0.4454 -0.1724 -0.7213
 5663SOL    HW128625   3.762   0.982   6.899  1.5176 -1.2675  0.0205
 5663SOL    HW228626   3.769   0.847   6.940  2.1968 -0.8216 -2.8866
 5664SOL     OW28627   0.460   0.683  14.649  0.4177 -0.0907  0.5673
 5664SOL    HW128628   0.516   0.616  14.688  0.3942 -1.2166 -1.3255
 5664SOL    HW228629   0.396   0.705  14.716 -1.9912 -0.3505 -1.6366
 5665SOL     OW28630   0.098   3.425   3.190  0.1189  0.1997  0.0476
 5665SOL    HW128631   0.151   3.388   3.260 -2.1867 -2.9169  0.1342
 5665SOL    HW228632   0.164   3.450   3.126  0.9750 -1.0337  0.4599
 5666SOL     OW28633   2.277   3.436   0.722  0.3892 -0.4167 -0.1392
 5666SOL    HW128634   2.201   3.493   0.717  0.8676  0.3695  1.8709
 5666SOL    HW228635   2.334   3.494   0.772  1.5049 -1.6980  0.1101
 5667SOL     OW28636   3.202   4.729   1.744  0.3656  0.2666 -0.5872
 5667SOL    HW128637   3.284   4.690   1.712 -0.2255 -2.7688  1.6065
 5667SOL    HW228638   3.173   4.666   1.810  2.8339 -0.2900 -0.0300
 5668SOL     OW28639   2.728   4.135   3.717 -0.4087 -0.0280 -0.1687
 5668SOL    HW128640   2.639   4.171   3.707 -1.0580 -1.3457  0.8414
 5668SOL    HW228641   2.742   4.175   3.804  1.7894 -1.0882 -0.0416
 5669SOL     OW28642   2.835   2.867   6.652  0.2874  0.2727 -0.3518
 5669SOL    HW128643   2.912   2.918   6.628  1.2138  0.1716  2.3793
 5669SOL    HW228644   2.781   2.869   6.573 -1.0551 -0.5752  0.5316
 5670SOL     OW28645   2.790   0.679  12.453 -0.5520 -0.2203 -0.6551
 5670SOL    HW128646   2.777   0.747  12.519 -0.6627 -0.9743  0.1117
 5670SOL    HW228647   2.830   0.727  12.381 -2.1422  2.5270  0.3168
 5671SOL     OW28648   3.986   2.272   5.285 -0.1198 -0.5028  0.2212
 5671SOL    HW128649   4.030   2.191   5.261  0.5841 -1.0107  3.2371
 5671SOL    HW228650   3.950   2.235   5.366  0.3396  1.7453  1.4532
 5672SOL     OW28651   3.405   1.253  14.775 -0.6778  0.4074  0.0096
 5672SOL    HW128652   3.385   1.199  14.698 -1.1973  1.3542 -0.5191
 5672SOL    HW228653   3.403   1.340  14.735  0.8299  0.5037  0.1399
 5673SOL     OW28654   3.726   3.597   8.307 -0.0538 -0.5696  0.2497
 5673SOL    HW128655   3.654   3.616   8.246 -0.5004 -1.9718  0.3417
 5673SOL    HW228656   3.678   3.576   8.387  1.3331  1.4798  1.5990
 5674SOL     OW28657   0.598   0.258   9.421 -0.2312  0.2694  0.3549
 5674SOL    HW128658   0.561   0.271   9.333  0.3987  0.6556  0.1458
 5674SOL    HW228659   0.591   0.165   9.439  2.4455 -0.0284 -0.1811
 5675SOL     OW28660   3.462   2.417   2.187  0.3808  0.1739 -0.2670
 5675SOL    HW128661   3.510   2.501   2.183  1.1840 -0.2837 -0.3078
 5675SOL    HW228662   3.532   2.364   2.225 -0.0954 -0.2895 -0.0536
 5676SOL     OW28663   3.798   2.973   6.639  0.3994 -0.1708  0.0782
 5676SOL    HW128664   3.802   3.003   6.730 -1.4501 -0.4202  0.2350
 5676SOL    HW228665   3.703   2.967   6.629  0.4385  1.1735 -1.0695
 5677SOL     OW28666   3.466   0.626  15.456  0.2724 -0.0759  0.1617
 5677SOL    HW128667   3.530   0.686  15.417  3.2049 -1.7671  2.3765
 5677SOL    HW228668   3.399   0.682  15.495 -1.8992 -1.8289 -1.0979
 5678SOL     OW28669   3.916   3.925   6.004  0.4445 -0.1989  0.1081
 5678SOL    HW128670   3.900   3.931   5.910 -1.5844 -1.5488  0.3638
 5678SOL    HW228671   3.930   3.831   6.013 -2.3379 -0.4952  1.5573
 5679SOL     OW28672   3.242   2.631   2.066 -0.6238 -0.5874  0.0021
 5679SOL    HW128673   3.241   2.722   2.035  0.0365 -0.0336  1.5879
 5679SOL    HW228674   3.335   2.613   2.053 -0.1075  1.2004  1.1728
 5680SOL     OW28675   2.421   1.118   5.049  0.2653  0.5236  0.2326
 5680SOL    HW128676   2.373   1.106   4.967  0.7748  3.9574 -0.5504
 5680SOL    HW228677   2.347   1.122   5.109  0.5963  0.0823  0.6694
 5681SOL     OW28678   3.981   2.015   6.217 -0.1992 -0.1050  0.2055
 5681SOL    HW128679   3.921   2.029   6.290 -0.9567 -3.7372  0.2531
 5681SOL    HW228680   4.026   1.937   6.249  1.1571 -0.7250 -3.2066
 5682SOL     OW28681   0.801   2.266  17.078 -0.0460 -0.0259  0.1170
 5682SOL    HW128682   0.706   2.273  17.093 -0.5295  0.8152 -3.3307
 5682SOL    HW228683   0.801   2.225  16.992 -3.4017 -1.9758  1.0570
 5683SOL     OW28684   2.054   1.870   2.862  0.4105 -0.4529 -0.0606
 5683SOL    HW128685   2.015   1.783   2.855 -0.6758 -0.1371  2.0410
 5683SOL    HW228686   2.093   1.875   2.775  0.7973  0.6589  0.1845
 5684SOL     OW28687   4.398   2.967   3.630 -0.2594  0.4785 -0.7522
 5684SOL    HW128688   4.471   2.907   3.616  0.6400  1.1879  0.8750
 5684SOL    HW228689   4.343   2.914   3.688 -1.8129  1.5310 -1.2489
 5685SOL     OW28690   1.962   1.138   0.424  0.0542  0.3092 -0.4326
 5685SOL    HW128691   2.010   1.084   0.360  1.6343  1.1480  0.0351
 5685SOL    HW228692   1.869   1.123   0.407 -0.3383  0.5939  1.4664
 5686SOL     OW28693   4.735   2.738   6.924 -0.0248  0.4694  0.0545
 5686SOL    HW128694   4.683   2.678   6.870  0.0112 -0.5567  1.1593
 5686SOL    HW228695   4.684   2.771   6.998  3.1568 -0.6761  2.7293
 5687SOL     OW28696   1.676   3.115   7.202  0.4368 -0.1561 -0.5951
 5687SOL    HW128697   1.629   3.172   7.141  2.4438  0.5972 -1.4265
 5687SOL    HW228698   1.597   3.089   7.250 -0.0062 -0.0133 -1.2466
 5688SOL     OW28699   1.790   1.759   2.153 -0.4148 -0.1546  0.3931
 5688SOL    HW128700   1.881   1.745   2.126 -0.3517  0.4773  0.2838
 5688SOL    HW228701   1.805   1.813   2.230  2.8690  0.2453 -0.5101
 5689SOL     OW28702   2.535   0.775   6.623 -0.0668  0.6052 -0.3050
 5689SOL    HW128703   2.467   0.723   6.579  0.1680  0.0938 -0.0592
 5689SOL    HW228704   2.491   0.859   6.627  1.3725  1.3393  0.1329
 5690SOL     OW28705   3.997   1.057  11.607  0.1559  0.4664  0.6530
 5690SOL    HW128706   4.006   0.974  11.654  0.4575  0.2860  0.2750
 5690SOL    HW228707   4.075   1.070  11.553 -0.8134 -0.8581 -1.0554
 5691SOL     OW28708   3.235   3.861   6.069  0.0927  0.2504 -0.4536
 5691SOL    HW128709   3.316   3.810   6.076 -0.1657 -0.1241 -0.1330
 5691SOL    HW228710   3.247   3.939   6.122  0.0132 -0.3652  0.4605
 5692SOL     OW28711   4.146   3.347   8.286 -0.0856 -0.0439 -0.1708
 5692SOL    HW128712   4.100   3.419   8.243 -1.5343 -1.5163 -1.1268
 5692SOL    HW228713   4.196   3.397   8.350 -0.9811 -2.2705  2.2622
 5693SOL     OW28714   2.884   3.937   3.421 -0.6317 -0.1902  0.3281
 5693SOL    HW128715   2.874   4.029   3.445  1.1350  0.6193 -2.0905
 5693SOL    HW228716   2.835   3.931   3.339 -0.0596 -1.7790  0.0900
 5694SOL     OW28717   1.199   3.792   1.815  0.2634 -0.7329  0.1071
 5694SOL    HW128718   1.220   3.705   1.848  0.3811 -1.1768 -1.1132
 5694SOL    HW228719   1.106   3.808   1.833  0.5868  0.2518  0.8998
 5695SOL     OW28720   3.231   1.164   1.813 -0.0208 -0.1550  0.1666
 5695SOL    HW128721   3.279   1.242   1.843  1.1181 -1.2868  1.2844
 5695SOL    HW228722   3.202   1.133   1.898  0.6358 -1.2729 -0.0245
 5696SOL     OW28723   0.574   3.071   6.294  0.7669 -1.0892 -0.1506
 5696SOL    HW128724   0.650   3.108   6.249  0.2500 -1.6459 -1.5078
 5696SOL    HW228725   0.546   2.998   6.238  1.4736 -0.3544 -1.4686
 5697SOL     OW28726   0.833   3.809  16.719  0.2638 -0.0432  0.0566
 5697SOL    HW128727   0.848   3.769  16.634 -1.6375 -1.6163  0.4591
 5697SOL    HW228728   0.741   3.836  16.720 -0.0595 -1.1218 -0.9788
 5698SOL     OW28729   2.238   0.191  13.000 -0.6049  0.1481  0.3539
 5698SOL    HW128730   2.250   0.196  13.095  0.7645  0.2050  0.1792
 5698SOL    HW228731   2.317   0.144  12.974 -0.8866 -0.6289  0.9193
 5699SOL     OW28732   2.824   4.677   7.629 -0.4590  0.0681 -0.3121
 5699SOL    HW128733   2.869   0.003   7.685 -1.9946 -1.1094  2.2589
 5699SOL    HW228734   2.897   4.622   7.601 -1.0577 -0.4309 -0.8863
 5700SOL     OW28735   2.874   3.626   5.069 -0.1546 -0.4755  0.1451
 5700SOL    HW128736   2.797   3.571   5.057 -1.4849  1.8204 -1.7430
 5700SOL    HW228737   2.843   3.707   5.108  3.5500  1.5103 -1.0486
 5701SOL     OW28738   0.303   2.757   2.261  0.6633 -0.2613 -0.2080
 5701SOL    HW128739   0.317   2.675   2.308  1.6604 -0.7126 -1.2950
 5701SOL    HW228740   0.274   2.727   2.176 -2.1723  1.0871  0.2811
 5702SOL     OW28741   2.787   1.758   2.937 -0.1946 -0.1196  0.0314
 5702SOL    HW128742   2.835   1.703   2.999 -0.6369 -2.0002 -1.3056
 5702SOL    HW228743   2.863   1.797   2.892  0.9612 -4.1979 -1.5451
 5703SOL     OW28744   3.908   4.701   9.943  0.3117 -0.1191 -0.1759
 5703SOL    HW128745   3.813   4.695   9.936  0.5213 -1.6266 -1.7198
 5703SOL    HW228746   3.930   0.026   9.873  0.5759 -0.7211 -0.6303
 5704SOL     OW28747   2.458   0.438   7.398 -0.4087  0.2837 -0.5316
 5704SOL    HW128748   2.517   0.506   7.366 -0.6928 -0.0276 -1.7021
 5704SOL    HW228749   2.482   0.377   7.328 -1.3719  1.1997 -1.6513
 5705SOL     OW28750   1.018   1.763   2.583  0.7550 -0.3096 -0.5402
 5705SOL    HW128751   1.015   1.816   2.503 -1.1586  1.8803  0.9773
 5705SOL    HW228752   1.041   1.833   2.644 -1.8764  1.3463 -1.4613
 5706SOL     OW28753   0.251   4.444   3.668  0.3862 -0.3175  0.3314
 5706SOL    HW128754   0.336   4.486   3.680  0.7470 -1.3749  1.4173
 5706SOL    HW228755   0.239   4.453   3.574  0.3455  0.3377  0.3953
 5707SOL     OW28756   1.648   0.499  14.022  0.2772 -0.0170  0.3160
 5707SOL    HW128757   1.718   0.529  14.081  0.8423  0.8452 -0.8029
 5707SOL    HW228758   1.567   0.511  14.071  0.6103 -0.0625  0.8753
 5708SOL     OW28759   1.143   3.874   5.498 -0.0504  0.6179  0.0294
 5708SOL    HW128760   1.103   3.883   5.412 -0.7284  0.2966  0.3162
 5708SOL    HW228761   1.088   3.944   5.535  0.5295  0.2497  1.5972
 5709SOL     OW28762   1.425   3.397   3.656 -0.2559  0.3556 -1.4292
 5709SOL    HW128763   1.429   3.377   3.562  0.2699  1.1657 -1.5791
 5709SOL    HW228764   1.340   3.366   3.688  0.4653 -0.0718  0.0625
 5710SOL     OW28765   0.753   1.373   6.914 -0.1978 -0.1762  0.4785
 5710SOL    HW128766   0.797   1.446   6.958 -0.9378  0.2087  0.5793
 5710SOL    HW228767   0.670   1.359   6.959  0.1607  0.9253  1.4827
 5711SOL     OW28768   1.048   2.833   8.423 -0.2182  0.1783 -0.0192
 5711SOL    HW128769   1.000   2.836   8.340  0.0993  0.4665 -0.1947
 5711SOL    HW228770   0.979   2.849   8.486  0.5615 -0.5148  1.0020
 5712SOL     OW28771   1.950   2.990   4.188  0.0666 -0.3373  0.2988
 5712SOL    HW128772   1.972   3.007   4.096  0.0778 -0.3113  0.3061
 5712SOL    HW228773   1.975   3.074   4.227  0.3500  0.0125 -0.6284
 5713SOL     OW28774   0.469   1.061   8.593 -0.8676 -0.0400  0.0439
 5713SOL    HW128775   0.474   0.993   8.660 -1.2136 -1.1816 -1.0804
 5713SOL    HW228776   0.525   1.128   8.631 -2.0887 -0.0587  1.8630
 5714SOL     OW28777   3.621   2.486  12.490 -0.2024  0.0737 -0.3119
 5714SOL    HW128778   3.536   2.497  12.446  0.4006 -0.5317 -1.6097
 5714SOL    HW228779   3.594   2.426  12.559 -0.1432 -0.6841 -0.9397
 5715SOL     OW28780   1.501   0.804  10.312  0.2241  0.4357  0.0988
 5715SOL    HW128781   1.419   0.830  10.271  0.0436 -0.3383 -0.0383
 5715SOL    HW228782   1.565   0.845  10.253 -0.2976 -1.3191 -1.6954
 5716SOL     OW28783   4.590   1.811  13.177 -0.6512  0.4382  0.0944
 5716SOL    HW128784   4.570   1.725  13.138  0.0958  0.4705 -0.3635
 5716SOL    HW228785   4.510   1.827  13.226 -1.4257  0.3521 -1.1240
 5717SOL     OW28786   0.505   2.979   4.633  0.5743  0.2915  0.3397
 5717SOL    HW128787   0.590   2.974   4.588  1.1615  0.1062  1.4896
 5717SOL    HW228788   0.523   3.000   4.724  2.8347  1.9960 -0.4863
 5718SOL     OW28789   0.327   1.989   6.749  0.2294 -0.3494 -0.2513
 5718SOL    HW128790   0.299   1.960   6.836 -0.2334  0.5435 -0.1021
 5718SOL    HW228791   0.421   1.972   6.750  0.9388  3.5039  2.3804
 5719SOL     OW28792   0.649   3.387   8.094 -0.1543  0.5730  0.4363
 5719SOL    HW128793   0.604   3.366   8.176 -1.7419 -0.1825 -0.6313
 5719SOL    HW228794   0.705   3.455   8.130 -0.9149  1.6681 -0.4314
 5720SOL     OW28795   4.138   3.280  15.936 -0.1264  0.5360 -0.5747
 5720SOL    HW128796   4.082   3.204  15.953 -0.8114  1.0821 -0.3996
 5720SOL    HW228797   4.224   3.238  15.932  0.2656  1.4903 -2.1837
 5721SOL     OW28798   0.529   0.787   7.636 -0.0311 -0.0816  0.2323
 5721SOL    HW128799   0.567   0.786   7.724  0.9816  0.7779 -0.2000
 5721SOL    HW228800   0.551   0.698   7.608 -0.1063 -0.1557  0.4087
 5722SOL     OW28801   1.050   4.217  12.859 -0.1057 -0.1492  0.7303
 5722SOL    HW128802   1.102   4.215  12.939  4.1024 -2.9464 -2.0578
 5722SOL    HW228803   1.077   4.303  12.826  3.3537 -1.3502  0.4048
 5723SOL     OW28804   0.833   2.530   0.965  0.4724  0.6239 -0.0153
 5723SOL    HW128805   0.902   2.539   0.899 -1.2444 -0.2400 -1.8880
 5723SOL    HW228806   0.885   2.471   1.020  1.6461  0.9298 -0.7937
 5724SOL     OW28807   2.321   1.684   9.489  0.1500  0.0994 -0.3633
 5724SOL    HW128808   2.229   1.657   9.488  0.8821 -2.4911  2.4382
 5724SOL    HW228809   2.359   1.644   9.567  1.6580  0.4010 -0.9544
 5725SOL     OW28810   0.218   1.793   7.866 -0.2275 -0.0199  0.2126
 5725SOL    HW128811   0.172   1.877   7.866 -0.4883 -0.1633 -0.0520
 5725SOL    HW228812   0.167   1.757   7.938 -2.7278 -0.7459 -1.9066
 5726SOL     OW28813   1.378   4.071   2.773  0.2030 -0.1052 -0.2430
 5726SOL    HW128814   1.424   4.024   2.703 -1.2508  0.4082 -1.5630
 5726SOL    HW228815   1.449   4.080   2.837  0.2302 -0.8990 -0.1703
 5727SOL     OW28816   1.322   1.551  14.195  0.5045 -0.4479  0.1227
 5727SOL    HW128817   1.373   1.608  14.252 -0.9243  0.5067  0.4355
 5727SOL    HW228818   1.238   1.550  14.242  0.4466  1.7623  0.0440
 5728SOL     OW28819   2.390   0.070   7.468 -0.4205 -0.2152 -0.1109
 5728SOL    HW128820   2.371   4.717   7.444 -1.2987  0.1412 -0.7568
 5728SOL    HW228821   2.317   0.113   7.424 -0.5088 -0.9360 -0.6524
 5729SOL     OW28822   0.377   1.276   6.827  0.4252 -0.2679  0.3660
 5729SOL    HW128823   0.341   1.358   6.792 -1.2278 -0.8314  0.7670
 5729SOL    HW228824   0.433   1.316   6.894  0.1335 -0.6847  0.8542
 5730SOL     OW28825   2.199   1.981   1.195  0.5120 -0.6874  0.0203
 5730SOL    HW128826   2.175   2.065   1.234 -1.1015 -1.3532  0.4652
 5730SOL    HW228827   2.233   2.017   1.113  0.3954  0.2944  0.3960
 5731SOL     OW28828   2.862   3.668   4.308 -0.1953 -0.3139 -0.4027
 5731SOL    HW128829   2.875   3.760   4.332  1.9256 -1.0437  1.1936
 5731SOL    HW228830   2.850   3.610   4.383  2.7282 -0.4124  0.0092
 5732SOL     OW28831   2.173   1.343   0.516  0.1458 -0.6346 -0.2880
 5732SOL    HW128832   2.236   1.349   0.445 -0.0104 -1.6121 -0.5078
 5732SOL    HW228833   2.112   1.273   0.490  0.6242 -1.6178  1.2370
 5733SOL     OW28834   4.160   0.586  13.995  0.1464 -0.0067  0.1106
 5733SOL    HW128835   4.110   0.513  13.958 -1.5958  1.6871 -0.8519
 5733SOL    HW228836   4.208   0.539  14.064 -0.7443  0.4517  1.0435
 5734SOL     OW28837   2.130   2.044   9.139  0.1394 -0.5050 -0.2876
 5734SOL    HW128838   2.055   1.987   9.158 -0.3792  0.3811  0.2890
 5734SOL    HW228839   2.159   2.071   9.226  0.9695  1.4357 -1.1709
 5735SOL     OW28840   2.313   1.795   9.074  0.5960 -0.5253 -0.4242
 5735SOL    HW128841   2.389   1.850   9.096  1.2764 -1.4628 -0.4132
 5735SOL    HW228842   2.249   1.835   9.133 -1.1696 -1.8192 -1.4885
 5736SOL     OW28843   0.091   1.261   4.860  1.1222 -0.5032 -0.0515
 5736SOL    HW128844   0.058   1.227   4.776 -1.4418  1.5362  0.1109
 5736SOL    HW228845   0.138   1.181   4.883 -1.2664 -1.4879  1.3960
 5737SOL     OW28846   2.093   0.126  11.692  0.4612  0.4044 -0.2679
 5737SOL    HW128847   2.159   0.190  11.663  1.4005 -0.3270  0.2562
 5737SOL    HW228848   2.027   0.144  11.625 -0.3629  0.6288  0.6008
 5738SOL     OW28849   2.491   3.723   4.496 -0.2125  0.0770 -0.0867
 5738SOL    HW128850   2.556   3.792   4.505  2.0424 -1.9689 -0.8718
 5738SOL    HW228851   2.428   3.754   4.562 -0.6285  0.7914 -0.8219
 5739SOL     OW28852   2.112   1.654   7.317  0.0942  0.1344 -0.2819
 5739SOL    HW128853   2.072   1.722   7.370  0.9317  0.8754 -0.6136
 5739SOL    HW228854   2.181   1.621   7.374 -1.0207 -2.7384 -0.5350
 5740SOL     OW28855   1.488   2.165   2.657  0.9201  0.7178 -0.1404
 5740SOL    HW128856   1.538   2.129   2.583 -0.1400  0.8655 -0.9289
 5740SOL    HW228857   1.399   2.163   2.621  0.4625  0.2688  1.0382
 5741SOL     OW28858   1.754   1.712   6.676 -0.0268 -0.3949  0.3481
 5741SOL    HW128859   1.725   1.739   6.589  0.5207 -0.6357  0.0922
 5741SOL    HW228860   1.676   1.721   6.731 -0.1088  2.1059 -0.1682
 5742SOL     OW28861   1.187   2.056   7.139  1.5123 -0.1134 -0.1580
 5742SOL    HW128862   1.214   2.147   7.137 -0.2460  0.4206  0.6159
 5742SOL    HW228863   1.149   2.042   7.052 -0.7189  1.5058  0.5623
 5743SOL     OW28864   4.731   3.391   9.231  0.0739 -0.0152 -0.1768
 5743SOL    HW128865   4.651   3.397   9.283  1.4818  0.4315  1.9445
 5743SOL    HW228866   0.060   3.367   9.296 -0.9155  1.3852  1.3395
 5744SOL     OW28867   0.139   3.289   5.485 -0.7049 -0.3365 -0.0407
 5744SOL    HW128868   0.126   3.384   5.490 -1.7894 -0.5839  2.0909
 5744SOL    HW228869   0.134   3.279   5.580 -1.7836  1.6976  0.1185
 5745SOL     OW28870   0.086   0.108   1.882 -0.2559  0.2870  0.2535
 5745SOL    HW128871   0.146   0.167   1.834  0.0030 -0.3138 -0.1594
 5745SOL    HW228872   0.146   0.042   1.916  1.0627  1.3965  0.0988
 5746SOL     OW28873   3.038   1.739   3.144 -0.0943  0.2402  0.0706
 5746SOL    HW128874   3.032   1.728   3.049 -0.5269 -3.4939  0.5410
 5746SOL    HW228875   3.133   1.736   3.160  0.2916 -1.9933 -2.7027
 5747SOL     OW28876   4.396   1.692  16.580 -0.5027  0.6679 -0.1946
 5747SOL    HW128877   4.475   1.746  16.582 -1.2725  1.7736  0.0696
 5747SOL    HW228878   4.340   1.746  16.525 -0.2105  1.4352  0.2651
 5748SOL     OW28879   3.955   3.232   0.161  0.5312 -0.9528 -0.4689
 5748SOL    HW128880   3.962   3.136   0.160 -1.7599 -1.1682  2.2685
 5748SOL    HW228881   3.985   3.250   0.072  3.5267  0.2971  0.7872
 5749SOL     OW28882   3.298   0.411   1.879  0.2811  0.3110 -0.4295
 5749SOL    HW128883   3.287   0.413   1.784  0.1257  2.5991 -0.3477
 5749SOL    HW228884   3.213   0.371   1.896  0.6536 -0.1638  0.3105
 5750SOL     OW28885   1.042   3.356   2.578  0.8792  0.1702 -0.3675
 5750SOL    HW128886   1.042   3.362   2.673  1.7734 -0.5912 -0.3189
 5750SOL    HW228887   1.014   3.265   2.561  0.0654  0.6266 -1.4799
 5751SOL     OW28888   4.431   2.809  14.598  0.4193 -0.3340  0.2682
 5751SOL    HW128889   4.378   2.733  14.621 -1.5693  0.9891  0.1006
 5751SOL    HW228890   4.480   2.833  14.677  0.4936  0.1326  0.0797
 5752SOL     OW28891   4.399   1.371   9.271  0.1055 -0.1558  0.4328
 5752SOL    HW128892   4.341   1.319   9.215  0.8058  0.0832 -0.5102
 5752SOL    HW228893   4.425   1.309   9.338  0.0577  1.1724  1.6751
 5753SOL     OW28894   0.531   0.842  10.881 -0.0371 -0.3515  0.2783
 5753SOL    HW128895   0.556   0.851  10.789  0.9290  3.2540  0.8778
 5753SOL    HW228896   0.440   0.871  10.888 -0.3625 -1.3695  0.2431
 5754SOL     OW28897   4.104   0.436   7.160 -0.0937  0.6531 -0.0247
 5754SOL    HW128898   4.109   0.526   7.193 -1.9805  0.2359  1.3730
 5754SOL    HW228899   4.082   0.391   7.242 -0.1982 -1.2184 -1.0886
 5755SOL     OW28900   3.355   1.132   7.713  0.6702 -0.0949  0.2004
 5755SOL    HW128901   3.285   1.197   7.703 -0.0510 -0.6245  1.7240
 5755SOL    HW228902   3.369   1.097   7.625  0.0146  1.2678 -0.4450
 5756SOL     OW28903   0.584   2.774   9.230  1.1714 -0.5335  0.6849
 5756SOL    HW128904   0.670   2.816   9.237 -0.1100  2.1641  0.5619
 5756SOL    HW228905   0.565   2.752   9.321  2.6973  1.3191  1.4547
 5757SOL     OW28906   1.645   0.722   6.270 -0.0439 -0.1500 -0.3190
 5757SOL    HW128907   1.636   0.795   6.330  0.5247 -0.6151  0.3299
 5757SOL    HW228908   1.698   0.657   6.317  0.7497  1.2536  0.7155
 5758SOL     OW28909   0.298   3.889   2.375  0.4259 -0.0956 -0.2052
 5758SOL    HW128910   0.303   3.889   2.279  1.1623  0.3966 -0.1701
 5758SOL    HW228911   0.235   3.958   2.394  0.0874 -0.3149 -0.5380
 5759SOL     OW28912   1.257   2.504  12.342  0.1125  0.0667  0.3584
 5759SOL    HW128913   1.186   2.538  12.396  1.1409  3.0723 -0.1554
 5759SOL    HW228914   1.277   2.420  12.382 -0.1031 -0.2341 -0.1741
 5760SOL     OW28915   0.179   3.571  11.771  0.3004 -0.6084  0.0402
 5760SOL    HW128916   0.155   3.659  11.743  0.7563 -0.1106  1.2093
 5760SOL    HW228917   0.263   3.594  11.811 -1.2536  1.3859  2.1590
 5761SOL     OW28918   3.149   2.353   3.222  0.3129  0.0131  0.2899
 5761SOL    HW128919   3.099   2.405   3.285 -2.3102 -1.1460 -0.8157
 5761SOL    HW228920   3.082   2.286   3.209  1.1105 -0.7259 -0.0328
 5762SOL     OW28921   1.532   2.810   6.730  0.7701 -0.2225  0.0865
 5762SOL    HW128922   1.525   2.892   6.780 -0.4661  0.6058 -1.4637
 5762SOL    HW228923   1.602   2.763   6.776  0.4326 -0.2878  0.5373
 5763SOL     OW28924   2.789   3.734   2.491  0.8569  0.0496 -0.7434
 5763SOL    HW128925   2.756   3.768   2.574  0.8043 -0.2021 -0.6620
 5763SOL    HW228926   2.791   3.640   2.511 -1.6153 -0.2079 -1.7097
 5764SOL     OW28927   1.556   2.460   3.041  0.0839 -0.0131  0.4462
 5764SOL    HW128928   1.570   2.555   3.042  0.7790 -0.1107  0.1545
 5764SOL    HW228929   1.609   2.436   2.965 -1.2403  1.5369 -0.9547
 5765SOL     OW28930   4.026   3.212   1.110 -0.2434 -0.1684  0.1557
 5765SOL    HW128931   3.949   3.157   1.125  0.8385 -1.9916 -1.0179
 5765SOL    HW228932   3.988   3.299   1.125  3.9965  1.5739  0.9139
 5766SOL     OW28933   4.021   1.664   0.205 -0.0480 -0.0642  0.6106
 5766SOL    HW128934   4.071   1.650   0.124 -1.5500 -0.1808 -0.2909
 5766SOL    HW228935   3.930   1.651   0.178  0.2043  1.5029 -1.0478
 5767SOL     OW28936   0.493   1.138  10.341 -0.2503 -0.2776  0.0394
 5767SOL    HW128937   0.460   1.063  10.291  0.4908 -0.9702  0.5878
 5767SOL    HW228938   0.478   1.209  10.279 -1.8679  2.9523  4.1468
 5768SOL     OW28939   4.342   1.129  15.085 -0.4237 -0.0359 -0.1149
 5768SOL    HW128940   4.291   1.050  15.101  0.7897 -0.5626  1.2333
 5768SOL    HW228941   4.297   1.163  15.008 -0.8875  0.2974  0.3054
 5769SOL     OW28942   3.152   3.925   7.235  0.2537 -0.1886 -0.1647
 5769SOL    HW128943   3.174   3.844   7.282  2.2229  1.6030  2.0016
 5769SOL    HW228944   3.064   3.929   7.274 -0.8382 -2.5046 -2.3600
 5770SOL     OW28945   1.424   4.736  12.734  0.1913  0.0004 -0.5498
 5770SOL    HW128946   1.516   4.719  12.712  0.3090  1.1848 -0.9868
 5770SOL    HW228947   1.417   4.712  12.826  2.2053  0.9738 -0.1341
 5771SOL     OW28948   3.713   2.724  12.199 -0.0545 -0.5587  0.0960
 5771SOL    HW128949   3.734   2.677  12.118  1.9407  1.9436 -0.8363
 5771SOL    HW228950   3.624   2.691  12.209  0.0783 -0.5757  1.1614
 5772SOL     OW28951   2.332   4.045   5.763  0.3472 -0.0605 -0.4871
 5772SOL    HW128952   2.393   4.034   5.691  2.2552  0.9258  0.9729
 5772SOL    HW228953   2.255   4.015   5.715 -0.2380 -0.7959  0.8899
 5773SOL     OW28954   4.457   2.888  13.800 -0.1763  0.1548 -0.2830
 5773SOL    HW128955   4.477   2.870  13.708  0.8597 -0.8563  0.1471
 5773SOL    HW228956   4.546   2.886  13.836 -0.7895  2.3469  1.3186
 5774SOL     OW28957   2.660   1.072  11.841  0.3083  0.5676 -0.3450
 5774SOL    HW128958   2.619   1.002  11.790 -0.7521  0.7183  0.2973
 5774SOL    HW228959   2.682   1.128  11.767  1.2570 -0.5461 -0.9162
 5775SOL     OW28960   0.836   2.130   3.736  0.1043  0.0688  0.5577
 5775SOL    HW128961   0.777   2.072   3.784 -1.4801  1.7858  0.7209
 5775SOL    HW228962   0.814   2.115   3.644 -0.7310  4.2983  0.0548
 5776SOL     OW28963   4.284   4.538   6.285  0.1532 -0.2625 -0.0215
 5776SOL    HW128964   4.242   4.527   6.200 -0.1507  0.4684  0.0400
 5776SOL    HW228965   4.379   4.530   6.274  0.1128  2.3861 -2.1259
 5777SOL     OW28966   2.696   4.590   5.362 -0.2361 -0.4345 -0.2335
 5777SOL    HW128967   2.607   4.607   5.395 -0.4018  0.6849 -1.2262
 5777SOL    HW228968   2.701   4.663   5.300 -0.0799  0.6411  1.0458
 5778SOL     OW28969   3.053   1.054   2.577  0.3321 -0.3764  0.2118
 5778SOL    HW128970   3.116   1.050   2.649 -1.3404 -0.3277  1.6545
 5778SOL    HW228971   3.023   1.145   2.577  2.4001  0.3223 -1.7414
 5779SOL     OW28972   3.443   2.176   4.114 -0.0765 -0.1725  0.1632
 5779SOL    HW128973   3.526   2.158   4.158  0.0827 -1.1074 -0.5094
 5779SOL    HW228974   3.402   2.244   4.168  0.7690  1.7452 -1.6129
 5780SOL     OW28975   4.005   1.276   7.792  0.4927  0.7630  0.1326
 5780SOL    HW128976   3.994   1.314   7.880  0.3115 -0.8272  0.7944
 5780SOL    HW228977   4.032   1.188   7.819 -2.0626 -0.8372 -2.4365
 5781SOL     OW28978   4.320   0.633   7.493  0.0475  0.2198 -0.1541
 5781SOL    HW128979   4.363   0.676   7.566  0.7624 -2.1721  0.8467
 5781SOL    HW228980   4.226   0.647   7.509 -0.0126 -0.1334 -0.1965
 5782SOL     OW28981   3.393   4.169   2.401  0.0320 -0.1424  0.2815
 5782SOL    HW128982   3.312   4.218   2.384 -0.7589 -2.0045 -1.2935
 5782SOL    HW228983   3.380   4.096   2.341  1.5488 -0.2198  0.0539
 5783SOL     OW28984   1.577   2.771  15.277  0.2676 -0.1486 -0.6161
 5783SOL    HW128985   1.658   2.760  15.326  1.2736  0.1670 -2.2178
 5783SOL    HW228986   1.538   2.833  15.339  0.3598  1.4486 -2.1703
 5784SOL     OW28987   4.423   0.469   1.526  0.3348 -0.4095  0.0116
 5784SOL    HW128988   4.328   0.477   1.531  0.3719  0.3649 -0.5000
 5784SOL    HW228989   4.434   0.402   1.594  1.1963 -0.7243 -0.4252
 5785SOL     OW28990   4.210   1.215   3.988 -0.2898 -0.8975  0.0408
 5785SOL    HW128991   4.130   1.181   4.027 -0.4343  0.1994  0.7095
 5785SOL    HW228992   4.217   1.298   4.035 -2.4229 -0.5925 -0.1592
 5786SOL     OW28993   1.694   2.709   3.417 -0.0821 -0.0340  0.0812
 5786SOL    HW128994   1.685   2.801   3.444  1.1955 -0.3533  1.5246
 5786SOL    HW228995   1.598   2.702   3.412  0.1455 -0.3758 -3.5174
 5787SOL     OW28996   4.194   4.313  12.948  0.2497  0.1218  0.3591
 5787SOL    HW128997   4.158   4.253  13.013  0.7621  1.1674  1.6259
 5787SOL    HW228998   4.132   4.386  12.944 -0.5014 -0.5575 -0.3453
 5788SOL     OW28999   2.954   1.504  16.303  0.6449  0.1421 -0.7054
 5788SOL    HW129000   2.860   1.488  16.292  0.9640 -2.0117 -0.3856
 5788SOL    HW229001   2.989   1.479  16.217  0.5943 -1.7193 -0.1992
 5789SOL     OW29002   2.425   1.762   6.225 -0.1849  0.1742  0.5056
 5789SOL    HW129003   2.466   1.728   6.305  2.0823  1.5428 -0.0997
 5789SOL    HW229004   2.453   1.697   6.161 -1.0635 -0.7289  1.0230
 5790SOL     OW29005   1.276   3.176   6.057  0.7356  0.0533  0.2490
 5790SOL    HW129006   1.344   3.154   6.121  0.5494 -0.5715  0.2329
 5790SOL    HW229007   1.325   3.175   5.975  0.9137 -1.3969  0.3756
 5791SOL     OW29008   3.972   0.425   4.048  0.1550 -0.0950 -0.1040
 5791SOL    HW129009   4.000   0.418   3.957 -0.4282  2.6712 -0.4958
 5791SOL    HW229010   3.932   0.338   4.056  0.6636 -0.1324  2.0288
 5792SOL     OW29011   3.881   3.291   8.551 -0.4860  0.2306  0.0909
 5792SOL    HW129012   3.974   3.275   8.567 -0.6852 -0.5514  0.4479
 5792SOL    HW229013   3.846   3.238   8.621 -1.7349  1.9484  0.7695
 5793SOL     OW29014   1.185   3.125   8.950  0.4377  0.1420 -0.8073
 5793SOL    HW129015   1.112   3.143   8.891 -2.0608  0.2241  2.3692
 5793SOL    HW229016   1.262   3.131   8.892  1.2246  0.6057  0.2873
 5794SOL     OW29017   4.048   0.809  16.499 -0.6170  0.4033  0.4767
 5794SOL    HW129018   4.021   0.755  16.573  0.5952  1.2834  1.5419
 5794SOL    HW229019   4.090   0.884  16.540 -0.3589  1.4642 -1.7585
 5795SOL     OW29020   3.393   4.077   6.738 -0.0050 -0.2197 -0.2208
 5795SOL    HW129021   3.412   4.147   6.676  0.3222 -0.3378 -0.2518
 5795SOL    HW229022   3.300   4.076   6.713  0.6728  2.1850 -2.8232
 5796SOL     OW29023   0.415   1.134  11.511  0.2925  0.0145  0.0424
 5796SOL    HW129024   0.429   1.159  11.602 -1.0136 -0.8266  0.4691
 5796SOL    HW229025   0.494   1.169  11.469  0.7028 -0.9920 -0.0216
 5797SOL     OW29026   1.235   1.408   9.522 -0.2798  0.0419  0.2679
 5797SOL    HW129027   1.232   1.469   9.448 -0.6033  1.6288  1.6041
 5797SOL    HW229028   1.286   1.471   9.573 -0.2785  1.4364 -1.4399
 5798SOL     OW29029   4.366   4.193   6.001 -0.5695 -0.0945 -0.1673
 5798SOL    HW129030   4.456   4.167   5.980 -0.1348 -0.5826  2.2268
 5798SOL    HW229031   4.340   4.121   6.060  1.3377 -1.3811 -0.8864
 5799SOL     OW29032   2.809   3.451   9.372 -0.1143 -0.3804 -0.4979
 5799SOL    HW129033   2.788   3.439   9.279  0.5573  2.4287 -1.0302
 5799SOL    HW229034   2.754   3.384   9.412  0.2249 -1.5039 -1.9533
 5800SOL     OW29035   4.633   3.168   3.900  0.6758  0.1711 -0.0197
 5800SOL    HW129036   4.723   3.152   3.875  0.7322 -0.1724  0.4008
 5800SOL    HW229037   4.622   3.122   3.983 -0.2684  1.7414  0.7362
 5801SOL     OW29038   0.531   3.581  16.640 -0.5134  0.2227 -0.1511
 5801SOL    HW129039   0.489   3.625  16.566  1.4356  0.3354 -1.1899
 5801SOL    HW229040   0.545   3.655  16.699  0.0684  0.4342 -0.5533
 5802SOL     OW29041   0.449   2.092   9.604 -0.1202 -0.2351  0.5661
 5802SOL    HW129042   0.354   2.090   9.614  0.0698 -0.5060  2.2239
 5802SOL    HW229043   0.475   2.111   9.694  1.3809 -0.0083  0.0887
 5803SOL     OW29044   3.297   1.255   7.137 -0.0346  0.3170 -0.5553
 5803SOL    HW129045   3.377   1.231   7.184 -1.2636 -0.1587  1.3012
 5803SOL    HW229046   3.326   1.297   7.056  0.9759 -0.0748 -0.3944
 5804SOL     OW29047   2.067   2.971   6.088  0.0448  0.3522  0.1807
 5804SOL    HW129048   2.083   2.881   6.060  1.1024  0.8771 -0.9200
 5804SOL    HW229049   2.018   3.010   6.016  1.4141  0.6975 -0.5653
 5805SOL     OW29050   0.029   1.845   1.025  0.4702  0.0397 -0.2918
 5805SOL    HW129051   4.672   1.841   1.008  0.4669  3.8205 -1.2313
 5805SOL    HW229052   0.037   1.916   1.088 -2.3214 -1.0574  1.3140
 5806SOL     OW29053   2.768   3.366   2.682  0.1411 -0.1427 -0.1115
 5806SOL    HW129054   2.749   3.293   2.741  0.8438  0.1618  0.4925
 5806SOL    HW229055   2.837   3.404   2.737 -1.4648  1.1923  0.9957
 5807SOL     OW29056   3.080   2.481   9.564  0.7135  0.6198 -0.5313
 5807SOL    HW129057   3.042   2.408   9.514  0.9889 -1.7154  2.6820
 5807SOL    HW229058   3.012   2.497   9.629  3.0637  0.4751  1.9599
 5808SOL     OW29059   1.601   2.044   8.385 -0.0476  0.4820 -0.5429
 5808SOL    HW129060   1.590   2.034   8.291  3.6967 -1.9463 -0.7192
 5808SOL    HW229061   1.565   1.960   8.412  0.6444  0.0874 -0.8620
 5809SOL     OW29062   4.540   4.288   6.684 -0.4744 -0.3987  0.4573
 5809SOL    HW129063   4.559   4.239   6.764  0.9762 -1.7666 -0.7395
 5809SOL    HW229064   4.587   4.370   6.697 -1.8065  0.7084 -1.6160
 5810SOL     OW29065   0.228   2.937  16.480 -0.2435  0.1000  0.3218
 5810SOL    HW129066   0.296   2.869  16.473 -0.1725  0.1889  0.1531
 5810SOL    HW229067   0.254   2.990  16.556  1.1531  0.2412 -0.2442
 5811SOL     OW29068   1.862   4.348  10.019  0.1546 -0.0928  0.2059
 5811SOL    HW129069   1.882   4.433  10.057 -1.7142 -0.0224  1.0118
 5811SOL    HW229070   1.778   4.363   9.975 -0.2879 -0.1498  1.0342
 5812SOL     OW29071   1.329   2.795   2.020  0.0818 -0.6843  0.3974
 5812SOL    HW129072   1.258   2.806   1.957 -1.8728 -1.3384  2.4583
 5812SOL    HW229073   1.277   2.820   2.097  0.0285 -0.0493  0.1543
 5813SOL     OW29074   2.269   4.693   2.397 -0.4536 -0.2961  0.4132
 5813SOL    HW129075   2.344   4.652   2.353 -0.3023  1.9082 -1.3321
 5813SOL    HW229076   2.251   0.027   2.336 -1.0990 -1.1832 -0.4486
 5814SOL     OW29077   0.553   3.807   8.642  0.5490 -0.1112 -0.4745
 5814SOL    HW129078   0.594   3.722   8.657 -0.7232 -0.2457  2.2189
 5814SOL    HW229079   0.596   3.841   8.564  3.3008  0.3830  1.2750
 5815SOL     OW29080   3.245   3.466   5.913  0.0767 -0.6459  0.4075
 5815SOL    HW129081   3.182   3.535   5.891  0.6401 -0.6527 -1.2272
 5815SOL    HW229082   3.321   3.484   5.858  0.4891 -1.6125  0.6645
 5816SOL     OW29083   3.999   2.445  16.810 -0.1500 -0.7058 -0.0444
 5816SOL    HW129084   4.044   2.496  16.743 -0.2304  2.4593  2.3144
 5816SOL    HW229085   4.079   2.415  16.852  0.0238  0.2296  0.2877
 5817SOL     OW29086   2.255   1.612   4.922  0.4790  0.5901  0.0913
 5817SOL    HW129087   2.260   1.681   4.856 -1.6466 -0.3451 -1.0403
 5817SOL    HW229088   2.344   1.613   4.958  0.1615  1.3142  0.8690
 5818SOL     OW29089   2.189   1.304  12.779  0.7384  0.5688 -0.2293
 5818SOL    HW129090   2.143   1.288  12.862 -1.1853  1.9045 -1.0411
 5818SOL    HW229091   2.175   1.396  12.760  1.3246  1.1506  2.1512
 5819SOL     OW29092   3.856   4.523   0.457 -0.3547  0.7557 -0.5225
 5819SOL    HW129093   3.852   4.594   0.522 -1.3219  0.5029 -0.3001
 5819SOL    HW229094   3.832   4.563   0.373 -1.4807  0.7054 -0.2283
 5820SOL     OW29095   0.764   4.428   2.932  0.3462 -0.0392  0.4167
 5820SOL    HW129096   0.772   4.344   2.888 -2.0053  0.4940 -1.0293
 5820SOL    HW229097   0.833   4.472   2.883  1.4605 -0.7499  1.3599
 5821SOL     OW29098   4.351   3.929   1.024 -0.1206  0.0361  0.2676
 5821SOL    HW129099   4.411   3.939   0.951 -0.4812 -0.3093 -0.0765
 5821SOL    HW229100   4.307   3.845   1.009  0.0085  0.0907 -0.4140
 5822SOL     OW29101   2.149   1.028   8.337  0.2189 -0.0215 -0.6704
 5822SOL    HW129102   2.123   0.936   8.345 -0.4480  0.1337 -1.1211
 5822SOL    HW229103   2.102   1.072   8.408 -0.7892 -0.6138 -0.9731
 5823SOL     OW29104   3.527   0.240   2.226 -0.0270  0.2406  0.0989
 5823SOL    HW129105   3.453   0.222   2.168 -0.9926  1.2080  1.0508
 5823SOL    HW229106   3.562   0.318   2.182  1.8562 -1.0312 -0.6367
 5824SOL     OW29107   1.532   4.526   4.703  0.0865 -0.2691 -0.1969
 5824SOL    HW129108   1.627   4.537   4.696  0.0693 -1.0632 -1.7259
 5824SOL    HW229109   1.518   4.619   4.687 -1.4825 -0.1745  1.8454
 5825SOL     OW29110   2.920   1.818   9.891  0.2266  0.2974  0.0955
 5825SOL    HW129111   2.934   1.831   9.985 -0.5568 -0.1490  0.2699
 5825SOL    HW229112   2.982   1.748   9.868  0.7996  0.6560  0.5464
 5826SOL     OW29113   2.183   3.518   4.553  0.2958 -0.0731  0.4614
 5826SOL    HW129114   2.175   3.614   4.554  0.2604 -0.0682 -0.5049
 5826SOL    HW229115   2.203   3.492   4.643 -0.6908 -0.4598  0.5652
 5827SOL     OW29116   3.254   3.079   7.577  0.5613  0.1795 -0.3796
 5827SOL    HW129117   3.342   3.091   7.615 -0.0019  3.7430 -0.2135
 5827SOL    HW229118   3.198   3.089   7.654  0.7313 -1.1464 -0.0830
 5828SOL     OW29119   2.294   2.267   8.661 -0.5795  0.6922 -0.4927
 5828SOL    HW129120   2.243   2.304   8.734 -1.1901 -0.5869 -0.2623
 5828SOL    HW229121   2.320   2.178   8.685 -0.0146  1.1630  0.6549
 5829SOL     OW29122   3.948   4.734   8.144  0.3819 -0.3329  0.0868
 5829SOL    HW129123   3.954   0.088   8.172 -0.2510 -0.8118  1.7859
 5829SOL    HW229124   3.853   4.724   8.147  0.2869  0.8216  1.1802
 5830SOL     OW29125   1.371   1.266  17.374 -0.1241 -0.5241  0.1287
 5830SOL    HW129126   1.377   1.319  17.294 -2.8631  0.2649  0.4520
 5830SOL    HW229127   1.438   1.294  17.436 -0.3073 -0.7306  0.4226
 5831SOL     OW29128   3.578   3.779   2.531 -0.0606 -0.2876 -0.1924
 5831SOL    HW129129   3.621   3.836   2.467  2.0227 -1.5717  0.0581
 5831SOL    HW229130   3.501   3.752   2.480  0.0357  0.5765 -0.8067
 5832SOL     OW29131   4.060   3.937   8.978 -0.2348 -0.0628 -0.3753
 5832SOL    HW129132   4.013   3.922   9.060  0.1078 -0.5841 -0.2761
 5832SOL    HW229133   4.111   3.856   8.981 -1.4225 -0.7041  2.4612
 5833SOL     OW29134   1.041   1.974   2.781  0.2375  0.1585  0.0524
 5833SOL    HW129135   1.115   2.028   2.810  1.5402 -1.6103 -0.0159
 5833SOL    HW229136   0.977   2.045   2.769  0.1515  0.2366  1.0067
 5834SOL     OW29137   1.768   1.636  16.245 -0.7520 -0.0691  0.2394
 5834SOL    HW129138   1.702   1.689  16.201  0.5131  0.4840 -0.9907
 5834SOL    HW229139   1.774   1.668  16.334 -1.9810  0.2580  0.2108
 5835SOL     OW29140   3.880   3.038   8.956 -0.1530  0.2473  0.2823
 5835SOL    HW129141   3.964   3.074   8.929 -0.6752 -0.6128 -2.4983
 5835SOL    HW229142   3.896   2.944   8.947 -0.0971  0.2943 -0.1043
 5836SOL     OW29143   3.017   4.216   6.320  0.8101  0.3956 -0.0474
 5836SOL    HW129144   2.940   4.217   6.377  0.9763  0.1612  0.1814
 5836SOL    HW229145   2.985   4.270   6.248  0.8136 -0.2962 -0.5664
 5837SOL     OW29146   3.837   3.831   8.521  0.0056  0.2290 -0.0242
 5837SOL    HW129147   3.834   3.736   8.527  0.1925  0.1987 -0.3778
 5837SOL    HW229148   3.872   3.850   8.608  1.3144 -0.0533 -0.4977
 5838SOL     OW29149   1.464   0.355  16.460  0.2621 -0.1193  0.9739
 5838SOL    HW129150   1.419   0.423  16.510 -2.9613 -2.3858  1.1535
 5838SOL    HW229151   1.500   0.413  16.393 -0.3756 -0.6009  0.2207
 5839SOL     OW29152   0.248   4.571   3.101 -0.0757  0.1436 -0.3013
 5839SOL    HW129153   0.153   4.566   3.091 -0.3749  1.6314  1.8024
 5839SOL    HW229154   0.282   4.484   3.082 -0.0574  0.0897 -0.0106
 5840SOL     OW29155   3.226   3.719   7.766  0.6583 -0.2254 -0.9187
 5840SOL    HW129156   3.203   3.632   7.734 -2.1020 -0.0721  0.6773
 5840SOL    HW229157   3.174   3.769   7.704 -1.7232 -0.7120  0.6646
 5841SOL     OW29158   0.849   2.764   4.704  0.2349 -0.2128  0.0859
 5841SOL    HW129159   0.898   2.730   4.629 -0.2872 -0.4633 -0.1404
 5841SOL    HW229160   0.810   2.682   4.734 -1.5394  0.2942 -0.8579
 5842SOL     OW29161   2.131   4.033   7.953  0.1810  0.1918  0.1507
 5842SOL    HW129162   2.047   4.058   7.915 -0.7600 -0.5519  1.7290
 5842SOL    HW229163   2.168   3.980   7.883  0.1823  2.2033 -1.3625
 5843SOL     OW29164   2.854   0.433   2.053  0.8702  0.2507  0.0036
 5843SOL    HW129165   2.768   0.439   2.093  1.1702 -1.3700  0.8807
 5843SOL    HW229166   2.846   0.345   2.016 -1.4106  1.6413 -2.8190
 5844SOL     OW29167   4.578   0.052  15.359  0.5077  0.5238  0.1472
 5844SOL    HW129168   4.534   4.731  15.297  0.2177  1.0963 -0.1863
 5844SOL    HW229169   4.668   0.021  15.367  0.1394 -0.4005  0.8042
 5845SOL     OW29170   4.636   1.387   3.281  0.6095  0.2757  0.1294
 5845SOL    HW129171   4.637   1.481   3.297  0.0153  0.1997  0.6176
 5845SOL    HW229172   4.569   1.350   3.339 -1.5524  1.5255 -1.5791
 5846SOL     OW29173   1.720   0.282   1.449  0.2679 -0.0020  0.4392
 5846SOL    HW129174   1.793   0.335   1.482 -0.0589  0.4993  0.3594
 5846SOL    HW229175   1.661   0.283   1.524  0.2040 -0.7818  0.3988
 5847SOL     OW29176   3.651   2.660   9.732 -0.4356 -0.6275  0.1982
 5847SOL    HW129177   3.613   2.744   9.757 -0.6387 -0.5142 -0.4882
 5847SOL    HW229178   3.588   2.641   9.662 -0.2748 -1.8341  0.3806
 5848SOL     OW29179   1.638   0.601   2.154 -0.3452  0.4246  0.4585
 5848SOL    HW129180   1.632   0.652   2.073  0.9848  0.3254  0.2938
 5848SOL    HW229181   1.697   0.649   2.212  0.0872  0.0656  0.3130
 5849SOL     OW29182   2.092   2.883   2.659  0.8017 -0.0956 -0.1138
 5849SOL    HW129183   2.112   2.963   2.707  0.5236 -0.6734  0.9692
 5849SOL    HW229184   2.100   2.816   2.727 -0.3373 -0.9027 -0.7602
 5850SOL     OW29185   0.347   4.669  15.217  0.5610 -0.4468  0.5195
 5850SOL    HW129186   0.354   0.013  15.167 -1.4498  0.0728  1.0761
 5850SOL    HW229187   0.290   4.614  15.164  0.2576  2.0805 -1.7659
 5851SOL     OW29188   3.706   2.495   9.238 -0.3957  0.2689  0.0919
 5851SOL    HW129189   3.622   2.461   9.267  1.1274 -0.7953  3.1930
 5851SOL    HW229190   3.683   2.586   9.216 -0.3821  0.1880 -0.2543
 5852SOL     OW29191   3.917   2.335   4.883  0.9118 -0.0023  0.7192
 5852SOL    HW129192   3.887   2.292   4.964  2.2197 -0.7507  0.8020
 5852SOL    HW229193   3.921   2.424   4.917  0.2983 -0.4637  2.0518
 5853SOL     OW29194   1.918   0.336   0.927  0.2293 -0.1940 -0.4563
 5853SOL    HW129195   1.902   0.257   0.977 -1.4455  0.2801 -0.2325
 5853SOL    HW229196   1.975   0.300   0.859  2.1964  1.7986  0.1620
 5854SOL     OW29197   3.620   2.487  17.109 -0.1104 -0.8795  0.1976
 5854SOL    HW129198   3.697   2.504  17.163 -0.2790 -2.6555  0.9819
 5854SOL    HW229199   3.570   2.436  17.172 -1.1222 -1.1016 -0.7696
 5855SOL     OW29200   0.949   1.555  16.373 -0.0816  0.1949  0.3056
 5855SOL    HW129201   0.878   1.527  16.316 -1.3687 -0.1975  2.1075
 5855SOL    HW229202   1.009   1.480  16.368  1.2754  1.3008  0.0439
 5856SOL     OW29203   0.145   2.188   7.024 -0.2659 -0.0660 -0.1320
 5856SOL    HW129204   0.179   2.207   6.936  0.1607 -1.9936 -0.3938
 5856SOL    HW229205   0.090   2.260   7.051 -0.2354  0.1865 -0.7398
 5857SOL     OW29206   3.556   3.521   0.926  0.2456 -0.4972  0.0555
 5857SOL    HW129207   3.584   3.456   0.990  1.5433  1.1323  1.1293
 5857SOL    HW229208   3.470   3.539   0.964 -0.7722 -1.2905 -1.8674
 5858SOL     OW29209   4.009   0.318   1.709 -0.5070  0.0093 -0.4038
 5858SOL    HW129210   4.042   0.388   1.653 -0.3656  0.9833  0.8820
 5858SOL    HW229211   4.009   0.247   1.645  1.8973 -0.9236  0.6027
 5859SOL     OW29212   0.809   3.019   4.758  0.1666  0.3547  0.1853
 5859SOL    HW129213   0.893   3.050   4.726  0.9575 -2.1630 -0.1863
 5859SOL    HW229214   0.827   2.925   4.750 -0.0403  0.3040  0.2981
 5860SOL     OW29215   3.797   1.045   8.072  0.4818 -0.0264 -0.7973
 5860SOL    HW129216   3.725   1.095   8.035 -0.1623  0.0560  0.5501
 5860SOL    HW229217   3.760   0.995   8.145  1.0519  0.7027  0.0047
 5861SOL     OW29218   4.022   4.570   3.681  0.0132  0.2406 -0.8732
 5861SOL    HW129219   4.058   4.637   3.623  2.3155  0.5660  0.9428
 5861SOL    HW229220   3.929   4.561   3.658  0.0042 -2.0019 -0.0075
 5862SOL     OW29221   1.831   1.102   7.213 -0.0611 -0.1003 -0.1136
 5862SOL    HW129222   1.886   1.179   7.198  1.5499 -0.4356  3.9274
 5862SOL    HW229223   1.880   1.075   7.291  1.4865  1.6141 -0.4783
 5863SOL     OW29224   2.223   2.418   6.299 -0.2840 -0.2573 -0.3003
 5863SOL    HW129225   2.147   2.458   6.342  1.0424  0.8255  1.0633
 5863SOL    HW229226   2.285   2.423   6.372 -1.0956 -1.0058  0.4408
 5864SOL     OW29227   2.617   3.931   2.926 -0.1817  0.0904  0.2207
 5864SOL    HW129228   2.523   3.938   2.940  0.0101 -1.1129  2.1141
 5864SOL    HW229229   2.623   3.887   2.841  2.2196 -0.0267  0.4397
 5865SOL     OW29230   1.188   1.894   4.701  0.8208  0.0994 -0.8768
 5865SOL    HW129231   1.236   1.861   4.777 -1.8650  0.3539  0.8852
 5865SOL    HW229232   1.181   1.809   4.656  1.1256 -0.1038 -0.5440
 5866SOL     OW29233   4.575   1.914   8.163 -0.0543 -0.4290  0.0928
 5866SOL    HW129234   4.612   2.002   8.160 -1.2720  0.0119 -2.1089
 5866SOL    HW229235   4.484   1.932   8.185  0.4292 -1.0865  2.7089
 5867SOL     OW29236   2.389   1.299  16.782  0.5107 -0.1524  0.4019
 5867SOL    HW129237   2.434   1.259  16.707 -0.8161 -0.4545 -0.2404
 5867SOL    HW229238   2.298   1.277  16.763  1.3647 -1.2712 -2.3313
 5868SOL     OW29239   2.903   0.043   6.694  0.0374  0.9215  0.2964
 5868SOL    HW129240   2.830   0.002   6.741  0.7511 -0.6018  0.0529
 5868SOL    HW229241   2.861   0.098   6.628 -1.4906  1.7744  1.9619
 5869SOL     OW29242   4.075   0.294   2.323  0.5236  0.3411 -0.2361
 5869SOL    HW129243   4.037   0.374   2.361  1.3165  0.7296 -0.2464
 5869SOL    HW229244   4.142   0.280   2.390  1.4365 -1.2684 -1.4965
 5870SOL     OW29245   3.197   1.336   7.672 -0.0215  0.2780 -0.7786
 5870SOL    HW129246   3.162   1.320   7.585  0.5923 -1.1395 -0.7695
 5870SOL    HW229247   3.170   1.427   7.679 -1.1320 -0.0839 -0.3878
 5871SOL     OW29248   4.445   2.289   9.225 -0.5988 -0.2654 -0.7524
 5871SOL    HW129249   4.490   2.306   9.308 -1.7590 -1.4410  0.1288
 5871SOL    HW229250   4.519   2.287   9.165  0.5313  1.6007  0.6023
 5872SOL     OW29251   3.859   3.381  16.869 -0.1669 -0.5894 -0.0635
 5872SOL    HW129252   3.795   3.354  16.934 -0.1303 -0.5065  0.0074
 5872SOL    HW229253   3.862   3.477  16.878  0.6367 -0.6143 -0.0171
 5873SOL     OW29254   0.531   0.865   4.696  0.0330  0.1211  0.2752
 5873SOL    HW129255   0.482   0.912   4.628  1.1884 -0.7643 -1.1501
 5873SOL    HW229256   0.467   0.804   4.734 -1.1994 -0.2218 -2.3227
 5874SOL     OW29257   1.330   3.005   4.966 -0.1639  0.2311  0.6811
 5874SOL    HW129258   1.350   2.974   4.878  0.6588  0.4303  0.7989
 5874SOL    HW229259   1.405   2.975   5.018 -0.9170 -1.8881  0.5764
 5875SOL     OW29260   3.799   4.186   6.090 -0.2442 -0.2160 -0.3030
 5875SOL    HW129261   3.731   4.176   6.023 -1.8450  0.9271  1.1366
 5875SOL    HW229262   3.862   4.119   6.064 -1.5161 -1.0787 -1.2024
 5876SOL     OW29263   0.052   2.940   0.600 -0.2905  0.2663  0.8915
 5876SOL    HW129264   0.018   3.029   0.611 -0.4807  0.3863 -0.7131
 5876SOL    HW229265   4.734   2.913   0.527 -0.5464  1.1784  0.7456
 5877SOL     OW29266   3.208   1.584   2.219 -0.2492 -0.3805  0.0812
 5877SOL    HW129267   3.258   1.520   2.270  0.1069  0.1450  0.3893
 5877SOL    HW229268   3.278   1.648   2.217  0.7043 -1.4157  0.3262
 5878SOL     OW29269   4.487   1.353  15.776  1.4448  0.5583 -0.5087
 5878SOL    HW129270   4.490   1.293  15.701  1.3055  0.6848 -0.6175
 5878SOL    HW229271   4.498   1.439  15.735  0.5622  0.3456 -1.2062
 5879SOL     OW29272   2.387   0.484   6.765 -0.3253 -0.7862 -0.1330
 5879SOL    HW129273   2.324   0.412   6.769  1.5153 -2.3172  1.3499
 5879SOL    HW229274   2.331   0.552   6.727  0.9214  0.0556 -0.4599
 5880SOL     OW29275   0.821   1.083   4.596 -0.4322  0.7778  0.4159
 5880SOL    HW129276   0.869   1.126   4.525  0.1030  0.2063  0.4360
 5880SOL    HW229277   0.787   1.157   4.646 -1.7544 -0.7748  1.8390
 5881SOL     OW29278   2.905   2.540   3.930  0.0926 -0.1142  0.2261
 5881SOL    HW129279   2.904   2.623   3.883  2.1538 -0.0219  0.3258
 5881SOL    HW229280   2.886   2.570   4.019 -1.1669 -3.2036  1.0032
 5882SOL     OW29281   0.147   2.105   9.571 -0.6074  0.1515  0.3869
 5882SOL    HW129282   0.059   2.069   9.578  0.1032 -2.2241 -3.1180
 5882SOL    HW229283   0.160   2.062   9.487  0.5517 -0.0038  0.6439
 5883SOL     OW29284   2.599   3.879   1.601 -0.0152  0.1582 -0.0957
 5883SOL    HW129285   2.554   3.943   1.656 -0.0866  0.4412 -0.4871
 5883SOL    HW229286   2.685   3.878   1.644  0.0753  1.1633 -0.2596
 5884SOL     OW29287   1.396   4.290   5.051 -0.0282 -0.0812 -0.2024
 5884SOL    HW129288   1.360   4.356   4.991  1.0238  0.1935 -0.5233
 5884SOL    HW229289   1.322   4.239   5.083  1.6942 -0.3721  3.2907
 5885SOL     OW29290   3.478   3.137  10.166 -0.3727 -0.0937  0.2612
 5885SOL    HW129291   3.511   3.133  10.076 -0.7308  1.9018  0.0542
 5885SOL    HW229292   3.550   3.160  10.224 -1.0660  1.4763  0.4915
 5886SOL     OW29293   3.403   4.576   6.023 -0.1478 -0.6143  0.1536
 5886SOL    HW129294   3.343   4.641   6.057  0.9867 -0.4865  1.8940
 5886SOL    HW229295   3.434   4.614   5.941  2.2237 -0.9607  0.8908
 5887SOL     OW29296   0.917   3.670   1.985  0.2660 -0.0336  0.2893
 5887SOL    HW129297   0.919   3.577   1.961 -0.2015 -0.5858  2.3829
 5887SOL    HW229298   0.825   3.683   2.009 -0.1227  0.4182 -1.4553
 5888SOL     OW29299   1.569   0.235  17.464 -0.3476 -0.2975 -0.2720
 5888SOL    HW129300   1.584   0.209  17.374 -0.7952 -0.0257 -0.4258
 5888SOL    HW229301   1.624   0.166  17.501 -2.2802 -1.5636  0.2897
 5889SOL     OW29302   3.599   2.049   7.868 -0.3266 -0.1923  0.7245
 5889SOL    HW129303   3.645   2.089   7.794 -2.1887 -2.3649 -1.5854
 5889SOL    HW229304   3.636   2.110   7.932 -0.4598 -0.7553  1.3441
 5890SOL     OW29305   2.676   4.627   6.180  0.6271 -0.3205 -0.2475
 5890SOL    HW129306   2.648   4.542   6.145  1.1488 -0.2983 -0.7328
 5890SOL    HW229307   2.596   4.650   6.227  0.2661  0.4016 -1.2227
 5891SOL     OW29308   0.808   3.613   9.107 -0.6308  0.0929  0.4358
 5891SOL    HW129309   0.779   3.600   9.197 -0.9098  0.1856  0.3566
 5891SOL    HW229310   0.766   3.534   9.073  1.6167 -1.2321  0.7197
 5892SOL     OW29311   4.580   0.487   6.616 -0.2227  0.6752 -0.5517
 5892SOL    HW129312   4.505   0.524   6.569 -0.6573 -0.5811 -0.8244
 5892SOL    HW229313   4.629   0.434   6.554  0.1025  0.0027  0.2855
 5893SOL     OW29314   4.572   4.618   5.254  0.2245 -0.1225  0.0196
 5893SOL    HW129315   4.518   4.668   5.192 -2.1228 -1.1652  1.2213
 5893SOL    HW229316   4.580   4.679   5.328  2.4670  0.6428 -0.8595
 5894SOL     OW29317   2.329   2.009   5.043 -0.1985  0.1565  0.3314
 5894SOL    HW129318   2.343   1.967   4.958  0.1583  1.3470 -0.1985
 5894SOL    HW229319   2.368   1.945   5.102  1.6106  1.0907  0.1430
 5895SOL     OW29320   3.117   1.939  11.579 -0.3081  0.1762  0.4145
 5895SOL    HW129321   3.080   1.873  11.521  2.2150 -0.1398 -0.8359
 5895SOL    HW229322   3.049   2.006  11.592 -0.6927 -0.0643 -0.3882
 5896SOL     OW29323   3.890   4.590   6.203  0.5390 -0.5635  0.5280
 5896SOL    HW129324   3.807   4.542   6.205 -0.4375  1.0364 -2.2791
 5896SOL    HW229325   3.868   4.668   6.253  0.3727 -0.0965 -0.2807
 5897SOL     OW29326   3.094   3.269   8.620 -0.0990 -0.2613 -0.5275
 5897SOL    HW129327   3.172   3.219   8.645 -3.1793 -3.5690  2.4876
 5897SOL    HW229328   3.107   3.338   8.685 -1.8952 -0.3983 -0.0232
 5898SOL     OW29329   2.162   1.851  16.873 -0.4074 -0.3099 -0.1242
 5898SOL    HW129330   2.145   1.864  16.966 -2.3754  1.4591 -0.7513
 5898SOL    HW229331   2.189   1.938  16.845  0.6946 -0.7092 -0.3295
 5899SOL     OW29332   3.687   0.016   8.120  0.6241 -0.2782 -0.5105
 5899SOL    HW129333   3.663   0.013   8.028 -1.0751 -0.4663 -0.0535
 5899SOL    HW229334   3.604   0.047   8.157 -0.8193 -1.1419 -3.0395
 5900SOL     OW29335   4.233   0.691   8.598  0.2279  0.1045 -0.2150
 5900SOL    HW129336   4.162   0.701   8.535 -0.2832  1.2002  0.5377
 5900SOL    HW229337   4.295   0.634   8.552  0.1203  0.4046 -0.7307
 5901SOL     OW29338   1.802   4.573   5.271 -0.1325 -0.3342 -0.2815
 5901SOL    HW129339   1.732   4.609   5.216 -1.3126  1.3886  2.3394
 5901SOL    HW229340   1.864   4.525   5.217  0.0023 -1.0291  0.4894
 5902SOL     OW29341   2.821   4.732   4.997 -0.0961  0.2513 -0.6232
 5902SOL    HW129342   2.800   0.084   4.969  0.1955  0.4476 -0.2183
 5902SOL    HW229343   2.877   0.007   5.074  0.5224 -0.6158 -0.9446
 5903SOL     OW29344   3.232   3.442   4.190  0.0321 -1.0031 -0.2540
 5903SOL    HW129345   3.281   3.473   4.115 -0.4076 -3.3913 -1.5310
 5903SOL    HW229346   3.140   3.457   4.166  0.2279  1.5704  0.6704
 5904SOL     OW29347   0.100   0.632   3.654 -0.1321  0.0905 -0.0587
 5904SOL    HW129348   0.190   0.661   3.666 -0.1097 -0.6530  1.5258
 5904SOL    HW229349   0.121   0.544   3.623 -0.0591  0.0975 -0.0289
 5905SOL     OW29350   0.571   1.373   4.270 -0.2254 -0.3085  0.1418
 5905SOL    HW129351   0.583   1.312   4.343 -2.1272 -3.8062 -2.4843
 5905SOL    HW229352   0.492   1.421   4.294 -1.0248 -1.9194  0.7968
 5906SOL     OW29353   2.884   1.183   3.533  0.0606  0.2681  0.0213
 5906SOL    HW129354   2.931   1.107   3.497 -0.2183 -0.3507  0.9753
 5906SOL    HW229355   2.917   1.192   3.622 -2.0476 -0.3454  0.8505
 5907SOL     OW29356   4.458   0.067  14.558 -0.2389  0.1800 -0.0777
 5907SOL    HW129357   4.520   0.001  14.590 -1.5166 -0.9401  0.0677
 5907SOL    HW229358   4.376   0.019  14.572 -0.3838  0.2156 -0.7813
 5908SOL     OW29359   2.118   2.030  12.828  0.8410 -0.9456  0.4556
 5908SOL    HW129360   2.173   1.960  12.794 -0.3092 -1.4986 -0.2567
 5908SOL    HW229361   2.083   1.986  12.905 -1.3123 -0.1869 -0.1060
 5909SOL     OW29362   2.039   3.907  16.308  0.3837 -0.1272  0.5922
 5909SOL    HW129363   2.098   3.977  16.336  0.7550  0.0642 -0.6639
 5909SOL    HW229364   2.086   3.848  16.249 -1.3367  0.6738 -1.6199
 5910SOL     OW29365   0.670   4.067   2.094 -0.2361 -0.2134 -0.1956
 5910SOL    HW129366   0.584   4.028   2.115 -0.4586 -0.2357 -1.1510
 5910SOL    HW229367   0.729   4.015   2.148  0.1770  0.9086  0.4228
 5911SOL     OW29368   4.346   1.194   2.766  0.1358 -0.2500 -0.2449
 5911SOL    HW129369   4.369   1.108   2.731  1.6079  0.4163 -0.9543
 5911SOL    HW229370   4.435   1.228   2.777 -0.3889  1.3555 -1.0116
 5912SOL     OW29371   3.689   3.356   4.943  0.0308  0.1391 -0.5318
 5912SOL    HW129372   3.722   3.439   4.906 -1.4116 -0.0594 -2.2109
 5912SOL    HW229373   3.755   3.294   4.912  0.1764 -0.4179  0.9107
 5913SOL     OW29374   1.077   1.752   6.060 -0.2744 -0.3705  0.4224
 5913SOL    HW129375   1.072   1.659   6.039 -0.9016  0.1129 -1.5272
 5913SOL    HW229376   0.984   1.769   6.071 -0.3031  0.3981 -0.9665
 5914SOL     OW29377   3.061   1.322  11.651  0.4461 -0.2825  0.3587
 5914SOL    HW129378   3.064   1.226  11.656  0.7386 -0.3445 -0.8515
 5914SOL    HW229379   3.020   1.350  11.732  1.5240  0.1232  0.7639
 5915SOL     OW29380   0.957   4.640   1.098 -0.2101 -0.2452  0.1095
 5915SOL    HW129381   0.984   4.672   1.184 -0.3569  1.4692 -0.4891
 5915SOL    HW229382   0.870   4.605   1.116  0.2146 -2.5967 -2.3634
 5916SOL     OW29383   2.469   3.477  10.694  0.1933  0.2066 -0.0317
 5916SOL    HW129384   2.486   3.562  10.654  1.8159  0.1923  0.5858
 5916SOL    HW229385   2.555   3.434  10.691  0.5393  1.1151 -2.9984
 5917SOL     OW29386   2.258   1.951   9.749 -0.0939  0.3834  0.3240
 5917SOL    HW129387   2.258   1.896   9.671 -1.3704  0.6579  0.1350
 5917SOL    HW229388   2.320   1.905   9.805 -0.2090 -0.9209 -0.6412
 5918SOL     OW29389   3.141   0.782   1.847  0.0465 -0.2507 -0.0976
 5918SOL    HW129390   3.101   0.851   1.793 -1.4597 -0.3411  0.8922
 5918SOL    HW229391   3.058   0.740   1.871  0.1185 -0.2684  0.1144
 5919SOL     OW29392   2.556   1.479   7.735 -0.2431  0.1713 -0.0829
 5919SOL    HW129393   2.585   1.571   7.741  0.0467 -0.0012  1.1375
 5919SOL    HW229394   2.643   1.441   7.726  0.1310  1.3141 -1.3914
 5920SOL     OW29395   0.709   1.692  11.762 -0.3305  0.3695 -0.1123
 5920SOL    HW129396   0.687   1.693  11.855 -1.5527  0.8857 -0.4127
 5920SOL    HW229397   0.764   1.770  11.755  1.2615 -0.8045 -0.6399
 5921SOL     OW29398   3.984   0.835   3.553 -0.2348 -0.3653  0.2873
 5921SOL    HW129399   4.066   0.821   3.601 -0.8503 -3.4352  0.4765
 5921SOL    HW229400   3.920   0.781   3.601 -1.2250 -0.1569 -0.7987
 5922SOL     OW29401   2.717   2.425   7.785  0.0301  0.3702 -0.2585
 5922SOL    HW129402   2.804   2.446   7.750  0.4638  0.5187  0.9155
 5922SOL    HW229403   2.693   2.514   7.809 -0.3922  0.1948 -0.0238
 5923SOL     OW29404   3.166   4.207   9.225  0.5177 -0.2117  0.0399
 5923SOL    HW129405   3.202   4.233   9.309 -0.2183  2.4602 -0.4581
 5923SOL    HW229406   3.249   4.212   9.178  0.3186  1.0745 -0.1774
 5924SOL     OW29407   4.466   1.560   2.955  0.5098 -1.1182 -0.5099
 5924SOL    HW129408   4.389   1.583   3.006 -0.5769 -0.6304 -2.3616
 5924SOL    HW229409   4.529   1.626   2.982 -1.8857 -0.1472  2.7320
 5925SOL     OW29410   1.776   0.535   5.355 -0.0620  0.3927  0.2357
 5925SOL    HW129411   1.824   0.536   5.272  1.5111  0.4857  1.1631
 5925SOL    HW229412   1.726   0.454   5.342  0.4702  0.0625  0.2694
 5926SOL     OW29413   1.067   0.615   9.365  0.2449 -0.3270  0.1504
 5926SOL    HW129414   1.064   0.699   9.411  1.9308 -0.2175  0.0547
 5926SOL    HW229415   1.160   0.594   9.362  0.4157 -0.0599  3.0921
 5927SOL     OW29416   0.355   1.464  15.558  0.2247  0.2167 -0.4151
 5927SOL    HW129417   0.261   1.448  15.543  0.3820 -0.3568 -0.7894
 5927SOL    HW229418   0.352   1.528  15.629 -0.6754  2.2491 -2.2971
 5928SOL     OW29419   2.101   0.802   0.780 -0.6935 -0.6253 -0.4256
 5928SOL    HW129420   2.131   0.772   0.866 -0.4392 -0.1180 -0.3374
 5928SOL    HW229421   2.031   0.863   0.801  1.3335  1.2201  0.9827
 5929SOL     OW29422   4.035   1.555   1.621  0.1487  0.1116 -0.4995
 5929SOL    HW129423   4.114   1.594   1.659  0.1868 -2.0998  1.7175
 5929SOL    HW229424   3.985   1.526   1.697  0.0081  0.5258 -0.4338
 5930SOL     OW29425   2.115   1.873  12.114 -0.5830 -0.1438 -0.1179
 5930SOL    HW129426   2.093   1.883  12.021  1.1225 -1.3349 -0.6530
 5930SOL    HW229427   2.177   1.945  12.117 -1.5119  0.6705 -0.2972
 5931SOL     OW29428   4.423   1.682   0.693  0.2612 -0.2344  0.4932
 5931SOL    HW129429   4.342   1.730   0.709  0.2950  0.2772 -0.9177
 5931SOL    HW229430   4.413   1.646   0.605  0.6719  1.9161 -0.4333
 5932SOL     OW29431   4.058   3.319   2.237  0.1930 -0.3647  0.0275
 5932SOL    HW129432   4.022   3.366   2.312  2.4526  1.0988  0.2127
 5932SOL    HW229433   4.012   3.235   2.243  1.6141 -1.1126  0.4646
 5933SOL     OW29434   3.049   3.824  14.876 -0.1352 -0.5265  0.3146
 5933SOL    HW129435   3.024   3.915  14.893 -1.8619 -1.1158  0.8740
 5933SOL    HW229436   3.081   3.793  14.960  0.6904  1.8495  0.8823
 5934SOL     OW29437   3.220   1.637   7.375  0.2181 -0.2523  0.1361
 5934SOL    HW129438   3.153   1.569   7.389 -0.1958  0.2796  0.7025
 5934SOL    HW229439   3.237   1.669   7.463 -0.3680  2.0388 -0.5845
 5935SOL     OW29440   1.167   3.061   7.484  0.3270 -0.1385  0.2783
 5935SOL    HW129441   1.225   3.059   7.560  1.9216  3.3647 -0.8419
 5935SOL    HW229442   1.100   3.126   7.507 -0.0749 -0.3165 -0.3917
 5936SOL     OW29443   0.744   4.106  10.274 -0.3400  0.1972  0.1884
 5936SOL    HW129444   0.653   4.121  10.247 -0.6902 -2.1686  0.1073
 5936SOL    HW229445   0.757   4.170  10.344  0.5920  0.9859 -0.6951
 5937SOL     OW29446   3.626   1.395   7.092  0.5286 -0.2018  0.7148
 5937SOL    HW129447   3.566   1.401   7.166  1.0378 -0.7039  1.1724
 5937SOL    HW229448   3.701   1.445   7.125 -0.1646  1.1831  0.1693
 5938SOL     OW29449   0.462   1.355   7.810 -0.4092 -0.7521 -0.4786
 5938SOL    HW129450   0.530   1.309   7.759  0.0971  0.6808 -1.0940
 5938SOL    HW229451   0.496   1.444   7.822 -0.2504 -0.9517  0.5044
 5939SOL     OW29452   1.549   0.206   3.949 -0.3554 -0.5444 -0.1519
 5939SOL    HW129453   1.603   0.129   3.968 -0.8421 -1.3632 -2.0243
 5939SOL    HW229454   1.609   0.277   3.970 -0.8834 -0.0899 -0.1915
 5940SOL     OW29455   1.663   1.124   4.850 -0.0391 -0.3030 -0.0674
 5940SOL    HW129456   1.711   1.152   4.928  2.3286 -0.6126 -1.4085
 5940SOL    HW229457   1.584   1.090   4.894 -0.0908  0.3074  0.3093
 5941SOL     OW29458   3.494   1.016   6.987  0.1758  0.7043  0.1756
 5941SOL    HW129459   3.550   0.939   6.975  2.3812  2.6380 -2.1488
 5941SOL    HW229460   3.558   1.086   6.976  1.1069 -0.6085 -2.8014
 5942SOL     OW29461   2.605   1.581   1.109  0.2860 -0.5750  0.1340
 5942SOL    HW129462   2.669   1.634   1.156  2.0384 -1.6773 -1.0276
 5942SOL    HW229463   2.648   1.581   1.023 -0.0972 -0.5544 -0.0583
 5943SOL     OW29464   1.936   1.701   8.978 -0.1253 -0.5997 -0.0581
 5943SOL    HW129465   2.016   1.744   9.008 -0.6119 -0.5442  1.1589
 5943SOL    HW229466   1.967   1.626   8.927  0.3384  0.5861 -1.5240
 5944SOL     OW29467   0.671   1.243  11.497 -0.3233 -0.4367  0.0850
 5944SOL    HW129468   0.710   1.321  11.535  2.3143 -0.4660 -2.5584
 5944SOL    HW229469   0.725   1.171  11.532  1.3827  1.4043  1.2222
 5945SOL     OW29470   1.197   1.893   6.597  0.1394 -0.7912 -0.6542
 5945SOL    HW129471   1.193   1.880   6.503  0.8602 -0.9058 -0.6716
 5945SOL    HW229472   1.243   1.813   6.621  0.7197 -0.2572  0.0452
 5946SOL     OW29473   1.214   1.308   1.113 -0.4131  0.3240  0.1952
 5946SOL    HW129474   1.144   1.333   1.053  0.8325  2.1174 -0.5422
 5946SOL    HW229475   1.290   1.298   1.055 -2.0508  0.1583 -1.9149
 5947SOL     OW29476   2.976   4.027   2.706  0.4301 -0.0365  0.7203
 5947SOL    HW129477   3.000   4.116   2.730 -2.2659  0.7563  0.5094
 5947SOL    HW229478   3.016   4.031   2.619 -0.4161  2.3217  0.4426
 5948SOL     OW29479   1.390   0.633   6.241 -0.5702  0.2930 -0.0442
 5948SOL    HW129480   1.480   0.663   6.230 -0.6152  1.6001  3.2323
 5948SOL    HW229481   1.339   0.710   6.216 -0.6842  0.2730  0.1267
 5949SOL     OW29482   0.491   3.560   3.159 -0.1363 -0.1294 -1.0873
 5949SOL    HW129483   0.463   3.623   3.226  0.4327 -1.4231  0.3736
 5949SOL    HW229484   0.551   3.611   3.105 -1.6379  2.5386 -0.1866
 5950SOL     OW29485   2.309   3.896   3.756 -0.1108  0.3269 -0.6143
 5950SOL    HW129486   2.263   3.821   3.794 -2.0065  3.2930  3.0233
 5950SOL    HW229487   2.342   3.843   3.685  2.4982 -1.3907  1.8821
 5951SOL     OW29488   1.969   4.131   3.879  0.2238  0.5643  0.0504
 5951SOL    HW129489   1.971   4.090   3.793 -0.5489  0.2354  0.1795
 5951SOL    HW229490   2.038   4.087   3.929  0.8220 -0.6980 -1.9004
 5952SOL     OW29491   1.634   1.209   7.035 -0.8482 -0.3312 -0.2247
 5952SOL    HW129492   1.697   1.186   7.104 -2.0240 -2.2414  0.2228
 5952SOL    HW229493   1.648   1.303   7.025 -1.1147 -0.1995  0.6375
 5953SOL     OW29494   3.030   3.281   7.254  0.0205  0.5088 -0.3094
 5953SOL    HW129495   2.969   3.209   7.273  1.6868 -0.7935  0.1010
 5953SOL    HW229496   3.029   3.331   7.336  3.7271  2.0577 -1.2413
 5954SOL     OW29497   3.711   0.153   1.942 -0.9599 -0.6937 -0.2161
 5954SOL    HW129498   3.722   0.064   1.907  0.0220 -0.7408  0.2101
 5954SOL    HW229499   3.628   0.134   1.987 -1.3511 -2.3385 -1.6120
 5955SOL     OW29500   3.357   4.633   6.411 -0.0018 -0.2409  0.7497
 5955SOL    HW129501   3.264   4.658   6.412  0.0769  0.0967 -0.5720
 5955SOL    HW229502   3.400   4.679   6.339 -2.3220 -0.0083 -0.4768
 5956SOL     OW29503   4.468   3.092   9.786  0.2570  0.1961 -0.0836
 5956SOL    HW129504   4.419   3.010   9.788 -2.1641  1.6393 -1.1973
 5956SOL    HW229505   4.554   3.073   9.825 -0.2695  0.8976  1.4354
 5957SOL     OW29506   1.641   1.300  14.671 -0.3232  0.0209  0.1807
 5957SOL    HW129507   1.724   1.255  14.659  0.3095  1.4321 -0.7831
 5957SOL    HW229508   1.661   1.355  14.747  0.3834  1.4627 -1.0408
 5958SOL     OW29509   2.586   3.539   6.760  0.1892  0.8035 -0.3919
 5958SOL    HW129510   2.558   3.521   6.671 -0.8157  0.0141  0.0813
 5958SOL    HW229511   2.552   3.629   6.766 -0.5345  0.4949  0.2472
 5959SOL     OW29512   0.578   2.620   3.593  0.0452 -0.0246 -0.4153
 5959SOL    HW129513   0.522   2.550   3.558 -0.1886 -0.8579  1.6654
 5959SOL    HW229514   0.606   2.578   3.674  0.5056  1.2903  0.1003
 5960SOL     OW29515   0.648   3.122   9.818  0.1920  0.5322  0.0655
 5960SOL    HW129516   0.731   3.163   9.795  1.2167 -2.4823 -1.5473
 5960SOL    HW229517   0.662   3.055   9.884  1.8263  0.2181 -0.6101
 5961SOL     OW29518   4.654   4.038  11.072  0.3099  0.1161  0.0282
 5961SOL    HW129519   4.641   4.091  10.993 -0.9556  0.1787  0.2707
 5961SOL    HW229520   4.638   3.946  11.053 -2.7937  0.6311  0.0815
 5962SOL     OW29521   1.091   4.127   4.109 -0.2845 -0.2568 -0.0336
 5962SOL    HW129522   1.176   4.169   4.123  0.3107 -0.7353 -2.1861
 5962SOL    HW229523   1.033   4.200   4.131  0.2795 -0.4557  2.1076
 5963SOL     OW29524   2.606   3.218  11.850  0.5235 -0.1167  0.3576
 5963SOL    HW129525   2.586   3.239  11.759  0.2253 -1.1568  0.1846
 5963SOL    HW229526   2.670   3.146  11.844  0.2430 -0.1805 -2.0623
 5964SOL     OW29527   1.430   3.854   5.927 -0.6698  0.0460  0.1386
 5964SOL    HW129528   1.507   3.870   5.871  0.2770 -1.0624  1.1252
 5964SOL    HW229529   1.365   3.824   5.865 -1.0432  1.3941 -0.1148
 5965SOL     OW29530   4.411   0.227  16.084  0.0057  0.4107  0.0218
 5965SOL    HW129531   4.439   0.317  16.102 -0.6131  0.6508 -0.2239
 5965SOL    HW229532   4.489   0.204  16.033  0.3097 -0.7600  1.0157
 5966SOL     OW29533   3.201   3.120   3.324 -0.0131  0.0132 -0.6297
 5966SOL    HW129534   3.240   3.050   3.271  1.6360  2.4854 -2.6829
 5966SOL    HW229535   3.111   3.087   3.332 -0.8821  2.7731  0.9810
 5967SOL     OW29536   3.308   4.287   5.599  0.0515 -0.0949  0.2328
 5967SOL    HW129537   3.323   4.193   5.585  0.1286 -0.0401 -0.0422
 5967SOL    HW229538   3.398   4.313   5.620 -0.9847  3.4239  0.1862
 5968SOL     OW29539   0.726   0.760   1.756  0.7850 -0.9425 -0.4727
 5968SOL    HW129540   0.688   0.847   1.748  1.3783 -0.7982 -1.7075
 5968SOL    HW229541   0.781   0.774   1.833 -0.1082  1.7231 -0.3439
 5969SOL     OW29542   1.949   1.912   8.106 -0.0194 -0.5570  0.4575
 5969SOL    HW129543   2.000   1.877   8.179 -1.1720 -3.2979 -0.0458
 5969SOL    HW229544   1.870   1.859   8.107 -0.4416  0.0799  0.6174
 5970SOL     OW29545   1.321   1.736   3.305  0.5330 -0.2997  0.2504
 5970SOL    HW129546   1.329   1.660   3.248  0.3191  1.6265 -2.3756
 5970SOL    HW229547   1.226   1.740   3.310  0.5917  0.4005  0.8117
 5971SOL     OW29548   2.776   1.369   0.093 -0.4782  0.1371  0.1492
 5971SOL    HW129549   2.780   1.464   0.079  0.5421  0.1165  0.3061
 5971SOL    HW229550   2.754   1.350   0.002 -0.4428  1.8494 -0.2125
 5972SOL     OW29551   1.808   2.809   4.305 -0.0417 -0.2359  0.0842
 5972SOL    HW129552   1.724   2.854   4.291  0.1824  0.0415 -0.3660
 5972SOL    HW229553   1.869   2.867   4.259 -0.0206 -0.5322 -0.2627
 5973SOL     OW29554   1.166   4.447  12.251  0.1835  0.5219 -0.0993
 5973SOL    HW129555   1.210   4.375  12.206  2.1761 -0.7826  3.8994
 5973SOL    HW229556   1.220   4.442  12.330 -0.4702 -1.5035  0.2197
 5974SOL     OW29557   4.644   4.431   3.564  0.4811  0.2387  0.0422
 5974SOL    HW129558   4.613   4.410   3.475  0.1358 -0.6556  0.3769
 5974SOL    HW229559   4.686   4.345   3.573  0.2248  0.3814  2.4297
 5975SOL     OW29560   1.004   3.611   9.445  0.0006  0.8717 -0.0881
 5975SOL    HW129561   1.094   3.608   9.478  0.4627  2.1493 -1.2473
 5975SOL    HW229562   0.962   3.687   9.487  0.9410  0.5746  1.3887
 5976SOL     OW29563   3.480   2.048  11.560  0.5893  0.0126  0.6024
 5976SOL    HW129564   3.559   2.056  11.507 -0.1011  1.6044 -0.1851
 5976SOL    HW229565   3.421   2.107  11.515 -0.2026  0.4118  2.1472
 5977SOL     OW29566   4.181   0.155  13.137 -0.4676 -0.6763  0.1152
 5977SOL    HW129567   4.223   0.238  13.159 -1.7591 -0.1433  0.5575
 5977SOL    HW229568   4.222   0.093  13.197 -0.0482  0.5365  1.0989
 5978SOL     OW29569   3.401   3.802   0.012 -0.7221 -0.0670  0.0213
 5978SOL    HW129570   3.450   3.884   0.005  1.0452 -1.0684  0.5073
 5978SOL    HW229571   3.421   3.777   0.103 -0.2261  0.8973  0.1771
 5979SOL     OW29572   2.555   3.075   7.181  0.7913 -0.3856 -0.0001
 5979SOL    HW129573   2.538   3.099   7.273 -1.4315  0.4588 -0.6348
 5979SOL    HW229574   2.606   3.151   7.152  1.6845 -1.3206 -0.8605
 5980SOL     OW29575   0.025   0.046  10.848 -0.3783  0.0950  0.6264
 5980SOL    HW129576   4.723   4.701  10.820 -0.2967  0.5096 -0.7057
 5980SOL    HW229577   4.704   0.061  10.922  0.3179 -1.0578  1.4044
 5981SOL     OW29578   0.224   1.127   8.722 -0.4136 -0.5772 -0.1924
 5981SOL    HW129579   0.214   1.219   8.696  1.2287 -0.3754 -0.1296
 5981SOL    HW229580   0.320   1.123   8.715 -0.4796 -1.1849 -0.7656
 5982SOL     OW29581   3.471   2.008   5.018 -0.0911  0.0863 -0.1838
 5982SOL    HW129582   3.401   1.960   4.973 -1.4991  2.3788 -0.4574
 5982SOL    HW229583   3.496   2.057   4.940 -0.2708 -0.1166 -0.3720
 5983SOL     OW29584   4.512   4.403   9.011 -0.1577 -0.1123 -0.0681
 5983SOL    HW129585   4.562   4.322   8.994 -0.2583  0.3780 -2.6376
 5983SOL    HW229586   4.465   4.422   8.930  0.8638  1.3082 -0.3279
 5984SOL     OW29587   4.348   0.904   9.287  0.5521 -0.2125 -0.2423
 5984SOL    HW129588   4.257   0.935   9.286  1.3207  2.0323 -0.8160
 5984SOL    HW229589   4.361   0.905   9.192 -1.3465 -0.4402 -0.5203
 5985SOL     OW29590   0.957   0.119   2.669 -0.8427 -0.0135 -0.3615
 5985SOL    HW129591   1.024   0.136   2.603 -1.8399  0.2103 -1.3249
 5985SOL    HW229592   0.884   0.099   2.609 -0.7804 -0.0503 -0.4249
 5986SOL     OW29593   0.134   0.970   2.399  0.1907  0.1443  0.2733
 5986SOL    HW129594   0.191   0.975   2.322  0.9066 -0.0076  0.7884
 5986SOL    HW229595   0.190   0.909   2.449 -0.8024  0.7978  2.1982
 5987SOL     OW29596   2.223   2.807   6.359  0.3561 -0.6493 -0.1365
 5987SOL    HW129597   2.267   2.784   6.441  1.1403  0.8439 -0.1483
 5987SOL    HW229598   2.261   2.737   6.305  0.8864 -0.7171  0.3156
 5988SOL     OW29599   0.703   3.154   1.167 -0.6472  0.1055  0.0495
 5988SOL    HW129600   0.787   3.124   1.200  0.0762  1.4311 -0.5713
 5988SOL    HW229601   0.661   3.071   1.144  1.4019 -0.4253 -1.7850
 5989SOL     OW29602   4.452   0.986   2.643 -0.2048  0.3165 -0.2033
 5989SOL    HW129603   4.511   0.959   2.573  0.7753  3.3084 -0.5470
 5989SOL    HW229604   4.380   0.923   2.636 -1.2474  1.3592  1.1345
 5990SOL     OW29605   1.192   2.799   4.101  0.7413  0.5997 -0.0167
 5990SOL    HW129606   1.282   2.794   4.068  1.0022  1.0406  0.6101
 5990SOL    HW229607   1.159   2.710   4.102 -0.1421  0.9025 -1.6479
 5991SOL     OW29608   1.000   0.046   4.958  0.4340 -0.2055 -0.4446
 5991SOL    HW129609   0.922   4.736   4.929  1.5251 -1.5413 -1.1598
 5991SOL    HW229610   1.063   0.015   4.894 -0.1600 -1.4428 -0.4133
 5992SOL     OW29611   4.641   1.923  12.292  0.0027  0.1480  0.2142
 5992SOL    HW129612   4.677   2.000  12.335 -3.2531 -0.0052  3.2492
 5992SOL    HW229613   4.699   1.852  12.320 -0.7554  0.2301  1.9396
 5993SOL     OW29614   3.409   4.310  17.717  0.2199 -0.2476 -0.2972
 5993SOL    HW129615   3.383   4.220  17.695  0.6469  0.1451 -2.4132
 5993SOL    HW229616   3.377   4.361  17.643  3.2392 -0.2998 -1.6802
 5994SOL     OW29617   0.989   2.380   6.602  0.2538 -0.1851  0.1260
 5994SOL    HW129618   1.019   2.434   6.529 -1.3352  1.6847  0.8605
 5994SOL    HW229619   0.972   2.446   6.669 -1.1579 -0.0425 -0.3767
 5995SOL     OW29620   4.587   3.425   2.272 -0.1757  0.0254  0.2358
 5995SOL    HW129621   4.620   3.343   2.311  1.4533  0.8914  0.6568
 5995SOL    HW229622   4.492   3.415   2.284 -0.1090 -2.0368 -0.9749
 5996SOL     OW29623   2.464   1.427  17.017 -0.2001  0.3907 -0.4749
 5996SOL    HW129624   2.395   1.489  16.993 -1.4862  0.6354  4.0326
 5996SOL    HW229625   2.464   1.377  16.935  0.9022  1.8659 -1.3663
 5997SOL     OW29626   4.081   2.891   6.738 -0.0163  0.4310 -0.2693
 5997SOL    HW129627   4.065   2.830   6.810  0.3471  0.0342 -0.5286
 5997SOL    HW229628   4.017   2.959   6.761  1.8836  2.1148 -0.0014
 5998SOL     OW29629   4.033   1.305   8.109  0.2259  0.5251 -0.3930
 5998SOL    HW129630   3.994   1.260   8.184 -0.8571  2.1909  0.0588
 5998SOL    HW229631   4.126   1.284   8.109  0.0336 -0.3290  0.3418
 5999SOL     OW29632   2.568   2.546   8.642 -0.4375  0.3896  0.1074
 5999SOL    HW129633   2.641   2.530   8.702 -0.5990 -1.2215 -0.1197
 5999SOL    HW229634   2.570   2.641   8.633  2.4180  0.5460  2.3535
 6000SOL     OW29635   0.468   4.589   3.280 -0.2832  0.1475 -0.1607
 6000SOL    HW129636   0.562   4.578   3.268 -0.4469 -0.9631 -0.4551
 6000SOL    HW229637   0.433   4.581   3.191 -0.2640  1.1055 -0.2538
 6001SOL     OW29638   0.810   2.128   6.002 -0.0868  0.0734  0.7666
 6001SOL    HW129639   0.843   2.215   6.022  2.2846 -0.9732  1.3639
 6001SOL    HW229640   0.742   2.155   5.940 -1.0555  1.0017  2.2515
 6002SOL     OW29641   2.168   1.357   3.707 -0.7113 -0.2152 -0.0727
 6002SOL    HW129642   2.120   1.379   3.627  0.3311 -1.1033 -0.9387
 6002SOL    HW229643   2.259   1.382   3.692 -1.5557  1.5397 -2.3059
 6003SOL     OW29644   3.270   3.722   7.421  0.4280  0.0140 -0.3771
 6003SOL    HW129645   3.344   3.669   7.449 -0.1680 -1.3859 -1.4161
 6003SOL    HW229646   3.286   3.803   7.469  0.0609  0.0799 -0.3626
 6004SOL     OW29647   3.839   4.417   4.663 -0.2946  0.4855  0.0351
 6004SOL    HW129648   3.779   4.491   4.660 -1.7166 -0.7068 -0.9776
 6004SOL    HW229649   3.816   4.368   4.742  0.2706  0.1936  0.0210
 6005SOL     OW29650   3.894   1.760   7.122 -0.6822 -0.1891 -0.2106
 6005SOL    HW129651   3.982   1.764   7.085 -0.5362 -2.9280 -0.1119
 6005SOL    HW229652   3.916   1.767   7.214 -0.5289  2.1699 -0.4225
 6006SOL     OW29653   1.779   1.318   1.979  0.2293 -0.3847 -0.3519
 6006SOL    HW129654   1.758   1.379   2.050 -0.1972  1.8394 -2.3936
 6006SOL    HW229655   1.713   1.329   1.910  0.7382  0.4479 -0.7171
 6007SOL     OW29656   1.107   4.114  16.382 -0.1599 -0.0172  0.1139
 6007SOL    HW129657   1.056   4.046  16.424 -0.2634 -0.6691 -1.0492
 6007SOL    HW229658   1.157   4.159  16.450  0.8690  0.3435 -0.8680
 6008SOL     OW29659   2.998   0.018   0.557 -0.0777  0.2942 -0.1080
 6008SOL    HW129660   2.999   4.660   0.547  1.4618  0.4949 -1.8990
 6008SOL    HW229661   2.933   0.045   0.492  1.2186 -0.5132 -1.7306
 6009SOL     OW29662   0.710   4.120  12.853 -0.3292 -0.2845 -0.0295
 6009SOL    HW129663   0.675   4.033  12.831 -2.5935  0.8283 -0.8690
 6009SOL    HW229664   0.633   4.175  12.842 -1.5901 -1.9901  0.2624
 6010SOL     OW29665   2.652   0.341   8.004 -0.7310  0.6400 -0.3402
 6010SOL    HW129666   2.635   0.250   7.978  0.0743  0.8112 -1.4549
 6010SOL    HW229667   2.598   0.350   8.082 -1.2695  1.5754 -0.8239
 6011SOL     OW29668   2.680   1.282   3.379 -0.3180  0.8424 -0.5734
 6011SOL    HW129669   2.753   1.248   3.430 -1.1353 -0.1559 -0.0620
 6011SOL    HW229670   2.626   1.323   3.447  0.2928  1.2002 -0.3067
 6012SOL     OW29671   0.138   0.011  15.415 -0.1436  0.1140  0.0455
 6012SOL    HW129672   0.218   4.715  15.374 -0.7777  0.3669 -1.4197
 6012SOL    HW229673   0.118   4.680  15.478 -0.0002  0.4825  0.4895
 6013SOL     OW29674   1.285   0.966   5.709 -0.2583  0.2100  0.4111
 6013SOL    HW129675   1.380   0.965   5.705 -0.2513 -0.7031  0.7639
 6013SOL    HW229676   1.262   1.050   5.749  0.5881  0.0459  1.2359
 6014SOL     OW29677   3.685   4.268   5.310 -0.1922 -0.6437  0.6857
 6014SOL    HW129678   3.771   4.302   5.284  0.4407 -1.2700  1.9264
 6014SOL    HW229679   3.638   4.351   5.317 -0.4895 -0.6090 -1.6508
 6015SOL     OW29680   3.335   4.608  12.180 -0.3843  0.9826 -0.0463
 6015SOL    HW129681   3.426   4.628  12.158 -1.0271  1.3631 -2.4232
 6015SOL    HW229682   3.318   4.664  12.255 -0.1703 -1.1713  1.6133
 6016SOL     OW29683   1.584   1.039   4.421 -0.5047 -0.6280  0.3219
 6016SOL    HW129684   1.580   0.945   4.401  0.9266 -0.3400 -1.2723
 6016SOL    HW229685   1.656   1.048   4.483  0.5347  1.1272 -1.1386
 6017SOL     OW29686   4.281   1.006   7.873  0.1562 -0.6297  0.0647
 6017SOL    HW129687   4.186   1.011   7.868  0.3893  3.5223  0.0903
 6017SOL    HW229688   4.302   1.063   7.947 -1.7379 -0.1732  0.2261
 6018SOL     OW29689   2.386   2.500   7.112 -0.0585  0.6618 -0.5767
 6018SOL    HW129690   2.402   2.436   7.181 -0.1160  0.0751 -1.0980
 6018SOL    HW229691   2.473   2.521   7.077  0.0358 -2.3082 -2.1549
 6019SOL     OW29692   1.395   3.535   8.892  0.5767 -0.5418  0.4887
 6019SOL    HW129693   1.431   3.546   8.804 -2.6514 -1.5857 -0.9693
 6019SOL    HW229694   1.319   3.477   8.883 -0.9445  1.4413  0.5109
 6020SOL     OW29695   1.803   4.329   8.639 -0.3134 -0.1144  0.3853
 6020SOL    HW129696   1.839   4.416   8.656  0.3635  0.1690 -2.4306
 6020SOL    HW229697   1.824   4.292   8.725  1.0765  1.9902  0.9449
 6021SOL     OW29698   2.309   1.577   1.027 -0.2111  0.5599  0.7130
 6021SOL    HW129699   2.403   1.593   1.022  0.1440 -1.5199  0.8698
 6021SOL    HW229700   2.283   1.663   0.992  3.4219  0.9162 -1.1260
 6022SOL     OW29701   3.866   2.054   2.130  0.3173 -0.4012  0.2413
 6022SOL    HW129702   3.940   2.093   2.083  0.0412  1.1487  1.0841
 6022SOL    HW229703   3.876   2.090   2.218  0.2325  1.0259 -0.3318
 6023SOL     OW29704   3.291   1.366   3.998  0.1015 -0.2483 -0.0870
 6023SOL    HW129705   3.289   1.278   3.961 -0.8410  0.4353 -1.6671
 6023SOL    HW229706   3.332   1.404   3.921  0.1056 -1.7479 -0.8177
 6024SOL     OW29707   1.407   1.606  17.461  0.4987  0.3571 -0.1082
 6024SOL    HW129708   1.402   1.563  17.546  0.1543  0.7755  0.0791
 6024SOL    HW229709   1.501   1.621  17.446  0.8336  0.8015  2.5438
 6025SOL     OW29710   3.815   0.075   2.756 -0.0970 -0.7732 -0.2871
 6025SOL    HW129711   3.904   0.091   2.787 -0.0010  1.2663 -1.6057
 6025SOL    HW229712   3.789   0.157   2.714 -0.5198 -2.4779 -3.3672
 6026SOL     OW29713   2.873   3.793   5.328  0.8719 -0.3644 -0.3669
 6026SOL    HW129714   2.879   3.862   5.395  0.7714 -0.7627  0.0550
 6026SOL    HW229715   2.928   3.830   5.259  3.0831 -1.8639  0.5976
 6027SOL     OW29716   2.771   0.221   4.303  0.2576  0.0984 -0.2169
 6027SOL    HW129717   2.790   0.132   4.333  0.1107 -0.1880 -0.9632
 6027SOL    HW229718   2.842   0.243   4.243 -0.1993  0.4630 -0.6234
 6028SOL     OW29719   2.028   3.969   4.345  0.5397  0.0156  0.2914
 6028SOL    HW129720   2.120   3.964   4.369  0.4288 -0.7556  0.5521
 6028SOL    HW229721   2.001   3.879   4.361  1.0602 -0.1554  0.2070
 6029SOL     OW29722   4.451   4.012   7.656 -0.6026  0.2030  0.1815
 6029SOL    HW129723   4.399   4.092   7.661  0.9044  1.1936 -0.0655
 6029SOL    HW229724   4.495   4.014   7.741  0.0523 -1.1484 -0.1219
 6030SOL     OW29725   1.874   3.117   8.327 -0.1118  0.2155  0.9423
 6030SOL    HW129726   1.805   3.056   8.300  1.5054 -1.1771 -0.0636
 6030SOL    HW229727   1.919   3.133   8.244 -2.8057  1.8397 -0.1938
 6031SOL     OW29728   1.931   0.641   2.579 -0.0399  0.0566  0.6200
 6031SOL    HW129729   1.900   0.613   2.665  1.8857 -0.1956  1.2366
 6031SOL    HW229730   2.016   0.679   2.605 -0.4517  1.3015  0.1267
 6032SOL     OW29731   0.046   1.614  11.367  0.7140 -0.0578 -0.4749
 6032SOL    HW129732   0.132   1.575  11.386  0.0500 -1.0619  0.4970
 6032SOL    HW229733   4.725   1.550  11.410  1.0587 -0.7792 -1.0823
 6033SOL     OW29734   0.996   2.289   7.314 -0.4158 -0.0658  0.0891
 6033SOL    HW129735   1.078   2.319   7.276  0.3757 -1.1438  0.9185
 6033SOL    HW229736   0.937   2.358   7.284  0.2451 -0.3229 -1.7855
 6034SOL     OW29737   3.993   3.041   2.258 -0.5762  0.4976  0.1631
 6034SOL    HW129738   4.034   2.959   2.287 -1.8466  0.6452  2.3815
 6034SOL    HW229739   3.951   3.008   2.179 -0.3662  0.4312  0.0779
 6035SOL     OW29740   3.963   2.733   6.957 -0.3989  0.0396  0.6450
 6035SOL    HW129741   3.910   2.799   7.001  2.5433  2.5176  0.4754
 6035SOL    HW229742   3.890   2.683   6.920 -0.6018  0.8752 -0.0993
 6036SOL     OW29743   3.721   0.974   4.373 -0.0523  0.0090 -0.6248
 6036SOL    HW129744   3.679   0.899   4.331  0.8006 -1.4862  1.2658
 6036SOL    HW229745   3.792   0.921   4.407  0.9684  1.1496 -0.9746
 6037SOL     OW29746   2.114   0.507   4.006 -1.3189  0.0528  0.4891
 6037SOL    HW129747   2.038   0.471   4.053 -0.6967 -1.6231  0.2036
 6037SOL    HW229748   2.099   0.599   4.027  1.9271  0.7995 -0.5581
 6038SOL     OW29749   4.692   1.067   5.200  0.9234  0.5228 -0.0686
 6038SOL    HW129750   4.714   0.985   5.243  1.5162  1.7607  2.0314
 6038SOL    HW229751   0.035   1.094   5.156  0.5805  1.7933  0.0713
 6039SOL     OW29752   0.704   2.730   6.529 -0.4630 -0.0513 -0.0056
 6039SOL    HW129753   0.695   2.641   6.565  0.9968  0.0117  0.4975
 6039SOL    HW229754   0.788   2.765   6.558  0.5703 -1.3266 -1.5277
 6040SOL     OW29755   2.268   4.503   7.806  0.3873  0.1508 -0.1787
 6040SOL    HW129756   2.323   4.462   7.739  0.7059  1.2333 -0.5729
 6040SOL    HW229757   2.343   4.527   7.861  1.7067  0.4386 -2.0722
 6041SOL     OW29758   3.754   3.144   0.949  0.2063  0.4637 -0.4403
 6041SOL    HW129759   3.798   3.183   0.873 -0.3786  3.6800  0.9082
 6041SOL    HW229760   3.707   3.069   0.912  0.5395  0.6721 -1.2824
 6042SOL     OW29761   3.796   2.891   7.870  1.0322  0.7612  0.0809
 6042SOL    HW129762   3.759   2.954   7.932  1.2300  1.5431 -0.6075
 6042SOL    HW229763   3.728   2.871   7.806  0.3252  1.2292  0.6854
 6043SOL     OW29764   1.880   2.554   4.757  0.3744 -0.0461  0.0907
 6043SOL    HW129765   1.974   2.555   4.776 -0.0331  0.7939  2.0753
 6043SOL    HW229766   1.868   2.609   4.679 -1.0635  0.2308  0.5092
 6044SOL     OW29767   3.335   0.266   6.864 -0.3673  0.2699  0.1044
 6044SOL    HW129768   3.322   0.176   6.834 -0.5314  0.0689  0.7688
 6044SOL    HW229769   3.407   0.249   6.926 -0.8934 -1.1119  0.3484
 6045SOL     OW29770   4.604   3.610  12.147  0.3104  0.0041  0.0840
 6045SOL    HW129771   4.598   3.632  12.240  3.2972  0.6731  0.1138
 6045SOL    HW229772   4.621   3.516  12.142 -0.3285 -0.0541 -1.1474
 6046SOL     OW29773   2.766   2.727   1.826  0.2472 -0.3405  0.1355
 6046SOL    HW129774   2.781   2.717   1.920  0.2508 -0.2948  0.1400
 6046SOL    HW229775   2.671   2.739   1.820  0.0869 -1.4346  0.6272
 6047SOL     OW29776   1.244   2.347   7.160 -0.0214  0.1852 -0.0006
 6047SOL    HW129777   1.287   2.364   7.243 -2.2863 -0.0323  1.2029
 6047SOL    HW229778   1.201   2.432   7.148  2.2556  1.6303  2.0281
 6048SOL     OW29779   2.788   1.556   9.564  0.5820  0.1490  0.3838
 6048SOL    HW129780   2.880   1.540   9.542  0.5639 -1.3110  1.3579
 6048SOL    HW229781   2.759   1.599   9.484  1.9328  0.1469 -0.0961
 6049SOL     OW29782   2.203   1.199   7.688  0.6374 -0.1828 -0.2299
 6049SOL    HW129783   2.198   1.112   7.728  1.3448  0.9244  2.2822
 6049SOL    HW229784   2.249   1.246   7.757  0.5404  0.2247 -0.4453
 6050SOL     OW29785   3.666   4.247   8.800 -0.1758 -0.3486  0.1689
 6050SOL    HW129786   3.586   4.197   8.813  0.1053 -0.5731  1.0211
 6050SOL    HW229787   3.633   4.316   8.741  0.3969 -1.0264 -0.9338
 6051SOL     OW29788   4.486   1.597   4.886 -0.2592  0.2067  0.1527
 6051SOL    HW129789   4.538   1.534   4.935 -1.6339 -2.2786 -1.5963
 6051SOL    HW229790   4.484   1.667   4.951 -1.9713  1.7190 -1.5223
 6052SOL     OW29791   3.035   3.853   8.486 -0.3380 -0.1491  0.1220
 6052SOL    HW129792   3.069   3.771   8.451  0.3407  0.0331  0.3653
 6052SOL    HW229793   2.974   3.820   8.552 -1.0662  1.3924  0.2111
 6053SOL     OW29794   1.204   1.331   9.833 -0.3839 -0.2303  0.2899
 6053SOL    HW129795   1.110   1.327   9.820 -0.0170 -2.5074 -1.5780
 6053SOL    HW229796   1.237   1.243   9.848  0.3736 -0.1736 -0.9963
 6054SOL     OW29797   1.292   2.077   1.465  0.2753 -0.9861  0.6580
 6054SOL    HW129798   1.342   2.094   1.385 -0.8218  1.6043  0.4956
 6054SOL    HW229799   1.353   2.014   1.503  1.6759 -0.2188 -0.3155
 6055SOL     OW29800   2.577   1.685   1.520 -0.1697  0.0004  0.0390
 6055SOL    HW129801   2.499   1.728   1.555  0.5438 -0.7069  2.4532
 6055SOL    HW229802   2.599   1.732   1.439  0.0317  2.2710  1.3991
 6056SOL     OW29803   4.482   2.062   4.610  0.0280 -0.7964  0.2437
 6056SOL    HW129804   4.446   2.104   4.688 -0.8183 -1.2060  0.0794
 6056SOL    HW229805   4.563   2.038   4.655  0.0867 -2.3921 -0.7253
 6057SOL     OW29806   3.616   2.902   4.671 -0.4237 -0.3042 -0.0507
 6057SOL    HW129807   3.573   2.902   4.757 -0.8973  2.1392 -0.2779
 6057SOL    HW229808   3.571   2.826   4.635 -0.9532  0.6322 -1.3628
 6058SOL     OW29809   1.358   4.711  15.646  0.5284 -0.7790  0.1518
 6058SOL    HW129810   1.420   4.735  15.715  1.4405  0.2705 -1.0309
 6058SOL    HW229811   1.394   4.624  15.631  0.4534 -0.9958  1.2145
 6059SOL     OW29812   2.379   0.818   6.080 -0.1919  0.0823  0.2533
 6059SOL    HW129813   2.450   0.780   6.029 -0.5958 -0.1743 -0.1109
 6059SOL    HW229814   2.304   0.778   6.036 -1.0385  1.8849  0.0281
 6060SOL     OW29815   2.248   3.175  15.558 -0.3376  0.1996  0.1473
 6060SOL    HW129816   2.166   3.127  15.552 -0.9575  1.3232 -0.1857
 6060SOL    HW229817   2.237   3.243  15.492  0.2402 -0.0277 -0.1878
 6061SOL     OW29818   2.380   1.589   1.806 -0.3492  0.3573 -0.2734
 6061SOL    HW129819   2.393   1.633   1.722  0.0358  0.9933  0.1146
 6061SOL    HW229820   2.289   1.614   1.818 -0.8822 -1.6900 -0.0733
 6062SOL     OW29821   2.278   3.433   3.287 -0.1008  0.0868 -0.4519
 6062SOL    HW129822   2.306   3.493   3.218 -0.2922 -1.2993 -1.7243
 6062SOL    HW229823   2.246   3.489   3.358  3.1385  1.3911 -0.0074
 6063SOL     OW29824   3.634   0.322  13.989 -0.3233  0.0597 -0.0941
 6063SOL    HW129825   3.681   0.275  14.058  0.6819 -0.9135 -1.4453
 6063SOL    HW229826   3.700   0.375  13.944  0.7531 -1.6567 -0.5382
 6064SOL     OW29827   4.076   2.150   0.159 -0.0449  0.0886 -0.5504
 6064SOL    HW129828   4.171   2.159   0.166  0.0747  0.0950 -2.2463
 6064SOL    HW229829   4.034   2.217   0.214  1.3339  1.0364 -0.6700
 6065SOL     OW29830   3.799   2.204   6.993  0.5850 -0.3700 -0.5622
 6065SOL    HW129831   3.832   2.273   7.049 -0.6224  0.5753 -1.0311
 6065SOL    HW229832   3.746   2.257   6.934 -0.1710 -1.5901 -0.9867
 6066SOL     OW29833   4.579   1.795   8.421 -0.1562  0.0116  0.1278
 6066SOL    HW129834   4.602   1.821   8.332  1.8578 -1.4798  0.2003
 6066SOL    HW229835   4.549   1.877   8.460  0.7665  0.2312  0.3844
 6067SOL     OW29836   1.698   1.070   5.350 -0.2973 -0.0370 -0.0371
 6067SOL    HW129837   1.699   1.134   5.421 -0.3914 -0.0167 -0.0545
 6067SOL    HW229838   1.782   1.078   5.306 -0.7484  0.1590 -0.8532
 6068SOL     OW29839   1.117   0.509   6.197 -0.1426  0.3827  0.6942
 6068SOL    HW129840   1.200   0.530   6.240  1.0645 -2.3384 -0.3118
 6068SOL    HW229841   1.096   0.600   6.174 -1.2130 -0.2800 -0.9685
 6069SOL     OW29842   3.694   1.397   2.824 -0.1097 -0.1717 -0.2581
 6069SOL    HW129843   3.694   1.445   2.907  1.8210  0.0334 -0.3699
 6069SOL    HW229844   3.735   1.457   2.761 -2.9783  2.1561  0.1122
 6070SOL     OW29845   0.564   4.698   8.133  0.1560  0.4148  0.0377
 6070SOL    HW129846   0.605   4.656   8.208 -0.9045 -1.5513 -0.4659
 6070SOL    HW229847   0.497   0.014   8.174 -1.3195  0.6691 -2.6755
 6071SOL     OW29848   3.425   1.310   0.566  0.1350  0.3940  0.5859
 6071SOL    HW129849   3.423   1.405   0.572 -1.4012  0.4701 -1.4306
 6071SOL    HW229850   3.390   1.291   0.653 -0.8185  0.9925  0.3287
 6072SOL     OW29851   3.557   4.183  10.377  0.1001  0.0221  0.4249
 6072SOL    HW129852   3.629   4.244  10.393 -0.6122  0.7374  0.8636
 6072SOL    HW229853   3.491   4.250  10.360 -1.5571 -1.7347 -0.0695
 6073SOL     OW29854   1.504   0.319   5.542  0.0833  0.0880 -0.2058
 6073SOL    HW129855   1.476   0.228   5.533  2.8964 -0.7100 -0.7810
 6073SOL    HW229856   1.440   0.362   5.485  0.8157 -1.0309 -1.8586
 6074SOL     OW29857   4.029   2.057   7.385 -0.2673 -0.2959 -0.6121
 6074SOL    HW129858   3.945   2.021   7.355 -0.3804 -0.8193  0.3504
 6074SOL    HW229859   4.031   2.011   7.469  1.0519 -0.7088 -0.8693
 6075SOL     OW29860   3.969   3.547  12.835 -0.4440  0.2509  0.3614
 6075SOL    HW129861   3.945   3.551  12.742  2.2351 -3.2111 -0.4823
 6075SOL    HW229862   4.039   3.612  12.843  0.5682 -0.3438 -3.6164
 6076SOL     OW29863   2.670   3.390   5.435 -0.1380  0.0742 -0.3950
 6076SOL    HW129864   2.757   3.415   5.404 -0.6188  1.8040 -0.3299
 6076SOL    HW229865   2.684   3.310   5.486 -1.8720 -0.4883 -0.7756
 6077SOL     OW29866   2.713   2.439  10.195  0.5034 -0.3510  0.1987
 6077SOL    HW129867   2.632   2.435  10.143  0.3482  0.9093  0.3299
 6077SOL    HW229868   2.770   2.387  10.139  3.1573 -0.9766  3.4886
 6078SOL     OW29869   0.682   2.434  14.304  0.2317 -0.4963 -0.2167
 6078SOL    HW129870   0.633   2.358  14.335 -1.4999  0.3838 -0.7758
 6078SOL    HW229871   0.671   2.493  14.378  1.3815  0.0801 -0.5086
 6079SOL     OW29872   3.586   3.447   5.947  0.0336 -0.2757 -0.2436
 6079SOL    HW129873   3.601   3.387   6.020  0.5564  0.4181  0.2212
 6079SOL    HW229874   3.585   3.390   5.870  0.7001 -0.7337  0.0870
 6080SOL     OW29875   1.480   4.506  16.056  0.0312  0.2682 -0.3455
 6080SOL    HW129876   1.489   4.591  16.012 -1.8804  1.3266  1.3132
 6080SOL    HW229877   1.570   4.479  16.072  0.7083  1.6750 -1.7548
 6081SOL     OW29878   0.129   1.820  12.171 -0.5527  0.0935  0.2424
 6081SOL    HW129879   0.104   1.910  12.150 -3.2230 -0.9219 -0.8585
 6081SOL    HW229880   0.211   1.838  12.217  0.5239 -2.1333 -0.8150
 6082SOL     OW29881   2.616   2.613  15.996  0.1714 -0.4794  0.1505
 6082SOL    HW129882   2.549   2.673  16.027 -1.3915 -1.7554 -0.7632
 6082SOL    HW229883   2.645   2.581  16.082  0.7705 -2.6775 -0.8592
 6083SOL     OW29884   1.520   1.363   5.953 -0.5894  0.1327 -0.4124
 6083SOL    HW129885   1.594   1.332   6.005  0.9110  0.6383 -2.2892
 6083SOL    HW229886   1.566   1.374   5.870  0.9664  1.6869  0.6661
 6084SOL     OW29887   0.302   1.999   5.119 -0.0624 -0.3146  0.1611
 6084SOL    HW129888   0.376   1.961   5.165  0.1039 -0.4853 -0.2503
 6084SOL    HW229889   0.243   2.015   5.193 -1.9917 -0.3725 -1.3457
 6085SOL     OW29890   0.483   0.748   0.658  0.3576 -0.4452 -0.1486
 6085SOL    HW129891   0.454   0.670   0.612 -0.0053  0.4275 -1.4052
 6085SOL    HW229892   0.416   0.806   0.622  2.2349  2.0819  0.3835
 6086SOL     OW29893   2.025   1.353   7.516 -0.3628 -0.1770 -0.2978
 6086SOL    HW129894   2.064   1.437   7.539  0.6646 -0.1941 -1.9668
 6086SOL    HW229895   2.067   1.295   7.580  1.3347 -1.6570 -2.7786
 6087SOL     OW29896   1.080   1.579   9.328 -0.0241  0.3326 -0.2520
 6087SOL    HW129897   1.025   1.518   9.279 -0.3047  0.8852 -0.6234
 6087SOL    HW229898   1.090   1.650   9.265  0.2154  0.1875 -0.3760
 6088SOL     OW29899   4.471   4.017  16.665 -0.4889 -0.1594 -0.2776
 6088SOL    HW129900   4.517   3.946  16.710 -0.1435  0.3305  0.1384
 6088SOL    HW229901   4.379   3.999  16.686 -0.9380  2.0505 -0.3752
 6089SOL     OW29902   0.735   2.264   5.133  0.3687  0.4590 -0.1539
 6089SOL    HW129903   0.796   2.307   5.192  1.0100 -1.8012  0.8182
 6089SOL    HW229904   0.759   2.296   5.046 -0.0653  0.0517 -0.4264
 6090SOL     OW29905   4.115   4.658   3.062 -0.0838  0.3517 -0.5533
 6090SOL    HW129906   4.125   4.704   2.978 -0.5537  0.7528 -0.3918
 6090SOL    HW229907   4.118   4.564   3.043 -1.0288  0.3208 -0.5619
 6091SOL     OW29908   3.509   4.285   7.548 -0.2565 -0.0228 -0.2551
 6091SOL    HW129909   3.560   4.274   7.629  0.6052 -1.7833 -1.0224
 6091SOL    HW229910   3.503   4.197   7.511 -0.6971 -1.0671  2.3057
 6092SOL     OW29911   2.873   1.664   9.291  0.4501  0.3797 -0.0930
 6092SOL    HW129912   2.928   1.607   9.344  1.9709  2.5406  0.6827
 6092SOL    HW229913   2.836   1.611   9.221 -2.2545  1.1540  0.7443
 6093SOL     OW29914   4.047   2.836  16.920 -0.3007  0.1515 -0.5298
 6093SOL    HW129915   4.040   2.931  16.916 -1.3095  0.1808  1.8315
 6093SOL    HW229916   4.130   2.831  16.967 -0.6657  0.4714  0.1431
 6094SOL     OW29917   3.157   0.811  17.367  0.0064 -0.3110 -0.0019
 6094SOL    HW129918   3.139   0.828  17.459 -1.0296  0.4493 -0.3416
 6094SOL    HW229919   3.157   0.716  17.370 -0.4587 -0.3265 -0.3002
 6095SOL     OW29920   1.934   0.847   3.700 -0.2887 -0.2355  0.4817
 6095SOL    HW129921   1.973   0.905   3.635 -0.2151  0.8165  1.4731
 6095SOL    HW229922   1.982   0.863   3.781 -0.5755  0.1261  0.5785
 6096SOL     OW29923   1.386   4.331   6.435  0.0696 -0.3896  0.3498
 6096SOL    HW129924   1.356   4.422   6.428  2.2396  0.2821 -0.1884
 6096SOL    HW229925   1.303   4.294   6.465 -0.7113  0.2869 -0.9828
 6097SOL     OW29926   3.896   2.753  12.388  0.1888 -0.2516  0.3180
 6097SOL    HW129927   3.885   2.846  12.409 -2.6522 -0.8092  1.3384
 6097SOL    HW229928   3.824   2.739  12.327  0.1097 -0.2490  0.4100
 6098SOL     OW29929   1.551   2.742   1.256  0.6036 -0.0914  0.1831
 6098SOL    HW129930   1.645   2.754   1.271  0.4687  0.8372  0.3149
 6098SOL    HW229931   1.523   2.829   1.228  0.9141 -0.3768 -1.0250
 6099SOL     OW29932   1.959   2.074  14.834  0.0343 -0.5226  0.2254
 6099SOL    HW129933   1.974   1.986  14.798  0.1229  0.3220 -1.8240
 6099SOL    HW229934   2.021   2.077  14.907 -0.5432  0.1635  0.6831
 6100SOL     OW29935   2.724   2.820   8.685  0.1400  0.2528 -0.4153
 6100SOL    HW129936   2.803   2.841   8.734  2.2241 -3.2904 -2.2717
 6100SOL    HW229937   2.651   2.833   8.746  0.7534 -0.3044  0.4459
 6101SOL     OW29938   3.780   3.613   4.545 -0.4053  0.5931 -0.1479
 6101SOL    HW129939   3.791   3.597   4.451 -1.6357  1.0502 -0.3740
 6101SOL    HW229940   3.752   3.705   4.547  1.2927  1.0716  1.1880
 6102SOL     OW29941   1.424   1.484  12.244  0.3058 -0.2611 -0.0374
 6102SOL    HW129942   1.401   1.466  12.153 -0.7096 -0.9906  0.3610
 6102SOL    HW229943   1.506   1.435  12.246  0.7205  0.5298  2.3988
 6103SOL     OW29944   3.494   1.144   4.288  0.7340 -0.4399  0.0989
 6103SOL    HW129945   3.567   1.105   4.335  0.5681 -2.7515 -1.5908
 6103SOL    HW229946   3.498   1.108   4.200  0.1736  0.7820 -0.4331
 6104SOL     OW29947   1.087   2.979  14.171 -0.1613  0.0813 -1.0226
 6104SOL    HW129948   1.126   3.064  14.187 -0.6465  0.1197 -0.0534
 6104SOL    HW229949   1.080   2.960  14.264 -0.3950  2.7545 -0.5069
 6105SOL     OW29950   0.785   4.580   4.368 -0.4721  0.1237  0.6225
 6105SOL    HW129951   0.842   4.636   4.420 -0.1527  1.3535 -1.0302
 6105SOL    HW229952   0.738   4.539   4.441 -0.2022 -0.2302  0.5977
 6106SOL     OW29953   4.086   2.563   3.518 -0.1574  0.2370 -0.3158
 6106SOL    HW129954   4.148   2.524   3.579  0.5978 -0.1976 -1.3760
 6106SOL    HW229955   4.006   2.572   3.570 -1.4985 -1.4337 -2.1098
 6107SOL     OW29956   1.948   2.642  16.216  0.5163  0.2881 -0.0671
 6107SOL    HW129957   2.021   2.667  16.273 -0.7466 -0.3499  1.8326
 6107SOL    HW229958   1.886   2.709  16.242  0.3250 -0.0063  0.2330
 6108SOL     OW29959   4.237   2.676   7.537 -0.0862 -0.2421  0.1235
 6108SOL    HW129960   4.155   2.637   7.565  0.4623 -0.9246  0.8048
 6108SOL    HW229961   4.222   2.698   7.445 -0.3465  2.4188  0.7996
 6109SOL     OW29962   0.858   3.276   1.437 -0.5304  0.0368 -0.3511
 6109SOL    HW129963   0.905   3.359   1.431 -0.9135  0.2416 -0.5496
 6109SOL    HW229964   0.822   3.264   1.525 -2.4621  1.0850 -1.0101
 6110SOL     OW29965   2.037   2.549   6.778  0.4877 -0.1058 -0.1681
 6110SOL    HW129966   2.028   2.564   6.873 -0.7186 -0.1341 -0.2850
 6110SOL    HW229967   2.115   2.494   6.780 -0.2758 -1.1824  0.2948
 6111SOL     OW29968   3.546   0.704  15.051  0.4876 -0.0151  0.1317
 6111SOL    HW129969   3.485   0.695  15.125 -1.6390 -0.4344 -1.6617
 6111SOL    HW229970   3.501   0.654  14.983  1.4468  0.5549 -0.9353
 6112SOL     OW29971   2.129   1.883   1.910 -0.3518 -0.0172  0.0657
 6112SOL    HW129972   2.139   1.899   1.816  2.0781 -1.2026  0.1386
 6112SOL    HW229973   2.037   1.901   1.928 -0.5204 -0.8150  0.0074
 6113SOL     OW29974   2.582   0.151   5.888  0.7047 -0.1450 -0.0368
 6113SOL    HW129975   2.508   0.102   5.850 -1.4190  2.8348  0.2366
 6113SOL    HW229976   2.639   0.176   5.815  0.3565 -0.0010 -0.2603
 6114SOL     OW29977   1.782   4.559  11.214 -0.2972 -0.4211 -0.0260
 6114SOL    HW129978   1.866   4.547  11.171  1.4911  2.6807  2.6425
 6114SOL    HW229979   1.716   4.509  11.166 -3.0509  1.8061  1.4336
 6115SOL     OW29980   1.094   2.145   6.227 -0.2122 -0.3830 -0.1980
 6115SOL    HW129981   1.071   2.096   6.148 -0.5992  0.0409 -0.3481
 6115SOL    HW229982   1.081   2.238   6.207 -0.4387  0.1494  2.3975
 6116SOL     OW29983   0.185   2.746   4.466  0.1988 -0.0635  0.1922
 6116SOL    HW129984   0.186   2.841   4.478 -2.3327  0.2414 -2.0086
 6116SOL    HW229985   0.269   2.721   4.506  0.3302 -1.4629 -0.9521
 6117SOL     OW29986   0.802   4.189   5.124  0.8053 -0.1346  0.1136
 6117SOL    HW129987   0.829   4.181   5.032 -0.3334 -2.2256 -0.0332
 6117SOL    HW229988   0.708   4.194   5.107  0.9205  1.1534 -0.1663
 6118SOL     OW29989   2.543   3.550   6.269  0.0423  0.5536  0.1364
 6118SOL    HW129990   2.622   3.501   6.295 -0.4466  0.1590  0.8716
 6118SOL    HW229991   2.551   3.634   6.315  0.2537  0.3033  0.5620
 6119SOL     OW29992   0.321   0.744   9.593 -0.3066 -0.1724 -0.2538
 6119SOL    HW129993   0.363   0.812   9.647 -1.3051  0.4722 -0.2879
 6119SOL    HW229994   0.390   0.678   9.599 -0.7944 -0.8162 -1.8353
 6120SOL     OW29995   0.480   3.105   8.373  0.1905 -0.0532 -1.0533
 6120SOL    HW129996   0.424   3.090   8.449  0.2352  0.3667 -0.9329
 6120SOL    HW229997   0.415   3.123   8.306  0.5507 -1.9391 -1.8964
 6121SOL     OW29998   3.876   2.743   7.406  0.2755 -0.3585 -0.2246
 6121SOL    HW129999   3.949   2.802   7.383 -0.5412  0.2426 -1.2825
 6121SOL    HW230000   3.850   2.703   7.323 -1.9270 -1.4470  0.9992
 6122SOL     OW30001   2.132   2.367   0.001 -0.0435  0.1450 -0.4725
 6122SOL    HW130002   2.109   2.284  17.707 -0.5314  0.4285 -0.7724
 6122SOL    HW230003   2.227   2.356  17.742  0.2445  1.1906  2.0791
 6123SOL     OW30004   0.981   2.100   6.661  0.6979  0.0968 -0.4039
 6123SOL    HW130005   0.949   2.050   6.587 -1.2333 -1.9289  1.8140
 6123SOL    HW230006   0.995   2.184   6.617  0.0052  0.3830 -0.0802
 6124SOL     OW30007   1.016   3.064   6.033  0.7781  0.6625  0.1563
 6124SOL    HW130008   1.010   3.091   5.942 -5.9827 -1.8127 -0.1213
 6124SOL    HW230009   1.092   3.114   6.063 -0.3242  1.2221  2.0025
 6125SOL     OW30010   4.545   2.192   3.727 -0.2356 -0.4295  0.0730
 6125SOL    HW130011   4.577   2.129   3.662 -1.9308  0.8546 -1.9929
 6125SOL    HW230012   4.559   2.143   3.808  0.4082  0.3422  0.4377
 6126SOL     OW30013   1.739   3.568   9.621 -0.2877  0.1835  0.4656
 6126SOL    HW130014   1.665   3.508   9.612  0.1664 -0.5179  1.5226
 6126SOL    HW230015   1.788   3.555   9.539  0.2532  3.7613  0.2041
 6127SOL     OW30016   3.115   0.553   7.565  0.8876  0.0327 -0.8606
 6127SOL    HW130017   3.073   0.606   7.498  0.8389  1.0227 -0.0531
 6127SOL    HW230018   3.182   0.616   7.593  0.3976 -0.2804  1.0588
 6128SOL     OW30019   2.804   1.910   8.562 -0.1130  0.0394  0.1203
 6128SOL    HW130020   2.843   1.926   8.648 -0.9458  2.4940  0.0478
 6128SOL    HW230021   2.722   1.870   8.592 -1.4493  1.7111 -1.2843
 6129SOL     OW30022   4.337   1.886   4.844  0.4289 -0.4015 -0.0500
 6129SOL    HW130023   4.355   1.978   4.826 -0.3726  0.2936  2.6588
 6129SOL    HW230024   4.375   1.853   4.763 -0.4693 -1.3044 -0.1030
 6130SOL     OW30025   1.277   4.158   2.204 -0.1747  0.0050 -0.1036
 6130SOL    HW130026   1.340   4.090   2.178 -0.0886  0.1480 -0.2712
 6130SOL    HW230027   1.199   4.111   2.175 -0.4141 -0.8926  2.0118
 6131SOL     OW30028   1.921   0.193  10.465  0.1666 -0.2011  0.3099
 6131SOL    HW130029   1.963   0.277  10.450 -0.6091  0.6976  3.1008
 6131SOL    HW230030   1.915   0.172  10.372  2.6201  0.0694  0.0830
 6132SOL     OW30031   1.646   1.430   0.719  0.0920  0.5510  0.0394
 6132SOL    HW130032   1.686   1.431   0.632 -1.1985  2.7414 -0.5263
 6132SOL    HW230033   1.715   1.476   0.767 -0.6558  2.0721 -0.3507
 6133SOL     OW30034   0.154   1.130   9.352 -0.1422  0.5176 -0.0617
 6133SOL    HW130035   0.119   1.068   9.416  1.9248  0.5669  1.1177
 6133SOL    HW230036   0.235   1.087   9.323  0.9588  2.2817  0.4031
 6134SOL     OW30037   3.828   1.194   0.969  0.4931 -0.0572  0.5824
 6134SOL    HW130038   3.837   1.099   0.969  0.6615 -0.0399  2.2319
 6134SOL    HW230039   3.873   1.208   1.053  1.0542  2.3118 -0.1133
 6135SOL     OW30040   2.637   3.522   7.707 -0.2960 -0.3561 -0.1573
 6135SOL    HW130041   2.626   3.571   7.788  2.4478  0.0442 -0.0175
 6135SOL    HW230042   2.605   3.434   7.729 -1.7910 -0.2530 -1.9898
 6136SOL     OW30043   1.368   2.654   1.458 -0.4136 -0.0272  0.2485
 6136SOL    HW130044   1.304   2.709   1.412 -0.6578 -0.4653  0.0670
 6136SOL    HW230045   1.439   2.660   1.394 -1.7501  0.0147 -1.2227
 6137SOL     OW30046   3.214   2.166   1.162  0.4190  0.3232 -0.3854
 6137SOL    HW130047   3.278   2.171   1.233 -1.4784  1.9860  1.1966
 6137SOL    HW230048   3.257   2.127   1.085 -0.2733 -0.6455 -0.2854
 6138SOL     OW30049   4.368   0.062   3.495  0.4273  0.6459  0.0800
 6138SOL    HW130050   4.343   4.707   3.495 -0.9136  1.0293  1.4764
 6138SOL    HW230051   4.436   0.077   3.561 -0.1996  2.1202  0.3756
 6139SOL     OW30052   0.943   2.260   6.874  0.1055  0.1762 -0.3782
 6139SOL    HW130053   0.903   2.330   6.822 -1.5186  1.6772  2.8357
 6139SOL    HW230054   0.975   2.198   6.810 -2.2592 -2.5166  1.0170
 6140SOL     OW30055   2.371   1.858   1.376  0.0680 -0.2783 -0.6589
 6140SOL    HW130056   2.318   1.920   1.325  1.8097  0.5401 -1.4694
 6140SOL    HW230057   2.459   1.868   1.340 -0.0869  0.8869 -0.7449
 6141SOL     OW30058   0.929   1.911   7.274  0.0358 -0.4330  0.2847
 6141SOL    HW130059   0.846   1.869   7.295  1.4163 -3.5043 -0.4716
 6141SOL    HW230060   0.965   1.936   7.359 -1.3151 -1.9291  1.2774
 6142SOL     OW30061   1.493   2.421   5.462  0.0663 -0.6368 -0.2757
 6142SOL    HW130062   1.509   2.435   5.369 -0.3412  3.5289  0.3018
 6142SOL    HW230063   1.407   2.461   5.471 -0.0767 -0.7379 -1.2690
 6143SOL     OW30064   0.197   2.636   7.549  0.0253  0.3644 -0.3864
 6143SOL    HW130065   0.210   2.718   7.502  1.0896  0.0365 -0.6755
 6143SOL    HW230066   0.134   2.593   7.492 -0.3597 -0.7628  0.8957
 6144SOL     OW30067   2.149   0.853   9.547  0.2621  0.3689  0.1299
 6144SOL    HW130068   2.196   0.770   9.549 -1.2885 -0.5045  0.0340
 6144SOL    HW230069   2.085   0.829   9.614 -0.8989  2.4551 -0.2050
 6145SOL     OW30070   0.273   4.333   2.258 -0.2449 -0.0488 -0.1084
 6145SOL    HW130071   0.367   4.348   2.251 -0.4292  1.0618 -0.1593
 6145SOL    HW230072   0.248   4.419   2.290  4.4445  1.5339 -0.6756
 6146SOL     OW30073   3.602   0.736   3.591 -0.4866 -0.4115 -0.2826
 6146SOL    HW130074   3.689   0.716   3.626 -0.8363 -1.4628 -0.0102
 6146SOL    HW230075   3.563   0.649   3.600 -1.0456  0.1138  2.4170
 6147SOL     OW30076   2.682   0.169  10.199 -0.4161  0.4531 -0.0515
 6147SOL    HW130077   2.592   0.201  10.210 -1.0121 -1.4587  0.6497
 6147SOL    HW230078   2.662   0.077  10.218 -1.7135  0.5690 -0.8238
 6148SOL     OW30079   1.068   0.625   5.337  0.2562 -0.2670  0.1352
 6148SOL    HW130080   1.007   0.553   5.322 -0.1490 -0.1850  1.3853
 6148SOL    HW230081   1.010   0.675   5.394 -0.2801 -0.3603 -0.3315
 6149SOL     OW30082   3.860   4.674  14.686  0.2138 -0.1386 -0.3800
 6149SOL    HW130083   3.772   4.638  14.683  0.7402 -1.5056  1.1275
 6149SOL    HW230084   3.905   4.605  14.734 -0.6924 -0.5325 -0.0934
 6150SOL     OW30085   0.811   1.187  12.044 -0.2278 -0.0096 -0.6838
 6150SOL    HW130086   0.779   1.115  12.098  0.0079  0.8329  0.5633
 6150SOL    HW230087   0.869   1.130  11.994  0.9261 -0.2826  0.9720
 6151SOL     OW30088   1.768   2.587   6.301  0.1485 -0.5102  0.3684
 6151SOL    HW130089   1.833   2.548   6.359  0.9120  0.2109  0.0135
 6151SOL    HW230090   1.707   2.620   6.367  0.0321  1.6660 -0.8403
 6152SOL     OW30091   2.221   0.851  11.610  0.6893 -0.2431  0.5694
 6152SOL    HW130092   2.189   0.877  11.697 -0.4560 -0.0694  0.1039
 6152SOL    HW230093   2.315   0.869  11.605  0.3014  2.1368  2.2390
 6153SOL     OW30094   2.038   2.128  15.875 -0.8048  0.6485  0.2950
 6153SOL    HW130095   1.967   2.078  15.916 -0.7522  0.6853  0.4323
 6153SOL    HW230096   2.106   2.140  15.942 -1.0656 -0.5170  0.7660
 6154SOL     OW30097   1.909   4.322   5.093  0.2932 -0.2097  0.8695
 6154SOL    HW130098   1.818   4.312   5.068  0.3139  1.0666  0.2994
 6154SOL    HW230099   1.942   4.403   5.054 -1.6584  0.5086  0.7143
 6155SOL     OW30100   3.998   0.356  16.832  0.2077 -0.2645  0.0706
 6155SOL    HW130101   4.074   0.314  16.871 -0.4777 -0.8538  0.7609
 6155SOL    HW230102   3.977   0.287  16.768  0.4805 -0.7486  0.5009
 6156SOL     OW30103   2.309   0.597   3.235 -0.4648 -0.4618  0.1793
 6156SOL    HW130104   2.350   0.540   3.170 -0.7737  0.7370 -1.0790
 6156SOL    HW230105   2.339   0.559   3.317 -0.0956 -1.8803 -0.6095
 6157SOL     OW30106   4.697   3.440  11.337 -0.0819  0.0072  0.6172
 6157SOL    HW130107   0.036   3.382  11.332  0.3426  0.5772  0.4209
 6157SOL    HW230108   4.670   3.423  11.428 -0.6587  2.5227  0.9038
 6158SOL     OW30109   2.320   4.549   5.666  0.7470 -0.5114  0.0996
 6158SOL    HW130110   2.353   4.487   5.730  1.1278  0.2028  0.5968
 6158SOL    HW230111   2.232   4.515   5.650  1.0804  0.3432 -3.4600
 6159SOL     OW30112   3.106   0.152   8.057 -0.0123  0.0925 -0.8788
 6159SOL    HW130113   3.142   0.129   8.143  0.8506  0.6286 -1.0988
 6159SOL    HW230114   3.042   0.215   8.088 -0.5379 -0.8533 -0.0375
 6160SOL     OW30115   2.736   0.654   7.507  0.3232 -0.2746  0.1281
 6160SOL    HW130116   2.683   0.678   7.431 -0.3835 -1.3806  0.2731
 6160SOL    HW230117   2.789   0.588   7.462  0.7612  0.1402  0.0320
 6161SOL     OW30118   0.718   1.036   1.672 -0.2608  0.1435  0.4193
 6161SOL    HW130119   0.803   1.033   1.716  0.5401  0.4280 -1.1069
 6161SOL    HW230120   0.704   1.129   1.688 -1.4318  0.1902 -0.9199
 6162SOL     OW30121   4.722   3.391   4.088  0.2915 -0.7223 -0.0251
 6162SOL    HW130122   4.652   3.399   4.023 -0.2659  2.6806  1.0384
 6162SOL    HW230123   0.049   3.374   4.019  0.7515 -1.9964  0.7110
 6163SOL     OW30124   0.281   2.811   8.395 -0.4161  0.0326 -0.3460
 6163SOL    HW130125   0.284   2.884   8.458 -2.3383 -0.2641  0.0854
 6163SOL    HW230126   0.198   2.770   8.421  0.5964 -1.4825  0.4693
 6164SOL     OW30127   0.250   2.541  12.970 -0.0977  0.0728 -0.4901
 6164SOL    HW130128   0.211   2.624  12.942 -1.1265 -0.4423 -0.6074
 6164SOL    HW230129   0.205   2.524  13.053  0.8754  0.1431  0.0473
 6165SOL     OW30130   1.331   1.696   7.547  0.1622 -0.2062 -0.0084
 6165SOL    HW130131   1.322   1.747   7.466  0.6931  2.5012  1.6117
 6165SOL    HW230132   1.418   1.720   7.579 -0.2282 -0.0547  0.9476
 6166SOL     OW30133   3.858   4.189   8.473 -0.0762  0.0395 -0.1402
 6166SOL    HW130134   3.892   4.156   8.390 -0.3132  0.7223 -0.5103
 6166SOL    HW230135   3.768   4.171   8.448 -1.0807  0.8117  2.9345
 6167SOL     OW30136   1.725   1.192   3.658 -0.2662  0.0309  0.5102
 6167SOL    HW130137   1.782   1.214   3.584 -0.6926 -1.4337 -0.2366
 6167SOL    HW230138   1.640   1.205   3.617 -0.3114  0.1820  0.6515
 6168SOL     OW30139   2.755   0.664  17.258 -0.1459  0.1003  0.1682
 6168SOL    HW130140   2.754   0.653  17.163  0.6941  0.3525  0.1269
 6168SOL    HW230141   2.662   0.651  17.276 -0.1771 -0.0331 -0.0908
 6169SOL     OW30142   0.772   2.639   7.948 -0.1837 -0.5132  0.5463
 6169SOL    HW130143   0.839   2.635   8.016  1.5013 -1.9406 -1.1887
 6169SOL    HW230144   0.724   2.557   7.958 -0.0019 -0.7129 -0.2100
 6170SOL     OW30145   1.298   0.742   8.130  0.0255 -0.1030  0.3926
 6170SOL    HW130146   1.388   0.771   8.142  0.2762 -0.4544 -0.7134
 6170SOL    HW230147   1.300   0.730   8.035  3.5081  0.8787  0.3661
 6171SOL     OW30148   1.810   2.193   9.337  0.0769  0.6736  0.8016
 6171SOL    HW130149   1.827   2.150   9.252 -0.2604  1.9642  0.0896
 6171SOL    HW230150   1.823   2.118   9.395 -1.9801 -0.7275 -0.5515
 6172SOL     OW30151   3.982   3.689   9.887  0.3556  0.0821  0.4562
 6172SOL    HW130152   3.969   3.601   9.923 -0.9111  1.2195  2.7636
 6172SOL    HW230153   3.969   3.753   9.957 -3.4000  0.1747 -0.3191
 6173SOL     OW30154   1.499   2.175   5.749  0.1296 -0.8265  0.0196
 6173SOL    HW130155   1.520   2.189   5.841 -0.3399 -0.0659  0.0169
 6173SOL    HW230156   1.565   2.230   5.707 -1.9510  1.9827  0.4149
 6174SOL     OW30157   1.344   0.747   5.333 -0.0277  0.4399  0.9969
 6174SOL    HW130158   1.371   0.821   5.387  3.0888  0.8099 -1.0716
 6174SOL    HW230159   1.259   0.726   5.371 -0.5570  0.2728 -0.2889
 6175SOL     OW30160   1.770   1.815   4.570  0.1860  0.0083 -0.4098
 6175SOL    HW130161   1.825   1.742   4.600  0.7121  0.7487  0.4223
 6175SOL    HW230162   1.766   1.810   4.475  1.4081 -0.7959 -0.4255
 6176SOL     OW30163   0.095   0.584   4.928 -0.7403 -0.8601  0.3296
 6176SOL    HW130164   0.039   0.577   4.851 -1.1225  0.8169  0.4551
 6176SOL    HW230165   0.153   0.659   4.913  0.2720 -1.3046  2.0249
 6177SOL     OW30166   2.185   0.117  15.492  0.6765  0.0710  1.0797
 6177SOL    HW130167   2.256   0.060  15.466  1.4323  1.3261  0.3917
 6177SOL    HW230168   2.212   0.202  15.458  0.0251 -0.1674 -0.0344
 6178SOL     OW30169   3.478   2.589  16.390  0.2786  0.7137 -0.3752
 6178SOL    HW130170   3.482   2.651  16.463 -0.8024  2.7099 -1.9967
 6178SOL    HW230171   3.463   2.507  16.436  1.1272  2.6648  3.3819
 6179SOL     OW30172   0.054   1.165   9.108 -0.0404  0.1804  0.3280
 6179SOL    HW130173   0.103   1.177   9.189  2.3453  1.8795 -1.3509
 6179SOL    HW230174   0.019   1.079   9.126 -0.5575  0.5731  1.1520
 6180SOL     OW30175   2.234   4.465   5.304  0.4322  0.1193 -0.1631
 6180SOL    HW130176   2.185   4.457   5.386 -0.9215  3.0056 -0.6853
 6180SOL    HW230177   2.276   4.379   5.302 -0.9875 -0.6240  1.2205
 6181SOL     OW30178   1.418   3.043   5.220  0.3571 -0.2957 -0.0074
 6181SOL    HW130179   1.348   3.107   5.210 -0.5846 -1.2929  0.1417
 6181SOL    HW230180   1.383   2.987   5.290  2.5690  0.1634  1.4820
 6182SOL     OW30181   4.459   1.245   8.668  0.0856 -0.5919 -0.9117
 6182SOL    HW130182   4.435   1.332   8.635  0.1558 -0.5193 -0.7719
 6182SOL    HW230183   4.512   1.220   8.592  0.2414  1.7318 -1.5796
 6183SOL     OW30184   4.196   2.011   9.338  0.1971  0.1071 -0.4172
 6183SOL    HW130185   4.206   2.099   9.374 -0.0588  0.0461 -0.1941
 6183SOL    HW230186   4.132   1.965   9.392  2.0372 -1.8222  0.1413
 6184SOL     OW30187   0.406   3.348   7.164  0.2923 -0.2310  0.8412
 6184SOL    HW130188   0.413   3.412   7.093  0.9715  0.6601  1.7197
 6184SOL    HW230189   0.452   3.272   7.128  1.4494  1.5156 -1.3662
 6185SOL     OW30190   3.021   0.749  13.338  0.1078  0.2807  0.2957
 6185SOL    HW130191   3.074   0.703  13.403  2.1261  1.5897 -0.4275
 6185SOL    HW230192   2.937   0.743  13.384 -0.6548  0.3536 -1.0976
 6186SOL     OW30193   3.737   3.805   3.789 -0.0425 -0.3337  0.5593
 6186SOL    HW130194   3.766   3.777   3.702  1.2635  2.6936  0.0158
 6186SOL    HW230195   3.729   3.726   3.842  0.6632 -0.8401 -0.0949
 6187SOL     OW30196   1.871   2.376   5.442  0.5790 -0.1996 -0.3404
 6187SOL    HW130197   1.919   2.309   5.489  3.1144  0.0799 -2.4922
 6187SOL    HW230198   1.928   2.446   5.476  0.1340 -1.4821  3.0147
 6188SOL     OW30199   3.371   0.669   4.983  0.3020  0.4096 -0.7118
 6188SOL    HW130200   3.301   0.721   5.022  1.6961  0.8888  1.1532
 6188SOL    HW230201   3.375   0.711   4.897 -0.4577  0.9015 -0.5031
 6189SOL     OW30202   2.926   3.460   5.698 -0.4987  0.2329  0.3393
 6189SOL    HW130203   2.915   3.482   5.605  0.7304 -0.5398  0.0149
 6189SOL    HW230204   3.021   3.456   5.705 -0.7895 -2.0849  2.7511
 6190SOL     OW30205   0.951   1.011  12.882 -0.0244  0.3421 -0.1735
 6190SOL    HW130206   0.891   1.085  12.888  1.5621  1.4124  2.0686
 6190SOL    HW230207   1.015   1.050  12.822 -0.4255 -0.0256 -0.8470
 6191SOL     OW30208   2.821   3.049   4.431  0.5219 -0.5718  0.2055
 6191SOL    HW130209   2.806   3.144   4.435  0.3095 -0.6494  1.2438
 6191SOL    HW230210   2.904   3.042   4.384  1.4782 -1.7158  2.0661
 6192SOL     OW30211   1.753   0.994   2.470 -0.2259  0.1290 -0.0040
 6192SOL    HW130212   1.790   1.014   2.556  2.4251 -1.2939 -0.8047
 6192SOL    HW230213   1.669   1.038   2.462 -0.8238 -0.5536  2.5590
 6193SOL     OW30214   2.721   4.478   5.007  0.0900  0.5194  0.4054
 6193SOL    HW130215   2.805   4.473   4.961 -0.8850 -0.9614 -1.2142
 6193SOL    HW230216   2.731   4.559   5.056 -0.7588  0.2903  0.9640
 6194SOL     OW30217   1.397   2.977  14.086  0.2903  0.1411  0.1607
 6194SOL    HW130218   1.327   3.042  14.090 -0.5804 -0.8951  1.4350
 6194SOL    HW230219   1.426   2.986  14.177 -0.1132 -3.2742  0.6227
 6195SOL     OW30220   3.369   4.118   8.563 -0.3460 -0.2953  0.1996
 6195SOL    HW130221   3.358   4.175   8.488 -1.5754 -0.9793 -0.1319
 6195SOL    HW230222   3.426   4.050   8.527 -0.3921  0.5598 -1.4805
 6196SOL     OW30223   1.197   3.249  12.921  0.2097 -0.2949 -0.1859
 6196SOL    HW130224   1.159   3.337  12.913 -0.8072 -0.7009  0.2664
 6196SOL    HW230225   1.126   3.213  12.974 -0.2473 -0.2755 -0.7848
 6197SOL     OW30226   3.219   0.236  17.353 -0.7529 -0.6060  0.0948
 6197SOL    HW130227   3.184   0.154  17.389  1.0781 -1.0937  0.7771
 6197SOL    HW230228   3.227   0.223  17.259 -0.2398  2.3085 -0.2547
 6198SOL     OW30229   2.635   0.026   2.029  0.0747 -0.2422  0.1189
 6198SOL    HW130230   2.587   0.097   1.986  3.1434  2.6162  1.4933
 6198SOL    HW230231   2.562   4.701   2.035  0.7046 -0.6445  3.4265
 6199SOL     OW30232   3.433   0.957  15.248  0.0427  0.1115  0.4576
 6199SOL    HW130233   3.459   1.009  15.172 -1.5395 -0.1144 -0.2325
 6199SOL    HW230234   3.518   0.931  15.284 -0.1933 -1.2360  0.0434
 6200SOL     OW30235   0.119   1.558   3.107  0.6686 -0.2211  0.1677
 6200SOL    HW130236   0.131   1.591   3.018 -0.2383 -0.3014  0.0206
 6200SOL    HW230237   0.111   1.464   3.088  1.9664 -0.8677  2.8632
 6201SOL     OW30238   2.378   3.469  10.370  0.3454 -0.5646  0.9403
 6201SOL    HW130239   2.294   3.447  10.330  0.3034 -1.1824  1.3631
 6201SOL    HW230240   2.352   3.499  10.457 -1.8791 -0.3072  0.1942
 6202SOL     OW30241   1.904   1.331   7.949  0.1763  0.1605 -0.2381
 6202SOL    HW130242   1.992   1.369   7.948 -0.5222  1.8899  5.2200
 6202SOL    HW230243   1.913   1.246   7.991  0.2944  0.2803 -0.0190
 6203SOL     OW30244   1.214   0.901  16.611  0.1304 -0.1385  0.4730
 6203SOL    HW130245   1.206   0.932  16.701 -0.0790  2.8636 -0.5781
 6203SOL    HW230246   1.132   0.933  16.573  0.8629  3.0411  1.6050
 6204SOL     OW30247   4.255   3.908  10.541 -0.7802  0.1201  0.7354
 6204SOL    HW130248   4.170   3.925  10.500  0.0586  3.3197  0.3351
 6204SOL    HW230249   4.270   3.816  10.518  1.4584  0.6612  0.0595
 6205SOL     OW30250   0.109   0.944   8.222 -0.3306 -0.2840  0.6126
 6205SOL    HW130251   0.028   0.948   8.272 -1.6370  0.3328 -1.5372
 6205SOL    HW230252   0.167   0.953   8.298 -1.3170 -2.9030  1.6603
 6206SOL     OW30253   3.753   1.242  12.449  0.1177 -0.4940 -0.4605
 6206SOL    HW130254   3.798   1.158  12.461 -0.2884 -0.8794 -1.6737
 6206SOL    HW230255   3.802   1.282  12.378  2.6473 -1.8206  0.5358
 6207SOL     OW30256   3.687   0.497   2.128 -0.1636  0.3175  0.4507
 6207SOL    HW130257   3.731   0.456   2.054 -2.3533 -0.0821 -0.6097
 6207SOL    HW230258   3.613   0.529   2.077  1.6427  1.4292 -1.4634
 6208SOL     OW30259   3.337   0.561  15.230 -0.2803 -0.2362 -0.4888
 6208SOL    HW130260   3.365   0.474  15.204  0.3039 -0.4499  0.8621
 6208SOL    HW230261   3.348   0.566  15.325  0.0670  0.7241 -0.5838
 6209SOL     OW30262   4.374   3.929   3.913 -0.1030  0.4036 -0.1315
 6209SOL    HW130263   4.437   3.857   3.916  0.2958  0.6667 -2.9134
 6209SOL    HW230264   4.368   3.943   4.008  1.0842  1.0106 -0.1501
 6210SOL     OW30265   2.286   1.176   8.710 -0.2419 -0.3936  0.2981
 6210SOL    HW130266   2.208   1.146   8.664  0.0976  0.7219 -1.0025
 6210SOL    HW230267   2.354   1.157   8.646 -0.4572 -1.9905  0.5359
 6211SOL     OW30268   3.510   4.220   9.312  0.1839 -0.2002  0.5931
 6211SOL    HW130269   3.590   4.265   9.288 -0.6319  1.1722  0.4369
 6211SOL    HW230270   3.451   4.295   9.307 -0.3995 -0.6943  0.0150
 6212SOL     OW30271   4.448   0.913   1.274 -0.1089  0.0003  0.1444
 6212SOL    HW130272   4.480   0.920   1.185  0.7818 -2.4553  0.2774
 6212SOL    HW230273   4.527   0.899   1.327  0.5065 -0.9344 -1.0365
 6213SOL     OW30274   1.989   1.038  15.521  0.8529 -0.0065  0.5534
 6213SOL    HW130275   2.033   1.024  15.437 -2.6784 -1.9890 -0.9444
 6213SOL    HW230276   2.068   1.061  15.571  0.1940  1.5422  0.8815
 6214SOL     OW30277   4.225   1.117  11.481 -0.4425 -0.1413  0.3291
 6214SOL    HW130278   4.265   1.077  11.404 -1.3197 -1.6989  0.6795
 6214SOL    HW230279   4.298   1.150  11.532  0.1440 -0.7259 -0.1280
 6215SOL     OW30280   2.739   0.563  16.171 -0.1296  0.0616  0.0950
 6215SOL    HW130281   2.818   0.584  16.221  0.8635 -0.2086 -1.3747
 6215SOL    HW230282   2.698   0.649  16.156 -1.2026 -0.8558 -2.2562
 6216SOL     OW30283   3.184   3.208   5.623 -0.3113  0.8309 -0.8214
 6216SOL    HW130284   3.116   3.160   5.577 -3.1441  2.6483  1.3896
 6216SOL    HW230285   3.140   3.212   5.708 -3.1317 -0.1011 -2.2546
 6217SOL     OW30286   2.666   2.850  15.134 -0.1583 -0.2324 -0.1089
 6217SOL    HW130287   2.579   2.810  15.125  0.6818 -1.7173 -1.7273
 6217SOL    HW230288   2.718   2.818  15.060 -0.0660  1.3582 -0.7273
 6218SOL     OW30289   1.655   0.023  11.421 -0.3334  0.0443  0.3894
 6218SOL    HW130290   1.688   4.701  11.353 -0.9446  0.9474 -0.6855
 6218SOL    HW230291   1.705   0.103  11.407 -0.2715 -0.0199  0.2330
 6219SOL     OW30292   0.747   1.199   5.473  0.1933 -0.3762  0.2132
 6219SOL    HW130293   0.713   1.168   5.389  1.0220  0.1324 -0.3014
 6219SOL    HW230294   0.820   1.241   5.428  1.7534 -1.4727  1.7082
 6220SOL     OW30295   0.276   1.908   2.490  0.5776 -0.4282  0.0412
 6220SOL    HW130296   0.331   1.972   2.446  1.3102 -2.1902 -1.6192
 6220SOL    HW230297   0.249   1.948   2.572  1.2018  0.6067 -0.2606
 6221SOL     OW30298   3.926   3.892   6.556  0.1609  0.5609 -0.1321
 6221SOL    HW130299   3.914   3.896   6.461 -0.7574  0.6298 -0.0179
 6221SOL    HW230300   4.019   3.868   6.558 -0.0910 -0.1369  2.2272
 6222SOL     OW30301   4.293   3.192   9.951 -0.0560 -0.4554  0.0032
 6222SOL    HW130302   4.350   3.168  10.023  1.0944 -1.2827 -1.1886
 6222SOL    HW230303   4.341   3.145   9.883  2.0430  1.0019  0.4793
 6223SOL     OW30304   4.466   0.431   3.273  0.9889  0.3213  0.3118
 6223SOL    HW130305   4.446   0.341   3.247 -0.9504 -0.1131  3.2522
 6223SOL    HW230306   4.522   0.403   3.346  0.0213 -0.0443  0.9067
 6224SOL     OW30307   1.183   2.625   8.656 -0.2339 -0.2917  0.7406
 6224SOL    HW130308   1.177   2.698   8.718  0.3225 -1.0664  1.7071
 6224SOL    HW230309   1.264   2.580   8.683 -1.0868 -1.1531  1.8594
 6225SOL     OW30310   2.548   4.167   4.833  0.0087 -0.7157 -0.1131
 6225SOL    HW130311   2.482   4.199   4.894  0.6494  0.0383  0.1857
 6225SOL    HW230312   2.629   4.185   4.880 -0.5720 -0.3215  0.7223
 6226SOL     OW30313   4.423   3.971  11.772 -0.5102 -0.0039  0.0123
 6226SOL    HW130314   4.431   3.985  11.678  2.5194  0.4135  0.3426
 6226SOL    HW230315   4.490   3.903  11.777  0.6277  1.2043  1.1449
 6227SOL     OW30316   0.817   4.446   5.229  0.4530 -0.3653  0.0403
 6227SOL    HW130317   0.775   4.367   5.195  0.0847  0.4663 -1.4278
 6227SOL    HW230318   0.732   4.488   5.248  0.8650  1.0561 -1.2840
 6228SOL     OW30319   1.740   0.352   8.288 -0.1038  0.1138 -0.7281
 6228SOL    HW130320   1.694   0.425   8.247  2.2793  0.6832 -2.3216
 6228SOL    HW230321   1.671   0.285   8.282 -1.6037  1.5736 -0.0796
 6229SOL     OW30322   2.256   2.159   7.995  0.6203  0.7223  0.1112
 6229SOL    HW130323   2.283   2.249   7.977  0.8233  0.4294 -1.0233
 6229SOL    HW230324   2.270   2.139   8.088 -0.6453  2.1717  0.6300
 6230SOL     OW30325   0.304   2.946   9.260  0.0765  0.1917  0.1501
 6230SOL    HW130326   0.231   2.977   9.314  1.1093 -0.5430  1.9820
 6230SOL    HW230327   0.335   2.868   9.305 -0.0875 -0.4457 -0.8565
 6231SOL     OW30328   4.606   1.879   0.740  0.1194  0.2628  0.6111
 6231SOL    HW130329   4.682   1.880   0.683  0.0577  0.3626  0.5305
 6231SOL    HW230330   4.553   1.804   0.716 -0.6729  0.9012  0.3514
 6232SOL     OW30331   3.612   3.384   4.093  0.2966 -0.7702 -0.1464
 6232SOL    HW130332   3.658   3.385   4.009 -2.5520 -0.3858 -1.7153
 6232SOL    HW230333   3.526   3.407   4.058  0.2957 -1.5646 -0.6792
 6233SOL     OW30334   2.890   0.305   3.599 -0.4456 -0.0618  0.4330
 6233SOL    HW130335   2.891   0.286   3.692  0.8593  0.0805  0.4492
 6233SOL    HW230336   2.974   0.269   3.571  0.4803  1.0154  1.8372
 6234SOL     OW30337   4.651   1.822   7.181  0.1635  0.2829 -0.2703
 6234SOL    HW130338   4.691   1.796   7.098 -0.3805  0.0222 -0.4487
 6234SOL    HW230339   4.686   1.910   7.195  1.0029  0.3257 -2.5529
 6235SOL     OW30340   1.936   4.554   8.233 -0.4844 -0.0143  0.1730
 6235SOL    HW130341   1.888   4.593   8.161  0.5174 -0.0305 -0.5044
 6235SOL    HW230342   1.884   4.588   8.306  2.7838 -0.6279  2.8290
 6236SOL     OW30343   4.162   4.712  12.716  0.4536  0.7431 -0.1792
 6236SOL    HW130344   4.120   0.032  12.652 -0.3327  0.7352  0.3323
 6236SOL    HW230345   4.108   0.004  12.789 -0.6539 -2.5104  0.3129
 6237SOL     OW30346   2.613   1.493   3.116 -0.1094  0.1314 -0.4729
 6237SOL    HW130347   2.543   1.555   3.139  0.2560  0.8105 -1.1853
 6237SOL    HW230348   2.624   1.460   3.205 -1.8808  3.5035  1.0021
 6238SOL     OW30349   4.470   1.687   9.748 -0.3317  0.3593 -0.2742
 6238SOL    HW130350   4.437   1.688   9.659  3.0514 -0.4592 -1.5433
 6238SOL    HW230351   4.490   1.593   9.759 -0.8308  0.4464  1.3636
 6239SOL     OW30352   2.237   3.975  14.566 -0.2538 -0.2720 -0.6478
 6239SOL    HW130353   2.220   3.881  14.573  1.2622 -0.3944  1.5803
 6239SOL    HW230354   2.313   3.995  14.621 -0.5089  1.6572 -0.9832
 6240SOL     OW30355   1.414   1.611  16.427  0.1463  0.1721  0.3263
 6240SOL    HW130356   1.439   1.656  16.347 -0.6004  1.3538  0.7696
 6240SOL    HW230357   1.324   1.642  16.429  0.3760  0.9245 -1.2002
 6241SOL     OW30358   0.358   3.438   6.686  0.0379 -0.6483  0.8625
 6241SOL    HW130359   0.267   3.440   6.714 -0.9794  2.9377 -2.6418
 6241SOL    HW230360   0.378   3.344   6.686 -2.3668 -1.1423  2.1600
 6242SOL     OW30361   0.215   3.959   9.357  0.0550 -0.2109  0.2365
 6242SOL    HW130362   0.146   3.947   9.422 -0.5091 -0.7079 -0.4505
 6242SOL    HW230363   0.243   4.046   9.384 -1.9717  1.1455 -2.0429
 6243SOL     OW30364   0.816   4.233   3.916  0.0434  0.7411  0.0516
 6243SOL    HW130365   0.730   4.244   3.876  0.1770  0.6452 -0.2659
 6243SOL    HW230366   0.867   4.304   3.875  2.8199 -0.1768  1.9259
 6244SOL     OW30367   2.228   1.681   8.807 -0.1313  0.0019  0.3149
 6244SOL    HW130368   2.245   1.591   8.835 -1.8811 -0.4294  0.0064
 6244SOL    HW230369   2.244   1.731   8.887 -1.4644 -2.7506  2.3209
 6245SOL     OW30370   4.561   4.140   3.685  0.3110 -0.1078  0.4043
 6245SOL    HW130371   4.538   4.232   3.700  1.5134  0.7597 -3.1501
 6245SOL    HW230372   4.500   4.100   3.747 -1.1092  1.5086  0.0487
 6246SOL     OW30373   0.263   4.286   5.788  0.6287 -0.1953 -0.1174
 6246SOL    HW130374   0.327   4.341   5.833 -0.8442  1.5101 -0.0968
 6246SOL    HW230375   0.177   4.315   5.820  0.6245  1.6257 -1.7370
 6247SOL     OW30376   0.537   2.343   2.911  0.7486  0.2069  0.3822
 6247SOL    HW130377   0.525   2.400   2.987 -0.0803 -1.1355  1.2591
 6247SOL    HW230378   0.539   2.263   2.963  1.1246  1.6624  2.5810
 6248SOL     OW30379   3.255   2.639   2.782  0.0955 -0.1567 -0.3814
 6248SOL    HW130380   3.302   2.633   2.865 -1.7958  1.5925  0.8096
 6248SOL    HW230381   3.192   2.708   2.803 -0.3946 -1.7301  3.4245
 6249SOL     OW30382   0.145   4.154   2.433 -0.5190  0.9102 -0.4058
 6249SOL    HW130383   0.154   4.229   2.374  1.0845 -2.1414 -4.1133
 6249SOL    HW230384   0.178   4.189   2.515  1.3296  0.7026 -1.0660
 6250SOL     OW30385   2.348   0.092   5.698 -0.8381 -0.4408  0.5495
 6250SOL    HW130386   2.355   0.003   5.663 -0.1617 -0.1956  0.0647
 6250SOL    HW230387   2.266   0.127   5.663  1.1911  3.0862 -0.6633
 6251SOL     OW30388   4.490   4.730   2.491 -0.1707 -0.3500  0.2780
 6251SOL    HW130389   4.482   0.013   2.398  3.6954  1.3136  0.3322
 6251SOL    HW230390   4.417   4.667   2.500  1.6044 -2.3473  0.6834
 6252SOL     OW30391   0.647   2.569   9.595  0.4096  0.0941 -0.0117
 6252SOL    HW130392   0.649   2.504   9.665  0.8264  0.2496  0.1232
 6252SOL    HW230393   0.741   2.579   9.584 -0.0200  1.5446 -2.3849
 6253SOL     OW30394   2.161   0.196   0.834 -0.3620  0.7959 -0.0954
 6253SOL    HW130395   2.208   0.275   0.858  0.7442  0.2366 -0.4459
 6253SOL    HW230396   2.189   0.160   0.750  2.2067  2.5417  0.0127
 6254SOL     OW30397   1.477   1.539   7.996  0.1342 -1.0717  0.3809
 6254SOL    HW130398   1.563   1.575   8.016  0.0409 -1.4554  1.4953
 6254SOL    HW230399   1.482   1.499   7.909  2.1768  0.0751 -0.0276
 6255SOL     OW30400   4.080   3.963   6.896  0.1113 -0.0004  0.4522
 6255SOL    HW130401   3.995   3.940   6.935 -1.0043  1.3485 -1.1377
 6255SOL    HW230402   4.062   4.002   6.810  2.4647  0.3113  0.1122
 6256SOL     OW30403   1.248   4.680  13.970  0.1062  0.5420 -0.2767
 6256SOL    HW130404   1.237   4.629  13.890 -3.3287 -1.3465  1.3902
 6256SOL    HW230405   1.341   4.681  13.989  0.0765  1.2454 -0.1731
 6257SOL     OW30406   1.302   0.200   2.251  0.4144  0.0624 -0.0073
 6257SOL    HW130407   1.362   0.275   2.252 -0.1429  0.5068  0.2130
 6257SOL    HW230408   1.345   0.142   2.189  2.2200 -0.5986  1.8466
 6258SOL     OW30409   0.632   0.262   2.435  0.3328  0.1170  0.2600
 6258SOL    HW130410   0.628   0.176   2.394  0.7095 -0.0740  0.6231
 6258SOL    HW230411   0.721   0.279   2.405 -0.2070  0.0802 -1.3750
 6259SOL     OW30412   2.425   1.933   6.604  0.1945 -0.1017  0.3548
 6259SOL    HW130413   2.410   2.026   6.587  1.8566  0.6749  3.1392
 6259SOL    HW230414   2.491   1.924   6.535 -0.4800 -1.8764 -0.0408
 6260SOL     OW30415   2.714   0.444   5.814 -0.6845  0.2535 -0.1184
 6260SOL    HW130416   2.768   0.475   5.887 -0.8193  1.0089 -0.3429
 6260SOL    HW230417   2.635   0.430   5.866 -0.2714  1.1320  0.7512
 6261SOL     OW30418   1.210   3.049  11.657  0.5451 -0.1882  1.2446
 6261SOL    HW130419   1.246   3.128  11.617  0.0365 -0.3035  0.5707
 6261SOL    HW230420   1.196   2.992  11.582  2.3798  0.1463  0.6642
 6262SOL     OW30421   0.515   3.634   7.925  0.2240  0.2259  0.3036
 6262SOL    HW130422   0.587   3.613   7.865 -0.2688 -0.5963  0.0159
 6262SOL    HW230423   0.514   3.553   7.977  0.1434  0.2674  0.3661
 6263SOL     OW30424   3.508   1.341  12.527  0.3316 -0.0277  0.2475
 6263SOL    HW130425   3.506   1.380  12.440  0.6639  1.0364  0.7154
 6263SOL    HW230426   3.603   1.325  12.534  0.3799  1.3878  2.7451
 6264SOL     OW30427   2.219   0.910   1.228  0.0413  0.4271  0.0613
 6264SOL    HW130428   2.188   1.001   1.233 -0.2377  0.3809 -0.9429
 6264SOL    HW230429   2.310   0.933   1.210 -0.2258  2.1635  0.9177
 6265SOL     OW30430   1.829   1.720  13.413 -0.1476  0.2206 -0.0174
 6265SOL    HW130431   1.885   1.734  13.338 -1.4152 -1.0528 -1.2189
 6265SOL    HW230432   1.893   1.701  13.482  1.2142 -1.3672 -1.7072
 6266SOL     OW30433   1.055   1.178   5.961  0.0749 -0.4997 -0.1199
 6266SOL    HW130434   1.101   1.253   5.923 -1.2308 -0.6313 -1.9801
 6266SOL    HW230435   1.106   1.183   6.042 -0.1392  3.2170 -0.2097
 6267SOL     OW30436   2.970   0.506  10.394 -0.0656 -0.0007  0.1671
 6267SOL    HW130437   2.996   0.415  10.407  0.3855  0.4591  2.4930
 6267SOL    HW230438   2.880   0.484  10.368  0.3187  0.4193 -1.5006
 6268SOL     OW30439   3.506   4.246   7.215  0.3470  0.3241 -0.0042
 6268SOL    HW130440   3.559   4.325   7.207  0.2016  0.2716 -1.4996
 6268SOL    HW230441   3.515   4.214   7.125 -1.6644  0.3007 -0.2007
 6269SOL     OW30442   4.405   0.183   3.218  0.4724  0.3007  0.1499
 6269SOL    HW130443   4.389   0.133   3.298 -0.5886  1.2986  0.5578
 6269SOL    HW230444   4.493   0.161   3.188  0.9069  0.3659  1.3847
 6270SOL     OW30445   3.306   3.100   8.697  0.3346 -0.2295  0.0222
 6270SOL    HW130446   3.401   3.097   8.684  0.1060  0.0987 -1.7159
 6270SOL    HW230447   3.287   3.042   8.771  0.1551  2.2238  1.9317
 6271SOL     OW30448   1.918   0.611   8.156 -0.1313 -0.2073  0.1354
 6271SOL    HW130449   1.829   0.645   8.156  0.0351  0.2651 -2.0671
 6271SOL    HW230450   1.931   0.565   8.239 -1.4969 -0.2312  0.3311
 6272SOL     OW30451   4.398   0.287  14.703  0.5466 -0.3677  0.4881
 6272SOL    HW130452   4.398   0.239  14.786  2.6397 -1.8099 -0.3412
 6272SOL    HW230453   4.430   0.208  14.658 -0.3808 -0.6744  0.3780
 6273SOL     OW30454   2.890   0.142   2.937 -0.7766  0.0234 -0.4581
 6273SOL    HW130455   2.794   0.141   2.945 -0.6799  0.4878  0.9026
 6273SOL    HW230456   2.906   0.061   2.889  1.2805 -0.5277  1.1760
 6274SOL     OW30457   2.154   1.540   2.478 -0.0138 -0.5050 -0.2290
 6274SOL    HW130458   2.186   1.600   2.545  0.3012 -0.7082 -0.2000
 6274SOL    HW230459   2.183   1.592   2.403 -2.0178 -0.0132 -0.6728
 6275SOL     OW30460   0.160   2.800   2.010  0.3193  0.0641  0.5059
 6275SOL    HW130461   0.207   2.816   1.928 -1.9557  0.4341 -0.7093
 6275SOL    HW230462   0.077   2.767   1.975 -0.1772  0.4500  1.3253
 6276SOL     OW30463   0.619   1.578   9.951 -0.3022 -0.5852 -0.2234
 6276SOL    HW130464   0.588   1.632   9.879  2.5892  1.1654 -0.1444
 6276SOL    HW230465   0.656   1.507   9.899 -1.2510 -0.7172 -0.7030
 6277SOL     OW30466   2.091   1.204  14.630 -0.4419  0.0348 -0.1133
 6277SOL    HW130467   2.148   1.207  14.553  0.9613  1.8787  0.9925
 6277SOL    HW230468   2.062   1.295  14.635  1.1173  0.5769 -0.6972
 6278SOL     OW30469   2.848   4.524   2.031  0.0202 -0.0772 -0.8218
 6278SOL    HW130470   2.812   4.533   1.943 -0.4633 -0.1005 -0.6273
 6278SOL    HW230471   2.811   4.604   2.070  0.9997  0.1351 -0.3278
 6279SOL     OW30472   1.259   0.027   1.837 -0.4845 -0.1200 -0.1157
 6279SOL    HW130473   1.232   4.675   1.812  1.7064 -0.5922 -0.8475
 6279SOL    HW230474   1.183   0.071   1.799 -0.3067  0.2428 -0.0464
 6280SOL     OW30475   0.020   3.594   2.166  0.2092  0.0692  0.1995
 6280SOL    HW130476   4.703   3.527   2.209 -1.8009  1.6797  0.1885
 6280SOL    HW230477   4.736   3.671   2.220  0.8871  0.8655 -0.6756
 6281SOL     OW30478   4.061   3.501   5.759  0.0670  0.3785 -0.1835
 6281SOL    HW130479   4.041   3.507   5.665 -1.7272  0.5949  0.2236
 6281SOL    HW230480   4.098   3.413   5.767  0.6066  0.6766  0.5678
 6282SOL     OW30481   4.064   1.340  15.081 -0.3349 -0.0333 -0.4463
 6282SOL    HW130482   4.082   1.405  15.012  0.4633  2.4357  2.0747
 6282SOL    HW230483   4.024   1.276  15.022  0.1357  1.1081 -2.0265
 6283SOL     OW30484   0.724   0.862   8.800 -0.0533  0.2621  0.4433
 6283SOL    HW130485   0.796   0.870   8.863 -1.0493 -1.4315  1.7977
 6283SOL    HW230486   0.649   0.878   8.857  0.9667 -0.6153  2.0418
 6284SOL     OW30487   2.202   1.265   6.300 -0.5860 -0.1997 -0.1143
 6284SOL    HW130488   2.262   1.243   6.371 -0.1482  1.4472  0.0096
 6284SOL    HW230489   2.235   1.200   6.238  2.4642  0.6102  0.6583
 6285SOL     OW30490   3.135   1.367   5.509 -0.0856 -0.0263  0.4573
 6285SOL    HW130491   3.063   1.429   5.516 -0.5265 -0.4205 -0.6240
 6285SOL    HW230492   3.213   1.417   5.485  0.5900 -0.4838  1.7067
 6286SOL     OW30493   4.643   4.104   8.335 -0.1690 -0.3836 -0.4966
 6286SOL    HW130494   4.552   4.120   8.359 -0.2661 -1.9925  0.2410
 6286SOL    HW230495   4.624   4.058   8.254 -0.6071  0.1650 -0.7021
 6287SOL     OW30496   0.126   4.587  15.064  0.3939  0.2446  0.1408
 6287SOL    HW130497   0.051   4.647  15.064  1.5120  1.6293 -1.6526
 6287SOL    HW230498   0.131   4.561  14.972 -0.1944  0.5211  0.0306
 6288SOL     OW30499   3.528   0.718   2.445  0.3129  0.0875 -0.1349
 6288SOL    HW130500   3.623   0.718   2.453  0.1787  1.6200  1.5178
 6288SOL    HW230501   3.498   0.770   2.520  0.1246 -1.2178  0.7066
 6289SOL     OW30502   3.093   4.508   1.926 -0.0059  0.4753  0.4487
 6289SOL    HW130503   3.014   4.516   1.979 -0.4552 -2.0853  0.1558
 6289SOL    HW230504   3.160   4.489   1.992  0.9298 -1.1887 -0.9662
 6290SOL     OW30505   1.548   1.759   8.343 -0.1431 -0.3309  0.1876
 6290SOL    HW130506   1.532   1.703   8.419 -2.6171  0.1042 -0.0336
 6290SOL    HW230507   1.461   1.749   8.304  0.2294  0.6354 -0.9017
 6291SOL     OW30508   0.880   0.344   6.194  0.5159 -0.0767 -0.5312
 6291SOL    HW130509   0.821   0.419   6.198 -0.7189 -1.0787 -0.1775
 6291SOL    HW230510   0.966   0.387   6.194 -0.5413  2.0030  0.6008
 6292SOL     OW30511   0.587   0.183   8.442 -0.5774 -0.0878  0.7460
 6292SOL    HW130512   0.522   0.137   8.389  0.5013  1.6156 -2.0109
 6292SOL    HW230513   0.578   0.130   8.522  0.5530 -0.9353  0.3163
 6293SOL     OW30514   2.356   0.586   5.789  0.0761 -0.2710  0.2749
 6293SOL    HW130515   2.434   0.554   5.835 -0.4060 -1.3291  0.3600
 6293SOL    HW230516   2.389   0.673   5.764  1.4505 -0.6139  0.8602
 6294SOL     OW30517   2.210   1.757   6.582 -0.4768  0.1658 -0.1884
 6294SOL    HW130518   2.192   1.831   6.524  3.3283  0.4092 -1.1226
 6294SOL    HW230519   2.283   1.804   6.622  0.0021 -1.2825  0.6603
 6295SOL     OW30520   4.284   0.254   5.983 -0.3752  0.4309  0.4307
 6295SOL    HW130521   4.305   0.221   6.071 -0.8519 -2.8826 -0.6685
 6295SOL    HW230522   4.314   0.345   5.984  0.2397  0.2484 -0.7401
 6296SOL     OW30523   3.787   1.586   2.366  0.4322 -0.1256  0.0358
 6296SOL    HW130524   3.822   1.589   2.455  2.3065 -1.3704 -0.6743
 6296SOL    HW230525   3.696   1.556   2.371 -0.0153  0.6342 -3.3846
 6297SOL     OW30526   0.503   2.353   8.762 -0.2130  0.5327  0.1521
 6297SOL    HW130527   0.412   2.330   8.778  0.1837 -2.4573 -1.9469
 6297SOL    HW230528   0.495   2.448   8.774 -3.1351  0.1767  0.9665
 6298SOL     OW30529   2.886   2.031   3.080 -0.0094 -0.4573  0.0629
 6298SOL    HW130530   2.792   2.032   3.100 -0.1822 -1.8868 -0.6675
 6298SOL    HW230531   2.889   2.089   3.003  0.9218 -0.0936  0.3765
 6299SOL     OW30532   3.404   3.976   5.205 -0.2445 -0.4701 -0.0815
 6299SOL    HW130533   3.388   3.904   5.144 -0.4871 -1.0532  0.6708
 6299SOL    HW230534   3.322   3.957   5.250 -1.9832  0.4007 -2.9190
 6300SOL     OW30535   1.409   3.368   3.387 -0.7283 -0.4840 -0.3821
 6300SOL    HW130536   1.396   3.430   3.315 -1.2430  0.2014  0.2986
 6300SOL    HW230537   1.331   3.315   3.372 -0.8926  0.7481 -3.7859
 6301SOL     OW30538   3.908   4.275  14.429 -0.8746  0.4159  0.3189
 6301SOL    HW130539   3.906   4.198  14.372 -0.7218  1.0094 -0.4960
 6301SOL    HW230540   3.825   4.322  14.416 -1.6046 -0.5570  1.5614
 6302SOL     OW30541   2.566   3.172   8.296  0.8973 -0.0001  0.1837
 6302SOL    HW130542   2.488   3.165   8.351 -0.7463  0.4531 -2.1131
 6302SOL    HW230543   2.602   3.259   8.316 -2.1620  1.5271 -0.8627
 6303SOL     OW30544   2.063   3.736  14.568 -0.0152 -0.1436 -0.4771
 6303SOL    HW130545   2.156   3.725  14.589  0.1983 -1.1597 -1.9402
 6303SOL    HW230546   2.020   3.750  14.652  0.9310  0.7634 -0.1435
 6304SOL     OW30547   3.463   3.448   4.767  0.2065 -0.0340  0.5848
 6304SOL    HW130548   3.501   3.507   4.832 -1.6025 -0.6997  2.2433
 6304SOL    HW230549   3.399   3.408   4.826  1.3515 -0.0230  1.8399
 6305SOL     OW30550   2.681   0.255  17.585  0.9393  1.1983  0.4136
 6305SOL    HW130551   2.676   0.225  17.675 -2.8308  0.3364 -0.1063
 6305SOL    HW230552   2.602   0.215  17.548  1.6875 -0.6949  0.8694
 6306SOL     OW30553   1.858   1.081   2.082  0.0055  0.4656 -0.5506
 6306SOL    HW130554   1.838   1.172   2.058 -2.0640  0.2111  0.2191
 6306SOL    HW230555   1.893   1.093   2.171 -1.7153 -0.0507  0.1884
 6307SOL     OW30556   3.994   0.458   8.512 -0.2336  0.2686  0.0079
 6307SOL    HW130557   3.982   0.384   8.452  1.4785 -0.9919  1.2095
 6307SOL    HW230558   3.972   0.417   8.596  0.4620  1.7078  0.8956
 6308SOL     OW30559   3.349   2.777   5.798  0.1663 -0.5247 -1.3121
 6308SOL    HW130560   3.277   2.836   5.776  0.6382 -0.2632 -2.1640
 6308SOL    HW230561   3.349   2.776   5.894  0.5066 -2.6538 -1.3464
 6309SOL     OW30562   1.917   0.169  16.004 -0.3406  0.3578 -0.3703
 6309SOL    HW130563   1.854   0.184  16.074  0.6895 -0.5495  0.7340
 6309SOL    HW230564   1.884   0.235  15.943  1.8453 -0.1946 -2.1570
 6310SOL     OW30565   1.424   1.831   8.642  0.3779  0.0968 -0.3678
 6310SOL    HW130566   1.332   1.845   8.618  0.2912 -1.3377 -0.8643
 6310SOL    HW230567   1.414   1.746   8.684  2.0002 -0.6900 -1.5615
 6311SOL     OW30568   3.807   0.747   5.418 -0.2258  0.1877  0.3208
 6311SOL    HW130569   3.867   0.749   5.344 -0.6858 -1.9222 -0.1036
 6311SOL    HW230570   3.856   0.800   5.481  2.0465 -3.6372  1.7466
 6312SOL     OW30571   3.871   2.062   5.969 -0.3192  0.5287 -0.0677
 6312SOL    HW130572   3.786   2.029   5.997  0.1579 -0.0753  0.6599
 6312SOL    HW230573   3.926   2.045   6.045  0.1122 -0.8592 -0.6760
 6313SOL     OW30574   1.126   0.999   2.173 -0.5808 -0.1946 -0.2175
 6313SOL    HW130575   1.133   0.929   2.238  1.5476 -0.6938 -0.9929
 6313SOL    HW230576   1.069   1.064   2.213 -1.2148  1.3600 -3.5686
 6314SOL     OW30577   1.372   0.683  13.799  0.1780 -0.2109 -0.3444
 6314SOL    HW130578   1.333   0.707  13.715 -2.5118 -0.2317  0.8586
 6314SOL    HW230579   1.295   0.712  13.849  0.3407  0.4641 -0.4821
 6315SOL     OW30580   2.069   3.141   4.422 -0.3590 -0.1218 -0.3653
 6315SOL    HW130581   2.132   3.068   4.424 -0.6301 -0.3336  0.6698
 6315SOL    HW230582   2.009   3.096   4.483 -1.1933  1.8241  0.2384
 6316SOL     OW30583   1.202   3.082  13.651 -0.2102 -0.5611 -0.2591
 6316SOL    HW130584   1.203   3.015  13.719 -0.4870  0.0200  0.3135
 6316SOL    HW230585   1.211   3.154  13.713 -1.0628 -1.2216  0.6329
 6317SOL     OW30586   0.460   0.087   5.268 -0.0662  0.1137  0.2096
 6317SOL    HW130587   0.467   0.140   5.347 -1.5687 -0.7738  0.9275
 6317SOL    HW230588   0.368   0.067   5.256 -0.2493  1.2536 -0.2295
 6318SOL     OW30589   3.550   0.463   1.116  0.3037 -0.2512  0.0724
 6318SOL    HW130590   3.492   0.539   1.118 -0.4703 -0.7632 -2.3867
 6318SOL    HW230591   3.537   0.422   1.201 -0.2339  1.8236  1.0036
 6319SOL     OW30592   3.633   2.288   8.793  0.2344 -0.2851  0.0958
 6319SOL    HW130593   3.603   2.379   8.793 -0.9977 -0.6957  1.1548
 6319SOL    HW230594   3.555   2.246   8.756  0.2020 -0.6802  0.6186
 6320SOL     OW30595   3.335   3.459   1.619  0.5600  0.2613  0.0470
 6320SOL    HW130596   3.325   3.364   1.611 -1.2733  0.3319  1.5523
 6320SOL    HW230597   3.395   3.463   1.544 -0.5068  0.3100 -0.8070
 6321SOL     OW30598   0.043   0.148   5.897  0.2198  0.1989  0.1834
 6321SOL    HW130599   0.100   0.223   5.916  0.3487  0.2471 -0.3725
 6321SOL    HW230600   0.109   0.084   5.871  0.7699  0.9638 -0.3261
 6322SOL     OW30601   1.263   3.520   1.877 -0.2907  0.4694 -0.3720
 6322SOL    HW130602   1.356   3.499   1.891  0.1992  2.1344 -1.0463
 6322SOL    HW230603   1.213   3.444   1.905  1.2760 -0.1735  0.6833
 6323SOL     OW30604   0.116   4.349   6.117 -0.0032  0.2873 -0.2180
 6323SOL    HW130605   0.101   4.275   6.175  0.6806 -0.3324 -0.8269
 6323SOL    HW230606   0.101   4.421   6.178  1.3230 -0.5884  1.1242
 6324SOL     OW30607   1.949   1.092   4.096  0.1580 -0.2782 -0.1314
 6324SOL    HW130608   1.867   1.046   4.112 -0.5697 -0.0181 -3.2462
 6324SOL    HW230609   1.924   1.138   4.016  1.5139 -0.7647 -0.8426
 6325SOL     OW30610   4.375   0.936   6.666 -0.7062  0.2315 -0.0038
 6325SOL    HW130611   4.292   0.930   6.714 -0.6031  0.6715  0.2246
 6325SOL    HW230612   4.419   1.002   6.720  0.5810 -1.4701  1.0186
 6326SOL     OW30613   3.845   0.092   6.341  0.3416  0.7378 -0.6410
 6326SOL    HW130614   3.889   0.146   6.275 -2.4066 -0.0906 -3.1393
 6326SOL    HW230615   3.919   0.096   6.401  1.0406  0.5240 -1.4926
 6327SOL     OW30616   0.526   2.807   6.149 -0.4640 -0.2306 -0.0160
 6327SOL    HW130617   0.451   2.748   6.148  0.2032 -1.0791 -0.2196
 6327SOL    HW230618   0.558   2.807   6.059  1.4440  1.4447  0.6577
 6328SOL     OW30619   4.558   0.237   6.769 -0.2887 -0.4736  0.0128
 6328SOL    HW130620   4.566   0.283   6.686  2.5353  0.4406  0.8008
 6328SOL    HW230621   4.498   0.165   6.748  0.5264 -1.0707 -0.2602
 6329SOL     OW30622   2.641   0.960   7.305  0.4728 -0.6465 -0.3528
 6329SOL    HW130623   2.624   1.004   7.388 -0.3302  0.5537 -1.1461
 6329SOL    HW230624   2.585   1.019   7.254 -0.7060 -2.3004 -0.9802
 6330SOL     OW30625   1.684   4.279   5.783  0.6445  0.1521  0.0974
 6330SOL    HW130626   1.657   4.271   5.691  1.3918  1.3439 -0.2280
 6330SOL    HW230627   1.690   4.373   5.800 -0.4897  0.4293 -1.0379
 6331SOL     OW30628   1.306   4.287  15.934  0.5378 -0.7518  0.2853
 6331SOL    HW130629   1.281   4.234  16.010 -0.7624 -1.8645 -0.9347
 6331SOL    HW230630   1.363   4.352  15.977  2.0061 -0.3809 -2.2206
 6332SOL     OW30631   1.966   3.532  14.394  0.0471  0.1746 -0.2848
 6332SOL    HW130632   2.038   3.474  14.368  1.3160  2.9528 -3.0156
 6332SOL    HW230633   2.019   3.599  14.438  1.3590 -1.4935  0.6695
 6333SOL     OW30634   1.866   1.793   8.512 -0.1765 -0.1805 -0.1795
 6333SOL    HW130635   1.846   1.758   8.425  1.5749  0.4612 -0.8414
 6333SOL    HW230636   1.875   1.717   8.570 -0.1942 -0.2445 -0.2609
 6334SOL     OW30637   1.892   0.487   1.608 -0.5514  0.4321 -0.6769
 6334SOL    HW130638   1.928   0.511   1.523 -0.1658  0.3852 -0.5294
 6334SOL    HW230639   1.886   0.574   1.647  1.5333 -0.5774  1.9360
 6335SOL     OW30640   0.894   0.019   8.207  0.2010 -0.4532  0.1615
 6335SOL    HW130641   0.816   4.719   8.248 -1.0712 -1.5388 -3.2177
 6335SOL    HW230642   0.871   0.048   8.119  0.8647 -0.2672  0.0497
 6336SOL     OW30643   0.066   1.618   1.626 -0.6470  0.3304  0.0418
 6336SOL    HW130644   0.009   1.661   1.562 -0.7023 -0.0367 -0.1545
 6336SOL    HW230645   0.105   1.542   1.583 -3.2664 -1.6403  1.1513
 6337SOL     OW30646   0.744   2.788   5.497 -0.0696  0.1584 -0.4397
 6337SOL    HW130647   0.686   2.811   5.425 -0.5492 -0.5196 -0.2710
 6337SOL    HW230648   0.701   2.832   5.570  0.0366 -1.7745  0.7957
 6338SOL     OW30649   2.176   2.650  12.881  0.5289  0.0964  0.3049
 6338SOL    HW130650   2.141   2.576  12.831 -0.3191  2.5570 -2.7239
 6338SOL    HW230651   2.267   2.640  12.854 -0.2546 -0.0971 -2.2437
 6339SOL     OW30652   3.026   4.733  16.863 -0.1905 -0.3949  0.6022
 6339SOL    HW130653   2.937   4.721  16.830 -0.2033  1.6492 -0.1244
 6339SOL    HW230654   3.080   0.016  16.787 -0.9998 -0.7180 -0.0622
 6340SOL     OW30655   0.663   2.834  14.158  0.1719 -0.0216  0.1032
 6340SOL    HW130656   0.644   2.741  14.153 -0.7647  0.2063 -0.5778
 6340SOL    HW230657   0.709   2.840  14.241  0.6360 -0.1159 -0.1521
 6341SOL     OW30658   2.057   4.727   4.824 -0.1647  0.0883 -0.1345
 6341SOL    HW130659   2.135   0.015   4.775 -0.4070  1.5688  0.2277
 6341SOL    HW230660   1.986   0.029   4.773  0.0265  0.3029 -0.2341
 6342SOL     OW30661   3.284   1.249   2.611  0.7750  0.0030  0.0417
 6342SOL    HW130662   3.370   1.289   2.626  0.4922  0.9534 -0.9076
 6342SOL    HW230663   3.305   1.173   2.557  1.8339 -0.5045  1.1545
 6343SOL     OW30664   1.393   3.930   9.397 -0.4648  0.0991  0.6838
 6343SOL    HW130665   1.362   4.020   9.405 -4.6314 -1.2288 -0.6714
 6343SOL    HW230666   1.408   3.930   9.303 -1.1213 -2.3867  0.5841
 6344SOL     OW30667   1.449   1.565  15.691  0.6005  0.5035  0.2483
 6344SOL    HW130668   1.487   1.619  15.760 -0.0061 -0.6704  1.4920
 6344SOL    HW230669   1.445   1.631  15.621  0.0086  0.7409  0.5056
 6345SOL     OW30670   4.055   2.058   4.249  0.1387  0.2085  0.1500
 6345SOL    HW130671   3.980   2.092   4.297 -1.3581 -0.5906 -1.6122
 6345SOL    HW230672   4.095   2.009   4.321  1.3216 -1.1403 -1.4316
 6346SOL     OW30673   3.267   1.929   4.564  0.4170  0.6353  0.1381
 6346SOL    HW130674   3.225   1.984   4.497  1.5057  1.4381  0.1052
 6346SOL    HW230675   3.327   1.872   4.516  1.0134  0.1924  1.4324
 6347SOL     OW30676   1.877   2.197   0.717 -0.0185  0.1293  0.0180
 6347SOL    HW130677   1.967   2.166   0.708 -0.1556 -0.3629  0.2676
 6347SOL    HW230678   1.831   2.117   0.744  1.6224 -0.3755  1.3985
 6348SOL     OW30679   2.949   4.502   6.688 -0.6688  0.0394  0.1380
 6348SOL    HW130680   2.967   4.594   6.708 -2.3269  0.1219  1.2962
 6348SOL    HW230681   2.973   4.507   6.596 -1.3546 -3.1956 -0.1934
 6349SOL     OW30682   0.552   4.199   5.412 -0.1119 -0.3782  0.3930
 6349SOL    HW130683   0.461   4.210   5.441 -0.3835 -0.9004 -0.2692
 6349SOL    HW230684   0.588   4.280   5.448 -1.4739 -1.0580  3.3503
 6350SOL     OW30685   1.587   0.966   8.963  0.7085 -0.4516  0.0069
 6350SOL    HW130686   1.574   0.883   8.917  1.2009  0.4493 -1.7571
 6350SOL    HW230687   1.624   0.937   9.046 -0.6431 -0.0219  0.7593
 6351SOL     OW30688   1.515   3.124   3.258  0.0223  1.1371  0.0865
 6351SOL    HW130689   1.522   3.191   3.190  1.0579  0.1787 -0.7525
 6351SOL    HW230690   1.420   3.112   3.265  0.1874 -1.5240 -2.1244
 6352SOL     OW30691   2.758   3.891   3.154  0.4416  0.2997 -0.1172
 6352SOL    HW130692   2.847   3.925   3.138  0.3851  1.3128  1.7913
 6352SOL    HW230693   2.719   3.900   3.067  1.3552 -2.0460 -0.7580
 6353SOL     OW30694   1.837   4.193   0.718 -0.7616 -0.0752 -0.0456
 6353SOL    HW130695   1.876   4.273   0.684 -1.5822  1.5319  2.8304
 6353SOL    HW230696   1.784   4.231   0.788 -0.7817 -2.1754  1.1081
 6354SOL     OW30697   0.888   1.518  15.101  0.1023  0.2647  0.1210
 6354SOL    HW130698   0.846   1.433  15.110  0.5687  0.1559  1.3854
 6354SOL    HW230699   0.966   1.497  15.154  0.2567  1.5475  0.4034
 6355SOL     OW30700   0.832   2.804   3.631  0.0817  0.0494  0.2933
 6355SOL    HW130701   0.904   2.772   3.577  0.4888  1.6449 -0.0935
 6355SOL    HW230702   0.780   2.724   3.629  0.4275 -0.1483 -0.4701
 6356SOL     OW30703   1.978   4.053  14.601 -0.1046  0.2166 -0.4451
 6356SOL    HW130704   2.067   4.023  14.620 -1.4154 -1.7063  2.6346
 6356SOL    HW230705   1.932   4.009  14.673 -1.2440 -0.4522 -1.5880
 6357SOL     OW30706   0.284   3.269   9.003 -0.0371  0.6167 -0.4598
 6357SOL    HW130707   0.195   3.240   9.023  0.2603 -0.6877 -1.0132
 6357SOL    HW230708   0.253   3.349   8.959 -2.9366 -1.3344 -1.9601
 6358SOL     OW30709   1.166   3.423   6.678 -0.1688 -0.5131 -0.0340
 6358SOL    HW130710   1.140   3.476   6.603  1.9511  2.2198  1.1645
 6358SOL    HW230711   1.116   3.346   6.652  0.5102 -0.0493 -2.6979
 6359SOL     OW30712   3.149   2.272   5.828 -1.0494  0.6614 -0.8186
 6359SOL    HW130713   3.204   2.313   5.895  0.4373 -0.0549 -1.5828
 6359SOL    HW230714   3.212   2.252   5.758  1.9739  0.0390  2.0548
 6360SOL     OW30715   1.817   1.958   2.381 -0.3102 -0.1696 -0.3520
 6360SOL    HW130716   1.756   2.032   2.375  0.7801  0.5651 -2.2395
 6360SOL    HW230717   1.805   1.932   2.473 -2.2241 -0.6414 -0.7381
 6361SOL     OW30718   1.316   2.878   1.606 -0.2691  0.6752  0.0696
 6361SOL    HW130719   1.351   2.791   1.587  1.7965  1.2578  1.1688
 6361SOL    HW230720   1.393   2.917   1.648 -0.6754 -1.0481  2.4011
 6362SOL     OW30721   4.035   1.901   4.043 -0.0150 -0.6300  0.0305
 6362SOL    HW130722   4.047   1.970   4.108 -0.8677  1.9311 -2.4973
 6362SOL    HW230723   3.986   1.941   3.971  1.1869 -0.9854 -0.9961
 6363SOL     OW30724   4.565   2.070   2.808 -0.0180 -0.3038  0.3307
 6363SOL    HW130725   4.483   2.069   2.857  1.2745  4.3098  2.5805
 6363SOL    HW230726   4.597   2.153   2.844 -2.3866  1.4638 -1.6123
 6364SOL     OW30727   4.437   2.098  10.925 -0.5235  0.8879 -0.1579
 6364SOL    HW130728   4.362   2.051  10.889  0.0488  0.7252 -1.1265
 6364SOL    HW230729   4.459   2.051  11.005 -0.8028 -1.1799 -1.2915
 6365SOL     OW30730   1.228   0.358   2.766  0.4091 -0.3334 -0.0970
 6365SOL    HW130731   1.208   0.379   2.675 -1.9447  1.0620  0.7403
 6365SOL    HW230732   1.232   0.262   2.764  0.3690 -0.3346 -0.1234
 6366SOL     OW30733   3.504   1.103   4.004  0.0737 -0.3063 -0.5084
 6366SOL    HW130734   3.590   1.064   3.990  1.3628  2.2079  0.3293
 6366SOL    HW230735   3.466   1.112   3.917 -2.3320 -1.7933  0.3947
 6367SOL     OW30736   0.048   3.126   3.538  0.0806 -0.4265 -0.4725
 6367SOL    HW130737   4.701   3.091   3.510 -1.4266  2.1108  0.8857
 6367SOL    HW230738   0.034   3.153   3.629 -0.9772  0.2481 -0.8446
 6368SOL     OW30739   4.373   1.321  11.120 -0.4412  0.2125 -0.3281
 6368SOL    HW130740   4.279   1.340  11.111 -0.7504 -0.9165  0.5009
 6368SOL    HW230741   4.375   1.226  11.109  0.8078  0.1442  0.5114
 6369SOL     OW30742   3.555   0.647  12.447 -0.2989 -0.1400  0.0842
 6369SOL    HW130743   3.623   0.699  12.490 -0.0275 -1.1908  0.9168
 6369SOL    HW230744   3.570   0.666  12.354  2.0998  2.0230  0.8982
 6370SOL     OW30745   1.437   3.708   4.570  0.0949  0.3404  0.2087
 6370SOL    HW130746   1.437   3.767   4.645 -0.3673  1.2479 -0.4956
 6370SOL    HW230747   1.515   3.654   4.583  1.0955  1.3706 -1.5424
 6371SOL     OW30748   0.390   1.384   5.573  0.2059  0.3814  0.0694
 6371SOL    HW130749   0.318   1.322   5.579 -1.0010  2.0114  2.2729
 6371SOL    HW230750   0.347   1.465   5.597 -0.3950  0.1763 -0.3183
 6372SOL     OW30751   2.361   2.350   7.340 -0.2889 -0.0407 -0.2906
 6372SOL    HW130752   2.440   2.360   7.393 -1.1390 -1.1254  1.1849
 6372SOL    HW230753   2.299   2.395   7.398 -0.4414 -2.7767  1.6803
 6373SOL     OW30754   3.834   3.004  17.237  0.6048  0.1685 -0.9310
 6373SOL    HW130755   3.808   2.995  17.146  0.1095 -2.6160 -0.5203
 6373SOL    HW230756   3.833   2.913  17.265 -1.0035  0.7103  0.7854
 6374SOL     OW30757   2.827   3.429   3.071  0.5696  0.2907 -0.6938
 6374SOL    HW130758   2.813   3.337   3.050  2.6561 -0.2702  0.3351
 6374SOL    HW230759   2.883   3.415   3.147 -0.8411 -0.5649  0.1810
 6375SOL     OW30760   1.186   3.737   8.715  0.0293  0.0800  0.5838
 6375SOL    HW130761   1.268   3.706   8.676 -0.3441  0.2482 -0.3270
 6375SOL    HW230762   1.170   3.695   8.800 -1.7945 -2.6875 -1.1328
 6376SOL     OW30763   4.168   4.558   4.734 -0.3425  0.3397  0.1529
 6376SOL    HW130764   4.175   4.523   4.823 -0.2282 -0.0034  0.0076
 6376SOL    HW230765   4.158   4.477   4.684  1.1984  0.1013  0.2208
 6377SOL     OW30766   2.829   2.702  14.934  0.0932 -0.2780  0.1318
 6377SOL    HW130767   2.826   2.609  14.958  0.8645 -0.3521 -0.0678
 6377SOL    HW230768   2.920   2.701  14.905 -0.0332  0.5679 -0.2776
 6378SOL     OW30769   0.866   1.218   7.364  0.0039 -0.0465 -0.0438
 6378SOL    HW130770   0.851   1.156   7.293  0.5154 -2.5071  1.9621
 6378SOL    HW230771   0.853   1.303   7.322 -1.0056  0.4965  1.3538
 6379SOL     OW30772   2.103   2.446  11.376 -0.1042 -0.3227 -0.1330
 6379SOL    HW130773   2.028   2.388  11.360  1.2863 -2.3166  0.6678
 6379SOL    HW230774   2.150   2.444  11.293  0.6355 -2.4487  0.3568
 6380SOL     OW30775   0.494   3.669   6.263  0.3233  0.3717 -0.4623
 6380SOL    HW130776   0.547   3.661   6.184 -0.2566 -1.7574 -0.6477
 6380SOL    HW230777   0.559   3.673   6.334  0.2557 -0.0233 -0.3752
 6381SOL     OW30778   2.118   0.722  16.999  0.2536  0.1671  0.4734
 6381SOL    HW130779   2.178   0.796  16.988  1.7197 -0.8874  1.4049
 6381SOL    HW230780   2.108   0.682  16.913  2.0241  0.8436 -0.0538
 6382SOL     OW30781   0.206   4.431   7.265  0.0396  0.1728 -0.1362
 6382SOL    HW130782   0.135   4.495   7.274  0.2870  0.6992 -1.9084
 6382SOL    HW230783   0.247   4.430   7.352  0.3390  0.4140 -0.2743
 6383SOL     OW30784   3.904   2.213  16.236  0.6395  0.0076 -0.4883
 6383SOL    HW130785   3.927   2.195  16.327 -1.3176  0.4189  0.0710
 6383SOL    HW230786   3.845   2.287  16.249 -1.4529 -2.1102  2.1301
 6384SOL     OW30787   1.471   1.839   2.265 -0.2290  0.1198  0.0436
 6384SOL    HW130788   1.441   1.907   2.204  1.0252 -0.6073 -1.3719
 6384SOL    HW230789   1.564   1.836   2.242 -0.3617 -2.1950 -0.2110
 6385SOL     OW30790   1.408   3.992   3.578 -0.1171 -0.0738 -0.1019
 6385SOL    HW130791   1.345   4.020   3.644 -1.9002 -1.2667 -1.3028
 6385SOL    HW230792   1.473   4.059   3.599  0.7658 -0.7237 -0.7675
 6386SOL     OW30793   4.312   3.959   3.025 -0.3908  0.3842  0.4834
 6386SOL    HW130794   4.380   3.998   2.970 -0.2655 -0.5845 -0.0519
 6386SOL    HW230795   4.229   3.990   2.987 -0.7692 -1.1943 -0.0217
 6387SOL     OW30796   4.059   0.311   4.508  0.4031  0.1542 -0.2906
 6387SOL    HW130797   4.139   0.330   4.459  2.4989 -0.6917  2.7347
 6387SOL    HW230798   4.062   0.215   4.514  0.0802  0.2705  1.8784
 6388SOL     OW30799   4.689   1.369   7.335  0.5719 -0.1706  0.3795
 6388SOL    HW130800   0.023   1.312   7.306  0.3415 -0.1432 -0.2530
 6388SOL    HW230801   4.732   1.421   7.403 -0.6549  0.4158  0.7069
 6389SOL     OW30802   4.019   4.469   1.301 -0.4096 -0.0401 -0.4708
 6389SOL    HW130803   4.099   4.424   1.274 -0.3902 -0.3101  0.0495
 6389SOL    HW230804   4.056   4.534   1.361 -0.4399  0.5449 -1.0755
 6390SOL     OW30805   2.358   4.547   7.364 -0.5822  0.2326 -0.0312
 6390SOL    HW130806   2.279   4.498   7.344 -0.3625  0.3328 -1.1489
 6390SOL    HW230807   2.376   4.583   7.277  1.4203 -0.9610 -0.1005
 6391SOL     OW30808   0.201   1.964   8.738 -0.1638 -0.0368 -0.4128
 6391SOL    HW130809   0.175   1.885   8.786  0.6150  0.1397  0.2962
 6391SOL    HW230810   0.122   2.016   8.726  0.1938  0.6728  0.3273
 6392SOL     OW30811   3.374   0.443   5.140 -0.7920 -0.1214 -0.3271
 6392SOL    HW130812   3.358   0.522   5.089 -0.8485  0.1031  0.0410
 6392SOL    HW230813   3.397   0.380   5.071  1.5020 -1.3447  1.5458
 6393SOL     OW30814   4.088   3.120   6.225 -0.6199  0.3859 -0.7947
 6393SOL    HW130815   4.051   3.055   6.284 -1.8842  0.4170 -1.5559
 6393SOL    HW230816   4.143   3.068   6.166  3.1616  1.4737  1.7195
 6394SOL     OW30817   2.326   1.501   6.533  0.7003  0.3440  0.4654
 6394SOL    HW130818   2.274   1.580   6.547  0.6527  0.0965  1.6174
 6394SOL    HW230819   2.268   1.427   6.551 -0.3316  0.3298 -2.8634
 6395SOL     OW30820   0.993   1.864  10.173  0.2205  0.3364  0.7199
 6395SOL    HW130821   1.060   1.922  10.208 -0.6858  2.7655 -1.5325
 6395SOL    HW230822   0.936   1.841  10.247 -1.9127  3.7365  0.1342
 6396SOL     OW30823   4.311   3.237   3.605  0.2628  0.4312 -0.8225
 6396SOL    HW130824   4.226   3.209   3.570  0.1160 -0.3117  0.1433
 6396SOL    HW230825   4.351   3.151   3.610  0.5017  0.5429 -0.7981
 6397SOL     OW30826   3.829   3.840   8.241 -0.3452 -0.1341  0.3337
 6397SOL    HW130827   3.771   3.765   8.250 -0.0801 -0.2779  0.8345
 6397SOL    HW230828   3.859   3.856   8.331 -0.0839 -2.4870  0.6430
 6398SOL     OW30829   4.304   3.259   9.242  0.4495 -0.1821  0.0723
 6398SOL    HW130830   4.222   3.272   9.194  0.6667 -0.5041 -0.3948
 6398SOL    HW230831   4.331   3.349   9.261 -0.3741 -0.5743  3.1032
 6399SOL     OW30832   0.852   4.116   7.199 -0.0401  0.0211  0.1116
 6399SOL    HW130833   0.856   4.021   7.203  0.6304  0.1296  2.0478
 6399SOL    HW230834   0.856   4.150   7.289 -0.6681  0.6175 -0.0863
 6400SOL     OW30835   3.710   2.999   2.345  0.3970  0.7023 -0.5522
 6400SOL    HW130836   3.763   2.985   2.424 -0.4197 -2.8277 -0.6278
 6400SOL    HW230837   3.754   2.948   2.276  0.9286  0.4121  0.0004
 6401SOL     OW30838   2.210   3.108   1.997  0.3870  0.3388 -0.0506
 6401SOL    HW130839   2.227   3.135   2.087  4.2406  0.2421 -0.7706
 6401SOL    HW230840   2.188   3.196   1.966 -2.6511 -1.3367 -2.6386
 6402SOL     OW30841   4.590   1.250  11.281  0.0790  0.2160 -0.5254
 6402SOL    HW130842   4.596   1.322  11.344  0.5626  0.4560 -0.8425
 6402SOL    HW230843   4.510   1.267  11.231 -0.1839 -1.6670 -0.7374
 6403SOL     OW30844   3.443   4.684   4.387 -0.5509  0.3364 -0.0583
 6403SOL    HW130845   3.424   4.674   4.293  2.0464  2.2456 -0.7828
 6403SOL    HW230846   3.376   4.624   4.420 -0.5909  1.2272  1.4358
 6404SOL     OW30847   1.443   3.425   7.422  0.2669 -0.2406  0.1124
 6404SOL    HW130848   1.537   3.441   7.410  0.3380 -0.0223  0.9806
 6404SOL    HW230849   1.426   3.461   7.509  1.0731 -1.6293  0.8336
 6405SOL     OW30850   1.259   0.113  10.016 -0.1380  0.5088  0.3659
 6405SOL    HW130851   1.344   0.142  10.048  1.1715 -1.0368 -1.7043
 6405SOL    HW230852   1.210   0.194  10.030 -2.1057 -0.7462  0.8771
 6406SOL     OW30853   2.639   4.238  10.818 -0.0990 -0.0291 -0.5253
 6406SOL    HW130854   2.711   4.293  10.788  0.3345  0.0019  0.5646
 6406SOL    HW230855   2.623   4.271  10.906  4.1779  0.9772 -0.1361
 6407SOL     OW30856   1.748   3.091   6.153 -0.3066  0.7605  0.2809
 6407SOL    HW130857   1.766   3.102   6.060  3.4033  1.0278  1.0452
 6407SOL    HW230858   1.741   2.996   6.164  0.3939  0.6204 -0.4206
 6408SOL     OW30859   2.701   0.484   3.567 -0.3699 -0.1519 -0.5568
 6408SOL    HW130860   2.736   0.547   3.504 -3.8439  1.6875 -0.6948
 6408SOL    HW230861   2.776   0.433   3.597 -1.0344 -1.1987 -0.7088
 6409SOL     OW30862   4.334   0.369  17.188 -0.2519 -0.5116  0.4456
 6409SOL    HW130863   4.345   0.352  17.282  1.1070 -1.9607  0.0155
 6409SOL    HW230864   4.385   0.450  17.187 -0.0738 -0.6460 -0.6300
 6410SOL     OW30865   1.592   0.671   6.978 -0.0552 -0.0179 -0.0741
 6410SOL    HW130866   1.529   0.743   6.972  1.7635  1.6963  1.4113
 6410SOL    HW230867   1.673   0.711   6.948  0.2267 -1.2393 -0.9711
 6411SOL     OW30868   1.808   3.382   2.408  0.0630 -0.2394 -0.3009
 6411SOL    HW130869   1.804   3.313   2.342 -0.0037  0.2031 -0.7582
 6411SOL    HW230870   1.735   3.358   2.465  0.1372 -1.4343 -0.7078
 6412SOL     OW30871   1.180   2.690  13.237 -0.1422  0.4953  0.6094
 6412SOL    HW130872   1.197   2.675  13.144  1.6328  0.4793  0.9469
 6412SOL    HW230873   1.141   2.777  13.228 -0.4578  0.2846 -0.0519
 6413SOL     OW30874   3.077   0.794   4.413  0.0743 -0.5810  0.0093
 6413SOL    HW130875   3.095   0.762   4.501  0.9625  0.7505  0.3205
 6413SOL    HW230876   3.167   0.818   4.388  0.0123  0.1664  0.4934
 6414SOL     OW30877   0.494   1.591   8.954  0.0430 -0.1396 -0.4406
 6414SOL    HW130878   0.487   1.609   8.860  0.9127 -1.0629 -0.6913
 6414SOL    HW230879   0.427   1.523   8.962 -0.7484  0.8789  1.4528
 6415SOL     OW30880   4.494   3.135   9.118  0.2005 -0.8243  0.6223
 6415SOL    HW130881   4.477   3.044   9.142 -0.5413 -0.9297 -0.2950
 6415SOL    HW230882   4.419   3.168   9.167  0.3854 -0.5398  0.7148
 6416SOL     OW30883   4.536   0.200  16.958 -0.0700  0.3317  0.0328
 6416SOL    HW130884   4.464   0.259  16.981 -1.4364 -1.3552  0.0232
 6416SOL    HW230885   4.543   0.223  16.865 -1.6125 -0.6798 -0.3354
 6417SOL     OW30886   2.029   3.327   7.568  0.1513  0.0841 -0.1648
 6417SOL    HW130887   2.087   3.379   7.513 -1.2155  2.0124  0.1953
 6417SOL    HW230888   1.970   3.306   7.496  0.2282  0.2467 -0.2746
 6418SOL     OW30889   0.931   0.364   7.927 -0.0641  0.0869 -0.2036
 6418SOL    HW130890   0.953   0.272   7.945 -0.5881  0.5898  2.9764
 6418SOL    HW230891   0.856   0.365   7.867 -1.1560  2.1738  1.2031
 6419SOL     OW30892   0.498   3.113   5.827 -0.0181 -0.5204 -0.2576
 6419SOL    HW130893   0.408   3.082   5.821 -0.6726  1.1344  1.2260
 6419SOL    HW230894   0.531   3.086   5.741 -1.3042 -2.2058 -0.2149
 6420SOL     OW30895   2.268   4.114   0.779  0.0207  0.2252 -0.0310
 6420SOL    HW130896   2.322   4.035   0.789  0.4731  0.3437 -1.5497
 6420SOL    HW230897   2.339   4.178   0.771  0.8854 -0.8556 -1.0933
 6421SOL     OW30898   3.208   4.497  17.688 -0.3331  0.2700  0.2763
 6421SOL    HW130899   3.135   4.555  17.708 -1.1900 -0.6845 -0.0772
 6421SOL    HW230900   3.172   4.453  17.611 -0.2334 -0.4083  0.6175
 6422SOL     OW30901   2.256   0.740  12.968 -0.1852 -0.0891  0.0932
 6422SOL    HW130902   2.307   0.810  12.926 -3.2715  1.6324 -0.7803
 6422SOL    HW230903   2.174   0.763  12.923 -1.4560 -1.6673  1.6020
 6423SOL     OW30904   2.605   3.285   9.407  0.4044 -0.2890  0.2029
 6423SOL    HW130905   2.583   3.196   9.435 -0.5700 -0.6870 -1.7805
 6423SOL    HW230906   2.532   3.342   9.431  2.7614  2.0898  1.6506
 6424SOL     OW30907   1.674   4.272   7.341  0.3975  0.0877  0.2670
 6424SOL    HW130908   1.618   4.326   7.285 -0.9272  0.8028  2.2744
 6424SOL    HW230909   1.624   4.285   7.422  0.0112 -0.5185  0.1237
 6425SOL     OW30910   2.588   3.006   9.512  0.0542 -0.2800  0.1265
 6425SOL    HW130911   2.678   2.986   9.537  0.4961  0.0557 -1.1742
 6425SOL    HW230912   2.542   2.930   9.547  1.6131 -1.0430  0.5060
 6426SOL     OW30913   2.622   2.788   5.466 -0.0474 -0.3302  0.9929
 6426SOL    HW130914   2.605   2.838   5.546  1.0839  0.1160  0.9466
 6426SOL    HW230915   2.552   2.724   5.480 -0.3128  0.4442  3.0904
 6427SOL     OW30916   1.405   3.409   4.167  0.3962 -0.6043  0.0758
 6427SOL    HW130917   1.358   3.330   4.141 -1.8790  0.4521  0.9503
 6427SOL    HW230918   1.331   3.454   4.208  1.2018  1.1128 -0.3405
 6428SOL     OW30919   1.456   0.499   8.180  0.5997  0.0000 -0.5160
 6428SOL    HW130920   1.445   0.509   8.274  1.9281  1.2246 -0.4798
 6428SOL    HW230921   1.376   0.535   8.142  1.5301  2.8752  0.2333
 6429SOL     OW30922   4.213   2.457   3.723  0.0839 -0.1823 -0.5740
 6429SOL    HW130923   4.303   2.463   3.756 -0.4276 -0.3954  0.8330
 6429SOL    HW230924   4.196   2.365   3.742 -1.8847  1.0825  3.6321
 6430SOL     OW30925   1.332   1.444   1.920 -0.0237 -0.5493  0.4044
 6430SOL    HW130926   1.288   1.529   1.930 -1.4616 -1.4127  1.4682
 6430SOL    HW230927   1.268   1.392   1.872 -0.7941 -1.0414  1.9407
 6431SOL     OW30928   1.875   4.162   1.483 -0.1050 -0.0601  0.2292
 6431SOL    HW130929   1.877   4.247   1.527 -0.0781  1.5667 -2.9090
 6431SOL    HW230930   1.919   4.206   1.410  1.0965 -0.3626  0.7726
 6432SOL     OW30931   2.619   1.740   4.450  0.2366  0.4481 -0.2289
 6432SOL    HW130932   2.548   1.680   4.474  0.2671  0.7410  0.6116
 6432SOL    HW230933   2.575   1.816   4.489 -0.2379  0.2413 -0.3510
 6433SOL     OW30934   0.156   0.598   1.691  0.3677  0.4901 -0.0484
 6433SOL    HW130935   0.083   0.551   1.731 -1.4511  3.1903 -0.2700
 6433SOL    HW230936   0.203   0.615   1.773 -0.1608  1.3176  0.0755
 6434SOL     OW30937   0.369   4.499   8.467  0.2228 -0.3520 -0.8649
 6434SOL    HW130938   0.326   4.435   8.411 -1.6494 -0.6181  0.8627
 6434SOL    HW230939   0.295   4.560   8.477  1.3088  0.7405  0.5667
 6435SOL     OW30940   3.841   0.885   2.192 -0.1453  0.9696  0.4338
 6435SOL    HW130941   3.839   0.940   2.114 -1.9989 -1.1994 -1.0366
 6435SOL    HW230942   3.872   0.952   2.253 -2.1221  3.0850 -0.8954
 6436SOL     OW30943   2.618   1.840   7.379  0.1417  0.3096 -0.4189
 6436SOL    HW130944   2.671   1.874   7.450  2.4931 -3.1421 -0.5233
 6436SOL    HW230945   2.552   1.908   7.367 -0.8938 -0.1926  2.4568
 6437SOL     OW30946   0.608   0.535  12.704  0.0931 -0.4405 -0.2056
 6437SOL    HW130947   0.546   0.471  12.669  1.1136 -3.1747  2.9557
 6437SOL    HW230948   0.669   0.542  12.630  0.2512 -1.1432 -0.1422
 6438SOL     OW30949   1.738   0.904   3.516 -0.3147  0.1653  0.0840
 6438SOL    HW130950   1.810   0.892   3.578  0.1386  0.1837 -0.4421
 6438SOL    HW230951   1.669   0.848   3.552 -0.9799 -0.4680 -2.1533
 6439SOL     OW30952   0.141   4.351   7.960 -0.4233 -0.4999  0.3793
 6439SOL    HW130953   0.234   4.326   7.962 -0.7712 -1.6159  2.0857
 6439SOL    HW230954   0.138   4.391   7.873  0.0723  0.4095  0.7830
 6440SOL     OW30955   0.814   3.284   6.908  0.5322  0.1344 -0.0547
 6440SOL    HW130956   0.835   3.365   6.955 -1.8926  1.5058 -1.3156
 6440SOL    HW230957   0.860   3.291   6.824  1.3445 -2.3089  0.1993
 6441SOL     OW30958   0.270   2.604   4.230 -0.0783  0.2584 -0.1001
 6441SOL    HW130959   0.228   2.647   4.304  0.3646 -1.3506  1.0930
 6441SOL    HW230960   0.269   2.672   4.163 -0.2663 -0.1568 -0.5236
 6442SOL     OW30961   2.255   0.220   8.291  0.0358 -0.1291 -0.5108
 6442SOL    HW130962   2.236   0.272   8.213 -0.9755  0.0421 -0.1497
 6442SOL    HW230963   2.177   0.165   8.282  1.0616 -1.4117 -1.5862
 6443SOL     OW30964   0.108   3.723   4.018  0.7235  0.2530 -0.3014
 6443SOL    HW130965   0.124   3.693   4.108  2.6094  2.1610 -0.0113
 6443SOL    HW230966   0.173   3.674   3.967 -0.0040  0.5716 -1.5502
 6444SOL     OW30967   1.194   2.816   4.433 -0.1993  0.0750 -0.0737
 6444SOL    HW130968   1.189   2.830   4.339 -3.3839  2.5008  0.4824
 6444SOL    HW230969   1.288   2.825   4.451 -0.4720  1.3557  0.7206
 6445SOL     OW30970   3.487   1.949   9.188  1.0699  0.1484 -0.2780
 6445SOL    HW130971   3.525   1.883   9.246 -1.8520 -0.8243  0.5276
 6445SOL    HW230972   3.406   1.965   9.236  1.1017 -1.6147  0.3886
 6446SOL     OW30973   1.491   0.915   5.496 -0.1867  0.0350 -0.1005
 6446SOL    HW130974   1.530   0.858   5.563 -0.8329  0.6493  0.7877
 6446SOL    HW230975   1.560   0.922   5.429  0.5750 -0.7048  0.5930
 6447SOL     OW30976   2.559   3.728   7.877 -0.2074 -0.0318 -0.5120
 6447SOL    HW130977   2.485   3.736   7.937  0.3269  3.4948 -0.3235
 6447SOL    HW230978   2.627   3.764   7.933 -1.3161  1.5326 -0.1852
 6448SOL     OW30979   0.929   2.533  14.213  0.1868  0.1263  0.1756
 6448SOL    HW130980   0.906   2.615  14.258  2.0640  1.5460 -1.4789
 6448SOL    HW230981   0.853   2.477  14.229 -0.1231  0.7703  0.9615
 6449SOL     OW30982   4.561   4.386   7.458  0.3806  0.0691 -0.0723
 6449SOL    HW130983   4.594   4.306   7.418 -0.2955 -0.0630 -0.3671
 6449SOL    HW230984   4.594   4.382   7.548  0.5609 -0.8413 -0.1743
 6450SOL     OW30985   3.584   3.147   7.044 -0.1357  0.3100 -0.7258
 6450SOL    HW130986   3.612   3.159   7.135  0.5069  0.1138 -0.8980
 6450SOL    HW230987   3.527   3.071   7.058  0.3271 -0.2117 -1.6704
 6451SOL     OW30988   2.641   4.680   4.752  0.0760  0.3545  0.5159
 6451SOL    HW130989   2.705   4.677   4.681 -0.8414  2.7096 -0.4214
 6451SOL    HW230990   2.693   4.708   4.827  2.7035  1.6960 -1.7803
 6452SOL     OW30991   1.892   0.933   0.905  0.3307 -0.0732  0.1051
 6452SOL    HW130992   1.832   0.874   0.951  0.7437  0.5266  1.4356
 6452SOL    HW230993   1.911   1.001   0.970  1.0515 -0.5850  0.4367
 6453SOL     OW30994   1.696   3.045   5.127  0.0398  0.2005  0.1806
 6453SOL    HW130995   1.752   3.120   5.146 -0.6808  1.2461 -1.8261
 6453SOL    HW230996   1.609   3.068   5.159 -0.0177 -1.0517  0.9419
 6454SOL     OW30997   1.065   2.293  13.590 -0.0052  0.3222  0.3229
 6454SOL    HW130998   1.147   2.263  13.630  0.1472  0.3506  0.0297
 6454SOL    HW230999   1.096   2.350  13.519 -0.9568  1.6240  0.9562
 6455SOL     OW31000   1.928   0.548   7.227 -0.2728  0.7712  0.3235
 6455SOL    HW131001   2.003   0.606   7.233 -0.3619  0.8840  0.3444
 6455SOL    HW231002   1.949   0.489   7.300  3.2492 -0.1053 -1.4034
 6456SOL     OW31003   3.516   1.671   5.158  0.0281 -0.2969  0.2532
 6456SOL    HW131004   3.525   1.744   5.097 -0.3284  1.1848  1.9921
 6456SOL    HW231005   3.458   1.604   5.122  0.1837  0.2340 -0.9829
 6457SOL     OW31006   4.346   0.788   7.741 -0.2438 -0.5290  1.0108
 6457SOL    HW131007   4.276   0.811   7.680 -0.1061 -1.0871  0.6433
 6457SOL    HW231008   4.345   0.855   7.810 -0.4648  1.8616 -1.3098
 6458SOL     OW31009   2.107   1.436   1.863  0.1150 -0.3487  0.1204
 6458SOL    HW131010   2.062   1.518   1.843 -0.7432 -0.7077  0.5693
 6458SOL    HW231011   2.034   1.377   1.880 -0.9306  0.7955 -0.4254
 6459SOL     OW31012   2.802   1.853   4.303  0.6957 -0.7008 -0.4173
 6459SOL    HW131013   2.727   1.810   4.345  0.2160  1.2267  0.7274
 6459SOL    HW231014   2.880   1.824   4.350 -0.4677 -1.3221  1.1085
 6460SOL     OW31015   4.414   0.286   1.754  0.1476  0.2880  0.4283
 6460SOL    HW131016   4.354   0.230   1.805 -1.7858 -0.8231 -3.0318
 6460SOL    HW231017   4.490   0.228   1.759 -0.3413 -0.2490  1.9703
 6461SOL     OW31018   1.422   0.962   7.745 -0.1892  0.1217  0.9962
 6461SOL    HW131019   1.402   1.055   7.759  0.6861 -0.0453  3.3326
 6461SOL    HW231020   1.423   0.964   7.649 -2.7055 -0.7693  0.9481
 6462SOL     OW31021   2.920   2.861   8.914 -0.2193  0.1697  0.2954
 6462SOL    HW131022   2.869   2.784   8.939 -1.4969  0.5018 -1.2732
 6462SOL    HW231023   2.869   2.928   8.960 -1.0364 -0.6781  0.6281
 6463SOL     OW31024   3.177   0.916   7.343 -0.6442 -0.3358 -0.3793
 6463SOL    HW131025   3.224   0.853   7.288 -1.3714 -1.8889  0.7730
 6463SOL    HW231026   3.084   0.898   7.325 -0.6394 -0.2618 -0.4838
 6464SOL     OW31027   3.761   1.664  13.579  0.1420  0.0814  0.0482
 6464SOL    HW131028   3.823   1.670  13.506  0.9669  0.7891  0.8072
 6464SOL    HW231029   3.804   1.734  13.630 -2.1067  0.0502  1.9785
 6465SOL     OW31030   3.582   0.238   7.545 -0.0696  0.4508  0.1402
 6465SOL    HW131031   3.491   0.249   7.571 -0.0914 -0.4583  0.4523
 6465SOL    HW231032   3.590   0.305   7.478  0.2277  1.3512  1.0785
 6466SOL     OW31033   1.576   2.905   7.879 -0.1213 -0.0607  0.5394
 6466SOL    HW131034   1.483   2.903   7.855  0.4859  0.6994 -1.8423
 6466SOL    HW231035   1.610   2.904   7.790 -1.3056  0.0219  0.0817
 6467SOL     OW31036   1.184   2.639  12.966  0.4921 -0.3472 -0.0009
 6467SOL    HW131037   1.231   2.621  12.884 -2.8415  1.4173 -2.3016
 6467SOL    HW231038   1.144   2.725  12.951  0.6398 -0.2592  0.1059
 6468SOL     OW31039   4.700   3.241  15.862 -0.3669 -0.1119 -0.7561
 6468SOL    HW131040   4.646   3.213  15.788 -3.6747 -2.0214  2.4074
 6468SOL    HW231041   0.051   3.230  15.827 -0.8877  0.2165 -2.2104
 6469SOL     OW31042   2.293   3.643  10.862 -0.4391 -0.6171 -0.2766
 6469SOL    HW131043   2.343   3.586  10.803 -1.5960  0.9541 -2.7538
 6469SOL    HW231044   2.342   3.647  10.944  0.6339 -0.6396 -0.9139
 6470SOL     OW31045   2.866   2.132   1.814 -0.3425  0.1885 -0.2106
 6470SOL    HW131046   2.779   2.116   1.777 -0.5222 -1.8448  1.1069
 6470SOL    HW231047   2.924   2.097   1.745  1.1216 -0.4578  1.3432
 6471SOL     OW31048   1.961   4.393   0.543 -0.0042  0.1415 -0.1604
 6471SOL    HW131049   2.038   4.449   0.532 -0.2845  0.5640  0.0302
 6471SOL    HW231050   1.990   4.326   0.481 -0.8059  0.5333 -0.9646
 6472SOL     OW31051   3.827   2.534   9.502  0.0272  0.3323 -0.5005
 6472SOL    HW131052   3.811   2.526   9.408 -2.3900  3.1312 -0.3284
 6472SOL    HW231053   3.791   2.621   9.520 -0.5864 -0.1944  0.8523
 6473SOL     OW31054   2.130   2.118   3.716 -0.1999 -0.1518 -0.2450
 6473SOL    HW131055   2.079   2.095   3.639 -0.4807  0.0044 -0.1053
 6473SOL    HW231056   2.152   2.210   3.703  0.8744 -0.3156  0.4381
 6474SOL     OW31057   0.667   1.615   5.922 -0.7903 -0.2251 -0.2656
 6474SOL    HW131058   0.702   1.549   5.863  0.0375  0.3853 -0.4665
 6474SOL    HW231059   0.651   1.566   6.003  0.9868 -1.2642 -0.5476
 6475SOL     OW31060   2.095   0.627   6.891 -0.2388 -0.0195 -0.2265
 6475SOL    HW131061   2.171   0.608   6.945 -0.3945 -1.1418 -0.4017
 6475SOL    HW231062   2.041   0.683   6.947  0.5171 -1.3841  1.8624
 6476SOL     OW31063   0.982   3.755   7.545  0.8653  0.3469  0.0787
 6476SOL    HW131064   0.902   3.807   7.554  0.1279 -0.8723  0.6578
 6476SOL    HW231065   1.046   3.823   7.525  0.2300  0.7947 -0.4745
 6477SOL     OW31066   1.741   4.369   1.727  0.1527  0.1109 -0.1855
 6477SOL    HW131067   1.816   4.318   1.758 -0.2200 -0.8830 -0.8916
 6477SOL    HW231068   1.672   4.304   1.710  2.3338 -1.8225 -1.7365
 6478SOL     OW31069   3.951   3.842  14.052  0.0217  0.3553  0.2035
 6478SOL    HW131070   4.000   3.761  14.062 -0.3753 -0.0901 -1.5260
 6478SOL    HW231071   4.005   3.901  14.105  3.0202 -0.8800 -1.4761
 6479SOL     OW31072   1.348   1.338   2.505  0.0694 -0.2443 -0.3411
 6479SOL    HW131073   1.375   1.430   2.500 -2.5826  0.5188 -0.7570
 6479SOL    HW231074   1.259   1.343   2.541 -0.5686  0.8868 -2.0611
 6480SOL     OW31075   2.123   1.298  16.723 -0.5291 -0.3974 -0.3139
 6480SOL    HW131076   2.034   1.280  16.691 -1.1060  2.8761 -0.5493
 6480SOL    HW231077   2.104   1.379  16.770 -1.2483  0.0107 -1.3071
 6481SOL     OW31078   3.958   1.486   7.134 -0.6095 -0.3979 -0.1501
 6481SOL    HW131079   3.913   1.477   7.218 -0.0861  3.0569  0.5051
 6481SOL    HW231080   3.909   1.563   7.107 -0.1505 -0.2295 -0.4918
 6482SOL     OW31081   3.413   2.307   3.181 -0.4391 -0.1105 -0.0235
 6482SOL    HW131082   3.321   2.327   3.192 -0.6436 -2.0164  1.5928
 6482SOL    HW231083   3.411   2.293   3.086 -0.9394 -0.5723  0.0603
 6483SOL     OW31084   1.544   0.502   2.524 -0.2368  0.1630  0.5274
 6483SOL    HW131085   1.564   0.501   2.618 -0.3958 -0.4401  0.5509
 6483SOL    HW231086   1.529   0.594   2.502  1.1756 -0.0595 -1.3548
 6484SOL     OW31087   0.155   3.586   4.498 -0.2975 -0.2798  0.3798
 6484SOL    HW131088   0.202   3.568   4.417 -1.6347 -0.7281 -0.2863
 6484SOL    HW231089   0.065   3.576   4.469  0.0889 -2.0928 -0.1763
 6485SOL     OW31090   4.492   4.452   4.707  0.0914  0.0151 -0.2134
 6485SOL    HW131091   4.537   4.443   4.791 -1.4865 -0.5465  0.5740
 6485SOL    HW231092   4.433   4.524   4.732 -1.4126 -0.3621 -2.6717
 6486SOL     OW31093   2.738   2.786   4.379  1.0382  0.8164 -0.7633
 6486SOL    HW131094   2.739   2.879   4.404 -0.6327  0.5751  0.2004
 6486SOL    HW231095   2.792   2.788   4.300  3.6987 -1.6394  0.9998
 6487SOL     OW31096   0.851   3.285   0.431  0.5055  0.0273 -0.0262
 6487SOL    HW131097   0.768   3.260   0.473 -0.1354  2.6475  0.2714
 6487SOL    HW231098   0.874   3.216   0.369  2.0275  0.0287  0.5409
 6488SOL     OW31099   2.787   0.895  17.435 -0.5060 -0.4588  0.1810
 6488SOL    HW131100   2.770   0.969  17.376 -2.0960 -0.8358  0.1464
 6488SOL    HW231101   2.787   0.823  17.373 -2.5436  0.7601 -1.2557
 6489SOL     OW31102   2.293   1.997   7.650 -0.3597  0.1209  0.2526
 6489SOL    HW131103   2.287   2.075   7.706 -1.5924 -0.3854  0.8156
 6489SOL    HW231104   2.263   1.928   7.708 -1.5122  0.7279  0.3829
 6490SOL     OW31105   1.946   4.286   2.185 -0.6359  0.1255  0.4610
 6490SOL    HW131106   2.012   4.355   2.194  1.4919 -1.6251 -2.1421
 6490SOL    HW231107   1.864   4.335   2.189  0.4363  1.8549  1.5957
 6491SOL     OW31108   3.691   1.882  17.737  0.3415 -0.2017  0.0193
 6491SOL    HW131109   3.765   1.883  17.677 -0.4318 -0.3276 -0.9278
 6491SOL    HW231110   3.621   1.915  17.681  0.6316  0.5252  0.0822
 6492SOL     OW31111   4.063   1.681   5.856 -0.9007 -0.0444  0.3938
 6492SOL    HW131112   4.108   1.599   5.875  4.3311  2.6893  0.1344
 6492SOL    HW231113   4.020   1.706   5.938 -0.9114  0.9605  0.0891
 6493SOL     OW31114   0.078   1.716   8.535  0.2629  0.9954  0.2871
 6493SOL    HW131115   0.104   1.791   8.588 -0.2881  2.8746 -2.1290
 6493SOL    HW231116   4.722   1.731   8.517 -0.1753 -1.0019  0.9134
 6494SOL     OW31117   1.803   4.579   0.634  0.2471  0.1003 -0.6756
 6494SOL    HW131118   1.843   4.497   0.606  1.5021  0.4651  0.0775
 6494SOL    HW231119   1.869   4.597   0.700  0.5541 -1.0339 -0.6693
 6495SOL     OW31120   3.081   3.533   0.957 -0.2498 -0.0288 -0.6987
 6495SOL    HW131121   3.049   3.452   0.996  1.6811  0.8729  2.7836
 6495SOL    HW231122   3.002   3.564   0.913 -0.3861 -1.7186 -1.6147
 6496SOL     OW31123   4.482   4.406   4.104 -0.4395 -0.1896 -0.2441
 6496SOL    HW131124   4.523   4.490   4.084  0.4166  0.0551  2.4407
 6496SOL    HW231125   4.437   4.417   4.188 -1.7009 -1.3496 -0.7737
 6497SOL     OW31126   4.371   2.562   6.595  0.1878 -0.6049 -0.2299
 6497SOL    HW131127   4.356   2.483   6.647  1.0340  0.7564  2.0712
 6497SOL    HW231128   4.444   2.529   6.542 -0.3877 -0.7364 -0.9304
 6498SOL     OW31129   1.075   1.413  10.592 -0.4756  0.1914  0.2642
 6498SOL    HW131130   1.011   1.360  10.639 -1.3626  1.3625  0.3569
 6498SOL    HW231131   1.116   1.455  10.667 -0.4570  2.3147 -0.9358
 6499SOL     OW31132   3.876   3.052  17.534 -0.3297 -0.1459  0.0529
 6499SOL    HW131133   3.879   2.967  17.577 -3.3996 -0.1180  0.2820
 6499SOL    HW231134   3.848   3.026  17.447 -1.6785  1.8320 -0.1057
 6500SOL     OW31135   4.599   4.703  15.001  0.4869  0.1793  0.0605
 6500SOL    HW131136   4.578   4.624  14.952 -1.9407  0.9327 -0.1188
 6500SOL    HW231137   4.545   4.693  15.079 -2.3083  0.3502 -1.8662
 6501SOL     OW31138   1.118   2.414   7.933 -0.3830 -0.7286  0.2008
 6501SOL    HW131139   1.089   2.487   7.986 -0.2541  1.4021 -2.6985
 6501SOL    HW231140   1.211   2.438   7.934 -0.5400 -0.1492  0.5913
 6502SOL     OW31141   1.157   4.572  11.241  0.5772  0.4728 -0.4729
 6502SOL    HW131142   1.219   4.644  11.231 -1.3871  2.5087  1.8643
 6502SOL    HW231143   1.132   4.569  11.333  0.2921 -0.0786 -0.5650
 6503SOL     OW31144   1.275   0.760   9.530 -0.0605  0.3770  0.4542
 6503SOL    HW131145   1.317   0.783   9.613 -1.6770 -0.1180  1.4058
 6503SOL    HW231146   1.184   0.787   9.540 -0.0198  0.7587 -0.1751
 6504SOL     OW31147   0.983   3.740   3.078 -0.3132  0.5263  0.1779
 6504SOL    HW131148   1.016   3.793   3.006  0.6874  0.2804  0.4518
 6504SOL    HW231149   1.047   3.769   3.144  0.4882 -0.7697 -0.0247
 6505SOL     OW31150   1.862   0.122  10.734  0.1755  0.6458 -0.3469
 6505SOL    HW131151   1.931   0.169  10.781  0.8536  0.9961 -1.6865
 6505SOL    HW231152   1.881   0.152  10.645 -2.1459  1.1417 -0.6571
 6506SOL     OW31153   1.544   3.246   8.431 -0.5945  0.1729  0.0470
 6506SOL    HW131154   1.542   3.298   8.511 -0.6252 -1.1459  0.8990
 6506SOL    HW231155   1.619   3.293   8.394  0.2174 -0.8571  0.3938
 6507SOL     OW31156   1.447   0.444   6.445  0.7152 -0.1504 -0.1555
 6507SOL    HW131157   1.509   0.470   6.512  0.9260 -1.3266  0.1047
 6507SOL    HW231158   1.436   0.522   6.389  0.1980 -0.8669 -1.0546
 6508SOL     OW31159   2.375   2.823  16.907 -0.4678 -0.0178  0.3466
 6508SOL    HW131160   2.434   2.789  16.974  1.0045 -0.3702 -1.1248
 6508SOL    HW231161   2.288   2.813  16.945 -0.9476  2.5181 -0.0493
 6509SOL     OW31162   2.229   1.497  13.353 -0.5637  0.0578  0.6538
 6509SOL    HW131163   2.323   1.485  13.340 -0.9910 -0.8299 -1.5534
 6509SOL    HW231164   2.205   1.409  13.327 -1.1960 -0.3425  2.6013
 6510SOL     OW31165   4.446   3.089  14.844 -0.6610 -0.2707 -0.4766
 6510SOL    HW131166   4.459   3.182  14.824  1.7896 -1.0878 -2.6441
 6510SOL    HW231167   4.372   3.065  14.787 -0.8460 -0.2784 -0.2336
 6511SOL     OW31168   2.135   0.348  12.814  0.0936 -0.4782  0.1858
 6511SOL    HW131169   2.177   0.306  12.739 -0.9104 -2.2635  0.6397
 6511SOL    HW231170   2.153   0.285  12.884  1.0182 -0.0065  0.3778
 6512SOL     OW31171   0.744   2.666   4.111  0.1963 -0.0450  0.1266
 6512SOL    HW131172   0.706   2.749   4.141 -0.6964 -0.9097  1.4400
 6512SOL    HW231173   0.677   2.611   4.152 -0.6405  1.6501  1.0732
 6513SOL     OW31174   2.983   1.095   7.870  0.0215 -0.2704 -0.0799
 6513SOL    HW131175   2.901   1.117   7.827  0.3497  0.6998 -0.1959
 6513SOL    HW231176   3.031   1.059   7.796 -0.4442 -0.1295 -0.4466
 6514SOL     OW31177   1.487   3.287   7.036  0.2247  0.4342 -0.1798
 6514SOL    HW131178   1.405   3.281   7.083  0.2970 -2.7074 -0.4539
 6514SOL    HW231179   1.456   3.358   6.979 -0.3140 -0.2746 -0.7702
 6515SOL     OW31180   0.634   2.377   9.093  0.2627  0.0840  0.0926
 6515SOL    HW131181   0.642   2.282   9.091  3.2341  0.3699 -1.8407
 6515SOL    HW231182   0.652   2.387   9.186  0.4739  1.3077 -0.0798
 6516SOL     OW31183   1.692   1.348   2.624  0.5751  0.3537 -0.5431
 6516SOL    HW131184   1.749   1.311   2.692  0.6068  0.0799 -0.7182
 6516SOL    HW231185   1.612   1.357   2.675  0.7123 -0.0882 -0.2548
 6517SOL     OW31186   0.659   0.765   9.344  0.5534  0.7545 -0.0949
 6517SOL    HW131187   0.612   0.716   9.411  0.2607 -0.4863 -1.1919
 6517SOL    HW231188   0.614   0.849   9.347  2.0680  1.5170  0.6877
 6518SOL     OW31189   4.042   0.102   3.838  0.1575 -0.1324  0.0120
 6518SOL    HW131190   4.060   0.100   3.744  0.4108 -0.5741  0.0683
 6518SOL    HW231191   4.130   0.076   3.863 -0.5021  1.4411  3.9444
 6519SOL     OW31192   4.525   2.393  14.556 -0.8483  0.1543  0.2690
 6519SOL    HW131193   4.546   2.326  14.490  1.6821  0.3320  0.9070
 6519SOL    HW231194   4.531   2.341  14.636  0.8701  0.1273  0.1162
 6520SOL     OW31195   2.413   3.054   2.747 -0.6795  0.0211 -0.5218
 6520SOL    HW131196   2.501   3.072   2.713 -0.8453 -1.0109 -1.4873
 6520SOL    HW231197   2.388   2.974   2.701  0.5930 -0.4981 -0.3236
 6521SOL     OW31198   0.549   3.455   1.067  0.0662  0.5349  0.7459
 6521SOL    HW131199   0.544   3.481   1.159  0.8092 -0.0151  0.9395
 6521SOL    HW231200   0.549   3.542   1.028  1.7982 -0.1568 -0.7770
 6522SOL     OW31201   4.333   3.738   5.978 -0.3805  0.3572 -0.3756
 6522SOL    HW131202   4.294   3.656   6.006 -0.1774  0.7099  0.9487
 6522SOL    HW231203   4.366   3.718   5.890  0.8459 -2.0412  0.6506
 6523SOL     OW31204   3.629   4.416   3.381 -0.5545  0.4171  0.2349
 6523SOL    HW131205   3.690   4.363   3.330 -1.4619  0.0596 -0.4803
 6523SOL    HW231206   3.599   4.489   3.327 -3.8182 -0.6007  0.6520
 6524SOL     OW31207   4.025   3.216  11.113  0.3249 -0.3803  0.4665
 6524SOL    HW131208   4.086   3.174  11.053 -1.8518 -1.9432 -0.6606
 6524SOL    HW231209   4.092   3.257  11.169  1.3128  0.2424 -1.1806
 6525SOL     OW31210   1.260   3.843   6.336  0.0035  0.0390  0.1666
 6525SOL    HW131211   1.270   3.807   6.247 -0.4237 -2.5490  1.1691
 6525SOL    HW231212   1.231   3.767   6.386 -0.7296  1.7458  2.2877
 6526SOL     OW31213   1.503   4.705   6.366  0.0756  0.2972  0.3388
 6526SOL    HW131214   1.459   0.051   6.350  0.0311 -0.0466 -1.3563
 6526SOL    HW231215   1.467   4.681   6.452 -1.1075 -0.9890 -0.5166
 6527SOL     OW31216   4.585   1.499   8.082 -0.0300 -0.2986  0.0978
 6527SOL    HW131217   4.509   1.526   8.031  1.0578  0.1165 -1.2959
 6527SOL    HW231218   4.650   1.466   8.021 -1.2046 -0.9583 -0.8019
 6528SOL     OW31219   2.942   3.882   3.957  0.1566  0.1022 -0.8353
 6528SOL    HW131220   2.932   3.869   3.863 -1.7306  1.2045 -0.7799
 6528SOL    HW231221   3.001   3.957   3.963  2.1062 -1.6781  2.1766
 6529SOL     OW31222   0.381   2.339  13.128 -0.1036  0.1172 -0.2208
 6529SOL    HW131223   0.296   2.308  13.098 -0.2564 -0.2244  0.5662
 6529SOL    HW231224   0.399   2.396  13.054 -2.9113  0.1080 -0.9007
 6530SOL     OW31225   0.670   0.723   7.864  0.4455 -0.0467 -0.2608
 6530SOL    HW131226   0.758   0.753   7.889  0.5693 -1.2795  0.7627
 6530SOL    HW231227   0.631   0.718   7.951  1.3041  0.6098  0.1661
 6531SOL     OW31228   4.445   3.527  11.244 -0.5244 -0.9524  0.2803
 6531SOL    HW131229   4.497   3.608  11.235 -1.0898 -0.7565 -1.1296
 6531SOL    HW231230   4.519   3.467  11.237  1.6708  1.7930 -0.3605
 6532SOL     OW31231   2.898   4.528   5.588 -0.1971  0.1752  0.6058
 6532SOL    HW131232   2.854   4.523   5.504  0.2496  1.1455  0.3195
 6532SOL    HW231233   2.963   4.458   5.577 -0.8439 -0.2726 -0.3254
 6533SOL     OW31234   2.954   4.212   3.597  0.1292  0.1671 -0.8233
 6533SOL    HW131235   2.863   4.195   3.622 -0.0856 -0.3834 -2.0235
 6533SOL    HW231236   2.995   4.192   3.681 -0.1749  0.8670 -0.5073
 6534SOL     OW31237   3.481   2.066   7.556  0.7018  0.0836  0.1318
 6534SOL    HW131238   3.387   2.046   7.549  0.3232  1.9371 -0.1101
 6534SOL    HW231239   3.506   1.981   7.593  1.0402  0.2186  0.2041
 6535SOL     OW31240   0.992   3.262   5.028  0.7342  0.1036  0.6545
 6535SOL    HW131241   1.033   3.280   4.943 -1.0448 -0.5625 -0.3472
 6535SOL    HW231242   0.911   3.228   4.988  0.4004  0.1160  1.3264
 6536SOL     OW31243   2.930   1.912  13.730 -0.0033 -0.0392  0.1242
 6536SOL    HW131244   2.839   1.917  13.762 -0.1393 -1.0643 -0.1204
 6536SOL    HW231245   2.917   1.964  13.651 -1.2355  2.5009  1.9879
 6537SOL     OW31246   0.589   0.714   8.119 -0.6459 -0.0462  0.0197
 6537SOL    HW131247   0.563   0.733   8.209  1.7163 -0.2993  0.7537
 6537SOL    HW231248   0.663   0.655   8.133  0.8675  1.6297 -0.8892
 6538SOL     OW31249   1.284   3.556   9.794  0.1422 -0.6373 -0.1122
 6538SOL    HW131250   1.309   3.631   9.847 -1.7033  1.3536 -2.0806
 6538SOL    HW231251   1.268   3.593   9.708 -2.7911  0.9513  1.1068
 6539SOL     OW31252   2.456   2.540   1.732  0.2644  0.0478 -0.2782
 6539SOL    HW131253   2.530   2.496   1.774  0.7709  1.3940  0.2656
 6539SOL    HW231254   2.440   2.620   1.782 -0.3202  1.2917 -2.4414
 6540SOL     OW31255   1.355   2.376   7.414  1.3244 -0.4700 -0.2545
 6540SOL    HW131256   1.293   2.421   7.470 -0.2807 -1.3308 -1.3131
 6540SOL    HW231257   1.326   2.285   7.420 -0.3613  0.2073  1.7071
 6541SOL     OW31258   4.094   1.924   3.660  0.1720  0.0277 -0.2060
 6541SOL    HW131259   4.026   1.870   3.620  3.6922 -3.1716 -1.9500
 6541SOL    HW231260   4.047   1.979   3.721 -1.4145 -0.2942 -1.1364
 6542SOL     OW31261   0.386   0.449  16.344  0.4165 -0.5888  0.0002
 6542SOL    HW131262   0.396   0.383  16.413 -2.9432 -0.6094  0.4679
 6542SOL    HW231263   0.309   0.494  16.381  1.6477  0.1384  1.6695
 6543SOL     OW31264   4.024   4.430   6.467 -0.1735  0.4896  0.8047
 6543SOL    HW131265   4.111   4.396   6.486 -0.0238  0.7940  0.6545
 6543SOL    HW231266   4.048   4.509   6.418  0.2792 -0.8192 -1.0868
 6544SOL     OW31267   2.077   1.087  14.925 -0.6193  0.0488 -0.7244
 6544SOL    HW131268   2.071   1.182  14.931 -0.7572  0.1157 -1.9463
 6544SOL    HW231269   2.120   1.083  14.840  2.6084  3.5204  0.7769
 6545SOL     OW31270   2.161   3.642  13.624 -0.1529 -0.1750 -0.0512
 6545SOL    HW131271   2.139   3.711  13.687  1.2058  1.5020 -1.4279
 6545SOL    HW231272   2.178   3.700  13.550  0.2266  1.1028  1.0355
 6546SOL     OW31273   1.232   2.151   3.152  0.2373  0.1109  0.5508
 6546SOL    HW131274   1.159   2.089   3.154  0.9983 -0.7459  2.4963
 6546SOL    HW231275   1.292   2.115   3.087 -2.5013 -1.0453 -1.3552
 6547SOL     OW31276   1.329   1.531   3.137  0.1106 -0.3267  0.2106
 6547SOL    HW131277   1.400   1.471   3.115 -1.7521 -1.3081 -2.9713
 6547SOL    HW231278   1.296   1.545   3.049  0.5706  0.7986  0.2152
 6548SOL     OW31279   4.043   1.004   2.730 -0.6184 -0.0566 -0.1773
 6548SOL    HW131280   3.975   0.983   2.794  0.4656 -2.4353  0.1662
 6548SOL    HW231281   4.004   1.065   2.667 -2.0018 -2.6934 -1.8604
 6549SOL     OW31282   4.393   0.676   1.859  0.0573 -0.7679  0.4401
 6549SOL    HW131283   4.310   0.699   1.816 -0.0954 -1.8087  0.1800
 6549SOL    HW231284   4.384   0.582   1.876  0.0398 -1.1637 -1.7417
 6550SOL     OW31285   3.264   3.306   4.613 -0.1206 -0.7729 -0.1652
 6550SOL    HW131286   3.354   3.321   4.584 -0.3004 -0.3627 -0.5068
 6550SOL    HW231287   3.293   3.255   4.689  1.4064 -0.3375 -0.4588
 6551SOL     OW31288   4.053   4.661   3.349  0.0792 -0.3223  0.1542
 6551SOL    HW131289   4.083   4.690   3.263  1.8810  1.2180  1.2805
 6551SOL    HW231290   4.110   4.587   3.366  1.3361  0.3823 -0.9682
 6552SOL     OW31291   2.499   1.841   5.146 -0.0866 -0.2510  0.0257
 6552SOL    HW131292   2.550   1.765   5.119 -0.2708  0.1257 -1.3852
 6552SOL    HW231293   2.561   1.913   5.136  0.7252 -1.2237 -1.9425
 6553SOL     OW31294   0.727   2.331   1.771  0.2213  0.1849 -0.4520
 6553SOL    HW131295   0.719   2.278   1.692  0.0674  2.4529 -1.9270
 6553SOL    HW231296   0.777   2.408   1.746 -1.7084  1.8969  0.9685
 6554SOL     OW31297   2.866   2.854   3.169  0.2579  0.5233  0.0146
 6554SOL    HW131298   2.792   2.794   3.180  1.7309 -1.4958 -0.9936
 6554SOL    HW231299   2.886   2.868   3.261  1.1358 -0.6110 -0.0105
 6555SOL     OW31300   1.960   0.575   5.137  0.4058  0.2245 -0.1523
 6555SOL    HW131301   2.050   0.586   5.167  0.7047  0.0824 -0.9926
 6555SOL    HW231302   1.980   0.529   5.056 -2.5099 -0.8293 -0.2759
 6556SOL     OW31303   3.753   1.408  13.042 -0.4698  0.0021 -0.3484
 6556SOL    HW131304   3.674   1.369  13.005 -1.1795  1.1675 -0.0376
 6556SOL    HW231305   3.808   1.393  12.965 -1.6266 -1.4277 -0.8993
 6557SOL     OW31306   3.035   4.588   6.445  0.1833  0.5116  0.4163
 6557SOL    HW131307   2.956   4.641   6.428 -1.2727 -2.1208 -1.1363
 6557SOL    HW231308   3.043   4.554   6.356 -0.0260 -0.0523  0.6102
 6558SOL     OW31309   1.608   4.692   5.690  0.4932 -0.1372  0.1806
 6558SOL    HW131310   1.539   4.722   5.632 -0.7202  1.1699  2.2841
 6558SOL    HW231311   1.679   4.678   5.627 -0.1797 -0.2419 -0.5539
 6559SOL     OW31312   0.597   4.588   5.201 -0.2386  0.3836 -0.1054
 6559SOL    HW131313   0.547   4.667   5.225  2.4875  1.6375  1.3956
 6559SOL    HW231314   0.539   4.518   5.231 -0.9993  1.0280 -0.0654
 6560SOL     OW31315   2.982   2.530  10.043  0.2394 -0.4935  0.0783
 6560SOL    HW131316   2.941   2.537   9.957  1.5060  2.5201 -0.2926
 6560SOL    HW231317   2.923   2.574  10.104 -1.2965  0.6644 -2.2440
 6561SOL     OW31318   4.518   1.510   3.817 -0.4880  0.0660  0.5398
 6561SOL    HW131319   4.556   1.536   3.733 -0.2439 -1.0985  0.2912
 6561SOL    HW231320   4.473   1.428   3.797 -0.3898  0.4705 -1.4131
 6562SOL     OW31321   3.192   1.034  12.717 -0.1855 -0.6387 -0.6743
 6562SOL    HW131322   3.166   0.943  12.734 -0.4592 -0.3283  0.5801
 6562SOL    HW231323   3.287   1.024  12.718 -0.1088  0.0589 -1.0051
 6563SOL     OW31324   3.583   0.374  12.478 -0.0022  0.4593 -0.2397
 6563SOL    HW131325   3.567   0.468  12.477  4.4173  1.2006 -0.2184
 6563SOL    HW231326   3.507   0.337  12.433 -1.3509  2.2100  0.5987
 6564SOL     OW31327   3.974   3.370   4.662 -0.2660  0.1124 -0.7377
 6564SOL    HW131328   3.882   3.363   4.634 -0.0669 -0.4662 -1.2517
 6564SOL    HW231329   3.975   3.463   4.685  1.5081  0.0054 -0.3929
 6565SOL     OW31330   0.017   3.180  15.276 -0.3603 -0.0988  0.3439
 6565SOL    HW131331   0.001   3.243  15.206 -0.6663  0.6488  1.0770
 6565SOL    HW231332   0.001   3.098  15.230  0.2329  0.1026 -0.2178
 6566SOL     OW31333   3.530   4.102   7.946 -0.7845  0.6967 -0.7889
 6566SOL    HW131334   3.536   4.010   7.920  0.1239  0.3120  0.7544
 6566SOL    HW231335   3.434   4.107   7.946 -0.7228  1.9523  0.9442
 6567SOL     OW31336   4.549   3.450   4.769  0.2964 -0.2135 -0.2598
 6567SOL    HW131337   4.611   3.469   4.699 -0.1046  1.1326 -0.2596
 6567SOL    HW231338   4.532   3.538   4.802 -2.4678 -0.9926  0.4564
 6568SOL     OW31339   0.434   4.330   7.741 -0.3007 -0.8176  0.2440
 6568SOL    HW131340   0.415   4.272   7.815 -2.2947 -3.2416 -2.1572
 6568SOL    HW231341   0.503   4.381   7.783 -2.8370  2.7470  0.1009
 6569SOL     OW31342   3.504   4.259  17.430  0.6161  0.3701 -0.2991
 6569SOL    HW131343   3.561   4.288  17.359 -1.0351 -0.2000 -1.8280
 6569SOL    HW231344   3.455   4.189  17.389 -1.3285  0.3634  2.0350
 6570SOL     OW31345   2.421   2.207  14.048  0.1021  0.1317 -0.5101
 6570SOL    HW131346   2.379   2.253  14.120  0.4125 -0.8718  0.3162
 6570SOL    HW231347   2.468   2.133  14.088 -0.5933  0.3122  0.6255
 6571SOL     OW31348   0.825   2.703  11.836 -0.1917  0.0139 -0.5561
 6571SOL    HW131349   0.862   2.625  11.795  0.1888  0.1046 -0.3808
 6571SOL    HW231350   0.899   2.762  11.845 -0.8640  0.7108  0.4238
 6572SOL     OW31351   4.636   4.485  10.191 -0.6058 -0.0538  0.1090
 6572SOL    HW131352   4.570   4.430  10.149 -2.5137  0.2197  2.7194
 6572SOL    HW231353   4.627   4.473  10.286  0.6306  1.2537  0.4035
 6573SOL     OW31354   2.709   2.707   7.835 -0.0259 -0.5284  0.5495
 6573SOL    HW131355   2.706   2.803   7.839 -0.3497 -0.4255 -2.1921
 6573SOL    HW231356   2.685   2.688   7.926 -3.9990 -0.9407 -0.5794
 6574SOL     OW31357   1.183   4.498  16.207 -0.4548  0.0710 -0.2911
 6574SOL    HW131358   1.262   4.459  16.168 -0.4026 -0.3378  0.2223
 6574SOL    HW231359   1.115   4.433  16.189  1.4308 -2.2639  0.9613
 6575SOL     OW31360   1.160   1.095   9.215  0.1688  0.0678  0.6049
 6575SOL    HW131361   1.079   1.059   9.178 -0.8930  0.9364  2.0662
 6575SOL    HW231362   1.214   1.021   9.241 -3.0290 -2.2195  0.6523
 6576SOL     OW31363   0.523   3.773   6.876  0.0463 -0.0103  0.0099
 6576SOL    HW131364   0.473   3.843   6.835 -0.1105  0.7013  1.4136
 6576SOL    HW231365   0.579   3.821   6.937 -1.1980 -1.2120  2.1165
 6577SOL     OW31366   2.105   3.538   3.037  0.3867 -0.1691 -0.2102
 6577SOL    HW131367   2.094   3.632   3.020  0.2326 -0.4314 -1.5392
 6577SOL    HW231368   2.191   3.531   2.996  0.7097  1.2635  0.2112
 6578SOL     OW31369   4.511   3.381   9.391 -0.0802  0.4810  0.2638
 6578SOL    HW131370   4.475   3.422   9.469  0.9209  1.4026  0.2353
 6578SOL    HW231371   4.515   3.289   9.418  3.3984  0.1893 -1.1339
 6579SOL     OW31372   2.562   1.952   4.701 -0.1924 -0.0684 -0.3935
 6579SOL    HW131373   2.609   1.890   4.757  0.7248 -0.2475 -1.3719
 6579SOL    HW231374   2.633   2.009   4.671  0.3484 -0.1085  0.7868
 6580SOL     OW31375   3.268   1.729  14.287 -0.3228  0.4665 -0.3985
 6580SOL    HW131376   3.244   1.658  14.347  0.4346  0.4356 -0.1269
 6580SOL    HW231377   3.355   1.751  14.322 -0.1442  1.4696 -1.4591
 6581SOL     OW31378   2.779   0.752  16.872 -0.1513  0.1463  0.1009
 6581SOL    HW131379   2.764   0.725  16.781 -1.4308 -1.5486  0.8247
 6581SOL    HW231380   2.875   0.763  16.872 -0.0533 -0.6956 -0.1492
 6582SOL     OW31381   1.261   3.191  14.185 -0.2111  0.2215  0.1721
 6582SOL    HW131382   1.267   3.278  14.146  0.5570  0.7279  1.4299
 6582SOL    HW231383   1.293   3.209  14.273 -0.6719 -0.8590  0.5629
 6583SOL     OW31384   0.663   0.982   9.720 -0.6440 -0.0271 -0.1170
 6583SOL    HW131385   0.672   0.893   9.754 -0.1089  0.6108  1.4346
 6583SOL    HW231386   0.658   1.042   9.795  0.4182 -1.6435  1.2503
 6584SOL     OW31387   2.040   0.866   6.224  0.5863 -0.0404  0.1549
 6584SOL    HW131388   2.128   0.888   6.255 -0.3407  3.0518  0.5544
 6584SOL    HW231389   2.032   0.776   6.258 -1.2548  0.6038  1.4748
 6585SOL     OW31390   3.226   4.061  17.418  0.6446 -0.0474  0.7232
 6585SOL    HW131391   3.199   3.973  17.395 -4.8113  1.2508  2.1724
 6585SOL    HW231392   3.233   4.100  17.331 -0.5208 -0.9946  0.2288
 6586SOL     OW31393   0.568   2.864   2.344  0.6278  0.4671 -0.3579
 6586SOL    HW131394   0.536   2.787   2.391  3.2074 -0.1128  0.4454
 6586SOL    HW231395   0.522   2.933   2.390 -0.0778  1.0396 -1.9240
 6587SOL     OW31396   2.510   0.125  14.861  0.3334 -0.0003 -0.4319
 6587SOL    HW131397   2.552   0.058  14.915  0.4111 -1.5243 -2.3872
 6587SOL    HW231398   2.572   0.198  14.870  0.0099  0.3084 -0.7286
 6588SOL     OW31399   2.525   3.742  10.602 -0.5382 -0.5258 -0.0230
 6588SOL    HW131400   2.608   3.782  10.577 -2.1594  1.4094 -2.2203
 6588SOL    HW231401   2.481   3.815  10.646 -1.4004 -0.1136 -1.5803
 6589SOL     OW31402   2.138   1.451   8.035 -0.6038  0.4077  0.4097
 6589SOL    HW131403   2.169   1.370   8.077 -1.2196  0.2573  0.5710
 6589SOL    HW231404   2.199   1.457   7.961 -1.4890  0.7446 -0.2900
 6590SOL     OW31405   1.724   0.999  12.443  0.5386 -0.1136  0.1675
 6590SOL    HW131406   1.763   0.983  12.357  0.0059 -0.8392  0.0592
 6590SOL    HW231407   1.714   0.907  12.470 -0.4004 -0.0353  0.0650
 6591SOL     OW31408   2.352   2.643  10.227 -0.1370  0.6705 -0.3716
 6591SOL    HW131409   2.281   2.659  10.290  0.8882  0.4645  0.8427
 6591SOL    HW231410   2.377   2.733  10.208  1.4778  0.3912  0.4238
 6592SOL     OW31411   1.150   2.235   7.721  0.5198 -0.5792  0.0304
 6592SOL    HW131412   1.242   2.218   7.702  0.8755  0.5206  0.7911
 6592SOL    HW231413   1.139   2.318   7.767  1.1241  0.7785 -2.2678
 6593SOL     OW31414   0.345   3.366   3.017 -0.2419 -0.0551 -0.2414
 6593SOL    HW131415   0.389   3.440   3.060 -0.1347 -1.4401  2.0201
 6593SOL    HW231416   0.345   3.397   2.926  0.9530 -0.1321 -0.2712
 6594SOL     OW31417   0.206   1.161   5.191  0.2060 -0.6515  0.4135
 6594SOL    HW131418   0.181   1.253   5.193 -1.1849 -0.9521 -3.5237
 6594SOL    HW231419   0.301   1.168   5.176  0.1711  0.0412  0.5154
 6595SOL     OW31420   3.499   1.200   5.528 -0.1335 -0.4749  0.4255
 6595SOL    HW131421   3.486   1.283   5.483  1.5659 -0.2351  0.4013
 6595SOL    HW231422   3.584   1.163   5.508  0.1418 -1.3935  3.1835
 6596SOL     OW31423   4.016   2.940   0.184  0.0959 -0.4783  0.1538
 6596SOL    HW131424   3.947   2.895   0.136  1.4143 -1.4042 -0.8892
 6596SOL    HW231425   4.078   2.946   0.111  1.3926 -0.4590  1.2617
 6597SOL     OW31426   4.133   4.669   9.042  0.2918 -0.0219  0.2963
 6597SOL    HW131427   4.161   4.578   9.058  1.3304  0.4371  1.0561
 6597SOL    HW231428   4.162   4.672   8.950 -2.4276 -2.3620 -0.6525
 6598SOL     OW31429   1.504   3.969  16.474  0.2701 -0.2380 -0.1628
 6598SOL    HW131430   1.555   4.050  16.467 -1.3737  0.8913  0.9203
 6598SOL    HW231431   1.483   3.967  16.567  1.7672 -0.2515  0.1719
 6599SOL     OW31432   2.366   0.700   0.736  0.2336 -0.0516 -0.2476
 6599SOL    HW131433   2.418   0.725   0.661 -0.2642  1.4323 -0.0986
 6599SOL    HW231434   2.292   0.761   0.730  0.3888 -0.1833 -3.3313
 6600SOL     OW31435   2.930   3.344   9.109 -0.3034 -0.2934  0.3056
 6600SOL    HW131436   2.852   3.319   9.058 -0.7976  1.2368  0.3103
 6600SOL    HW231437   2.953   3.429   9.073  1.2524 -0.2807  1.3523
 6601SOL     OW31438   1.748   1.322   8.587  0.2240  0.0091 -0.3605
 6601SOL    HW131439   1.733   1.274   8.506  1.9255  0.6396 -1.0326
 6601SOL    HW231440   1.720   1.252   8.647  0.0660 -0.0900 -0.5506
 6602SOL     OW31441   4.300   2.228  14.849 -0.2218  0.0025 -0.2979
 6602SOL    HW131442   4.392   2.227  14.820 -0.4035 -1.3888 -0.8696
 6602SOL    HW231443   4.299   2.203  14.941  2.3712 -2.0345 -0.8013
 6603SOL     OW31444   0.511   4.306   4.179 -0.6291 -0.4569 -0.6384
 6603SOL    HW131445   0.573   4.233   4.173 -1.0473 -1.0466  2.1243
 6603SOL    HW231446   0.479   4.313   4.269  0.8300 -1.3863 -0.0507
 6604SOL     OW31447   0.484   1.674  11.534 -0.1192  0.1117  0.3179
 6604SOL    HW131448   0.538   1.701  11.608  1.1665 -0.5550 -0.3802
 6604SOL    HW231449   0.450   1.593  11.574  0.3840  0.2666  1.0499
 6605SOL     OW31450   1.744   2.292   4.153 -0.1027 -0.1974 -0.2343
 6605SOL    HW131451   1.792   2.345   4.217 -0.2618  1.1204 -1.2207
 6605SOL    HW231452   1.689   2.238   4.210  0.3538 -1.3070 -0.8313
 6606SOL     OW31453   0.547   0.280   6.396  0.5067 -0.4041 -0.2374
 6606SOL    HW131454   0.567   0.213   6.462 -0.2060 -0.9658 -0.6000
 6606SOL    HW231455   0.578   0.352   6.453 -1.2569  1.7856 -2.0654
 6607SOL     OW31456   2.628   4.107   5.273 -0.0261 -0.2176 -0.3121
 6607SOL    HW131457   2.622   4.203   5.270  1.5086 -0.1222 -0.2505
 6607SOL    HW231458   2.672   4.096   5.357 -0.2566  0.8832 -0.0465
 6608SOL     OW31459   1.344   2.867  13.406  0.3511 -0.5892 -0.1307
 6608SOL    HW131460   1.257   2.829  13.400 -0.1167  0.5114 -0.3568
 6608SOL    HW231461   1.343   2.905  13.318 -0.3303 -0.9196 -0.2635
 6609SOL     OW31462   2.111   2.815   1.487  0.0153 -0.4110  0.4945
 6609SOL    HW131463   2.154   2.895   1.516  0.9564 -0.8256  0.2319
 6609SOL    HW231464   2.125   2.844   1.397  1.1059 -0.5949  0.6127
 6610SOL     OW31465   2.189   1.025   2.571  0.6038 -0.4166 -0.3911
 6610SOL    HW131466   2.216   1.075   2.647  0.9930 -2.3391  0.7231
 6610SOL    HW231467   2.217   1.090   2.507  0.8384  2.1765  2.3569
 6611SOL     OW31468   4.421   4.715   6.766  0.2548 -0.6258 -0.2789
 6611SOL    HW131469   4.509   4.704   6.730  0.4399 -0.4284  0.1168
 6611SOL    HW231470   4.364   4.719   6.689 -0.4868  0.4327  0.3234
 6612SOL     OW31471   3.077   1.265   4.726 -0.2388  0.2455 -0.2930
 6612SOL    HW131472   3.148   1.254   4.663  1.4990  1.4629  1.4428
 6612SOL    HW231473   3.040   1.176   4.723 -0.4720  0.3739 -1.1277
 6613SOL     OW31474   0.769   1.527   6.238 -0.2296 -0.4016 -0.4127
 6613SOL    HW131475   0.855   1.518   6.197  0.6747  0.0852  1.3741
 6613SOL    HW231476   0.713   1.477   6.178  1.6005 -0.6911 -1.8860
 6614SOL     OW31477   3.928   1.411   6.378 -0.3608 -0.4994  0.5249
 6614SOL    HW131478   4.001   1.398   6.439  0.9702  1.4011 -0.6789
 6614SOL    HW231479   3.867   1.353   6.423 -0.8220  1.3418  2.2641
 6615SOL     OW31480   0.763   1.241  12.888 -0.1414 -0.2834 -0.1261
 6615SOL    HW131481   0.845   1.270  12.929 -0.4998  1.4419 -0.6256
 6615SOL    HW231482   0.722   1.322  12.860 -3.1177 -1.6198  0.3714
 6616SOL     OW31483   3.092   2.064   5.046 -0.2595 -0.3432 -0.4392
 6616SOL    HW131484   3.129   2.011   4.976  0.4040  0.6166 -0.8137
 6616SOL    HW231485   3.078   2.148   5.002 -0.3919  0.4998  1.2318
 6617SOL     OW31486   1.129   1.729  10.596  0.3014  0.6081 -0.3893
 6617SOL    HW131487   1.088   1.660  10.649  2.2463  0.9887  1.6266
 6617SOL    HW231488   1.222   1.722  10.614 -0.1625 -1.4725  1.2479
 6618SOL     OW31489   0.127   1.344   1.537 -0.0616 -0.6814  0.6783
 6618SOL    HW131490   0.151   1.252   1.551 -0.1952 -0.9937 -1.1614
 6618SOL    HW231491   0.037   1.336   1.568 -0.6463 -0.2245 -0.8803
 6619SOL     OW31492   3.204   0.318   3.852  0.5783  0.2365  0.4707
 6619SOL    HW131493   3.210   0.413   3.857  1.5762  0.2154 -0.4654
 6619SOL    HW231494   3.205   0.310   3.757 -1.6467 -0.9426  0.5419
 6620SOL     OW31495   2.811   1.430   4.948  0.0822  0.0284  0.8415
 6620SOL    HW131496   2.798   1.365   5.017  0.3163 -1.3031 -0.3653
 6620SOL    HW231497   2.802   1.515   4.993  0.2592  0.9082 -0.8023
 6621SOL     OW31498   3.646   0.737  12.211 -0.6962  0.5794 -0.3082
 6621SOL    HW131499   3.694   0.706  12.134  0.0070 -0.4710  0.5445
 6621SOL    HW231500   3.606   0.818  12.178 -0.5801  1.6399  2.1584
 6622SOL     OW31501   0.492   4.631   0.569  0.1145  0.2099  0.6930
 6622SOL    HW131502   0.424   4.569   0.542  0.1983  0.5901 -0.3932
 6622SOL    HW231503   0.545   4.579   0.628  1.6242 -0.1292 -0.9603
 6623SOL     OW31504   0.272   0.989  10.182 -0.0571  0.1349  0.1947
 6623SOL    HW131505   0.208   0.960  10.247  0.2901  1.6117  1.1999
 6623SOL    HW231506   0.222   0.995  10.100 -0.2539 -0.4124  0.2736
 6624SOL     OW31507   3.882   3.904   7.349  0.3718 -0.8633  0.0431
 6624SOL    HW131508   3.912   3.847   7.278  1.5599 -2.4302  1.8331
 6624SOL    HW231509   3.963   3.925   7.395  0.2010 -2.5995  1.1218
 6625SOL     OW31510   4.712   3.209   5.878  0.2828 -0.6090 -0.3576
 6625SOL    HW131511   0.040   3.220   5.947 -2.5051  0.4938  2.0928
 6625SOL    HW231512   0.032   3.179   5.807 -1.4465 -1.1568 -1.5433
 6626SOL     OW31513   3.580   3.647   7.655  0.3968 -0.3372  0.0459
 6626SOL    HW131514   3.520   3.585   7.613  0.7338 -0.1413 -0.7163
 6626SOL    HW231515   3.644   3.655   7.585  0.4675  3.1425  0.5028
 6627SOL     OW31516   3.754   2.624   0.082  0.1925  0.2357  0.2584
 6627SOL    HW131517   3.693   2.602   0.152  0.4127 -0.8910  0.0924
 6627SOL    HW231518   3.800   2.544   0.057  1.9860  1.6024 -0.8174
 6628SOL     OW31519   4.273   0.969   8.307  0.3012  0.6006 -0.6985
 6628SOL    HW131520   4.300   1.030   8.239  0.8854  0.2382 -0.7936
 6628SOL    HW231521   4.244   1.033   8.372  1.9448  1.4104 -0.7612
 6629SOL     OW31522   0.586   3.993   0.433  0.0264 -0.1214 -0.1375
 6629SOL    HW131523   0.566   4.050   0.358 -1.1253 -0.2931  0.0415
 6629SOL    HW231524   0.605   3.913   0.384 -0.4758 -0.5158  0.3064
 6630SOL     OW31525   2.594   3.506   0.593 -0.5167  0.3657 -0.6805
 6630SOL    HW131526   2.564   3.416   0.604  0.0975  0.2958  0.4494
 6630SOL    HW231527   2.567   3.533   0.681  1.0317  0.3508 -0.1925
 6631SOL     OW31528   4.578   1.977   3.579 -0.6330 -0.2874 -0.5452
 6631SOL    HW131529   4.632   1.950   3.505 -0.3523  0.4197 -0.5989
 6631SOL    HW231530   4.616   1.920   3.645  0.7371 -0.4960 -1.5125
 6632SOL     OW31531   1.695   2.768   5.140 -0.1388  0.0963  0.2845
 6632SOL    HW131532   1.728   2.756   5.229  1.3007  0.3213 -0.2116
 6632SOL    HW231533   1.709   2.863   5.142 -1.6885  0.3539 -1.9280
 6633SOL     OW31534   4.535   2.729   0.560  0.8403 -0.1546  0.4425
 6633SOL    HW131535   4.604   2.667   0.581 -0.6652 -1.4798  1.4779
 6633SOL    HW231536   4.576   2.773   0.485 -0.8904  2.3243  0.9282
 6634SOL     OW31537   3.956   1.842   2.298  0.0677 -0.4503 -0.3256
 6634SOL    HW131538   3.992   1.903   2.233  0.0584 -2.0092 -1.8040
 6634SOL    HW231539   4.006   1.762   2.284  0.5519  0.0995 -1.7570
 6635SOL     OW31540   0.602   0.045   4.306 -0.0204 -0.4896 -0.2763
 6635SOL    HW131541   0.647   0.090   4.235 -1.5840  3.5773  1.3253
 6635SOL    HW231542   0.664   4.711   4.321 -0.1645 -1.0492 -2.2513
 6636SOL     OW31543   0.661   4.343  16.613  0.2781  0.5534  0.3660
 6636SOL    HW131544   0.680   4.421  16.560  2.5060  0.5932  1.2251
 6636SOL    HW231545   0.567   4.351  16.631  0.6225  3.3172  1.0104
 6637SOL     OW31546   0.656   4.626   2.263 -0.0540 -0.3155  1.0485
 6637SOL    HW131547   0.587   4.689   2.241  0.3556 -0.1971  0.1430
 6637SOL    HW231548   0.606   4.547   2.285 -0.7378  0.1112  1.0334
 6638SOL     OW31549   3.721   2.101  13.634 -0.4869  0.3806  0.0135
 6638SOL    HW131550   3.729   2.052  13.552  0.0155  1.1107 -0.3787
 6638SOL    HW231551   3.627   2.118  13.629 -0.4495  1.0003  1.3227
 6639SOL     OW31552   2.274   2.424   2.822 -0.1764 -0.2601  0.7880
 6639SOL    HW131553   2.348   2.405   2.764 -2.2741  1.5677 -2.4935
 6639SOL    HW231554   2.281   2.519   2.830 -2.3096  0.1991 -2.5563
 6640SOL     OW31555   1.887   3.651   7.585  0.5443  0.2936 -0.4797
 6640SOL    HW131556   1.979   3.648   7.611  0.0024 -1.0182  1.2734
 6640SOL    HW231557   1.880   3.560   7.615  0.6630 -0.2360 -2.0521
 6641SOL     OW31558   2.894   4.073  10.853 -0.2338 -0.8759  0.2513
 6641SOL    HW131559   2.978   4.114  10.869 -0.9703  1.7767 -2.7156
 6641SOL    HW231560   2.860   4.087  10.941 -0.1003 -0.2657  0.2012
 6642SOL     OW31561   0.828   0.560   8.113  0.5099 -0.1856  0.0077
 6642SOL    HW131562   0.853   0.481   8.065  1.0807  0.3925 -0.6398
 6642SOL    HW231563   0.871   0.624   8.056 -1.7292 -1.2720 -2.9399
 6643SOL     OW31564   0.001   0.944  10.838  0.7019 -0.4099 -0.0621
 6643SOL    HW131565   0.080   0.948  10.892  1.0124 -0.9920 -0.4676
 6643SOL    HW231566   4.736   0.848  10.837  1.4548 -0.4273 -0.1621
 6644SOL     OW31567   1.752   0.690  12.035 -0.1596 -0.0680 -0.4375
 6644SOL    HW131568   1.658   0.706  12.035 -0.0691  0.4604  0.1018
 6644SOL    HW231569   1.748   0.595  12.020 -0.9698 -0.3003  1.2560
 6645SOL     OW31570   0.062   1.022   6.768 -0.3982 -0.1427  0.1790
 6645SOL    HW131571   0.004   1.065   6.705 -1.6485 -0.4554  1.1060
 6645SOL    HW231572   0.019   0.938   6.788 -0.3046  0.2229  1.9077
 6646SOL     OW31573   1.718   0.849  14.209  0.1145 -0.0165 -0.1056
 6646SOL    HW131574   1.640   0.814  14.251  0.2317 -1.2205 -0.8751
 6646SOL    HW231575   1.675   0.878  14.128 -0.3652 -0.2059  0.0849
 6647SOL     OW31576   3.670   3.083  15.315  0.0833  0.0896  0.2101
 6647SOL    HW131577   3.593   3.070  15.259 -0.1495 -0.2752  0.6182
 6647SOL    HW231578   3.739   3.029  15.275  1.5083 -0.3888  3.3286
 6648SOL     OW31579   2.306   1.096   6.105 -0.6451  0.2086  0.5354
 6648SOL    HW131580   2.388   1.127   6.066  0.2498 -1.3246  1.2068
 6648SOL    HW231581   2.332   1.004   6.106 -0.1449  0.3265 -1.3328
 6649SOL     OW31582   3.967   2.079  14.736 -0.0348  0.2924  0.0854
 6649SOL    HW131583   3.994   2.019  14.666  1.4361  2.0217 -0.8331
 6649SOL    HW231584   3.961   2.150  14.673 -0.0141  0.3218  0.1165
 6650SOL     OW31585   0.857   1.834  12.511  0.4506 -0.0683  0.1396
 6650SOL    HW131586   0.950   1.820  12.527  0.8863  1.5952 -0.8778
 6650SOL    HW231587   0.851   1.887  12.590 -1.4785 -0.7609  0.4623
 6651SOL     OW31588   3.443   0.856   2.688  0.6325  0.1738 -0.3236
 6651SOL    HW131589   3.360   0.902   2.697  1.1352  1.2475 -1.1238
 6651SOL    HW231590   3.507   0.924   2.709 -1.2098  2.0665 -0.8542
 6652SOL     OW31591   0.955   0.591  17.338 -0.2504 -0.7986  0.3692
 6652SOL    HW131592   0.949   0.510  17.390 -1.8876 -0.3989  0.8087
 6652SOL    HW231593   0.965   0.551  17.252  0.1301  1.8947 -0.8205
 6653SOL     OW31594   3.027   2.862   3.675 -0.5014 -0.0254 -0.1922
 6653SOL    HW131595   2.996   2.909   3.752 -0.2906 -0.7459  0.3363
 6653SOL    HW231596   3.123   2.867   3.676 -0.4752 -1.1230  2.6864
 6654SOL     OW31597   0.818   1.340   0.833 -0.3867  0.1006  0.1949
 6654SOL    HW131598   0.771   1.395   0.770 -0.5020 -1.5168 -1.1449
 6654SOL    HW231599   0.856   1.270   0.780 -1.0836 -0.4814  0.4621
 6655SOL     OW31600   3.304   3.183   7.121  0.1893 -0.3975  0.5546
 6655SOL    HW131601   3.321   3.225   7.037  2.8493 -2.5768  0.0075
 6655SOL    HW231602   3.223   3.224   7.152  0.9311  1.0446  0.5987
 6656SOL     OW31603   0.134   0.459   2.676 -0.5127 -0.3701 -0.0938
 6656SOL    HW131604   0.195   0.467   2.749 -1.2497  2.1161  0.2451
 6656SOL    HW231605   0.154   0.372   2.640  0.6070  0.0951 -0.5925
 6657SOL     OW31606   1.539   4.310   8.025 -0.2598 -0.6921  0.0699
 6657SOL    HW131607   1.542   4.355   8.109 -0.5502 -1.1132  0.3095
 6657SOL    HW231608   1.628   4.281   8.005 -0.2149 -0.1314 -0.5354
 6658SOL     OW31609   3.773   1.624   4.441 -0.1175 -0.1512  0.2276
 6658SOL    HW131610   3.841   1.626   4.374 -0.7358  1.4207 -0.3691
 6658SOL    HW231611   3.693   1.647   4.394  1.1478 -0.0952 -1.8841
 6659SOL     OW31612   3.485   2.597  12.792  0.0846 -0.8153  0.4332
 6659SOL    HW131613   3.479   2.504  12.770 -1.3458 -0.5349 -0.3608
 6659SOL    HW231614   3.543   2.633  12.725 -1.0497 -1.2453 -0.7727
 6660SOL     OW31615   2.721   2.970  14.352 -0.6630 -0.1462  0.1933
 6660SOL    HW131616   2.743   3.060  14.379  1.6877 -0.0672 -1.9939
 6660SOL    HW231617   2.716   2.975  14.256  1.9741  1.0742  0.0997
 6661SOL     OW31618   0.549   1.906  10.712 -0.2153 -0.5638 -0.2926
 6661SOL    HW131619   0.618   1.923  10.647  1.2347  1.3906  1.7560
 6661SOL    HW231620   0.490   1.877  10.643  0.7032  1.6417 -2.0229
 6662SOL     OW31621   2.031   4.240  13.223  0.0559  0.5282  0.3137
 6662SOL    HW131622   1.996   4.228  13.135 -0.7344 -1.7135  0.9251
 6662SOL    HW231623   2.111   4.284  13.193  1.6296 -3.4981 -1.4865
 6663SOL     OW31624   0.200   2.316   8.351 -0.0052  0.4783 -0.2398
 6663SOL    HW131625   0.233   2.239   8.396  0.5927  0.5110 -0.6094
 6663SOL    HW231626   0.179   2.369   8.428  1.1274  0.3173  0.1738
 6664SOL     OW31627   4.187   0.755   4.378 -0.2089 -0.5181 -0.4533
 6664SOL    HW131628   4.220   0.842   4.357 -1.5436 -0.2397 -1.4320
 6664SOL    HW231629   4.230   0.696   4.315  1.2417 -0.3253  0.3833
 6665SOL     OW31630   2.350   2.924   5.136  0.3019 -0.0987 -0.7249
 6665SOL    HW131631   2.357   3.017   5.112 -1.5617 -0.1104 -1.3165
 6665SOL    HW231632   2.441   2.898   5.123  0.4138  0.2690 -0.6743
 6666SOL     OW31633   1.334   3.770   5.000  0.2820  0.1220 -0.0525
 6666SOL    HW131634   1.263   3.722   5.043 -1.1139  1.8359 -0.4705
 6666SOL    HW231635   1.385   3.705   4.950  1.2394  1.7448 -1.1698
 6667SOL     OW31636   2.643   3.446  16.617 -0.0019  0.5190 -0.2326
 6667SOL    HW131637   2.709   3.382  16.593 -1.9879 -1.5694 -0.1932
 6667SOL    HW231638   2.695   3.526  16.627  3.5714 -2.0782  1.3944
 6668SOL     OW31639   4.269   3.741   7.253 -0.6051  0.0570  0.1015
 6668SOL    HW131640   4.313   3.784   7.326  1.4974 -0.3386 -0.9243
 6668SOL    HW231641   4.214   3.683   7.306 -0.9058 -1.0117 -1.3770
 6669SOL     OW31642   3.155   2.125   8.221  0.0101 -0.1255  0.3559
 6669SOL    HW131643   3.144   2.169   8.137  2.5528  1.5128  0.8752
 6669SOL    HW231644   3.067   2.121   8.258 -1.0702 -2.3602 -2.4355
 6670SOL     OW31645   1.173   1.446   1.338  0.1591  0.0311 -0.0101
 6670SOL    HW131646   1.080   1.439   1.315 -0.5205  0.4419  2.5754
 6670SOL    HW231647   1.208   1.393   1.267 -2.2971 -0.3279 -0.9568
 6671SOL     OW31648   3.433   3.521   2.042  0.0441 -0.0902  0.2614
 6671SOL    HW131649   3.521   3.557   2.053  0.2870 -0.9972  1.2635
 6671SOL    HW231650   3.405   3.553   1.956  2.0450  0.9348 -0.0376
 6672SOL     OW31651   4.306   1.578   6.225 -0.0422  0.4448  0.8867
 6672SOL    HW131652   4.258   1.657   6.248  0.8429 -0.1953  4.8422
 6672SOL    HW231653   4.366   1.600   6.153 -2.4202  1.0283 -0.9245
 6673SOL     OW31654   3.051   4.080   7.794  0.0408 -0.1244 -0.9599
 6673SOL    HW131655   2.967   4.036   7.791 -0.4591  0.9449 -2.5683
 6673SOL    HW231656   3.077   4.072   7.702 -0.7914 -0.7996 -1.1263
 6674SOL     OW31657   4.717   1.256   2.457  0.1465 -0.2211  0.1320
 6674SOL    HW131658   0.005   1.203   2.532  2.2087  0.6110  0.0355
 6674SOL    HW231659   0.065   1.299   2.447  0.1189 -0.2756 -0.3478
 6675SOL     OW31660   0.856   2.137   2.726  0.0745  0.1992 -0.0605
 6675SOL    HW131661   0.763   2.112   2.720  0.4580 -1.3440  0.3788
 6675SOL    HW231662   0.859   2.185   2.644 -0.1448  0.0326 -0.1667
 6676SOL     OW31663   2.198   2.265   1.953  0.3049  0.2986 -0.0188
 6676SOL    HW131664   2.144   2.342   1.936  0.6933 -0.0151 -2.7828
 6676SOL    HW231665   2.175   2.257   2.045 -0.2595 -3.9131 -0.5292
 6677SOL     OW31666   1.028   3.191   7.854  0.3981 -0.0324  0.7729
 6677SOL    HW131667   1.000   3.250   7.924  0.7885  1.7013 -0.5242
 6677SOL    HW231668   1.055   3.257   7.789  0.3553 -3.1697 -2.4282
 6678SOL     OW31669   4.527   3.001  15.473 -0.2992  0.5789 -0.0480
 6678SOL    HW131670   4.522   3.043  15.387 -2.1371 -0.8239 -0.6259
 6678SOL    HW231671   4.557   2.913  15.451 -4.1060 -0.2587 -1.8251
 6679SOL     OW31672   0.753   1.995  17.569 -0.1632  1.0073 -0.3594
 6679SOL    HW131673   0.831   2.011  17.621 -0.1472 -0.1902 -0.0203
 6679SOL    HW231674   0.689   1.958  17.629  1.1091 -0.0845  0.3135
 6680SOL     OW31675   4.237   4.655  14.656  0.0571 -0.0843  0.1346
 6680SOL    HW131676   4.258   4.564  14.677  1.4923  0.1836 -0.1668
 6680SOL    HW231677   4.174   4.679  14.724  0.3478 -0.4050  0.5112
 6681SOL     OW31678   3.065   1.271   6.153  0.2246 -0.1505  0.3019
 6681SOL    HW131679   3.050   1.198   6.092  2.1540 -0.0510 -0.2958
 6681SOL    HW231680   3.093   1.339   6.091 -2.2322 -0.7946 -1.5354
 6682SOL     OW31681   1.994   2.980   4.625  0.2315 -0.2816 -0.0052
 6682SOL    HW131682   1.996   2.887   4.606 -1.3678 -0.3340  0.0687
 6682SOL    HW231683   2.009   2.979   4.719  2.7889 -1.0933 -0.4081
 6683SOL     OW31684   0.481   1.895   5.794  0.0668  0.1369  0.6231
 6683SOL    HW131685   0.463   1.962   5.861 -2.5310  0.7711 -0.7284
 6683SOL    HW231686   0.440   1.824   5.844  1.0469  0.1192  1.3948
 6684SOL     OW31687   4.652   1.604   6.314 -0.4218  0.0360  0.1871
 6684SOL    HW131688   4.628   1.649   6.395  0.6743 -2.8869  2.1411
 6684SOL    HW231689   4.717   1.671   6.291 -0.4791 -0.5012 -1.4655
 6685SOL     OW31690   2.058   1.708   5.101  0.4128 -0.3931  0.0961
 6685SOL    HW131691   2.131   1.705   5.039  0.3766  2.1104 -0.0927
 6685SOL    HW231692   2.098   1.755   5.174 -1.2374 -1.0193  1.3997
 6686SOL     OW31693   2.567   3.467   8.836 -0.0951 -0.1066  0.1241
 6686SOL    HW131694   2.505   3.469   8.763  0.2565  0.1023 -0.1721
 6686SOL    HW231695   2.506   3.466   8.909  0.8970 -1.2832  0.9263
 6687SOL     OW31696   2.152   2.503   2.334  0.5605  0.4544  0.0938
 6687SOL    HW131697   2.078   2.551   2.371 -2.1941 -2.7071 -1.3380
 6687SOL    HW231698   2.214   2.573   2.314  2.4813 -0.7442  1.7704
 6688SOL     OW31699   0.832   2.564   0.455  0.6275 -0.3174  0.6126
 6688SOL    HW131700   0.914   2.541   0.499  1.9594 -1.5094 -2.4922
 6688SOL    HW231701   0.773   2.546   0.529 -0.7917 -0.6257 -0.6001
 6689SOL     OW31702   1.498   1.708   3.500 -0.5386 -0.2299 -0.6054
 6689SOL    HW131703   1.447   1.732   3.422  1.8029  0.7747 -1.8143
 6689SOL    HW231704   1.433   1.717   3.570 -1.5931  3.2413 -2.0295
 6690SOL     OW31705   1.234   2.415   4.002  0.1975  0.3364  0.4026
 6690SOL    HW131706   1.216   2.359   4.077  1.5777  0.1895  0.6241
 6690SOL    HW231707   1.316   2.453   4.034 -0.1340  1.1687  0.2476
 6691SOL     OW31708   2.516   2.431  10.025 -0.5204  0.3217 -0.2118
 6691SOL    HW131709   2.460   2.503   9.996 -0.6667 -0.0510 -0.8653
 6691SOL    HW231710   2.499   2.377   9.948 -0.0112  1.6716 -1.2617
 6692SOL     OW31711   1.513   0.598   8.850 -0.4073  0.2919 -0.4625
 6692SOL    HW131712   1.547   0.509   8.855 -0.1213  0.4079 -0.3459
 6692SOL    HW231713   1.480   0.606   8.940 -2.4149  2.3611 -1.3727
 6693SOL     OW31714   1.453   1.561   2.142  0.3739 -0.7766 -0.3492
 6693SOL    HW131715   1.426   1.498   2.075 -2.9185  1.2298 -0.9365
 6693SOL    HW231716   1.475   1.640   2.093 -0.5199 -0.5720 -0.4237
 6694SOL     OW31717   3.301   3.288   6.852 -0.0327 -0.0321 -0.1467
 6694SOL    HW131718   3.384   3.265   6.811 -0.4741 -1.9963  0.0295
 6694SOL    HW231719   3.297   3.383   6.864  0.5257  0.0130 -0.3233
 6695SOL     OW31720   1.602   2.511   1.046 -0.4137  0.6193  0.3189
 6695SOL    HW131721   1.640   2.444   1.102 -1.2096 -0.4409 -0.3992
 6695SOL    HW231722   1.597   2.575   1.117 -0.2845 -0.6689  1.4962
 6696SOL     OW31723   2.886   3.525   4.563  0.0748 -0.4163 -0.2375
 6696SOL    HW131724   2.970   3.511   4.606  0.1158 -0.5487 -0.3599
 6696SOL    HW231725   2.832   3.565   4.632 -0.7330  0.4663 -1.3687
 6697SOL     OW31726   4.567   2.574  10.721  0.3294 -0.5706  0.2032
 6697SOL    HW131727   4.560   2.484  10.753 -0.6377 -0.7335 -0.4775
 6697SOL    HW231728   4.627   2.564  10.647 -1.4917  0.5228 -1.4136
 6698SOL     OW31729   2.563   3.065   4.533  0.1137 -0.1136 -0.6111
 6698SOL    HW131730   2.658   3.074   4.521 -0.2339 -0.0892 -3.4258
 6698SOL    HW231731   2.523   3.138   4.487 -2.7325 -0.6901  0.9348
 6699SOL     OW31732   1.224   0.067   4.530 -0.6160 -0.2648  0.3311
 6699SOL    HW131733   1.252   0.158   4.521  0.9314 -0.7693  0.1399
 6699SOL    HW231734   1.191   0.049   4.442  1.5827 -1.6714 -0.2117
 6700SOL     OW31735   3.727   3.290   9.778  0.2706  0.2949  0.0167
 6700SOL    HW131736   3.786   3.363   9.793 -0.1423  0.7382 -0.5099
 6700SOL    HW231737   3.741   3.271   9.685  1.5816 -1.0194  0.4760
 6701SOL     OW31738   4.601   4.551  10.851  0.2457 -0.3904 -0.6233
 6701SOL    HW131739   4.542   4.608  10.801 -0.5396 -1.8607 -1.4100
 6701SOL    HW231740   4.547   4.476  10.876 -0.8429  0.2450 -1.0856
 6702SOL     OW31741   0.703   3.347   9.152  0.9788  0.5586 -0.6286
 6702SOL    HW131742   0.633   3.282   9.147  1.4249 -0.1189  1.7703
 6702SOL    HW231743   0.765   3.310   9.215 -1.4828 -2.6455 -0.1151
 6703SOL     OW31744   4.342   2.225  11.211 -0.5786 -0.0144  0.3632
 6703SOL    HW131745   4.368   2.187  11.127  0.2443 -0.8386  0.9902
 6703SOL    HW231746   4.364   2.316  11.193  1.7530 -0.2995  1.7586
 6704SOL     OW31747   0.848   0.991   6.860 -0.0559 -0.1582  0.4198
 6704SOL    HW131748   0.827   0.898   6.869 -2.2552  0.4319  1.3498
 6704SOL    HW231749   0.942   1.004   6.847 -0.2057  1.6747  1.0939
 6705SOL     OW31750   2.597   1.410   6.513  0.1498  0.3731  0.3490
 6705SOL    HW131751   2.507   1.442   6.523  0.2245  0.7047 -0.0348
 6705SOL    HW231752   2.590   1.357   6.434  2.1943 -0.0516  0.4454
 6706SOL     OW31753   0.350   3.490   2.748 -0.6433  0.2087  0.5098
 6706SOL    HW131754   0.334   3.465   2.657  3.7307 -2.1195  0.4048
 6706SOL    HW231755   0.414   3.556   2.725 -0.8966  0.2711 -0.0217
 6707SOL     OW31756   2.654   1.189  13.680  0.4758  0.9534  0.2170
 6707SOL    HW131757   2.678   1.281  13.687  1.4577  1.0339 -4.3387
 6707SOL    HW231758   2.741   1.149  13.689 -0.1269 -0.5159 -0.6443
 6708SOL     OW31759   0.151   1.129   4.159 -0.5056 -0.4487 -0.3129
 6708SOL    HW131760   0.138   1.202   4.099 -1.2425 -0.4722 -0.1781
 6708SOL    HW231761   0.221   1.083   4.113 -1.1657  0.8734 -2.6110
 6709SOL     OW31762   0.030   4.682  10.463  0.3637  0.1138  0.4048
 6709SOL    HW131763   0.111   4.719  10.498 -1.0346  0.8008  2.9163
 6709SOL    HW231764   4.708   0.012  10.497 -0.3104  0.9270 -2.4047
 6710SOL     OW31765   0.568   3.751   4.911 -0.9879 -0.3531 -0.4156
 6710SOL    HW131766   0.579   3.793   4.997 -2.7614  0.1859 -0.4590
 6710SOL    HW231767   0.499   3.800   4.866 -0.5881 -0.4793 -1.1623
 6711SOL     OW31768   0.953   3.025  13.944  0.1228 -0.1798  0.3232
 6711SOL    HW131769   0.975   2.998  14.033  1.3459 -0.2298  0.0000
 6711SOL    HW231770   0.868   3.067  13.954  0.0123  0.0775 -1.7562
 6712SOL     OW31771   4.498   4.462   2.757 -0.6455  0.0594  0.1597
 6712SOL    HW131772   4.589   4.439   2.740  0.3588  3.4443  0.9365
 6712SOL    HW231773   4.453   4.414   2.687 -0.2906 -0.1404  0.0700
 6713SOL     OW31774   1.481   1.083  12.559  0.1549 -0.0726  0.4248
 6713SOL    HW131775   1.518   1.044  12.638  2.4413  0.5202 -0.3465
 6713SOL    HW231776   1.561   1.082  12.506  2.2502  0.5116  3.6095
 6714SOL     OW31777   2.371   2.370  12.212 -0.2528  0.0472  0.3862
 6714SOL    HW131778   2.462   2.397  12.209 -0.0674 -0.4967  1.2200
 6714SOL    HW231779   2.384   2.275  12.210 -0.9260 -0.1131  3.6567
 6715SOL     OW31780   2.957   2.838   9.293 -0.4028 -0.1587 -0.3663
 6715SOL    HW131781   3.033   2.839   9.236  1.0644 -2.4762  1.5261
 6715SOL    HW231782   2.970   2.919   9.342  3.4943 -1.3709  0.5801
 6716SOL     OW31783   3.629   0.567   5.153 -0.2320  0.1553  0.1429
 6716SOL    HW131784   3.552   0.597   5.104  0.5117 -1.5105 -2.0310
 6716SOL    HW231785   3.691   0.640   5.146  0.9172 -0.7838  0.5785
 6717SOL     OW31786   2.518   4.732   6.452 -0.1232  0.4735 -0.4708
 6717SOL    HW131787   2.464   0.004   6.529  0.4185  0.0673 -0.0371
 6717SOL    HW231788   2.559   0.081   6.441  1.0447 -0.2219 -1.6712
 6718SOL     OW31789   4.605   2.786   8.851  0.4145  0.3923 -0.2198
 6718SOL    HW131790   4.541   2.748   8.791  0.4913 -1.0544  0.6181
 6718SOL    HW231791   4.575   2.750   8.935 -0.2897  0.6721 -0.3519
 6719SOL     OW31792   4.041   2.237   1.969 -0.1723  0.1912 -0.1288
 6719SOL    HW131793   4.136   2.250   1.972 -0.1787  0.2359 -0.1201
 6719SOL    HW231794   4.033   2.224   1.874 -0.5236 -0.7416  0.0314
 6720SOL     OW31795   4.073   1.794   9.140  0.0280 -0.0398 -0.3396
 6720SOL    HW131796   4.074   1.890   9.147  0.2712  0.0122 -1.1087
 6720SOL    HW231797   4.135   1.778   9.212 -2.6456 -1.2680  1.6752
 6721SOL     OW31798   3.293   0.888  16.008  0.9462  0.2568  0.3438
 6721SOL    HW131799   3.271   0.981  16.012 -0.3758  0.0200 -1.5191
 6721SOL    HW231800   3.339   0.893  15.925 -0.5631 -0.0510 -0.5200
 6722SOL     OW31801   0.753   0.411   5.630 -0.2975  0.2304  0.3966
 6722SOL    HW131802   0.829   0.405   5.688  1.1948  0.7537 -1.4924
 6722SOL    HW231803   0.767   0.337   5.570 -1.4993 -0.0426  0.4552
 6723SOL     OW31804   1.303   2.833   9.039  0.0244 -0.5527 -0.4845
 6723SOL    HW131805   1.279   2.759   9.094  2.3215 -1.5420 -0.8433
 6723SOL    HW231806   1.324   2.889   9.114 -1.9387  0.7675 -0.9008
 6724SOL     OW31807   0.968   0.728   3.390  0.5189 -0.3513 -0.6120
 6724SOL    HW131808   0.981   0.786   3.315 -2.2022  1.0362 -0.0292
 6724SOL    HW231809   1.035   0.661   3.377  1.3221  0.0167  1.5651
 6725SOL     OW31810   3.676   1.161  16.823  0.1634 -0.1534 -0.2209
 6725SOL    HW131811   3.715   1.230  16.877  0.6706 -0.6964  0.1002
 6725SOL    HW231812   3.583   1.179  16.837  0.7113  1.4982  1.2956
 6726SOL     OW31813   2.770   2.284   8.843  0.3642 -0.1685  0.5919
 6726SOL    HW131814   2.849   2.232   8.828  1.0975  0.5066  2.1727
 6726SOL    HW231815   2.799   2.362   8.796 -1.2381 -0.4126 -0.7956
 6727SOL     OW31816   3.864   3.447   3.559  0.2599 -0.2311  0.4077
 6727SOL    HW131817   3.837   3.422   3.471 -1.2138  0.7890  0.5729
 6727SOL    HW231818   3.818   3.531   3.561  0.0328 -0.3518  0.2689
 6728SOL     OW31819   2.413   2.640   2.626  0.7522  0.2703  0.6737
 6728SOL    HW131820   2.431   2.569   2.564 -1.2355  0.3762 -0.0079
 6728SOL    HW231821   2.379   2.705   2.565 -0.3870 -0.1089  0.9092
 6729SOL     OW31822   0.591   2.346  14.797 -0.0512 -0.3452  0.3289
 6729SOL    HW131823   0.682   2.345  14.767  0.0828 -3.0883  0.8572
 6729SOL    HW231824   0.585   2.251  14.801 -2.6884 -0.3000 -2.6007
 6730SOL     OW31825   3.886   2.977   9.308 -0.0172 -0.2909  0.3109
 6730SOL    HW131826   3.895   2.995   9.402  0.9773 -1.3531  0.4275
 6730SOL    HW231827   3.821   3.040   9.276  0.0655 -0.9438 -1.1603
 6731SOL     OW31828   4.016   4.222   2.032 -0.8473 -0.0800 -0.1465
 6731SOL    HW131829   3.976   4.288   1.975 -1.2223  0.5202  0.8212
 6731SOL    HW231830   3.943   4.217   2.093 -1.9853  3.7512 -1.1918
 6732SOL     OW31831   1.926   3.653   8.413 -0.2653 -0.0817  0.6258
 6732SOL    HW131832   1.986   3.597   8.463  0.5010 -0.8895 -1.1899
 6732SOL    HW231833   1.945   3.624   8.324 -0.2837 -1.3048  1.0189
 6733SOL     OW31834   4.443   3.031  17.653  0.2124 -1.0122 -0.2042
 6733SOL    HW131835   4.405   3.111  17.692  1.5454 -0.6373  0.3134
 6733SOL    HW231836   4.390   3.021  17.574 -0.2726  1.5021 -0.2198
 6734SOL     OW31837   0.390   3.896   7.472 -0.0088 -0.5950 -0.5231
 6734SOL    HW131838   0.318   3.833   7.467  0.4440 -1.1216 -0.3577
 6734SOL    HW231839   0.359   3.962   7.535  0.2122  1.7101 -2.8509
 6735SOL     OW31840   0.196   3.511   4.215  0.4159  0.2221  0.8070
 6735SOL    HW131841   0.254   3.469   4.151  2.3744  1.2444  1.8860
 6735SOL    HW231842   0.115   3.461   4.214  0.8643 -0.5693  2.3570
 6736SOL     OW31843   1.408   4.682  11.505  0.1617 -0.0515 -0.9172
 6736SOL    HW131844   1.356   4.724  11.436  0.1121  1.1126 -0.1650
 6736SOL    HW231845   1.498   4.708  11.488 -0.2878  1.3148 -1.2431
 6737SOL     OW31846   4.048   4.503   9.314  0.4130 -0.2101  0.1396
 6737SOL    HW131847   3.988   4.555   9.261  0.1389  0.6453  1.2932
 6737SOL    HW231848   4.104   4.461   9.249  0.0085 -2.4029  1.2034
 6738SOL     OW31849   4.457   0.998   5.852 -0.0267  0.2232 -0.0663
 6738SOL    HW131850   4.405   1.078   5.842 -0.0139 -0.2128 -3.4188
 6738SOL    HW231851   4.526   1.027   5.912 -0.6665 -1.2494  1.3973
 6739SOL     OW31852   0.248   3.432   8.774 -0.1019  0.2480 -0.5637
 6739SOL    HW131853   0.316   3.490   8.808 -0.4651  0.3971 -0.0944
 6739SOL    HW231854   0.277   3.416   8.684 -2.2202 -1.0080 -1.0330
 6740SOL     OW31855   2.046   4.303   4.199 -0.2556 -0.7311  0.3088
 6740SOL    HW131856   1.992   4.344   4.131 -2.3145 -1.0190  1.7651
 6740SOL    HW231857   2.126   4.282   4.151 -0.4584  1.0130 -0.8086
 6741SOL     OW31858   3.289   4.238  12.350 -0.1839  0.0352 -0.6809
 6741SOL    HW131859   3.286   4.233  12.254  0.5553 -1.1922 -0.6303
 6741SOL    HW231860   3.339   4.163  12.383 -0.4058 -0.9847 -2.6673
 6742SOL     OW31861   0.002   4.185   3.477  0.2468 -0.3888 -0.2849
 6742SOL    HW131862   0.073   4.163   3.537  0.4797 -1.3641 -0.9044
 6742SOL    HW231863   4.666   4.128   3.502  0.7488 -1.8261 -2.0464
 6743SOL     OW31864   2.813   0.029   6.370  0.4579 -0.3017  0.5287
 6743SOL    HW131865   2.765   4.737   6.293 -0.0971 -3.0006  1.9107
 6743SOL    HW231866   2.781   0.119   6.373  1.3040  0.0469 -0.7151
 6744SOL     OW31867   0.830   4.344   5.613 -0.1848  0.0642  0.3518
 6744SOL    HW131868   0.766   4.403   5.572 -0.2762  0.4607  1.0676
 6744SOL    HW231869   0.782   4.261   5.613  0.9449 -0.5759 -0.4479
 6745SOL     OW31870   3.440   3.289   2.166  0.2196  0.4671  0.1081
 6745SOL    HW131871   3.449   3.365   2.107 -0.6854 -0.5517 -1.3528
 6745SOL    HW231872   3.375   3.247   2.110  0.8703  0.7863 -0.8918
 6746SOL     OW31873   1.588   2.098   7.200  0.0375 -0.4231 -0.0330
 6746SOL    HW131874   1.659   2.154   7.170 -0.0444  1.0964  2.5712
 6746SOL    HW231875   1.522   2.124   7.136  0.3010 -1.2982 -0.6633
 6747SOL     OW31876   3.583   0.957   5.254 -0.2154  0.7551  0.3605
 6747SOL    HW131877   3.641   0.977   5.181 -1.2853 -0.0265 -0.6870
 6747SOL    HW231878   3.624   1.010   5.323  0.4830  1.6503 -0.7520
 6748SOL     OW31879   3.143   1.652   8.705  0.1986  0.3648  0.0559
 6748SOL    HW131880   3.132   1.746   8.691  0.5431 -0.0157 -2.7212
 6748SOL    HW231881   3.237   1.645   8.726  0.1972 -2.7196 -0.9506
 6749SOL     OW31882   0.001   2.607  10.139 -0.8253 -0.5157 -0.3164
 6749SOL    HW131883   0.007   2.631  10.232  0.6195  0.3729 -0.6392
 6749SOL    HW231884   4.724   2.514  10.153  2.2675 -1.2465 -2.1077
 6750SOL     OW31885   1.833   0.732   2.319  0.1118 -0.1339  0.0849
 6750SOL    HW131886   1.883   0.716   2.399  1.9508  1.0096 -0.8311
 6750SOL    HW231887   1.838   0.827   2.315  0.1267 -0.1895 -1.0632
 6751SOL     OW31888   4.452   0.326  11.954  0.1989 -0.6596 -0.6466
 6751SOL    HW131889   4.416   0.277  11.881 -2.1474 -0.4071  0.3519
 6751SOL    HW231890   4.519   0.262  11.977 -0.7803 -1.1358  0.9257
 6752SOL     OW31891   1.466   1.863   6.390  0.5021 -0.3591 -0.2021
 6752SOL    HW131892   1.438   1.865   6.299  0.9428 -3.7639 -0.4142
 6752SOL    HW231893   1.445   1.774   6.419 -1.8969 -0.2855 -1.7130
 6753SOL     OW31894   3.881   3.284  12.849 -0.3813  0.1640  0.0007
 6753SOL    HW131895   3.908   3.372  12.876  1.3535  0.5645 -3.0681
 6753SOL    HW231896   3.846   3.252  12.932 -1.2518 -0.8390 -0.7465
 6754SOL     OW31897   1.638   4.247   8.434 -0.3743  0.0077 -0.7211
 6754SOL    HW131898   1.564   4.263   8.493 -0.0328  1.5206 -0.6872
 6754SOL    HW231899   1.706   4.258   8.501 -1.6176 -4.1144  1.1825
 6755SOL     OW31900   3.197   2.743   4.506  0.0239  0.3296  0.1428
 6755SOL    HW131901   3.250   2.739   4.426  2.0422 -3.6216  1.6943
 6755SOL    HW231902   3.178   2.833   4.531  1.9538  0.2999  1.7150
 6756SOL     OW31903   3.486   1.121  15.033 -0.1323 -0.0284 -0.2272
 6756SOL    HW131904   3.490   1.139  14.940  1.0559  0.7232 -0.0208
 6756SOL    HW231905   3.511   1.208  15.064 -0.8408 -0.1962  0.8370
 6757SOL     OW31906   3.554   4.412   8.615 -0.0969 -0.3928 -0.2906
 6757SOL    HW131907   3.462   4.424   8.592 -0.0608  0.2855 -0.0652
 6757SOL    HW231908   3.595   4.440   8.533  0.7458 -0.2289  0.1854
 6758SOL     OW31909   4.563   2.266   9.477  0.0200 -0.3181  0.4652
 6758SOL    HW131910   4.593   2.181   9.512  3.5498 -0.0714 -1.8701
 6758SOL    HW231911   4.648   2.307   9.462 -0.7364  0.9157 -0.3993
 6759SOL     OW31912   4.335   0.924   1.955  0.3861  0.3637 -0.1849
 6759SOL    HW131913   4.334   0.920   2.051 -0.3471  1.4808 -0.1505
 6759SOL    HW231914   4.355   0.834   1.929  0.6248  0.5122 -0.5053
 6760SOL     OW31915   2.885   0.099   5.511 -0.2952 -0.4453 -0.1605
 6760SOL    HW131916   2.839   0.054   5.440 -0.1229  0.9750 -1.1562
 6760SOL    HW231917   2.844   0.068   5.592  0.1090  0.3838  0.3579
 6761SOL     OW31918   4.032   1.379  10.501 -0.2561  0.3463 -0.3959
 6761SOL    HW131919   3.984   1.453  10.539  0.7235  0.9373 -0.3205
 6761SOL    HW231920   3.974   1.356  10.429 -0.5634 -1.4710  0.4394
 6762SOL     OW31921   3.972   1.900  16.036 -0.0146  0.2730 -0.0353
 6762SOL    HW131922   3.989   1.935  15.948  0.3723  0.2845  0.0452
 6762SOL    HW231923   3.928   1.816  16.020 -3.2576  1.9763 -0.0598
 6763SOL     OW31924   2.639   0.358   5.552  0.5036  0.2876  0.1977
 6763SOL    HW131925   2.718   0.319   5.516  1.7152  0.9712  2.1501
 6763SOL    HW231926   2.667   0.379   5.641  0.2427 -0.2376  0.4042
 6764SOL     OW31927   1.628   3.315  17.611  0.1487 -0.1817 -0.2195
 6764SOL    HW131928   1.678   3.286  17.688  0.6916 -1.0982 -0.9031
 6764SOL    HW231929   1.634   3.407  17.634  1.1467  0.2903 -2.3191
 6765SOL     OW31930   4.078   3.904   5.424 -0.3667  0.5231 -0.1581
 6765SOL    HW131931   4.038   3.864   5.501  1.6563 -2.0026 -0.4297
 6765SOL    HW231932   4.099   3.822   5.379 -1.1389  0.0479  0.3306
 6766SOL     OW31933   0.072   2.331   9.395  0.3361  0.3202  0.7129
 6766SOL    HW131934   0.128   2.315   9.319  0.5984  0.9194  0.7710
 6766SOL    HW231935   0.139   2.365   9.455  1.5101  1.2532 -1.0993
 6767SOL     OW31936   4.378   3.104   0.840  0.0015  0.2179 -0.3741
 6767SOL    HW131937   4.426   3.040   0.787  0.3545  0.0331  0.1656
 6767SOL    HW231938   4.288   3.072   0.845 -0.8673  2.7069 -0.3429
 6768SOL     OW31939   3.373   2.324   6.242 -0.1873  0.6767  0.0889
 6768SOL    HW131940   3.301   2.263   6.225 -1.0811  1.9993 -0.7959
 6768SOL    HW231941   3.365   2.388   6.172 -0.7757 -1.8365 -2.1090
 6769SOL     OW31942   4.046   1.743   7.396 -0.3451  0.4281  0.5026
 6769SOL    HW131943   4.115   1.684   7.427 -0.9771 -0.6549 -0.1613
 6769SOL    HW231944   4.019   1.781   7.480  0.0867  2.5045 -0.3197
 6770SOL     OW31945   2.869   2.948   9.616  0.4502  0.1855  0.5340
 6770SOL    HW131946   2.937   3.015   9.624  2.6844 -2.2243  1.6359
 6770SOL    HW231947   2.908   2.888   9.680  1.4263 -1.1767 -1.3383
 6771SOL     OW31948   0.660   1.215  17.597  0.4781  0.3741  0.3193
 6771SOL    HW131949   0.735   1.200  17.655  0.3577 -0.8074  0.1614
 6771SOL    HW231950   0.675   1.306  17.570  1.4293 -0.7716 -3.0239
 6772SOL     OW31951   2.120   2.265   2.201  0.7787 -0.1036 -0.4634
 6772SOL    HW131952   2.025   2.276   2.197  0.8236 -0.0587 -1.5890
 6772SOL    HW231953   2.150   2.343   2.247  3.4304 -1.3800 -0.0388
 6773SOL     OW31954   3.984   2.661  10.954 -0.3967  0.4401 -0.1786
 6773SOL    HW131955   4.077   2.678  10.965 -0.3516 -0.4729  0.8001
 6773SOL    HW231956   3.985   2.583  11.009 -1.1333 -0.0367 -0.8451
 6774SOL     OW31957   4.475   3.117  10.165 -0.2071  0.1760  0.0576
 6774SOL    HW131958   4.471   3.047  10.229  0.2959  1.8848  1.9618
 6774SOL    HW231959   4.534   3.183  10.202 -0.7008  2.0281 -2.3989
 6775SOL     OW31960   3.823   2.586   7.884  0.6423 -0.1093 -0.2470
 6775SOL    HW131961   3.851   2.670   7.919  1.4739 -0.8888  0.9695
 6775SOL    HW231962   3.818   2.615   7.793 -2.5775  0.7176  0.2015
 6776SOL     OW31963   0.179   2.526   9.011  0.2437  0.1784  0.2971
 6776SOL    HW131964   0.157   2.508   9.102  1.4090 -0.8619  0.3623
 6776SOL    HW231965   0.268   2.557   9.028  0.6776 -0.7667 -0.2516
 6777SOL     OW31966   1.205   1.730   7.880 -0.0550  0.4996 -0.2682
 6777SOL    HW131967   1.180   1.822   7.890  0.0922  0.2042  2.5886
 6777SOL    HW231968   1.226   1.730   7.786  0.0173  0.1139 -0.2509
 6778SOL     OW31969   4.376   4.010   7.945 -0.0258  0.1861 -0.1535
 6778SOL    HW131970   4.317   3.963   8.003  0.4985  0.2727  0.4464
 6778SOL    HW231971   4.311   4.050   7.887 -1.9350 -2.0319  0.4752
 6779SOL     OW31972   2.049   1.538   0.335 -0.2907  0.0242 -0.2274
 6779SOL    HW131973   2.060   1.591   0.256  1.1196  0.9171  0.5636
 6779SOL    HW231974   2.083   1.593   0.406 -1.1620  1.8321 -1.2060
 6780SOL     OW31975   0.791   1.840   5.484 -0.0615 -0.3219 -0.3891
 6780SOL    HW131976   0.759   1.797   5.563  1.4658 -2.1180 -0.7601
 6780SOL    HW231977   0.760   1.930   5.496 -2.1222 -0.7800 -2.1824
 6781SOL     OW31978   1.785   1.480   7.507 -0.0005  0.3625 -0.2997
 6781SOL    HW131979   1.877   1.466   7.485 -0.4979 -0.7637 -1.7093
 6781SOL    HW231980   1.767   1.388   7.530 -2.0132  0.4958 -1.2477
 6782SOL     OW31981   0.474   3.907   5.127 -0.1247  0.5820 -0.5308
 6782SOL    HW131982   0.487   3.846   5.200 -3.0168 -0.5396 -0.9350
 6782SOL    HW231983   0.381   3.930   5.128  0.0990  1.2933  2.8738
 6783SOL     OW31984   3.481   0.168   1.687 -0.0271 -0.2890 -0.0119
 6783SOL    HW131985   3.446   0.081   1.667 -0.9060 -0.0373  0.4077
 6783SOL    HW231986   3.552   0.172   1.623  0.1979  0.1494  0.2710
 6784SOL     OW31987   4.553   2.276  13.027  0.1353  0.4456  0.1420
 6784SOL    HW131988   4.503   2.210  13.074  1.9322 -1.0120  0.0046
 6784SOL    HW231989   4.534   2.357  13.076  2.0595  0.2155  1.2828
 6785SOL     OW31990   4.234   0.513  16.589 -0.7340  0.0564 -0.1372
 6785SOL    HW131991   4.276   0.540  16.671 -0.0260  0.7747 -0.7336
 6785SOL    HW231992   4.242   0.418  16.588  0.5675  0.1946 -1.8273
 6786SOL     OW31993   2.934   3.536   5.448  0.1691 -0.2301  0.4822
 6786SOL    HW131994   3.021   3.543   5.409 -0.2377  1.3599 -0.1266
 6786SOL    HW231995   2.901   3.625   5.442 -0.2519 -0.3937  0.3460
 6787SOL     OW31996   1.791   2.938   5.687 -0.7378 -0.2395  0.1678
 6787SOL    HW131997   1.767   3.011   5.630 -0.3359 -0.9285 -0.8894
 6787SOL    HW231998   1.714   2.889   5.717 -0.8332 -0.3160 -0.1985
 6788SOL     OW31999   1.659   0.296   5.308 -0.3143 -0.3270  1.0829
 6788SOL    HW132000   1.617   0.295   5.394  0.8562  1.6740  1.6843
 6788SOL    HW232001   1.579   0.292   5.254  0.4291  4.1696 -0.3456
 6789SOL     OW32002   0.830   3.333   0.977  0.6098 -0.0386  0.0316
 6789SOL    HW132003   0.770   3.328   1.052  0.7635 -1.2687  0.0736
 6789SOL    HW232004   0.873   3.419   0.982  1.9032 -0.7620  1.3206
 6790SOL     OW32005   1.794   3.793   1.838  0.0894 -0.3741 -0.0489
 6790SOL    HW132006   1.720   3.782   1.778  0.1569 -1.0594 -0.0073
 6790SOL    HW232007   1.838   3.857   1.783 -2.4182  0.3581 -1.1894
 6791SOL     OW32008   4.523   2.214   1.280  0.2381  0.0703  0.1175
 6791SOL    HW132009   4.507   2.256   1.195  1.8161  4.1593  1.8733
 6791SOL    HW232010   4.440   2.227   1.326  0.0097  2.7315 -1.0217
 6792SOL     OW32011   0.616   3.543   3.875  0.3618 -0.2481 -0.8837
 6792SOL    HW132012   0.611   3.447   3.878 -2.6781 -0.1430 -1.6026
 6792SOL    HW232013   0.667   3.553   3.955 -1.9830  0.4616  0.5342
 6793SOL     OW32014   0.019   4.535  16.000 -0.6323  0.1375 -0.5791
 6793SOL    HW132015   0.013   4.623  15.962 -1.0378  0.1735 -0.4400
 6793SOL    HW232016   0.108   4.517  15.971 -1.3058 -3.0074 -0.6464
 6794SOL     OW32017   2.274   1.307   1.539  0.6005  0.2496  0.2274
 6794SOL    HW132018   2.326   1.344   1.467  1.9369 -2.0766  0.0177
 6794SOL    HW232019   2.201   1.367   1.554  0.1456  0.0042 -1.0875
 6795SOL     OW32020   4.452   0.524   5.438 -0.3268  0.2397  0.2933
 6795SOL    HW132021   4.446   0.461   5.510  1.0384  0.4039  0.5553
 6795SOL    HW232022   4.403   0.598   5.477 -0.1962  0.7653 -0.5449
 6796SOL     OW32023   3.950   3.931  16.832  0.7140  0.6366  0.0233
 6796SOL    HW132024   3.961   3.932  16.927 -1.2253 -1.6935  0.2586
 6796SOL    HW232025   3.862   3.896  16.817  0.0617  3.1069 -1.8879
 6797SOL     OW32026   0.271   0.310   1.801 -0.0111  0.2130  0.5445
 6797SOL    HW132027   0.306   0.282   1.716  0.4674 -0.2152  0.8888
 6797SOL    HW232028   0.334   0.379   1.822  0.2204  0.1022  0.2229
 6798SOL     OW32029   1.679   2.897  13.654 -0.4613  0.6357 -0.5077
 6798SOL    HW132030   1.599   2.849  13.672 -0.0891 -0.3741 -1.5468
 6798SOL    HW232031   1.733   2.832  13.610  0.7679 -0.3041  2.3941
 6799SOL     OW32032   1.946   1.593   7.092 -0.1553  0.1606  0.3672
 6799SOL    HW132033   2.002   1.629   7.162 -3.1340  0.0736  2.7740
 6799SOL    HW232034   1.879   1.659   7.076 -0.1792 -0.4147 -1.8994
 6800SOL     OW32035   3.511   2.376   1.827 -0.0151 -0.2661 -0.6178
 6800SOL    HW132036   3.442   2.347   1.886  0.3128 -0.5018 -0.3558
 6800SOL    HW232037   3.454   2.383   1.750  1.3594  0.6319 -1.5497
 6801SOL     OW32038   3.388   1.054   8.522 -0.6048 -0.7579 -0.0457
 6801SOL    HW132039   3.356   1.071   8.434 -1.5489 -1.4644  0.1567
 6801SOL    HW232040   3.358   0.964   8.536  0.4338 -0.9002  1.3292
 6802SOL     OW32041   1.813   4.541   5.556 -0.2279  0.2169 -0.0808
 6802SOL    HW132042   1.767   4.458   5.564 -2.0410  1.3195  0.8830
 6802SOL    HW232043   1.805   4.551   5.461 -0.7612 -2.8028 -0.3271
 6803SOL     OW32044   2.589   3.866   5.127 -0.5868 -0.0708 -0.1111
 6803SOL    HW132045   2.610   3.943   5.180  2.5959 -0.0164 -1.4617
 6803SOL    HW232046   2.534   3.818   5.189 -0.1179 -0.0853  0.3006
 6804SOL     OW32047   4.641   3.499   4.418 -0.2775  0.0188 -0.8617
 6804SOL    HW132048   4.550   3.472   4.406 -1.1777  2.1790  1.1450
 6804SOL    HW232049   4.681   3.413   4.406  1.7452  1.1646 -2.3876
 6805SOL     OW32050   2.432   4.040  14.776  0.2355  0.0922 -0.0923
 6805SOL    HW132051   2.347   4.075  14.802  0.3593 -0.2022  0.7283
 6805SOL    HW232052   2.474   4.043  14.862 -0.9770  1.2048  0.4560
 6806SOL     OW32053   0.824   0.484   8.391  0.1250 -0.5890  0.2517
 6806SOL    HW132054   0.729   0.496   8.384  0.6251  2.5323 -1.5946
 6806SOL    HW232055   0.856   0.502   8.302  1.3496 -1.5167  0.5096
 6807SOL     OW32056   4.437   0.400  16.355  0.8087 -0.0208 -0.0165
 6807SOL    HW132057   4.395   0.332  16.408  2.1215 -0.2387  0.7363
 6807SOL    HW232058   4.503   0.434  16.415  2.2742 -2.4712 -0.2522
 6808SOL     OW32059   0.921   1.239   2.979 -0.1293  0.8002 -0.2960
 6808SOL    HW132060   1.016   1.229   2.987 -0.0835  1.6645  0.2082
 6808SOL    HW232061   0.915   1.333   2.964  0.8729  1.5434  4.0515
 6809SOL     OW32062   2.505   0.035  10.497 -0.0107 -0.2415 -0.1498
 6809SOL    HW132063   2.441   0.091  10.451  1.1255  1.1572 -0.0287
 6809SOL    HW232064   2.556   0.101  10.545  2.0444 -0.4714 -2.0318
 6810SOL     OW32065   4.349   2.049  11.425  0.0078 -0.2092  0.2706
 6810SOL    HW132066   4.370   2.009  11.341  0.1542 -1.4746  0.9182
 6810SOL    HW232067   4.355   2.135  11.383  1.7313 -0.1558  0.6396
 6811SOL     OW32068   3.955   3.271   6.727  0.1185 -0.0659  0.5626
 6811SOL    HW132069   3.877   3.316   6.759  0.2799  0.8044 -0.2906
 6811SOL    HW232070   3.985   3.329   6.658 -2.4547  0.1602 -0.3711
 6812SOL     OW32071   0.853   3.498   8.677 -0.1356  0.1089  0.8490
 6812SOL    HW132072   0.824   3.471   8.764  0.2492 -0.2924  0.8531
 6812SOL    HW232073   0.834   3.421   8.623 -1.6379 -0.1851  1.7967
 6813SOL     OW32074   1.680   1.152   6.045  0.5969  0.0649  0.6603
 6813SOL    HW132075   1.756   1.096   6.029 -1.3545 -2.0215 -1.2920
 6813SOL    HW232076   1.613   1.099   6.002  1.2550  1.2107 -1.7878
 6814SOL     OW32077   2.338   3.520   5.688  1.0531 -0.6767 -0.7730
 6814SOL    HW132078   2.268   3.473   5.643 -2.9868  2.4067  2.3218
 6814SOL    HW232079   2.366   3.453   5.751 -0.9878  0.2667  1.1254
 6815SOL     OW32080   2.070   4.448   5.531  0.4637 -0.0612  0.5514
 6815SOL    HW132081   2.004   4.506   5.568 -0.3402 -0.9498  0.5050
 6815SOL    HW232082   2.032   4.365   5.558  1.5146 -0.7179 -0.0083
 6816SOL     OW32083   2.571   1.807   2.799  0.0229  0.2709 -0.2571
 6816SOL    HW132084   2.555   1.892   2.838 -1.9706  0.9337 -2.4963
 6816SOL    HW232085   2.651   1.788   2.847  2.0776  1.5816 -3.1697
 6817SOL     OW32086   0.920   1.962   4.684 -0.3834 -0.0366  0.1678
 6817SOL    HW132087   1.013   1.951   4.666 -0.3272 -0.3497  0.6559
 6817SOL    HW232088   0.922   1.995   4.774  2.2307 -2.2907  0.9424
 6818SOL     OW32089   2.051   1.829  10.636 -0.2967  0.2408 -0.2860
 6818SOL    HW132090   2.052   1.924  10.650 -0.7265  0.5423 -2.3510
 6818SOL    HW232091   2.136   1.808  10.596 -0.3037 -1.3563  0.5308
 6819SOL     OW32092   1.061   3.184   1.715 -0.1048  0.4342 -0.6330
 6819SOL    HW132093   0.977   3.224   1.693 -0.2105  0.0166 -0.9960
 6819SOL    HW232094   1.121   3.243   1.670 -1.4061  1.5120 -0.9439
 6820SOL     OW32095   2.010   2.889   4.966 -0.4780 -0.5579  0.2457
 6820SOL    HW132096   2.095   2.862   5.001  0.0846 -0.7405 -1.2769
 6820SOL    HW232097   1.968   2.915   5.048 -1.2780  2.9119 -1.2741
 6821SOL     OW32098   1.853   0.329   8.838  0.1109 -0.2136  0.5471
 6821SOL    HW132099   1.897   0.411   8.820 -1.5539  0.5683 -0.0165
 6821SOL    HW232100   1.909   0.277   8.896  0.8227  1.4309  1.3242
 6822SOL     OW32101   1.511   4.004  16.064 -0.0037  0.1980 -0.0819
 6822SOL    HW132102   1.584   4.049  16.106 -1.5620  0.9787  1.7536
 6822SOL    HW232103   1.459   3.994  16.143  0.1313  2.1363  0.2392
 6823SOL     OW32104   3.836   1.450   7.376 -0.7128  0.5435 -0.3132
 6823SOL    HW132105   3.845   1.355   7.376 -0.1305  0.6054  1.5980
 6823SOL    HW232106   3.872   1.473   7.462 -2.7747 -1.8641  1.1822
 6824SOL     OW32107   2.384   2.620   9.885 -0.3243 -0.0680  0.1087
 6824SOL    HW132108   2.345   2.576   9.810 -0.9263  1.1804 -0.3056
 6824SOL    HW232109   2.348   2.708   9.894  0.7246  0.2609  1.1703
 6825SOL     OW32110   0.685   0.145  16.520  0.4501 -0.0500  0.0223
 6825SOL    HW132111   0.684   0.084  16.447 -0.5580  0.9852 -0.8267
 6825SOL    HW232112   0.778   0.170  16.524  0.5511 -0.5849  1.0633
 6826SOL     OW32113   1.241   4.315   8.917  0.0756 -0.0177  0.2813
 6826SOL    HW132114   1.169   4.253   8.916  0.7448 -0.7993  1.4653
 6826SOL    HW232115   1.206   4.381   8.857  1.8652 -0.2410 -1.0472
 6827SOL     OW32116   1.275   2.297  12.498  0.0059  0.1450 -0.4695
 6827SOL    HW132117   1.222   2.245  12.559 -0.4715  1.0283 -0.1269
 6827SOL    HW232118   1.365   2.287  12.530 -0.5105 -0.7684  0.7178
 6828SOL     OW32119   0.767   4.034   5.334 -0.1355  0.2779 -0.2866
 6828SOL    HW132120   0.777   4.095   5.262 -1.8152  2.4529  1.2941
 6828SOL    HW232121   0.697   4.077   5.384 -1.1340  1.9009 -3.0700
 6829SOL     OW32122   0.717   1.628   1.896 -0.1617  0.2265 -0.1118
 6829SOL    HW132123   0.805   1.667   1.898 -0.6207  1.2451 -0.1624
 6829SOL    HW232124   0.671   1.703   1.859  2.9797  1.1051 -2.2214
 6830SOL     OW32125   2.037   0.637   0.570  0.9639 -0.1633  0.2564
 6830SOL    HW132126   2.102   0.690   0.525 -1.9113  1.3460 -2.1169
 6830SOL    HW232127   2.056   0.681   0.653  0.5416 -1.4424  1.0275
 6831SOL     OW32128   4.463   4.735   2.829  0.4424 -0.7071  0.0217
 6831SOL    HW132129   4.470   4.653   2.781  1.1672 -0.6915  0.1135
 6831SOL    HW232130   4.502   0.062   2.770 -1.1649  1.3760  1.1749
 6832SOL     OW32131   1.033   1.641   9.775  0.1407 -0.0891 -0.2433
 6832SOL    HW132132   0.962   1.641   9.839 -1.0898 -0.0491 -1.6208
 6832SOL    HW232133   1.002   1.571   9.717 -3.7133  1.6289 -0.2041
 6833SOL     OW32134   0.586   0.925   5.392  0.2412 -0.1677  0.5169
 6833SOL    HW132135   0.667   0.963   5.426 -0.3603  0.6439  1.0413
 6833SOL    HW232136   0.621   0.842   5.360  2.0699  1.5996 -2.1347
 6834SOL     OW32137   0.018   4.434   2.733  0.0336  0.0963  0.4758
 6834SOL    HW132138   0.035   4.520   2.693  0.8115 -0.0557  0.4807
 6834SOL    HW232139   0.095   4.386   2.706  0.7597  0.9169  1.0854
 6835SOL     OW32140   3.793   0.299  17.499  0.4758 -0.3096  0.0022
 6835SOL    HW132141   3.707   0.299  17.540  0.7774 -0.6117  0.6426
 6835SOL    HW232142   3.793   0.215  17.453  1.9299 -0.0060 -0.5531
 6836SOL     OW32143   1.180   0.122   2.976 -0.3083  0.9445  0.1012
 6836SOL    HW132144   1.169   0.058   3.046 -1.1185  0.1010 -0.7972
 6836SOL    HW232145   1.236   0.076   2.913 -0.9487  1.5928 -0.9477
 6837SOL     OW32146   3.699   3.682   5.800  0.6693  0.3696 -0.3587
 6837SOL    HW132147   3.750   3.678   5.880 -0.3113  0.3412  0.2695
 6837SOL    HW232148   3.661   3.594   5.800  0.8930  0.2642 -2.7441
 6838SOL     OW32149   0.078   1.473  13.417  0.3463  0.1990 -0.3087
 6838SOL    HW132150   0.161   1.522  13.420 -0.0225  0.7693  0.9429
 6838SOL    HW232151   0.005   1.532  13.438 -0.1657  0.2021 -2.1609
 6839SOL     OW32152   0.258   1.523  14.288  0.7104  0.6102 -0.6065
 6839SOL    HW132153   0.343   1.485  14.264  0.6053  1.0231 -1.6156
 6839SOL    HW232154   0.278   1.582  14.361  0.2832  2.0094 -1.6387
 6840SOL     OW32155   0.876   1.498   3.446 -0.0963  0.4424 -0.4668
 6840SOL    HW132156   0.812   1.568   3.460  0.9617  1.6156 -1.5947
 6840SOL    HW232157   0.944   1.547   3.492 -0.5366  0.1782  0.4760
 6841SOL     OW32158   1.355   0.091   2.770  0.2620 -0.2124  0.0504
 6841SOL    HW132159   1.316   0.042   2.698 -3.4865  1.2758  1.0725
 6841SOL    HW232160   1.402   0.020   2.814 -2.6178 -1.9532  0.3040
 6842SOL     OW32161   3.869   0.473  13.892 -0.3036  0.1599 -0.2105
 6842SOL    HW132162   3.939   0.415  13.863 -0.0416  0.4680 -0.1849
 6842SOL    HW232163   3.882   0.548  13.834  0.2383 -0.6487 -1.1265
 6843SOL     OW32164   2.234   4.228   8.236 -0.3527  0.2118  0.2484
 6843SOL    HW132165   2.158   4.176   8.210  0.2209 -1.2104  1.3443
 6843SOL    HW232166   2.267   4.248   8.149 -2.0064 -1.3715 -0.7399
 6844SOL     OW32167   2.257   2.854   5.431  0.1010  0.4443  0.3921
 6844SOL    HW132168   2.313   2.882   5.358  0.1308  1.2174  0.7073
 6844SOL    HW232169   2.170   2.850   5.393 -0.3718 -0.8644  1.6641
 6845SOL     OW32170   3.616   4.005   5.386  0.1757  0.7717  0.6002
 6845SOL    HW132171   3.531   3.994   5.343  0.9037  1.4418 -1.0124
 6845SOL    HW232172   3.636   4.093   5.355  3.8965 -0.6288 -0.9839
 6846SOL     OW32173   3.623   1.080   8.358 -0.6497 -0.2491 -0.3658
 6846SOL    HW132174   3.591   1.139   8.289 -0.8839 -0.0841 -0.1155
 6846SOL    HW232175   3.563   1.106   8.427 -0.2905  0.0848 -0.1813
 6847SOL     OW32176   1.963   2.469   0.998 -0.7222 -0.0665 -0.1939
 6847SOL    HW132177   1.976   2.375   0.989  2.3604  0.4695 -1.3140
 6847SOL    HW232178   1.936   2.490   0.909 -0.5125 -0.4273 -0.3421
 6848SOL     OW32179   3.501   0.007   6.633 -0.1000  0.2375  0.1282
 6848SOL    HW132180   3.451   4.735   6.552 -0.0794  1.5913 -0.0304
 6848SOL    HW232181   3.540   0.094   6.632  3.4806 -1.3252  2.8324
 6849SOL     OW32182   2.740   3.826  15.725 -0.3080  0.1733  0.4567
 6849SOL    HW132183   2.700   3.809  15.639  1.2951 -0.2879 -0.2080
 6849SOL    HW232184   2.718   3.918  15.732 -0.0713  0.2469  0.2477
 6850SOL     OW32185   3.401   3.768   6.726 -0.4063 -0.2279 -0.0883
 6850SOL    HW132186   3.418   3.860   6.750  0.1471 -0.3429 -0.0277
 6850SOL    HW232187   3.307   3.770   6.746 -0.3654 -0.5214  0.1298
 6851SOL     OW32188   2.703   0.465  11.064 -0.6271  0.5038 -0.6825
 6851SOL    HW132189   2.631   0.449  11.003 -0.1153 -1.1463 -0.8586
 6851SOL    HW232190   2.741   0.543  11.026  0.3205  0.2813 -0.1797
 6852SOL     OW32191   4.574   3.735  13.567  0.4422 -0.1608  0.3036
 6852SOL    HW132192   4.666   3.743  13.595  0.1863 -0.2082  1.1553
 6852SOL    HW232193   4.532   3.775  13.643 -0.5183 -1.4584  0.4478
 6853SOL     OW32194   4.059   0.995   4.586  0.4267 -0.3347  0.5363
 6853SOL    HW132195   4.119   1.050   4.635  0.5886 -0.3789  0.3865
 6853SOL    HW232196   4.051   1.034   4.499 -0.1143 -0.0699  0.7033
 6854SOL     OW32197   1.011   1.964   3.161  0.3356 -0.1570  0.0082
 6854SOL    HW132198   1.030   1.913   3.240  0.6678  1.1037  0.7356
 6854SOL    HW232199   0.944   2.025   3.193  1.3187  1.4534 -1.0296
 6855SOL     OW32200   3.735   0.050   5.619  0.0355  0.1928 -0.2790
 6855SOL    HW132201   3.778   0.049   5.533 -2.2797  0.1849 -1.4386
 6855SOL    HW232202   3.644   0.060   5.594  0.6711  1.2798 -2.1079
 6856SOL     OW32203   4.390   2.153   4.843 -0.0381 -0.0948  0.4358
 6856SOL    HW132204   4.415   2.245   4.849 -1.4827  0.2269  1.6551
 6856SOL    HW232205   4.367   2.144   4.936 -1.6137  0.5928  0.1147
 6857SOL     OW32206   2.721   4.051   6.575  0.5012 -0.1180  0.3291
 6857SOL    HW132207   2.774   4.128   6.551 -2.1302  1.8224  0.8002
 6857SOL    HW232208   2.634   4.075   6.544  0.6282  1.1005  0.9108
 6858SOL     OW32209   2.356   3.480   9.010 -0.2462  0.0791  0.2270
 6858SOL    HW132210   2.366   3.502   9.103 -1.4897 -1.3980  0.7164
 6858SOL    HW232211   2.265   3.455   8.994  0.0162 -0.9156  0.2572
 6859SOL     OW32212   4.412   3.964   4.708  0.1845 -0.4675 -0.0801
 6859SOL    HW132213   4.363   4.023   4.765  2.3931  2.2523 -0.9597
 6859SOL    HW232214   4.442   4.028   4.643  0.6080  0.5391  1.1136
 6860SOL     OW32215   3.077   3.276   3.593 -0.1592  0.0603 -0.5276
 6860SOL    HW132216   3.069   3.308   3.683  1.3854 -0.4353 -0.2139
 6860SOL    HW232217   3.003   3.216   3.584 -0.7390  0.6112  0.5738
 6861SOL     OW32218   0.342   2.730   5.826  0.3744  0.1033  0.4950
 6861SOL    HW132219   0.355   2.679   5.907 -1.1293 -1.0726 -0.0095
 6861SOL    HW232220   0.393   2.810   5.841 -1.0242  1.3951 -1.7443
 6862SOL     OW32221   4.428   3.138   8.013 -0.0814 -0.5824 -0.1100
 6862SOL    HW132222   4.351   3.190   7.990 -0.0174 -0.3698  0.1483
 6862SOL    HW232223   4.404   3.051   7.983  1.0897 -1.5044  1.6228
 6863SOL     OW32224   0.055   2.926  14.501  0.2567 -0.0747 -0.9193
 6863SOL    HW132225   0.133   2.976  14.475  0.1544 -0.0101 -1.1005
 6863SOL    HW232226   0.007   2.928  14.418 -1.7181  1.4893  0.2562
 6864SOL     OW32227   1.755   1.680   3.522 -0.0869  0.4821  0.4459
 6864SOL    HW132228   1.663   1.703   3.534 -0.5429 -1.2364  0.3570
 6864SOL    HW232229   1.767   1.651   3.432  1.4366  0.8410  0.5310
 6865SOL     OW32230   1.914   2.295   2.779  0.1246 -0.2806  0.1626
 6865SOL    HW132231   1.955   2.297   2.692  1.7064 -0.1523  0.9277
 6865SOL    HW232232   1.844   2.358   2.763  1.1784  0.8334 -0.0618
 6866SOL     OW32233   4.155   3.138   6.853  0.3665 -0.3898  0.1908
 6866SOL    HW132234   4.191   3.086   6.780 -0.5815  0.6023 -0.9657
 6866SOL    HW232235   4.106   3.209   6.813 -1.9376 -1.9520  0.2765
 6867SOL     OW32236   4.093   1.488  12.163 -0.4225  0.3232  0.0024
 6867SOL    HW132237   4.106   1.556  12.229  1.8961 -0.0183 -0.1221
 6867SOL    HW232238   4.166   1.507  12.105 -1.0743 -0.6957 -1.1409
 6868SOL     OW32239   4.687   1.446   0.988 -0.1346  0.7869  0.2363
 6868SOL    HW132240   4.623   1.444   1.059 -1.9756  2.8899 -1.3639
 6868SOL    HW232241   4.621   1.479   0.927  0.6308  1.8292 -0.0395
 6869SOL     OW32242   1.926   3.742  14.973 -0.1446  0.0638  0.4534
 6869SOL    HW132243   1.969   3.665  14.935 -0.5692 -0.1704  0.4538
 6869SOL    HW232244   1.984   3.755  15.049  1.2957 -0.0622 -0.6261
 6870SOL     OW32245   1.909   1.581   9.333 -0.3540  0.1036 -0.0196
 6870SOL    HW132246   1.962   1.571   9.412 -0.5776 -0.4272  0.0669
 6870SOL    HW232247   1.961   1.516   9.286 -0.0226  0.9224 -0.7651
 6871SOL     OW32248   3.487   0.774   6.299 -0.1383 -0.0826  0.0323
 6871SOL    HW132249   3.554   0.736   6.356 -0.5520 -0.3850  0.3150
 6871SOL    HW232250   3.540   0.803   6.224  0.8164 -2.0614 -0.0545
 6872SOL     OW32251   2.633   2.990  17.282 -0.0188  0.2560  0.3999
 6872SOL    HW132252   2.590   2.934  17.346 -3.4300  4.0403  1.3454
 6872SOL    HW232253   2.675   3.059  17.333  1.3122 -0.9240  0.9253
 6873SOL     OW32254   3.201   4.445  17.230 -0.3627  0.8862  0.1761
 6873SOL    HW132255   3.159   4.490  17.157 -0.6909 -1.4855 -1.1281
 6873SOL    HW232256   3.260   4.513  17.261 -0.8345  0.2454  2.4674
 6874SOL     OW32257   4.135   3.741   9.657 -0.2251 -0.2983  0.5713
 6874SOL    HW132258   4.073   3.748   9.729 -0.8102  0.2181  0.0145
 6874SOL    HW232259   4.212   3.694   9.691  1.0607  0.3904 -1.3820
 6875SOL     OW32260   4.164   3.815   8.460  0.6441 -0.6390  0.1982
 6875SOL    HW132261   4.106   3.890   8.451 -0.4411 -1.4242  0.6657
 6875SOL    HW232262   4.245   3.855   8.427  1.2717 -0.0178  2.5424
 6876SOL     OW32263   3.578   0.421   4.313 -0.5926 -1.0400  0.5959
 6876SOL    HW132264   3.545   0.348   4.366  0.1061 -0.1686  2.2113
 6876SOL    HW232265   3.672   0.407   4.321 -0.0832  0.7436 -2.1770
 6877SOL     OW32266   3.786   2.922   7.158 -0.2811  0.5145 -0.3237
 6877SOL    HW132267   3.766   3.001   7.209 -1.1552  1.0432 -1.4802
 6877SOL    HW232268   3.754   2.846   7.207  2.6187 -0.6695 -0.2597
 6878SOL     OW32269   1.235   4.633   8.905 -0.3198 -0.1063  0.6046
 6878SOL    HW132270   1.258   4.687   8.981 -1.9317  1.7366 -0.2295
 6878SOL    HW232271   1.185   4.560   8.942 -0.5505 -0.1930  0.1318
 6879SOL     OW32272   1.672   3.013   4.559  0.1662 -0.1054 -0.5310
 6879SOL    HW132273   1.593   3.048   4.600 -0.1507 -0.4153 -0.8744
 6879SOL    HW232274   1.715   3.020   4.644  0.7334  0.8618 -0.9049
 6880SOL     OW32275   2.935   3.901   9.496 -0.4395  0.0079 -0.2306
 6880SOL    HW132276   2.871   3.958   9.539  0.9274  0.4119  1.2544
 6880SOL    HW232277   2.882   3.822   9.489  1.6752 -1.3428 -0.9488
 6881SOL     OW32278   1.683   4.196  16.406  0.0117 -0.0391  0.8109
 6881SOL    HW132279   1.666   4.198  16.312 -0.7440 -1.6204  0.9157
 6881SOL    HW232280   1.672   4.288  16.432  0.0389  0.3557 -0.5328
 6882SOL     OW32281   0.123   4.630   5.535  0.5842  0.0551  0.2530
 6882SOL    HW132282   0.123   4.617   5.629  1.2872 -0.9270  0.1188
 6882SOL    HW232283   0.106   4.724   5.528  0.2184 -0.0545 -0.3653
 6883SOL     OW32284   4.310   4.226   7.776  0.6760  0.2783 -0.1476
 6883SOL    HW132285   4.405   4.227   7.767  0.6119  1.3218 -0.6410
 6883SOL    HW232286   4.296   4.316   7.804  2.2787  0.5393 -0.2112
 6884SOL     OW32287   4.178   1.230   0.617 -0.3735  0.1026  0.2105
 6884SOL    HW132288   4.148   1.160   0.676  0.9051 -1.5211 -1.0706
 6884SOL    HW232289   4.139   1.205   0.533 -1.3460  2.3910 -0.0211
 6885SOL     OW32290   2.119   0.795   1.894  0.4738 -0.6080 -0.2341
 6885SOL    HW132291   2.075   0.878   1.874  0.0853 -0.4349  1.3804
 6885SOL    HW232292   2.163   0.775   1.811 -1.9864 -0.5717 -1.5723
 6886SOL     OW32293   1.077   3.559   3.834 -0.3433 -0.0678 -0.4620
 6886SOL    HW132294   1.026   3.626   3.878  0.4285  0.9321 -1.0889
 6886SOL    HW232295   1.165   3.591   3.854  0.5081 -2.3693 -0.4752
 6887SOL     OW32296   0.069   2.144  12.386 -0.0701  0.0093 -0.0862
 6887SOL    HW132297   4.735   2.180  12.439  0.3963  0.0514  0.5192
 6887SOL    HW232298   0.134   2.118  12.452 -0.5881 -0.9624  0.0381
 6888SOL     OW32299   2.433   0.285  10.186  0.3730 -0.0075 -0.4757
 6888SOL    HW132300   2.364   0.280  10.120  0.4380 -1.7916 -0.4036
 6888SOL    HW232301   2.387   0.334  10.254 -1.7084 -0.3772 -1.6271
 6889SOL     OW32302   0.165   0.242   3.028  0.0613 -0.2585  0.0419
 6889SOL    HW132303   0.202   0.198   3.105  1.4310  2.6232  1.0145
 6889SOL    HW232304   0.104   0.176   2.994  0.7130 -0.6901 -0.2898
 6890SOL     OW32305   2.113   2.595   7.541  0.4374  0.0238 -0.2454
 6890SOL    HW132306   2.107   2.526   7.475 -0.9748  0.7944 -0.9138
 6890SOL    HW232307   2.095   2.678   7.498  0.1548  0.5680  0.9352
 6891SOL     OW32308   4.610   4.634   8.896  0.4848 -0.0054 -0.1603
 6891SOL    HW132309   4.664   4.573   8.846 -2.5834 -3.4444  0.7894
 6891SOL    HW232310   4.577   4.573   8.961 -1.6070  0.7659 -0.5154
 6892SOL     OW32311   4.292   3.809   6.988 -0.3896 -0.3132 -0.4951
 6892SOL    HW132312   4.216   3.846   6.943 -0.6073 -0.3838 -0.1940
 6892SOL    HW232313   4.247   3.749   7.048  0.8168  0.9347  1.6359
 6893SOL     OW32314   1.314   3.064  10.142  0.8785  0.4860 -0.8760
 6893SOL    HW132315   1.384   3.069  10.207  0.1763  0.6274 -0.1279
 6893SOL    HW232316   1.360   3.054  10.059 -3.7180 -4.5819 -2.7734
 6894SOL     OW32317   3.891   1.986   4.479  0.2479 -0.9290 -0.3383
 6894SOL    HW132318   3.966   1.996   4.537 -1.5287  1.6455  1.4733
 6894SOL    HW232319   3.844   1.916   4.526 -2.9095  1.2353 -0.2947
 6895SOL     OW32320   0.069   2.606   9.586  0.4492  0.4503 -0.2436
 6895SOL    HW132321   0.150   2.647   9.617  0.5125  0.8207 -0.9064
 6895SOL    HW232322   0.090   2.514   9.605 -1.1257  0.8409  3.3710
 6896SOL     OW32323   0.110   1.127   7.603  0.0297  0.4746 -0.4403
 6896SOL    HW132324   0.080   1.052   7.551  2.6987 -1.6834  1.0935
 6896SOL    HW232325   0.195   1.089   7.624  0.0110 -0.2328 -1.6290
 6897SOL     OW32326   1.082   0.085   5.407  0.2163  0.5780  0.2669
 6897SOL    HW132327   1.132   0.014   5.368  0.6486 -0.1267  2.0829
 6897SOL    HW232328   1.145   0.143   5.451 -0.1965 -0.3575  2.0723
 6898SOL     OW32329   4.594   4.262   7.756  0.2721  0.2023 -0.1832
 6898SOL    HW132330   4.562   4.269   7.846  2.0907 -2.7036  0.6833
 6898SOL    HW232331   4.641   4.345   7.747 -1.1916  0.9904 -0.6556
 6899SOL     OW32332   1.075   1.325   2.231 -0.3828 -0.0001  0.3709
 6899SOL    HW132333   1.169   1.327   2.244 -0.2700 -0.1026 -0.4236
 6899SOL    HW232334   1.048   1.375   2.308  0.6343 -0.2024  0.8533
 6900SOL     OW32335   2.890   0.512   7.783 -0.7335 -0.1698  0.0719
 6900SOL    HW132336   2.940   0.538   7.706 -0.6216 -0.7777 -0.0605
 6900SOL    HW232337   2.813   0.473   7.743 -0.6606  0.1914 -0.4205
 6901SOL     OW32338   3.615   1.377   6.673 -0.5238 -0.0281  0.0662
 6901SOL    HW132339   3.707   1.357   6.688 -0.9184  0.0643  2.5767
 6901SOL    HW232340   3.603   1.442   6.742  1.2770  1.3270 -0.9028
 6902SOL     OW32341   0.412   0.256  16.539  0.4424 -0.1085  0.5313
 6902SOL    HW132342   0.397   0.292  16.627  1.1483 -0.0626  0.6332
 6902SOL    HW232343   0.501   0.220  16.547  0.7579  0.3098 -1.0999
 6903SOL     OW32344   4.274   4.168   4.819 -0.1110 -0.0451 -0.2737
 6903SOL    HW132345   4.230   4.234   4.873  0.4553  1.3013 -1.4577
 6903SOL    HW232346   4.341   4.230   4.790  0.8454 -0.4975  0.9676
 6904SOL     OW32347   0.325   0.465  12.026  0.0440  0.2762  0.4951
 6904SOL    HW132348   0.367   0.507  11.951  1.1565  2.2866  2.2627
 6904SOL    HW232349   0.237   0.501  12.017 -0.5947 -1.5525 -0.6392
 6905SOL     OW32350   2.493   4.167  11.157  0.3587  0.0799 -0.5229
 6905SOL    HW132351   2.548   4.232  11.113 -0.4726  1.5472  0.6051
 6905SOL    HW232352   2.442   4.122  11.090 -1.5550 -0.2340  1.1652
 6906SOL     OW32353   2.443   1.035   8.526 -0.7787  0.5617  0.7392
 6906SOL    HW132354   2.391   0.955   8.519 -0.8220  0.3935  3.0168
 6906SOL    HW232355   2.529   1.005   8.555 -0.6884 -0.2426 -0.3665
 6907SOL     OW32356   1.120   4.304   8.304 -0.1003 -0.2573  0.3722
 6907SOL    HW132357   1.150   4.313   8.213 -2.2531  3.0934  0.0177
 6907SOL    HW232358   1.171   4.230   8.338  0.4523 -0.3788 -0.7169
 6908SOL     OW32359   1.615   2.058   4.579 -0.6475 -0.9357 -0.4110
 6908SOL    HW132360   1.590   2.050   4.487 -0.2414  0.7084 -0.6528
 6908SOL    HW232361   1.668   1.980   4.596  1.1464  0.2471 -0.6229
 6909SOL     OW32362   2.565   2.735   5.161 -0.4781  0.5737  0.4409
 6909SOL    HW132363   2.650   2.755   5.199 -0.6410 -0.3017  1.2871
 6909SOL    HW232364   2.538   2.679   5.234  1.1675 -1.1247 -0.2436
 6910SOL     OW32365   3.878   4.372  11.648  0.4319  0.3236  0.3460
 6910SOL    HW132366   3.847   4.422  11.724 -2.8539 -0.8566 -0.2669
 6910SOL    HW232367   3.798   4.331  11.616  1.1555 -0.1535 -0.8620
 6911SOL     OW32368   3.510   0.690   6.824  0.5406 -0.0668 -0.0467
 6911SOL    HW132369   3.542   0.764   6.773  1.9259  1.1367  2.5822
 6911SOL    HW232370   3.497   0.626   6.754 -1.6435 -0.9169  1.1524
 6912SOL     OW32371   3.557   2.954   3.802  0.5787 -0.0164 -0.0015
 6912SOL    HW132372   3.466   2.929   3.818  0.5763  0.6690  1.0910
 6912SOL    HW232373   3.594   2.866   3.798 -1.1457 -0.8075  1.4486
 6913SOL     OW32374   3.871   1.663  15.960  0.0473  0.1940 -0.2927
 6913SOL    HW132375   3.862   1.573  15.989  1.7347  0.1082 -0.0893
 6913SOL    HW232376   3.900   1.646  15.871  2.9804 -0.6943  0.8477
 6914SOL     OW32377   4.523   0.930   0.999 -0.5614  0.1171  0.9516
 6914SOL    HW132378   4.473   0.898   0.924  1.7081  0.5405 -0.7141
 6914SOL    HW232379   4.607   0.908   0.960 -0.7034  1.2971 -0.0237
 6915SOL     OW32380   0.702   2.023   0.690 -0.0168  0.6339 -0.1941
 6915SOL    HW132381   0.674   2.079   0.762 -2.8007 -1.9549  0.7015
 6915SOL    HW232382   0.658   1.939   0.704  0.5795  0.3251 -0.1266
 6916SOL     OW32383   0.465   4.677   3.674  0.0817  0.3148 -0.3918
 6916SOL    HW132384   0.462   0.021   3.623  0.7339  0.5781 -0.0018
 6916SOL    HW232385   0.510   4.612   3.621  0.9481 -1.0076  1.9849
 6917SOL     OW32386   3.462   3.504   7.450 -0.3400  0.5046  0.8069
 6917SOL    HW132387   3.394   3.437   7.456 -0.5572  0.8308  1.8734
 6917SOL    HW232388   3.483   3.484   7.358 -0.9207  0.8919  0.5952
 6918SOL     OW32389   0.040   1.662   0.546 -0.0738  0.2246  0.1285
 6918SOL    HW132390   4.724   1.598   0.594  2.0899 -1.3439  0.4883
 6918SOL    HW232391   0.113   1.604   0.524  0.5326  1.2500 -0.5183
 6919SOL     OW32392   3.956   4.378  15.480  0.6653 -0.7194 -0.3500
 6919SOL    HW132393   3.924   4.456  15.434  0.5340  0.0858  1.0726
 6919SOL    HW232394   3.920   4.308  15.427 -1.6908 -0.3493  0.7750
 6920SOL     OW32395   3.218   2.503   3.567  0.2301  0.5494  0.4661
 6920SOL    HW132396   3.150   2.440   3.544  1.8203 -0.5719 -1.2437
 6920SOL    HW232397   3.250   2.539   3.484 -0.7884  0.0039 -0.1572
 6921SOL     OW32398   1.874   3.942   5.390  0.0846  0.0385 -0.4342
 6921SOL    HW132399   1.802   3.882   5.370  0.0469  0.7623 -2.4866
 6921SOL    HW232400   1.900   3.899   5.471 -1.9407  1.8607  1.1946
 6922SOL     OW32401   1.400   2.718   6.101 -0.6542  0.8181 -0.4822
 6922SOL    HW132402   1.479   2.731   6.050  0.4328  2.3127  1.5841
 6922SOL    HW232403   1.327   2.735   6.041  0.0297  1.6312 -1.0661
 6923SOL     OW32404   2.517   3.240   0.593  0.1800 -0.1213  0.2976
 6923SOL    HW132405   2.507   3.224   0.499  1.7726  0.3736  0.0409
 6923SOL    HW232406   2.444   3.188   0.625  0.2921  0.3399  1.3081
 6924SOL     OW32407   3.009   2.648  11.209  0.0817 -0.3942 -0.0865
 6924SOL    HW132408   2.996   2.743  11.204 -1.3726 -0.6620 -1.3224
 6924SOL    HW232409   2.992   2.632  11.302 -1.5026 -0.1646 -0.3319
 6925SOL     OW32410   3.975   0.601  16.641  0.4985 -1.3059 -0.0403
 6925SOL    HW132411   3.919   0.526  16.662 -2.9796  0.9771 -1.0276
 6925SOL    HW232412   4.065   0.571  16.651  0.4813 -1.7365 -1.1294
 6926SOL     OW32413   2.555   0.557  13.815  1.1575  0.1227  0.7842
 6926SOL    HW132414   2.631   0.608  13.786  0.5554  0.4218 -0.2642
 6926SOL    HW232415   2.488   0.599  13.763  0.5248 -1.9621 -0.0902
 6927SOL     OW32416   1.048   0.885   7.101 -0.6221  0.5056 -0.6144
 6927SOL    HW132417   1.116   0.818   7.096  0.0773  1.0401  1.9816
 6927SOL    HW232418   1.044   0.911   7.009  0.8164  1.8338 -0.3034
 6928SOL     OW32419   3.941   3.766  12.577  0.0749 -0.2888 -0.0426
 6928SOL    HW132420   3.887   3.837  12.543 -0.9465 -0.3066  1.5484
 6928SOL    HW232421   3.982   3.746  12.492  1.4446 -0.7633  0.7299
 6929SOL     OW32422   2.573   3.713  12.876 -0.2593  0.5927 -0.1330
 6929SOL    HW132423   2.656   3.755  12.901 -1.2950  2.5634  0.0248
 6929SOL    HW232424   2.536   3.699  12.963  2.3423 -1.7698  0.6247
 6930SOL     OW32425   4.592   1.742   7.480  0.0382 -0.3121 -0.1259
 6930SOL    HW132426   4.684   1.748   7.503 -0.2112  0.2854  0.7416
 6930SOL    HW232427   4.600   1.747   7.385 -0.1131 -2.4929 -0.2550
 6931SOL     OW32428   4.651   4.143   6.056  0.1108  0.1301 -0.6006
 6931SOL    HW132429   4.734   4.098   6.048 -0.1713 -0.8259  1.9799
 6931SOL    HW232430   4.636   4.147   5.961  3.9010 -0.5676 -1.2027
 6932SOL     OW32431   3.541   1.384   4.117 -0.0296 -0.3335 -0.0188
 6932SOL    HW132432   3.534   1.323   4.191  0.7830  1.8495  1.8840
 6932SOL    HW232433   3.457   1.362   4.076 -0.7439  1.4232  0.4862
 6933SOL     OW32434   0.517   1.393   7.055 -0.2708 -0.0539 -0.1783
 6933SOL    HW132435   0.499   1.483   7.081 -0.5374  0.2087 -1.2670
 6933SOL    HW232436   0.550   1.356   7.137  0.8192 -0.6062 -0.8686
 6934SOL     OW32437   2.824   0.575   6.023  0.3854 -0.3878 -0.5006
 6934SOL    HW132438   2.801   0.668   6.019  0.7364 -0.2771  0.0590
 6934SOL    HW232439   2.756   0.549   6.086 -0.7568 -1.3661 -2.1390
 6935SOL     OW32440   4.727   4.574   4.586 -0.0250  0.2443  0.3168
 6935SOL    HW132441   4.662   4.633   4.549 -2.3526 -2.7670 -0.3447
 6935SOL    HW232442   4.671   4.524   4.645 -0.1900  0.1360  0.0676
 6936SOL     OW32443   0.482   0.586  13.304 -0.3158 -0.4703 -0.2440
 6936SOL    HW132444   0.496   0.680  13.300 -0.9696 -0.4065 -1.0390
 6936SOL    HW232445   0.400   0.568  13.350  0.7369  1.7021  2.4388
 6937SOL     OW32446   3.944   0.388   3.757 -0.2497  0.1351  0.3689
 6937SOL    HW132447   3.878   0.328   3.791 -0.4061 -0.5962 -1.2238
 6937SOL    HW232448   4.021   0.331   3.752 -0.2648  0.1574 -0.0744
 6938SOL     OW32449   1.713   3.442  13.505  0.1515 -0.5389  0.1164
 6938SOL    HW132450   1.805   3.468  13.516  0.4529 -2.5537  2.2811
 6938SOL    HW232451   1.727   3.347  13.502 -2.5768 -0.9207 -0.4357
 6939SOL     OW32452   2.519   0.495   6.038  0.2992 -0.1107 -0.0489
 6939SOL    HW132453   2.498   0.412   6.080 -0.6815  0.0532 -0.1968
 6939SOL    HW232454   2.495   0.554   6.110  1.1896 -1.1057  1.0557
 6940SOL     OW32455   0.058   0.096   4.098 -0.1038 -0.5893 -0.0426
 6940SOL    HW132456   0.121   0.037   4.056  1.7758  0.6949  0.9641
 6940SOL    HW232457   0.116   0.136   4.163  0.8165 -1.7313 -0.1716
 6941SOL     OW32458   2.087   2.220   1.281 -0.3763 -0.2938  0.2585
 6941SOL    HW132459   2.140   2.299   1.272 -1.0233 -0.0018 -0.8704
 6941SOL    HW232460   2.021   2.245   1.346 -1.6290  1.2817 -1.6544
 6942SOL     OW32461   1.308   2.708   2.880 -0.4687  0.1036 -0.4444
 6942SOL    HW132462   1.309   2.775   2.811 -0.2968 -1.1153 -1.6363
 6942SOL    HW232463   1.285   2.759   2.957 -0.3623 -0.1836 -0.2207
 6943SOL     OW32464   0.069   0.868  11.623  0.5059 -0.6883 -0.4465
 6943SOL    HW132465   0.068   0.963  11.627  3.9967 -0.6065 -1.6582
 6943SOL    HW232466   0.110   0.846  11.707  2.1830 -1.2319 -1.4072
 6944SOL     OW32467   2.056   1.502  14.555  0.1745  0.9755  0.0667
 6944SOL    HW132468   2.055   1.548  14.639 -1.2470  0.7154  0.1847
 6944SOL    HW232469   1.970   1.514  14.516 -0.8750 -3.2410  1.0632
 6945SOL     OW32470   0.216   0.811   8.946 -0.2197  0.0018 -0.1406
 6945SOL    HW132471   0.208   0.850   9.033  1.4977  1.6771 -0.7308
 6945SOL    HW232472   0.152   0.852   8.889 -0.9791  1.3083  1.6752
 6946SOL     OW32473   0.520   1.361   4.996 -0.3192 -0.5072  0.3636
 6946SOL    HW132474   0.485   1.314   5.072  1.2024  0.0962  1.4465
 6946SOL    HW232475   0.559   1.440   5.033  1.4551 -0.8308 -0.7969
 6947SOL     OW32476   3.036   1.320   2.638  0.1027 -0.1691 -0.1693
 6947SOL    HW132477   3.127   1.290   2.634 -0.0340 -0.8414  1.7567
 6947SOL    HW232478   3.052   1.412   2.615 -0.1647  0.2990  1.4771
 6948SOL     OW32479   3.422   1.800  12.010 -0.3530 -0.0575  0.2780
 6948SOL    HW132480   3.398   1.838  11.925 -3.4652 -1.6209  0.4888
 6948SOL    HW232481   3.377   1.716  12.015 -0.6657  0.1447  0.8766
 6949SOL     OW32482   4.588   4.591  14.650 -0.1418 -0.1204  0.3058
 6949SOL    HW132483   4.544   4.544  14.720 -2.4392 -0.7515 -1.5813
 6949SOL    HW232484   4.679   4.561  14.660 -0.3989 -0.8548  0.4212
 6950SOL     OW32485   3.475   2.434  11.952 -0.4411 -0.3372 -0.5340
 6950SOL    HW132486   3.492   2.380  11.875 -0.8345  0.3253 -1.0873
 6950SOL    HW232487   3.436   2.512  11.913  0.7655  1.6182  2.1817
 6951SOL     OW32488   0.039   4.558   2.274 -0.7164  0.4703 -0.1262
 6951SOL    HW132489   0.130   4.577   2.297 -0.6030  0.5702 -0.6759
 6951SOL    HW232490   0.038   4.564   2.179 -0.0389  3.3570  0.0554
 6952SOL     OW32491   4.210   1.054   1.236 -0.3970 -0.0901 -0.3504
 6952SOL    HW132492   4.291   1.022   1.275  0.0637  0.3892 -0.9047
 6952SOL    HW232493   4.188   0.976   1.185 -0.0772 -0.6656  0.3892
 6953SOL     OW32494   0.103   2.308   4.103 -0.5461  0.2449 -0.2451
 6953SOL    HW132495   0.107   2.214   4.122  0.4577  0.1899 -0.7527
 6953SOL    HW232496   0.183   2.314   4.155 -0.7147 -0.7936  0.1517
 6954SOL     OW32497   2.461   4.507   2.354  0.1796 -0.1650  0.0409
 6954SOL    HW132498   2.514   4.428   2.341 -2.3045 -1.8631  0.1835
 6954SOL    HW232499   2.438   4.491   2.445  1.4431 -0.4509  0.3114
 6955SOL     OW32500   4.581   2.295   8.604 -0.3687 -0.1939 -0.1604
 6955SOL    HW132501   4.578   2.274   8.697 -0.7982 -3.1038 -0.8189
 6955SOL    HW232502   4.627   2.379   8.603 -1.4959  0.4189 -1.1392
 6956SOL     OW32503   4.699   3.992   2.545  0.7348  0.0681  0.2989
 6956SOL    HW132504   0.012   3.924   2.591  1.6052  1.5797  1.5636
 6956SOL    HW232505   0.028   4.050   2.506 -0.1684  1.1200  0.3306
 6957SOL     OW32506   0.004   3.036  11.927  0.8066  0.1097 -0.7051
 6957SOL    HW132507   4.646   3.029  11.928  0.6948  2.2062  0.7834
 6957SOL    HW232508   0.031   3.106  11.868 -0.8308  2.1177  0.9476
 6958SOL     OW32509   3.607   3.534   8.548 -0.4302  0.1339 -0.2150
 6958SOL    HW132510   3.522   3.578   8.545  1.1598  3.0665 -1.4341
 6958SOL    HW232511   3.589   3.470   8.617  0.7963 -1.1217 -1.0576
 6959SOL     OW32512   0.918   2.321   4.097 -0.1148 -0.5399  0.1383
 6959SOL    HW132513   0.824   2.304   4.104  0.0094 -1.4872 -0.4838
 6959SOL    HW232514   0.922   2.371   4.016  0.4639 -0.0371  0.4854
 6960SOL     OW32515   2.795   2.510   5.154 -0.1929 -0.0735  0.3811
 6960SOL    HW132516   2.821   2.538   5.066 -0.3669 -0.9898  0.0371
 6960SOL    HW232517   2.776   2.421   5.125  0.7861 -0.5470  1.2112
 6961SOL     OW32518   2.127   4.433   8.390 -0.2787 -0.3986  0.5623
 6961SOL    HW132519   2.090   4.480   8.315 -0.1881  0.0647  0.8042
 6961SOL    HW232520   2.183   4.362   8.360  0.0577 -0.6854  1.8639
 6962SOL     OW32521   1.788   1.450   0.464  0.1085 -0.2493  0.1501
 6962SOL    HW132522   1.857   1.384   0.450  0.8857  0.1789  1.8511
 6962SOL    HW232523   1.734   1.439   0.386 -0.0528 -1.6569  0.4548
 6963SOL     OW32524   3.813   4.243   4.438 -0.5074  0.1092  0.1373
 6963SOL    HW132525   3.838   4.317   4.382  0.2773 -0.4137 -0.2036
 6963SOL    HW232526   3.819   4.279   4.527  0.6713  1.5543 -0.5120
 6964SOL     OW32527   2.585   3.297   7.839  0.1902 -0.1573  0.4453
 6964SOL    HW132528   2.625   3.341   7.914 -0.1961 -1.2510  1.2831
 6964SOL    HW232529   2.601   3.208   7.871 -1.1963  0.0303  1.6664
 6965SOL     OW32530   0.238   1.032   4.880  0.2367 -0.1606  0.8105
 6965SOL    HW132531   0.311   1.090   4.859  0.3552 -1.6709 -3.0646
 6965SOL    HW232532   0.275   0.962   4.933 -0.8267 -1.3598 -0.0129
 6966SOL     OW32533   3.374   3.940  14.554 -0.0577 -0.2073 -0.0139
 6966SOL    HW132534   3.295   3.987  14.580  0.2816  1.1218 -1.3252
 6966SOL    HW232535   3.365   3.872  14.620 -0.3522 -0.2131 -0.0597
 6967SOL     OW32536   3.421   4.700   6.888 -0.4312 -0.1800  0.2079
 6967SOL    HW132537   3.490   4.728   6.828  0.1237  2.1208  1.9209
 6967SOL    HW232538   3.378   4.647   6.821 -2.5435  0.4507  1.0822
 6968SOL     OW32539   3.848   4.317   2.572  0.3154  0.9819  0.8395
 6968SOL    HW132540   3.943   4.319   2.586  0.1771  0.0862  1.8829
 6968SOL    HW232541   3.818   4.407   2.586  0.6693  1.1932  0.2439
 6969SOL     OW32542   1.495   2.239   5.147 -0.5560  0.5737  0.3985
 6969SOL    HW132543   1.544   2.322   5.145 -0.9492  0.7726 -1.4931
 6969SOL    HW232544   1.429   2.261   5.080 -0.6097 -0.3961  0.1422
 6970SOL     OW32545   1.572   2.467   9.833  0.2262  0.0247  0.2084
 6970SOL    HW132546   1.582   2.418   9.751 -0.9889  0.2636 -0.0807
 6970SOL    HW232547   1.663   2.485   9.858 -0.1168  0.8274  0.8856
 6971SOL     OW32548   2.799   1.966   5.487  0.0037  0.2526 -0.3052
 6971SOL    HW132549   2.762   1.883   5.519  0.8680 -1.0244 -2.6379
 6971SOL    HW232550   2.830   2.012   5.565 -0.1004 -2.4403  1.3323
 6972SOL     OW32551   2.658   0.096  16.556  0.1401  0.2773  0.0414
 6972SOL    HW132552   2.638   0.190  16.548 -1.4199 -0.1031 -0.5402
 6972SOL    HW232553   2.602   0.058  16.488  2.0487  3.2018 -3.1803
 6973SOL     OW32554   0.495   4.649   7.876 -0.1226 -0.4038  0.1042
 6973SOL    HW132555   0.539   4.650   7.960 -0.5742  2.0236  0.3089
 6973SOL    HW232556   0.563   4.665   7.810 -0.1429 -0.8721 -0.0303
 6974SOL     OW32557   0.400   4.595   4.764 -0.2580  0.5149 -0.1122
 6974SOL    HW132558   0.397   4.624   4.673  0.2890  1.0837  0.0525
 6974SOL    HW232559   0.388   4.674   4.817 -2.7217 -0.2864  0.5337
 6975SOL     OW32560   1.767   0.634   3.657 -0.0073 -0.0966 -0.1098
 6975SOL    HW132561   1.811   0.693   3.718  1.0170  0.6711 -1.5857
 6975SOL    HW232562   1.842   0.603   3.606 -1.9705 -1.0005 -2.4322
 6976SOL     OW32563   3.983   1.855   9.447  0.3297 -0.2697  0.3878
 6976SOL    HW132564   3.991   1.818   9.535  0.2172 -0.7553  0.1977
 6976SOL    HW232565   3.946   1.939   9.472 -2.9587 -1.7279  0.3921
 6977SOL     OW32566   1.465   1.005  17.408  0.4161 -0.3833 -0.1866
 6977SOL    HW132567   1.411   1.083  17.397  2.4880  1.0372 -0.0865
 6977SOL    HW232568   1.485   1.009  17.501  0.6500 -2.7225 -0.1364
 6978SOL     OW32569   2.455   0.445  12.874 -0.3046 -0.4629 -0.6058
 6978SOL    HW132570   2.359   0.448  12.868 -0.0684  0.8473 -3.7162
 6978SOL    HW232571   2.463   0.350  12.862 -0.3402 -0.5243 -0.1280
 6979SOL     OW32572   0.506   4.241  10.180  0.5869 -0.0779  0.7212
 6979SOL    HW132573   0.476   4.163  10.134  0.1256  0.6379 -0.2064
 6979SOL    HW232574   0.437   4.300  10.150  0.8947  0.9465  2.0071
 6980SOL     OW32575   1.768   1.943   1.199  0.0390  0.3708  0.1245
 6980SOL    HW132576   1.739   1.889   1.125  1.5974  0.1796 -0.3329
 6980SOL    HW232577   1.822   2.007   1.153 -2.5281  0.7690 -2.4127
 6981SOL     OW32578   4.637   2.831   3.730 -0.1242  0.0602 -0.4369
 6981SOL    HW132579   4.731   2.818   3.736 -0.0763  0.7419  0.2351
 6981SOL    HW232580   4.607   2.803   3.817  1.3971  1.0800  0.4128
 6982SOL     OW32581   2.859   2.408   6.947  0.0216  0.0545 -0.3004
 6982SOL    HW132582   2.923   2.384   6.881 -0.6407  0.5139 -1.1054
 6982SOL    HW232583   2.892   2.358   7.023  0.0641  2.0675  1.0000
 6983SOL     OW32584   1.437   3.046   4.710  0.0383 -0.0169  0.4388
 6983SOL    HW132585   1.425   2.957   4.678  0.7081 -0.3104  1.0075
 6983SOL    HW232586   1.400   3.087   4.632 -0.2298  0.2633  0.7136
 6984SOL     OW32587   0.225   1.982   9.082 -0.1060  0.4411  0.1096
 6984SOL    HW132588   0.140   1.939   9.090 -0.1833  0.4632 -0.5691
 6984SOL    HW232589   0.271   1.925   9.020  1.7104  1.6933  0.3045
 6985SOL     OW32590   3.954   1.725   4.240  0.1153  0.1607 -0.6489
 6985SOL    HW132591   3.989   1.802   4.284 -3.5341  1.4303  0.0037
 6985SOL    HW232592   3.957   1.761   4.151  0.0329  1.8023  0.0138
 6986SOL     OW32593   0.785   2.920   5.131  0.2026 -0.4283  0.2288
 6986SOL    HW132594   0.856   2.929   5.068  1.4515 -1.5407  1.4613
 6986SOL    HW232595   0.761   3.012   5.134  0.0965 -0.3755 -2.5899
 6987SOL     OW32596   3.485   1.989   9.889 -0.5250  0.6973  0.1178
 6987SOL    HW132597   3.465   2.079   9.913  2.4159  1.8080 -1.6143
 6987SOL    HW232598   3.574   1.982   9.923 -0.3446  2.0537 -0.0886
 6988SOL     OW32599   2.797   1.563  13.898 -0.0661 -0.4686 -0.3174
 6988SOL    HW132600   2.886   1.543  13.928 -0.1084  0.7332  0.5928
 6988SOL    HW232601   2.766   1.629  13.960  0.5812 -0.8949  0.4663
 6989SOL     OW32602   0.775   2.903   4.350  0.3579 -0.1949  0.1491
 6989SOL    HW132603   0.757   2.975   4.410  1.6847  0.5101 -0.2936
 6989SOL    HW232604   0.749   2.935   4.263  0.9882 -0.3885 -0.1140
 6990SOL     OW32605   2.247   3.151   6.978 -0.1327 -0.1929 -0.1832
 6990SOL    HW132606   2.195   3.104   6.913 -2.6059  0.7148  1.1393
 6990SOL    HW232607   2.328   3.168   6.930  1.2920 -1.3661  1.8323
 6991SOL     OW32608   4.733   2.737  13.761 -0.4391  0.4180 -0.4539
 6991SOL    HW132609   4.680   2.710  13.687  0.4650 -0.8098 -0.6535
 6991SOL    HW232610   0.021   2.825  13.732  2.3778  0.5549  2.3264
 6992SOL     OW32611   1.041   3.056  10.039 -0.4254  0.4691  0.0577
 6992SOL    HW132612   1.043   2.976   9.987 -0.5417  2.1535 -2.5340
 6992SOL    HW232613   1.130   3.080  10.065 -0.3780  2.6614 -2.1110
 6993SOL     OW32614   3.490   3.973   1.350 -0.3208 -0.5086  0.4913
 6993SOL    HW132615   3.523   3.948   1.264  2.3508  2.2496  0.7398
 6993SOL    HW232616   3.495   4.066   1.328  2.0758 -0.8734 -0.4641
 6994SOL     OW32617   0.144   3.404  13.333 -0.1930  0.6794 -0.6180
 6994SOL    HW132618   0.231   3.420  13.369 -1.2336 -2.4982  3.3414
 6994SOL    HW232619   0.093   3.479  13.365 -0.2221  1.2654 -2.0342
 6995SOL     OW32620   0.080   2.973  16.722  0.3772  0.1812  0.4406
 6995SOL    HW132621   0.087   2.898  16.663  1.6153 -0.2906  1.2013
 6995SOL    HW232622   0.052   3.045  16.665  1.4333 -1.0597 -1.6618
 6996SOL     OW32623   4.015   0.737   8.459  0.0869 -0.2947 -0.8963
 6996SOL    HW132624   3.990   0.645   8.446 -2.4878  0.3283 -0.3650
 6996SOL    HW232625   3.951   0.784   8.405 -0.1917 -0.3507 -0.6164
 6997SOL     OW32626   0.158   1.336  10.074  0.1448 -0.0012 -0.4086
 6997SOL    HW132627   0.251   1.324  10.093 -0.0077  0.3919  0.5965
 6997SOL    HW232628   0.115   1.251  10.067 -0.6205  0.3996 -0.5649
 6998SOL     OW32629   3.930   4.058   0.087  0.2220  0.2650  0.0617
 6998SOL    HW132630   3.851   4.067   0.033 -0.7479 -1.4475  1.1823
 6998SOL    HW232631   3.971   3.989   0.035 -1.5812  0.1391 -1.1984
 6999SOL     OW32632   1.917   2.330   9.025  0.0213  0.1218  0.3558
 6999SOL    HW132633   1.823   2.335   9.005 -0.2956 -0.0252  1.7955
 6999SOL    HW232634   1.928   2.237   9.044 -0.0730 -0.0080 -0.2328
 7000SOL     OW32635   4.423   1.883   3.881  0.8479  0.0289 -0.3352
 7000SOL    HW132636   4.515   1.901   3.897  0.5489  1.4365 -0.2261
 7000SOL    HW232637   4.368   1.961   3.882 -1.2855 -1.4306 -2.6949
 7001SOL     OW32638   4.382   0.219   7.599 -0.2533  0.3079 -0.3678
 7001SOL    HW132639   4.427   0.226   7.683 -1.7768  1.7292  0.3173
 7001SOL    HW232640   4.404   0.295   7.546  1.2552  1.5165  1.9686
 7002SOL     OW32641   1.460   0.930   1.892  0.1753  0.9145  0.3631
 7002SOL    HW132642   1.382   0.875   1.902 -0.1085  1.2686  0.0936
 7002SOL    HW232643   1.430   1.007   1.939 -0.1275  0.3226  1.1428
 7003SOL     OW32644   1.254   3.481   3.093 -0.2793 -0.2957 -0.2357
 7003SOL    HW132645   1.316   3.437   3.035 -0.0683  0.0210 -0.2467
 7003SOL    HW232646   1.301   3.554   3.132 -1.5113  0.6879 -0.5950
 7004SOL     OW32647   3.683   4.574   6.773  0.1033  0.2559 -0.4484
 7004SOL    HW132648   3.621   4.633   6.730  2.3880 -0.0695 -4.1620
 7004SOL    HW232649   3.705   4.514   6.701 -1.0615 -2.8872  1.8292
 7005SOL     OW32650   1.833   2.173  10.760  0.1473  0.0539  0.2124
 7005SOL    HW132651   1.868   2.254  10.723 -2.1007  0.4033 -1.1910
 7005SOL    HW232652   1.756   2.208  10.805 -1.4440 -0.4984 -2.0404
 7006SOL     OW32653   0.166   4.661  12.629  0.9660  0.0134  0.1455
 7006SOL    HW132654   0.257   4.666  12.602  1.1821  2.3706  1.3461
 7006SOL    HW232655   0.141   4.590  12.570 -0.8289  1.0461 -0.3430
 7007SOL     OW32656   4.026   3.601   4.869 -0.3590 -0.0541 -0.0540
 7007SOL    HW132657   4.077   3.663   4.817 -0.9218 -0.7608 -1.4498
 7007SOL    HW232658   4.003   3.655   4.945  0.0765 -0.7527  0.5814
 7008SOL     OW32659   0.817   3.701   1.211 -0.1790  0.7849 -0.4222
 7008SOL    HW132660   0.751   3.647   1.254  0.8545  2.5864  3.4688
 7008SOL    HW232661   0.802   3.667   1.123  1.0725  1.5709 -0.9436
 7009SOL     OW32662   4.557   2.016  17.171  0.5923 -0.2359  0.1770
 7009SOL    HW132663   4.581   1.931  17.136  2.1796  0.3053 -0.0169
 7009SOL    HW232664   4.570   2.068  17.092  0.2446 -1.7032 -0.8463
 7010SOL     OW32665   0.989   4.550  15.662  0.6276 -0.5768 -0.0490
 7010SOL    HW132666   0.985   4.476  15.723  0.8544  0.4711  1.2321
 7010SOL    HW232667   1.065   4.523  15.610  0.5207 -2.7964  0.9377
 7011SOL     OW32668   0.607   4.440   5.829  0.2507 -0.2331  0.1213
 7011SOL    HW132669   0.697   4.411   5.841  0.1815 -1.2280 -1.7240
 7011SOL    HW232670   0.562   4.360   5.857  1.0723 -0.6416  0.2568
 7012SOL     OW32671   1.352   0.550   3.326  0.0663  0.3450  0.5733
 7012SOL    HW132672   1.360   0.618   3.393 -0.0037  1.5699 -0.6507
 7012SOL    HW232673   1.415   0.588   3.265 -0.5347  0.4301  0.0017
 7013SOL     OW32674   3.540   3.388  13.957 -0.6425 -0.1880 -0.1794
 7013SOL    HW132675   3.561   3.308  14.004  1.8342  0.0398 -0.9040
 7013SOL    HW232676   3.613   3.448  13.975  0.4332 -2.0490  1.6324
 7014SOL     OW32677   1.301   1.212   7.705  0.1891  0.0759 -0.2724
 7014SOL    HW132678   1.342   1.282   7.656  0.1250  1.5167  1.7617
 7014SOL    HW232679   1.220   1.198   7.655  0.1239 -0.4596 -0.0222
 7015SOL     OW32680   0.403   4.218  16.406 -0.4528 -0.0230 -0.5081
 7015SOL    HW132681   0.309   4.204  16.395 -0.7093 -0.1264  1.8731
 7015SOL    HW232682   0.421   4.296  16.353 -2.7840  0.5537 -0.4517
 7016SOL     OW32683   1.492   4.173  10.940 -0.1718 -0.3193  0.2023
 7016SOL    HW132684   1.562   4.111  10.916 -0.3661 -0.1496 -0.7934
 7016SOL    HW232685   1.441   4.118  10.999  1.6420 -0.0085  2.0769
 7017SOL     OW32686   4.561   2.701   2.952  0.1632  0.5341  0.3127
 7017SOL    HW132687   4.616   2.686   2.876  0.2827  1.0247  0.2998
 7017SOL    HW232688   4.623   2.686   3.023  0.7748  2.7481  0.2494
 7018SOL     OW32689   0.296   4.627   9.607  0.2353 -0.0092 -0.4463
 7018SOL    HW132690   0.205   4.648   9.585  0.1716  0.6886  0.4747
 7018SOL    HW232691   0.294   4.612   9.702 -1.7647 -1.6413 -0.7471
 7019SOL     OW32692   3.612   3.105   9.936 -0.1686 -0.1743  0.2572
 7019SOL    HW132693   3.635   3.178   9.879  1.2270 -0.4837  0.4324
 7019SOL    HW232694   3.666   3.037   9.895 -3.0630 -1.4944 -1.3633
 7020SOL     OW32695   3.272   2.408   7.788 -0.4877  0.2777 -0.4183
 7020SOL    HW132696   3.185   2.377   7.813 -0.3088  0.4160  0.3878
 7020SOL    HW232697   3.257   2.483   7.731  0.6758  0.7528 -0.1109
 7021SOL     OW32698   2.305   2.921   4.470  0.4370 -0.0297  0.2957
 7021SOL    HW132699   2.369   2.979   4.513 -0.1709  0.7207  0.1756
 7021SOL    HW232700   2.261   2.882   4.546 -2.2007 -0.0159 -1.2498
 7022SOL     OW32701   4.358   3.414  13.366  0.0028 -0.4722  0.3794
 7022SOL    HW132702   4.273   3.410  13.322 -1.6888 -1.2696  3.7985
 7022SOL    HW232703   4.347   3.476  13.438 -1.8868  1.3407 -1.4587
 7023SOL     OW32704   0.191   1.449   2.416  0.1205 -0.5149  0.1895
 7023SOL    HW132705   0.122   1.501   2.375 -0.6455 -1.1113  0.7343
 7023SOL    HW232706   0.244   1.415   2.344 -0.9283  0.0757 -0.8609
 7024SOL     OW32707   1.572   3.803   6.180  0.2050 -0.2615  0.9083
 7024SOL    HW132708   1.496   3.830   6.232 -1.5371 -0.5849 -1.4983
 7024SOL    HW232709   1.537   3.812   6.092  0.7622 -1.6229  0.5525
 7025SOL     OW32710   1.814   3.627   0.982  0.6968 -0.1337  1.0114
 7025SOL    HW132711   1.785   3.692   1.046 -1.5733 -1.2888  1.1263
 7025SOL    HW232712   1.728   3.594   0.956  1.0353  0.5482 -1.0045
 7026SOL     OW32713   0.546   2.879  12.874  0.1067  0.5449 -0.0046
 7026SOL    HW132714   0.457   2.883  12.839 -0.4432 -0.4718  1.2757
 7026SOL    HW232715   0.530   2.937  12.948  1.2842  0.1798  0.5398
 7027SOL     OW32716   3.282   0.727   0.869  0.2652 -0.1748 -0.4553
 7027SOL    HW132717   3.234   0.652   0.834  0.4654 -1.9555  3.1669
 7027SOL    HW232718   3.278   0.800   0.806  1.3612  2.2229  2.2491
 7028SOL     OW32719   0.913   2.228   9.884  0.0210  0.1895  0.0835
 7028SOL    HW132720   0.924   2.133   9.891 -2.2923 -0.0756  0.1093
 7028SOL    HW232721   0.999   2.252   9.918  1.0984 -3.1790 -0.2253
 7029SOL     OW32722   0.610   2.452  17.518  0.0366  0.2923  0.8271
 7029SOL    HW132723   0.652   2.461  17.604 -0.4608 -0.4446  1.1414
 7029SOL    HW232724   0.557   2.373  17.517 -1.1714  1.1899 -3.0005
 7030SOL     OW32725   3.383   0.392  14.105 -0.3503 -0.9656 -0.4643
 7030SOL    HW132726   3.471   0.356  14.103  0.8105  1.8056  0.9212
 7030SOL    HW232727   3.367   0.408  14.012 -2.1209 -0.5375 -0.0861
 7031SOL     OW32728   1.764   1.280   1.546 -0.1783  0.0060  0.1290
 7031SOL    HW132729   1.710   1.239   1.478 -2.2034  1.7392  0.6723
 7031SOL    HW232730   1.698   1.317   1.604  1.1393  2.7864 -0.1383
 7032SOL     OW32731   0.364   0.256   8.932  0.3194  0.3807  0.2911
 7032SOL    HW132732   0.276   0.261   8.970 -0.4902 -1.6029 -1.3153
 7032SOL    HW232733   0.397   0.341   8.959 -0.5048  0.8612 -0.2178
 7033SOL     OW32734   1.578   1.595   4.825  0.4552  0.3503  0.0884
 7033SOL    HW132735   1.507   1.619   4.766 -1.1929 -1.4951  1.3002
 7033SOL    HW232736   1.651   1.651   4.799 -0.2820  1.2170 -0.1134
 7034SOL     OW32737   2.781   1.797   1.683  0.0458  0.2764  0.0839
 7034SOL    HW132738   2.703   1.776   1.631  0.3780 -0.4592 -0.1051
 7034SOL    HW232739   2.844   1.839   1.625  0.4648  2.4997  2.1491
 7035SOL     OW32740   1.174   4.137  13.125 -0.0343  0.4012 -0.0148
 7035SOL    HW132741   1.200   4.045  13.124 -0.1931  0.3470  0.8974
 7035SOL    HW232742   1.139   4.151  13.213 -0.0158  2.5055 -0.3467
 7036SOL     OW32743   0.478   3.553   4.291  0.8076 -0.2753  0.1552
 7036SOL    HW132744   0.386   3.555   4.264  1.2930  0.2599 -1.4801
 7036SOL    HW232745   0.482   3.488   4.361 -0.1420  0.6525  1.0528
 7037SOL     OW32746   1.614   2.484   5.186 -0.3646  0.6430 -0.3258
 7037SOL    HW132747   1.654   2.480   5.099 -2.4837 -0.4130 -1.2453
 7037SOL    HW232748   1.624   2.576   5.212  0.0230  0.4022  0.3801
 7038SOL     OW32749   3.153   0.211   4.490 -0.1090 -0.1079  0.5915
 7038SOL    HW132750   3.189   0.267   4.421 -0.6507 -1.7503 -1.0344
 7038SOL    HW232751   3.132   0.131   4.442 -3.9896  0.5982  1.1060
 7039SOL     OW32752   2.949   1.182   0.141 -0.5002 -0.1428 -0.2670
 7039SOL    HW132753   2.890   1.253   0.115 -0.1675  0.0185 -0.5998
 7039SOL    HW232754   3.036   1.216   0.120 -1.2335  1.1192 -1.2879
 7040SOL     OW32755   3.907   3.235   1.494 -0.3456  0.1803 -0.0307
 7040SOL    HW132756   3.998   3.224   1.465 -0.9486 -1.0546 -1.4783
 7040SOL    HW232757   3.880   3.295   1.424  0.6491  1.0907  0.3769
 7041SOL     OW32758   2.487   4.009   8.323  0.5590  0.7001  0.0212
 7041SOL    HW132759   2.482   4.090   8.374 -2.1716  0.5244  0.0302
 7041SOL    HW232760   2.571   3.978   8.357 -0.3667 -0.9489  0.7997
 7042SOL     OW32761   3.938   1.912   3.169  1.0999 -0.3649  0.7860
 7042SOL    HW132762   3.903   1.973   3.234  2.6654  1.2622  0.0869
 7042SOL    HW232763   4.004   1.874   3.228  0.7122  2.3366  2.9900
 7043SOL     OW32764   1.083   2.653   0.825  0.1198 -0.3968  0.3942
 7043SOL    HW132765   1.051   2.714   0.891 -3.4697 -0.0859 -1.6758
 7043SOL    HW232766   1.177   2.660   0.841  0.3704 -0.3275 -1.0767
 7044SOL     OW32767   3.362   1.456   3.755 -0.1025 -0.1065  0.0737
 7044SOL    HW132768   3.363   1.399   3.679 -0.5192  1.7633 -1.3238
 7044SOL    HW232769   3.433   1.513   3.724  1.0094 -2.2055 -1.1573
 7045SOL     OW32770   4.062   3.935   6.252  0.1272 -0.1626 -0.1713
 7045SOL    HW132771   3.987   3.968   6.202  1.3103  1.1261 -1.1033
 7045SOL    HW232772   4.086   4.019   6.292 -0.2678  0.3546 -1.0232
 7046SOL     OW32773   3.252   4.522   2.590  0.8200  0.0944 -0.4569
 7046SOL    HW132774   3.203   4.451   2.631 -1.5186  1.8212 -0.2607
 7046SOL    HW232775   3.195   4.555   2.521  1.2211  0.1017 -0.7803
 7047SOL     OW32776   3.731   4.411   7.222  0.1226  0.0413  0.0532
 7047SOL    HW132777   3.764   4.422   7.133 -0.9699 -2.1244 -0.6424
 7047SOL    HW232778   3.796   4.353   7.262  0.0579  0.3080  0.5573
 7048SOL     OW32779   1.525   1.861   9.506 -0.6651  0.2486 -0.3839
 7048SOL    HW132780   1.462   1.835   9.439 -0.5080  1.8778 -1.1590
 7048SOL    HW232781   1.510   1.956   9.500  0.8415  0.4182 -1.3169
 7049SOL     OW32782   3.268   2.088   9.296 -0.0873  0.3270 -0.2048
 7049SOL    HW132783   3.334   2.118   9.358  0.5074  0.3936 -0.8677
 7049SOL    HW232784   3.196   2.079   9.358 -0.1712  0.8765 -0.2231
 7050SOL     OW32785   0.233   0.795  11.833  0.4131 -0.5947 -0.1282
 7050SOL    HW132786   0.217   0.720  11.890 -1.4276 -0.7431 -0.8252
 7050SOL    HW232787   0.276   0.857  11.892  0.8249  1.8284 -2.9406
 7051SOL     OW32788   0.675   1.863   7.246  0.4007  0.0448 -0.4186
 7051SOL    HW132789   0.636   1.940   7.287  1.6083  1.3272 -1.6497
 7051SOL    HW232790   0.606   1.798   7.258 -0.5858  1.5272  1.9563
 7052SOL     OW32791   4.459   0.703   7.186  0.1039  0.0025 -0.3378
 7052SOL    HW132792   4.492   0.771   7.246  1.3821 -1.1907  0.3250
 7052SOL    HW232793   4.395   0.759   7.144  1.2227  0.7091 -1.1061
 7053SOL     OW32794   2.021   4.397   2.495  0.0622 -0.2948 -0.4956
 7053SOL    HW132795   2.089   4.356   2.442  3.4474  1.2210  2.7150
 7053SOL    HW232796   2.033   4.332   2.565 -0.2462  0.3261  0.1346
 7054SOL     OW32797   0.161   3.175  17.455  0.0355  0.1451 -0.2492
 7054SOL    HW132798   0.121   3.250  17.499  0.3412  0.6503 -0.8373
 7054SOL    HW232799   0.252   3.203  17.459  0.6607 -1.9748  0.4045
 7055SOL     OW32800   0.607   1.735   9.173 -0.1391 -0.1900  0.1427
 7055SOL    HW132801   0.690   1.729   9.125 -1.3838  0.6171 -2.0937
 7055SOL    HW232802   0.553   1.685   9.111 -0.3552 -0.8838  0.8933
 7056SOL     OW32803   3.041   0.744   3.139  0.2324 -0.0664  0.2120
 7056SOL    HW132804   2.998   0.728   3.056  1.1526  0.0992 -0.2929
 7056SOL    HW232805   3.088   0.661   3.145 -0.5277 -0.3070  2.7916
 7057SOL     OW32806   0.273   1.247   4.364  0.3544  0.1214 -0.6037
 7057SOL    HW132807   0.296   1.329   4.322 -0.7038  0.7185  0.0048
 7057SOL    HW232808   0.220   1.205   4.296 -2.0406  0.8030  0.8416
 7058SOL     OW32809   3.427   2.858   5.207 -0.4250 -0.2911 -0.4667
 7058SOL    HW132810   3.337   2.870   5.235  0.3339  1.9482  1.0209
 7058SOL    HW232811   3.450   2.830   5.296  0.0204 -1.1456 -0.8497
 7059SOL     OW32812   0.444   1.452  11.674 -0.6760 -0.1738  0.3141
 7059SOL    HW132813   0.532   1.470  11.707 -0.6561  2.7384 -1.2533
 7059SOL    HW232814   0.423   1.361  11.693  0.4396 -0.3727  0.6056
 7060SOL     OW32815   4.666   1.366  13.962  0.3195  0.1126  0.7058
 7060SOL    HW132816   4.647   1.283  13.919  1.5554 -0.1339  0.6321
 7060SOL    HW232817   0.020   1.347  13.982  0.9672  2.3377 -0.1122
 7061SOL     OW32818   1.877   2.041   1.727  0.1593  0.0747  0.0567
 7061SOL    HW132819   1.824   2.102   1.676 -1.2598 -0.7084  0.5997
 7061SOL    HW232820   1.884   2.086   1.811  0.7727  1.3729 -0.6856
 7062SOL     OW32821   1.637   3.046   6.812 -0.1563 -0.0994 -0.3227
 7062SOL    HW132822   1.640   3.117   6.877 -1.2036  0.8035 -1.2590
 7062SOL    HW232823   1.721   3.071   6.774  0.3661 -0.6008  0.4970
 7063SOL     OW32824   4.224   3.629   8.976 -0.3437  0.5868  0.5563
 7063SOL    HW132825   4.302   3.582   8.946 -1.4777 -0.1491 -1.1988
 7063SOL    HW232826   4.164   3.619   8.902  0.3612 -1.9220  0.3409
 7064SOL     OW32827   2.843   3.099   7.349 -0.5849  0.6252 -0.0357
 7064SOL    HW132828   2.919   3.060   7.393 -0.3463  1.4365  0.2584
 7064SOL    HW232829   2.779   3.081   7.418 -1.2659 -0.3613 -0.9168
 7065SOL     OW32830   2.217   1.235   8.162  0.4484 -0.2797  0.1902
 7065SOL    HW132831   2.304   1.212   8.193 -0.0786 -2.8600 -0.2947
 7065SOL    HW232832   2.158   1.173   8.204  0.8684 -0.2364  0.8444
 7066SOL     OW32833   4.157   3.370   3.867 -0.4011 -0.1783 -0.1009
 7066SOL    HW132834   4.242   3.332   3.887  0.4750  1.4694 -0.7298
 7066SOL    HW232835   4.124   3.306   3.803  1.4275  0.5426 -1.7565
 7067SOL     OW32836   2.910   3.478   2.211 -0.2174 -0.5285  0.4384
 7067SOL    HW132837   2.906   3.573   2.225  0.4663 -0.6150  1.1576
 7067SOL    HW232838   2.826   3.467   2.165  0.4305  0.1404 -0.9277
 7068SOL     OW32839   1.410   0.253   4.444  0.0868 -0.5229  0.1159
 7068SOL    HW132840   1.484   0.195   4.423  1.8403  1.6905  0.2092
 7068SOL    HW232841   1.443   0.286   4.528 -1.3540 -1.9690  1.2742
 7069SOL     OW32842   3.502   4.108   4.080 -0.0475  0.1765  0.0447
 7069SOL    HW132843   3.523   4.050   4.007 -0.5441 -1.2017  0.9956
 7069SOL    HW232844   3.530   4.044   4.145  0.1766  0.4828  0.2500
 7070SOL     OW32845   0.852   2.325   2.498 -0.0694 -0.2215 -0.0607
 7070SOL    HW132846   0.916   2.269   2.452  1.1484 -0.8929  2.4702
 7070SOL    HW232847   0.820   2.380   2.426 -1.1377  0.6126  1.0620
 7071SOL     OW32848   4.224   0.420   6.919  0.2171  0.2383 -0.4536
 7071SOL    HW132849   4.314   0.408   6.950 -0.3271 -0.9797  0.6940
 7071SOL    HW232850   4.182   0.413   7.005  2.7134 -1.4025  0.6246
 7072SOL     OW32851   0.558   1.904   0.470  0.3565  0.6337 -0.7941
 7072SOL    HW132852   0.625   1.954   0.516  2.3805  0.0058 -3.0592
 7072SOL    HW232853   0.520   1.852   0.541  1.8852  1.7713  0.8359
 7073SOL     OW32854   1.766   1.483   2.211  0.4612  0.3473  0.1115
 7073SOL    HW132855   1.743   1.500   2.302  0.2963  0.8677 -0.0253
 7073SOL    HW232856   1.757   1.573   2.181  1.4813  0.9213  1.5354
 7074SOL     OW32857   0.019   1.909  11.305  0.3833 -0.0395 -0.8040
 7074SOL    HW132858   0.022   1.900  11.400 -1.0864 -0.4334 -0.7851
 7074SOL    HW232859   0.055   1.824  11.280  3.0612  0.7351  0.4621
 7075SOL     OW32860   4.376   2.665   0.011 -0.0528 -0.5816  0.0751
 7075SOL    HW132861   4.400   2.729   0.079 -0.9029  1.1416 -1.2608
 7075SOL    HW232862   4.452   2.608   0.026  1.0024  1.1307  1.1807
 7076SOL     OW32863   3.631   4.673   7.845  0.8960  0.8713 -0.4779
 7076SOL    HW132864   3.705   4.734   7.844  1.3457  0.3395  1.6493
 7076SOL    HW232865   3.615   4.659   7.751 -1.2291 -2.1859  0.3471
 7077SOL     OW32866   0.764   3.115  13.707 -0.5845 -0.2725 -0.5128
 7077SOL    HW132867   0.723   3.085  13.787 -0.9624  1.3570 -0.0915
 7077SOL    HW232868   0.857   3.122  13.730 -0.6212 -0.9629 -0.1762
 7078SOL     OW32869   3.801   2.691   2.900  0.4596  0.3424 -0.1653
 7078SOL    HW132870   3.809   2.776   2.944 -0.1272  0.6198 -0.6046
 7078SOL    HW232871   3.748   2.710   2.824  0.3656  0.8899  0.0397
 7079SOL     OW32872   1.296   2.187   3.845  0.8223 -0.3414  0.0810
 7079SOL    HW132873   1.383   2.152   3.864  0.8171  1.5509  3.5849
 7079SOL    HW232874   1.283   2.258   3.908  0.4709  0.2985 -0.7094
 7080SOL     OW32875   2.842   3.130   3.145  0.3661 -0.7039  0.2625
 7080SOL    HW132876   2.784   3.152   3.218  0.2750  2.4136 -0.7350
 7080SOL    HW232877   2.842   3.035   3.154 -0.6746 -0.5613  1.7682
 7081SOL     OW32878   3.057   3.227  10.580  0.2204  0.1717  0.3501
 7081SOL    HW132879   3.013   3.252  10.499 -0.4459 -0.6097  0.4607
 7081SOL    HW232880   3.148   3.254  10.579  0.2284  0.1537  0.6573
 7082SOL     OW32881   3.298   0.561   6.959 -0.5494 -0.4098  0.0262
 7082SOL    HW132882   3.285   0.472   6.926  1.9236  0.5159 -3.3375
 7082SOL    HW232883   3.364   0.589   6.896 -1.5240 -0.8634 -1.2162
 7083SOL     OW32884   4.729   1.504   5.277 -0.3687 -0.5091 -0.1482
 7083SOL    HW132885   0.078   1.472   5.248  0.2560  1.3568 -0.3102
 7083SOL    HW232886   4.736   1.594   5.245 -2.9842 -0.3202 -0.2090
 7084SOL     OW32887   4.299   4.101  10.336  0.1600 -0.7690  0.2606
 7084SOL    HW132888   4.342   4.176  10.376  0.1282 -0.8304  0.4122
 7084SOL    HW232889   4.333   4.029  10.389 -1.9265 -0.6021  1.8318
 7085SOL     OW32890   0.111   2.030   4.140  0.1567 -0.1002  0.2652
 7085SOL    HW132891   0.134   2.018   4.232 -1.1056 -0.2767  0.5594
 7085SOL    HW232892   0.191   1.993   4.103 -1.9027 -1.0254 -3.2364
 7086SOL     OW32893   1.413   3.124  12.797  0.2633 -0.0447  0.3168
 7086SOL    HW132894   1.339   3.157  12.849 -0.6541 -2.8008  0.7356
 7086SOL    HW232895   1.418   3.029  12.800  2.7394  0.0982  0.5743
 7087SOL     OW32896   3.978   4.483  12.499  0.1622  0.5074  0.0234
 7087SOL    HW132897   4.004   4.553  12.439  1.7967 -1.2195 -1.2833
 7087SOL    HW232898   3.886   4.508  12.504 -0.8140 -2.6990 -1.7708
 7088SOL     OW32899   2.652   3.653   3.010 -0.0428 -0.3223 -0.0386
 7088SOL    HW132900   2.692   3.571   3.041  0.4791  0.3870  1.1844
 7088SOL    HW232901   2.696   3.720   3.063 -1.4721  0.0978  0.6260
 7089SOL     OW32902   1.458   3.076   8.245  0.5285  0.2614  0.3944
 7089SOL    HW132903   1.525   3.008   8.236 -0.1979 -0.5760  1.3670
 7089SOL    HW232904   1.498   3.126   8.316  0.8196 -0.2295  0.5771
 7090SOL     OW32905   2.203   3.837   5.042  0.3302 -0.5283  0.2021
 7090SOL    HW132906   2.157   3.920   5.031  2.4428  1.0411  3.3801
 7090SOL    HW232907   2.287   3.863   5.004  0.5583  1.7039  2.2252
 7091SOL     OW32908   1.023   1.307   7.025 -0.4320  0.1166 -0.1686
 7091SOL    HW132909   0.952   1.246   7.045 -0.7047  0.4459 -0.1434
 7091SOL    HW232910   0.982   1.382   7.069 -0.0726 -0.1585  0.6330
 7092SOL     OW32911   3.746   1.371   4.728 -0.2856  0.1976  0.0591
 7092SOL    HW132912   3.674   1.313   4.705  0.7384 -0.6574 -1.0204
 7092SOL    HW232913   3.769   1.336   4.814 -1.0361  0.2238  0.2663
 7093SOL     OW32914   0.482   0.794  16.023  0.3302  0.5571  0.5091
 7093SOL    HW132915   0.524   0.783  16.109 -0.3763 -1.9501  0.5320
 7093SOL    HW232916   0.556   0.791  15.962 -0.9586  1.0712 -1.0726
 7094SOL     OW32917   4.181   3.850   6.586  0.0798 -0.2017 -0.0211
 7094SOL    HW132918   4.255   3.904   6.613 -1.1619  1.8197 -0.6520
 7094SOL    HW232919   4.234   3.789   6.534 -0.7337  0.2185 -1.3527
 7095SOL     OW32920   1.654   3.003   1.687  0.1606  0.2337 -0.0162
 7095SOL    HW132921   1.722   2.936   1.684  0.5154  0.7496 -3.5668
 7095SOL    HW232922   1.665   3.029   1.778  0.7446 -1.1175  0.2959
 7096SOL     OW32923   0.443   2.501  12.759  0.2834 -0.0159  0.6791
 7096SOL    HW132924   0.508   2.555  12.804  0.1393  1.6014 -1.0632
 7096SOL    HW232925   0.373   2.494  12.824  0.2736 -0.5894  0.6070
 7097SOL     OW32926   1.564   0.937   6.443  0.5139 -0.3080 -0.1951
 7097SOL    HW132927   1.549   1.031   6.431  1.1364 -0.3160 -1.0916
 7097SOL    HW232928   1.478   0.919   6.479  1.6705 -3.3811  1.0165
 7098SOL     OW32929   4.100   3.929  15.659 -0.5079  0.4161  0.4872
 7098SOL    HW132930   4.085   3.926  15.564 -1.0660  0.6830  0.5677
 7098SOL    HW232931   4.103   3.834  15.675 -0.2218  0.6588  1.8049
 7099SOL     OW32932   4.679   4.525   7.696 -0.3138 -0.0893  0.7407
 7099SOL    HW132933   4.732   4.577   7.757 -0.2961  1.1503 -0.3226
 7099SOL    HW232934   4.633   4.594   7.648  1.2714  0.1525 -0.4090
 7100SOL     OW32935   3.948   2.807   9.845  0.1970  0.1114 -0.3852
 7100SOL    HW132936   4.020   2.847   9.895 -0.2850 -1.0154  1.1954
 7100SOL    HW232937   3.949   2.716   9.875 -0.3914  0.0066 -0.6832
 7101SOL     OW32938   3.412   1.174  16.811  0.6208 -0.3704  0.5701
 7101SOL    HW132939   3.355   1.240  16.772 -1.8214 -2.0127  1.3212
 7101SOL    HW232940   3.360   1.152  16.888 -1.8252  0.9101 -0.7261
 7102SOL     OW32941   0.015   3.639   3.662 -0.3363  0.5549 -0.4411
 7102SOL    HW132942   4.728   3.585   3.736 -0.2798  1.1431  0.0097
 7102SOL    HW232943   0.109   3.626   3.649 -0.0761  1.1132  0.8803
 7103SOL     OW32944   2.923   4.313   6.879 -0.4328 -0.0283 -0.8058
 7103SOL    HW132945   2.924   4.360   6.796 -0.8416 -0.0235 -0.8095
 7103SOL    HW232946   3.000   4.342   6.928 -0.7255  1.9342 -1.5179
 7104SOL     OW32947   3.371   2.396   8.064  0.3606  0.1683  0.3619
 7104SOL    HW132948   3.296   2.405   8.006 -2.2155 -1.6782  3.4004
 7104SOL    HW232949   3.446   2.387   8.006  0.1462  2.7258 -0.3199
 7105SOL     OW32950   0.463   2.805   2.756  0.1512 -0.1729 -0.5688
 7105SOL    HW132951   0.545   2.829   2.712 -0.0980 -1.8458 -1.9315
 7105SOL    HW232952   0.413   2.887   2.756  0.3284 -0.0631 -0.3539
 7106SOL     OW32953   2.567   4.251   2.348 -0.0672  0.2317  0.5004
 7106SOL    HW132954   2.591   4.208   2.430 -0.0418 -2.9000 -1.1532
 7106SOL    HW232955   2.651   4.261   2.303 -1.3656  0.7072 -1.8510
 7107SOL     OW32956   0.598   4.155   5.845  0.2979  0.1763 -0.4332
 7107SOL    HW132957   0.689   4.130   5.861 -0.1899 -0.5740  1.1261
 7107SOL    HW232958   0.581   4.114   5.760 -0.1409  2.2751 -1.3565
 7108SOL     OW32959   0.558   1.250   2.834 -0.0528  0.1870 -0.1568
 7108SOL    HW132960   0.505   1.222   2.760  0.2897 -0.9763  0.0417
 7108SOL    HW232961   0.491   1.310   2.869 -0.2186 -0.0773 -0.0228
 7109SOL     OW32962   1.494   3.706   8.136 -0.6515 -0.2912 -0.2444
 7109SOL    HW132963   1.540   3.789   8.146 -0.5095 -0.1553 -2.0612
 7109SOL    HW232964   1.487   3.682   8.228 -1.5276  0.3394 -0.1420
 7110SOL     OW32965   2.831   0.349  10.828 -0.0003  0.3667  0.4792
 7110SOL    HW132966   2.844   0.315  10.917  0.1380  0.2318  0.4080
 7110SOL    HW232967   2.916   0.375  10.795  0.5639 -0.1385  1.5149
 7111SOL     OW32968   4.348   3.005   8.755 -0.4919 -0.0843  0.0272
 7111SOL    HW132969   4.335   2.948   8.831  0.6798  0.5003  0.6605
 7111SOL    HW232970   4.292   2.960   8.692  1.1491  1.2326 -2.3838
 7112SOL     OW32971   3.047   3.670   6.190  0.1249  0.0872  0.2273
 7112SOL    HW132972   3.071   3.583   6.222  1.4873  0.1570 -0.6236
 7112SOL    HW232973   3.128   3.704   6.151 -0.0936 -0.3931 -0.6388
 7113SOL     OW32974   3.840   3.049   1.674 -0.4012  0.1385  0.2629
 7113SOL    HW132975   3.862   3.116   1.610  0.0869  0.4853  0.7886
 7113SOL    HW232976   3.874   3.091   1.754  0.4094 -1.2523  0.6435
 7114SOL     OW32977   0.848   2.038   8.528  0.3887 -0.0381  0.0118
 7114SOL    HW132978   0.921   2.018   8.469  1.3001  0.2351  1.0590
 7114SOL    HW232979   0.857   2.131   8.548 -0.3155 -0.5006  2.4054
 7115SOL     OW32980   4.435   3.615   1.962 -0.6796  0.2071  0.7431
 7115SOL    HW132981   4.517   3.600   2.008 -0.0559 -0.6515 -0.6545
 7115SOL    HW232982   4.374   3.635   2.034  0.7589  0.9124  1.7653
 7116SOL     OW32983   4.700   4.203   0.758  0.2498  0.1078 -0.5484
 7116SOL    HW132984   4.662   4.291   0.762  1.5252  0.5810  1.2546
 7116SOL    HW232985   4.619   4.151   0.753  1.2213 -1.2680 -1.8926
 7117SOL     OW32986   0.217   1.406   3.555  1.0175  0.1753  0.3219
 7117SOL    HW132987   0.286   1.378   3.616  1.7190  0.3117 -0.4069
 7117SOL    HW232988   0.204   1.331   3.497 -0.8883  1.6978 -1.2011
 7118SOL     OW32989   1.422   4.277   5.900  0.5467 -0.4120 -0.3204
 7118SOL    HW132990   1.353   4.247   5.960 -1.1875  0.4851 -1.8718
 7118SOL    HW232991   1.495   4.223   5.930  2.6156  3.4899  1.6112
 7119SOL     OW32992   4.686   3.836  11.789 -0.4559 -0.0743 -0.8128
 7119SOL    HW132993   0.031   3.872  11.754  0.4213  0.9496  2.3672
 7119SOL    HW232994   4.686   3.873  11.877  1.8432 -2.9281  0.3981
 7120SOL     OW32995   0.576   0.647   5.052 -0.5507 -0.2941 -0.3324
 7120SOL    HW132996   0.665   0.622   5.077 -1.0308 -2.0720 -0.4044
 7120SOL    HW232997   0.522   0.580   5.095  0.9483 -1.7449 -0.6895
 7121SOL     OW32998   0.903   2.329  13.793 -0.0128 -0.2310  0.7724
 7121SOL    HW132999   0.963   2.302  13.723 -1.0265  1.2260 -0.6511
 7121SOL    HW233000   0.899   2.421  13.769 -0.3388 -0.5850 -0.5124
 7122SOL     OW33001   1.425   2.712   9.682 -0.4720  0.2978 -0.7336
 7122SOL    HW133002   1.506   2.704   9.632 -2.5041  0.1786 -3.9959
 7122SOL    HW233003   1.397   2.620   9.686  1.8764 -0.2921  2.2931
 7123SOL     OW33004   3.859   1.812   4.978  0.3088  0.2957  0.3691
 7123SOL    HW133005   3.852   1.887   4.918  2.2559 -2.2095 -3.0125
 7123SOL    HW233006   3.953   1.796   4.968  0.2581  0.5260 -0.5581
 7124SOL     OW33007   3.820   3.523   6.292  0.2775  0.0160  0.1676
 7124SOL    HW133008   3.911   3.549   6.310  0.8485 -1.7089 -0.2459
 7124SOL    HW233009   3.830   3.522   6.196 -1.5779  0.8554 -0.0271
 7125SOL     OW33010   1.057   3.800  17.247  0.4138  0.1606 -0.1123
 7125SOL    HW133011   0.990   3.782  17.182  0.6576 -2.7824  0.4545
 7125SOL    HW233012   1.018   3.765  17.328  1.0424  0.9950  0.5498
 7126SOL     OW33013   2.319   2.242   2.516 -0.0484  0.2720  0.2998
 7126SOL    HW133014   2.381   2.280   2.579  1.2152 -0.5038 -0.4894
 7126SOL    HW233015   2.346   2.151   2.512 -1.9889 -0.2653 -0.3004
 7127SOL     OW33016   2.301   1.056  12.295  0.2968  0.2519 -0.2117
 7127SOL    HW133017   2.285   1.126  12.358  0.4338  1.8032 -1.9218
 7127SOL    HW233018   2.396   1.053  12.300  0.3395  2.4989  0.3111
 7128SOL     OW33019   3.286   3.641   8.045  0.4651 -0.0992 -0.0254
 7128SOL    HW133020   3.288   3.546   8.038 -3.1232 -0.1707 -0.2444
 7128SOL    HW233021   3.270   3.665   7.954  1.0428  1.3438  0.2509
 7129SOL     OW33022   1.562   2.940   8.557 -0.4792  0.2816  0.5918
 7129SOL    HW133023   1.471   2.936   8.528 -0.4808  2.5544  0.2520
 7129SOL    HW233024   1.552   2.908   8.647  2.7193 -1.2808  0.3816
 7130SOL     OW33025   0.977   0.381   5.301  0.2685 -0.4504 -0.1355
 7130SOL    HW133026   1.001   0.357   5.390 -3.3595  0.9907  1.2329
 7130SOL    HW233027   1.032   0.328   5.243  2.3686  0.5391  0.9709
 7131SOL     OW33028   0.043   0.250  12.490 -0.0236  0.1806 -0.3777
 7131SOL    HW133029   0.045   0.345  12.479 -3.9162  0.1976 -0.9845
 7131SOL    HW233030   4.689   0.242  12.520 -0.1043  2.1930 -0.0742
 7132SOL     OW33031   0.485   3.239   8.815  0.2283  0.7952 -0.3910
 7132SOL    HW133032   0.421   3.292   8.768 -0.3501  0.4831  0.0348
 7132SOL    HW233033   0.430   3.233   8.893  1.8493  1.7965  0.8333
 7133SOL     OW33034   2.847   0.249   3.905  0.0163 -0.5896 -0.6780
 7133SOL    HW133035   2.815   0.337   3.924  2.4903  0.5531 -1.9042
 7133SOL    HW233036   2.916   0.240   3.970 -0.8877  0.9276  0.4869
 7134SOL     OW33037   0.767   1.871  16.483 -0.3242 -0.0971  0.2683
 7134SOL    HW133038   0.714   1.938  16.525  2.9781  2.1625  0.8532
 7134SOL    HW233039   0.836   1.876  16.549  0.8079  0.0111 -0.9282
 7135SOL     OW33040   4.114   0.059   2.824  0.6063  0.1611  0.5530
 7135SOL    HW133041   4.183   0.122   2.805  0.1535  0.3023 -0.5917
 7135SOL    HW233042   4.113   0.001   2.748  0.9297  0.2800  0.4585
 7136SOL     OW33043   4.053   3.803   4.429 -0.0155  0.0793  0.3828
 7136SOL    HW133044   4.050   3.884   4.479  0.6927  0.9471 -0.9879
 7136SOL    HW233045   4.054   3.839   4.341 -1.0108  0.6409  0.6019
 7137SOL     OW33046   2.261   4.235   9.076  0.4450 -0.4619  0.2426
 7137SOL    HW133047   2.223   4.291   9.009  2.7478  0.0165 -0.6874
 7137SOL    HW233048   2.189   4.174   9.090  0.4564  0.1715  3.1229
 7138SOL     OW33049   1.874   3.297   7.356 -0.5349  0.3695 -0.1645
 7138SOL    HW133050   1.937   3.316   7.287 -0.1067  1.3174  0.4913
 7138SOL    HW233051   1.830   3.219   7.321 -0.2564  0.6471 -1.1416
 7139SOL     OW33052   3.476   3.744   4.831 -0.5877  0.4113  0.0203
 7139SOL    HW133053   3.554   3.689   4.829 -1.0113 -0.1732 -0.1190
 7139SOL    HW233054   3.477   3.772   4.740 -0.7441 -0.6800 -0.3167
 7140SOL     OW33055   1.781   4.582   4.692  0.4238 -0.3531 -0.4294
 7140SOL    HW133056   1.847   4.516   4.713  2.1178  1.2210 -0.8139
 7140SOL    HW233057   1.828   4.655   4.732 -0.0524  0.4196 -1.3025
 7141SOL     OW33058   0.054   2.569   4.819 -0.2636 -0.1129  0.0672
 7141SOL    HW133059   0.017   2.484   4.792 -2.1421  0.3835  1.0734
 7141SOL    HW233060   0.021   2.582   4.908 -2.8509 -0.9920 -0.7493
 7142SOL     OW33061   3.445   4.181   5.033 -0.9139  0.1256 -0.0984
 7142SOL    HW133062   3.467   4.268   5.068 -1.5946 -0.1020  0.8922
 7142SOL    HW233063   3.438   4.124   5.109 -1.6860  1.2988  0.7228
 7143SOL     OW33064   2.882   1.860  12.610 -0.7572  0.1620 -0.4300
 7143SOL    HW133065   2.895   1.911  12.530  0.0832  0.2968 -0.2078
 7143SOL    HW233066   2.797   1.894  12.639 -1.3746 -1.0197 -0.8786
 7144SOL     OW33067   1.167   1.705  15.767 -0.1387 -0.0702  0.0843
 7144SOL    HW133068   1.238   1.649  15.736 -1.6756 -1.9439 -0.0480
 7144SOL    HW233069   1.090   1.648  15.770 -0.9380  0.9456 -0.6463
 7145SOL     OW33070   2.661   0.723   2.131 -0.0741 -0.4103 -0.0641
 7145SOL    HW133071   2.628   0.640   2.098 -0.5378 -0.4239  0.4444
 7145SOL    HW233072   2.580   0.774   2.135  0.5282  0.6364 -1.2829
 7146SOL     OW33073   3.753   1.053   3.130 -0.2799  0.2720 -0.2304
 7146SOL    HW133074   3.800   1.001   3.195  0.1096  0.8123 -0.0792
 7146SOL    HW233075   3.824   1.101   3.090  2.3630 -2.0548  1.6481
 7147SOL     OW33076   1.736   2.753   5.430  0.1160 -0.0915 -0.0542
 7147SOL    HW133077   1.646   2.729   5.450 -0.2028 -0.1852 -1.6445
 7147SOL    HW233078   1.752   2.807   5.508 -2.3320 -0.3655  0.6184
 7148SOL     OW33079   1.245   0.068  12.549  0.0065 -0.0057  0.2270
 7148SOL    HW133080   1.281   0.011  12.616  1.2564  1.6564  0.9659
 7148SOL    HW233081   1.283   0.034  12.468 -1.5884  2.1418 -1.4286
 7149SOL     OW33082   0.209   4.313   8.340 -0.5315 -0.5619 -0.2440
 7149SOL    HW133083   0.122   4.334   8.307 -0.9318 -3.0659 -0.7733
 7149SOL    HW233084   0.186   4.292   8.431  1.6680  2.3885  1.0076
 7150SOL     OW33085   0.077   0.156  12.764  0.2575  0.1375 -0.2032
 7150SOL    HW133086   0.065   0.210  12.686 -1.6778  0.2992  0.2095
 7150SOL    HW233087   0.104   0.078  12.715 -0.7952 -0.6098  0.4134
 7151SOL     OW33088   1.524   0.370   0.692  0.0909 -0.0477 -0.0909
 7151SOL    HW133089   1.572   0.453   0.696  0.3670 -0.1425 -1.3663
 7151SOL    HW233090   1.449   0.395   0.637  0.0816 -0.8044 -0.4215
 7152SOL     OW33091   1.716   0.239  14.887  0.0679 -0.1178 -0.9008
 7152SOL    HW133092   1.798   0.192  14.898  0.9389  1.0893 -2.2282
 7152SOL    HW233093   1.729   0.280  14.801 -0.3366  0.3469 -0.7425
 7153SOL     OW33094   1.986   3.361   3.260 -0.2414 -0.2978 -0.1056
 7153SOL    HW133095   1.950   3.284   3.216 -2.2971  1.5551 -1.6741
 7153SOL    HW233096   2.013   3.416   3.186  1.5588 -1.1719 -0.1027
 7154SOL     OW33097   2.055   4.661   3.600 -0.2373  0.4446  0.7274
 7154SOL    HW133098   2.115   4.690   3.669  0.5945  0.5501 -0.0439
 7154SOL    HW233099   1.986   4.727   3.609 -0.9479 -0.2175  0.1236
 7155SOL     OW33100   3.816   4.194   2.814 -0.7067 -0.0500  1.3100
 7155SOL    HW133101   3.829   4.260   2.746 -2.1895 -1.1321 -0.0221
 7155SOL    HW233102   3.749   4.136   2.777 -0.1289 -0.4896  0.9387
 7156SOL     OW33103   3.547   4.543   7.357  0.0262  0.0111  0.0273
 7156SOL    HW133104   3.527   4.458   7.396 -1.7653  0.3422 -0.2041
 7156SOL    HW233105   3.619   4.512   7.302  0.8040  0.9253  0.5417
 7157SOL     OW33106   0.524   3.664   7.582  0.7077  0.3358  0.6613
 7157SOL    HW133107   0.460   3.735   7.577 -0.7304 -0.9650  0.3103
 7157SOL    HW233108   0.563   3.675   7.668  0.4796  2.7961  0.4458
 7158SOL     OW33109   1.431   0.487   3.963 -0.4774 -0.1770  0.2919
 7158SOL    HW133110   1.441   0.516   3.872 -0.3809 -0.4788  0.2063
 7158SOL    HW233111   1.515   0.524   3.991 -1.0839 -0.1834  2.0774
 7159SOL     OW33112   1.258   1.559  17.710 -0.1463  0.2158  0.0313
 7159SOL    HW133113   1.270   1.467  17.689  0.1223  0.6551 -1.7919
 7159SOL    HW233114   1.257   1.564   0.058 -0.6670  2.1260 -0.0615
 7160SOL     OW33115   0.260   1.691   3.872 -0.0534 -0.5066  0.4213
 7160SOL    HW133116   0.247   1.702   3.778 -1.9533 -1.0867  0.6299
 7160SOL    HW233117   0.178   1.646   3.894 -0.0608 -0.8291 -0.2723
 7161SOL     OW33118   3.749   0.839   8.334 -0.6197 -0.0366 -0.2057
 7161SOL    HW133119   3.709   0.787   8.404 -0.9960  0.8151  0.2057
 7161SOL    HW233120   3.709   0.922   8.358 -0.1756  0.3927 -0.9564
 7162SOL     OW33121   2.970   3.931   4.463  0.2237  0.0730  0.1944
 7162SOL    HW133122   2.961   3.950   4.369  1.3874 -0.5988 -0.0499
 7162SOL    HW233123   3.036   3.994   4.492  1.1227 -0.6881 -0.2275
 7163SOL     OW33124   3.073   2.252   0.570 -0.2641  0.2251  0.9636
 7163SOL    HW133125   3.162   2.277   0.593 -0.6777  3.8116 -1.3242
 7163SOL    HW233126   3.025   2.331   0.594 -0.0830  1.2463 -1.9490
 7164SOL     OW33127   3.827   0.256   6.569  0.3517  0.1747 -0.0875
 7164SOL    HW133128   3.829   0.194   6.496 -0.1984  1.1693 -0.9368
 7164SOL    HW233129   3.878   0.332   6.539  0.3527 -0.0126 -0.5479
 7165SOL     OW33130   4.239   0.050   7.300 -0.3131  0.6483  0.4939
 7165SOL    HW133131   4.259   4.715   7.240 -0.7114  1.6202 -0.8151
 7165SOL    HW233132   4.190   0.113   7.247 -0.0366 -1.5787 -2.4205
 7166SOL     OW33133   1.630   3.549   3.065 -0.6710 -0.3789  0.1003
 7166SOL    HW133134   1.635   3.581   2.975 -0.1813  1.1621  0.6672
 7166SOL    HW233135   1.584   3.466   3.053 -0.0527 -0.5135 -1.3278
 7167SOL     OW33136   3.823   2.918   2.100 -0.5535  0.2582 -0.2892
 7167SOL    HW133137   3.870   2.843   2.064  0.6375 -0.0513  1.9095
 7167SOL    HW233138   3.755   2.909   2.034 -0.8892 -2.1226  0.3458
 7168SOL     OW33139   1.474   3.974  12.982  0.1016  0.3753  0.0741
 7168SOL    HW133140   1.404   4.006  12.925  1.5887  1.1161 -1.3386
 7168SOL    HW233141   1.431   3.911  13.039  1.0887  0.4068  0.8588
 7169SOL     OW33142   0.911   1.327   9.976 -0.9112 -0.1207  0.1765
 7169SOL    HW133143   0.984   1.281  10.017 -0.9238 -1.3885 -1.1994
 7169SOL    HW233144   0.865   1.362  10.052 -1.4297 -1.5357  0.5155
 7170SOL     OW33145   0.076   0.210   9.002  0.0659 -0.2716  0.0488
 7170SOL    HW133146   0.069   0.253   9.087  1.8256 -0.7336  0.4199
 7170SOL    HW233147   0.031   0.266   8.939  0.1591  0.3327  0.5188
 7171SOL     OW33148   1.287   2.445   2.607 -0.3827  0.5582  0.1484
 7171SOL    HW133149   1.275   2.444   2.702 -1.4339  1.4746  0.0289
 7171SOL    HW233150   1.259   2.358   2.578 -0.2052  0.8384 -0.8790
 7172SOL     OW33151   4.642   1.997   9.556 -0.2947 -0.2632  0.0627
 7172SOL    HW133152   4.595   1.963   9.633  0.1181  0.1000  0.4773
 7172SOL    HW233153   4.639   1.923   9.495 -0.6350  0.0012 -0.2424
 7173SOL     OW33154   1.833   0.596   9.041 -0.5760  0.2806  0.4985
 7173SOL    HW133155   1.817   0.674   8.987 -3.0058 -1.5631 -1.4291
 7173SOL    HW233156   1.746   0.584   9.077 -0.8195 -0.4043 -0.3203
 7174SOL     OW33157   3.164   4.337   0.202  0.1104 -0.0728  0.1113
 7174SOL    HW133158   3.114   4.329   0.121  0.0789  0.0453  0.1197
 7174SOL    HW233159   3.219   4.414   0.189 -0.8453  0.0258 -3.2012
 7175SOL     OW33160   2.586   0.619   1.424 -0.2548 -0.3885 -0.9635
 7175SOL    HW133161   2.603   0.526   1.440  1.6873  0.1653  0.1408
 7175SOL    HW233162   2.648   0.666   1.479  1.5893 -1.7319 -1.8524
 7176SOL     OW33163   0.442   4.113  16.745 -0.2152  0.4774  0.2359
 7176SOL    HW133164   0.534   4.126  16.768 -0.2610  0.8522  0.2052
 7176SOL    HW233165   0.426   4.200  16.708 -0.2264 -0.1992 -1.3782
 7177SOL     OW33166   0.249   0.871  10.973 -0.8526  0.3509 -0.3092
 7177SOL    HW133167   0.235   0.903  11.062 -1.2054  0.7447 -0.5067
 7177SOL    HW233168   0.269   0.780  10.996 -0.5685 -0.2095 -2.8531
 7178SOL     OW33169   1.615   2.124   1.569  0.2755  0.0308  0.3848
 7178SOL    HW133170   1.571   2.135   1.654 -0.7046  0.8645 -0.2299
 7178SOL    HW233171   1.583   2.038   1.542 -0.8390  1.0816 -1.6810
 7179SOL     OW33172   4.366   4.207   8.843  0.3911 -0.0694 -0.1978
 7179SOL    HW133173   4.277   4.199   8.877  1.0233 -3.5481  0.6535
 7179SOL    HW233174   4.365   4.138   8.776  0.1240  0.7139 -1.0100
 7180SOL     OW33175   1.851   2.657  16.797  0.3325  0.5311 -0.2794
 7180SOL    HW133176   1.830   2.750  16.784 -2.3879 -0.4898 -2.9742
 7180SOL    HW233177   1.785   2.607  16.749 -2.9391  0.9503  3.7604
 7181SOL     OW33178   2.246   2.355   1.066 -0.1360  0.0199  0.0167
 7181SOL    HW133179   2.281   2.350   0.978  0.5554  0.3383  0.2733
 7181SOL    HW233180   2.218   2.446   1.081 -1.5876 -0.3798 -0.3231
 7182SOL     OW33181   0.821   1.373   5.834  0.0503  0.8702  0.1902
 7182SOL    HW133182   0.894   1.342   5.887  0.5061 -1.8276 -2.0148
 7182SOL    HW233183   0.778   1.287   5.834 -1.1999  1.5052  1.7657
 7183SOL     OW33184   0.337   4.404   5.158  0.5220  0.2555  0.2672
 7183SOL    HW133185   0.263   4.391   5.218  1.0027 -0.0783  0.7794
 7183SOL    HW233186   0.313   4.483   5.108  0.8661 -0.1297 -0.5098
 7184SOL     OW33187   0.037   2.851   4.778 -0.0932 -0.6857 -0.4015
 7184SOL    HW133188   0.048   2.757   4.792 -0.1893 -0.2385  2.7951
 7184SOL    HW233189   4.681   2.869   4.791  0.9681  1.8109  3.8029
 7185SOL     OW33190   3.025   4.037   6.873  0.0327  0.1918  0.0584
 7185SOL    HW133191   2.979   4.120   6.888  2.0230  1.1983  0.5351
 7185SOL    HW233192   3.083   4.070   6.805 -1.9113  3.1806 -0.1575
 7186SOL     OW33193   3.482   0.305  11.683  0.4197 -0.5248 -0.0175
 7186SOL    HW133194   3.554   0.301  11.746  0.2565 -0.6715  0.1579
 7186SOL    HW233195   3.430   0.376  11.720 -0.1672 -0.8683 -0.1825
 7187SOL     OW33196   2.181   2.554   5.342 -0.3121  0.0792 -0.1952
 7187SOL    HW133197   2.127   2.600   5.278 -0.8465  0.0697  0.2440
 7187SOL    HW233198   2.149   2.585   5.427 -0.3938  0.3494 -0.3233
 7188SOL     OW33199   4.282   3.586   5.493  0.3697 -0.2800 -0.0724
 7188SOL    HW133200   4.331   3.549   5.420  0.1566 -0.1457 -0.2802
 7188SOL    HW233201   4.188   3.582   5.475  0.1765  0.1677  0.8171
 7189SOL     OW33202   3.509   2.169   4.805 -0.3774 -0.4965 -0.2168
 7189SOL    HW133203   3.437   2.161   4.743 -0.0871 -0.6610 -0.5346
 7189SOL    HW233204   3.568   2.223   4.752 -0.0803  0.2255  0.8466
 7190SOL     OW33205   3.581   2.333   9.698  0.0322  0.1053 -0.3834
 7190SOL    HW133206   3.648   2.396   9.726 -1.5256  1.6904 -0.2224
 7190SOL    HW233207   3.542   2.314   9.783  0.4893 -1.2594 -0.4927
 7191SOL     OW33208   1.660   3.300   4.457  0.7632  0.1198  0.1639
 7191SOL    HW133209   1.656   3.394   4.473  0.5802  0.6883 -3.2938
 7191SOL    HW233210   1.728   3.271   4.519  1.7307  0.0745 -0.9209
 7192SOL     OW33211   0.534   2.035   8.407  0.0234  0.0610 -0.1740
 7192SOL    HW133212   0.511   2.031   8.314  0.9535 -0.8789 -0.3550
 7192SOL    HW233213   0.540   1.942   8.426 -0.7324  0.1855  0.6291
 7193SOL     OW33214   3.771   1.415   6.145  1.0060 -0.4331  0.2047
 7193SOL    HW133215   3.713   1.341   6.165  1.0018 -0.4252  0.2223
 7193SOL    HW233216   3.827   1.415   6.223  0.9497  2.9676  0.2633
 7194SOL     OW33217   3.304   2.217   7.242 -0.1593  0.1748 -0.3674
 7194SOL    HW133218   3.398   2.212   7.260 -0.4139 -1.1773  0.5929
 7194SOL    HW233219   3.300   2.303   7.201  1.2576  0.2241 -0.4063
 7195SOL     OW33220   3.383   4.117   3.293  0.0377 -0.7494  0.0293
 7195SOL    HW133221   3.447   4.098   3.225 -0.4463 -0.5257 -0.4907
 7195SOL    HW233222   3.320   4.051   3.264  0.4671 -0.7141 -0.9569
 7196SOL     OW33223   3.668   2.986  16.692  0.5743  0.4076  0.8630
 7196SOL    HW133224   3.638   2.896  16.707  0.8847  0.4076  1.5144
 7196SOL    HW233225   3.753   2.968  16.652 -0.4345  0.3089 -1.2200
 7197SOL     OW33226   1.266   1.453   4.337  0.3737 -0.2662 -0.4431
 7197SOL    HW133227   1.292   1.517   4.272  3.3398 -0.1346  0.8771
 7197SOL    HW233228   1.337   1.389   4.336 -0.8404 -1.6386  0.0594
 7198SOL     OW33229   2.026   1.475   1.493 -0.1420  0.3840  0.3233
 7198SOL    HW133230   1.978   1.394   1.512  0.1192  0.2607  0.4687
 7198SOL    HW233231   2.028   1.467   1.397  2.0035  0.9757  0.3086
 7199SOL     OW33232   1.907   2.839   0.623  0.0972 -0.1792 -0.0132
 7199SOL    HW133233   1.835   2.902   0.635 -0.7109 -0.9943 -0.5767
 7199SOL    HW233234   1.907   2.822   0.529 -1.7547 -3.9562  0.6843
 7200SOL     OW33235   0.510   4.146   4.862 -0.6099  0.3451  0.3044
 7200SOL    HW133236   0.488   4.140   4.955 -0.6363  0.8010  0.3267
 7200SOL    HW233237   0.426   4.110   4.833 -0.7911  0.8071  0.2562
 7201SOL     OW33238   1.708   2.205  14.818  0.0394  0.0037  0.1375
 7201SOL    HW133239   1.777   2.141  14.834  1.3865  1.5681  0.5580
 7201SOL    HW233240   1.737   2.273  14.879  0.0428  0.2495 -0.1407
 7202SOL     OW33241   4.048   2.259   8.542 -0.0133  0.1343  0.0362
 7202SOL    HW133242   3.962   2.278   8.505  1.2946  1.1104 -2.5087
 7202SOL    HW233243   4.019   2.242   8.631  1.0144  0.2928  0.4033
 7203SOL     OW33244   2.471   2.115  12.326 -0.4295  0.2070 -0.0026
 7203SOL    HW133245   2.430   2.181  12.383  0.2941  2.3298 -1.9739
 7203SOL    HW233246   2.497   2.042  12.382  0.7429  2.5410  2.4828
 7204SOL     OW33247   3.810   1.243   1.756  0.6880 -0.5770  0.0305
 7204SOL    HW133248   3.833   1.158   1.795  0.0816 -1.3950 -1.3901
 7204SOL    HW233249   3.893   1.288   1.775 -1.5613  2.1726  3.3456
 7205SOL     OW33250   0.253   3.188   3.359  0.1606  0.3141 -0.0335
 7205SOL    HW133251   0.226   3.192   3.268  1.4028 -0.2239 -0.4192
 7205SOL    HW233252   0.168   3.189   3.403  0.3238 -1.2911  0.2943
 7206SOL     OW33253   2.007   2.763  16.587 -1.0873  0.1905 -0.4728
 7206SOL    HW133254   1.985   2.753  16.680 -1.2969  4.0788 -0.0993
 7206SOL    HW233255   1.994   2.671  16.564 -0.7561  0.0917 -0.2655
 7207SOL     OW33256   3.534   0.018   6.254  0.1247 -1.0106 -0.0024
 7207SOL    HW133257   3.544   4.706   6.173  0.0192 -0.4930 -0.3319
 7207SOL    HW233258   3.622   0.054   6.265 -0.4750  0.6212 -0.4443
 7208SOL     OW33259   2.003   0.374   4.913 -0.0500  0.0487 -0.2748
 7208SOL    HW133260   2.080   0.330   4.878  0.4615 -0.5585  1.5680
 7208SOL    HW233261   1.945   0.303   4.943 -1.1530  0.9783 -0.2347
 7209SOL     OW33262   0.263   2.089   8.485  0.1928  0.5402  0.1641
 7209SOL    HW133263   0.345   2.041   8.471  0.3642  0.8361  0.1522
 7209SOL    HW233264   0.237   2.048   8.568 -0.2518 -0.7884 -0.6338
 7210SOL     OW33265   1.567   0.854  13.960  0.4522 -0.6986  0.1603
 7210SOL    HW133266   1.540   0.763  13.967 -0.9984 -0.2311  0.5956
 7210SOL    HW233267   1.514   0.886  13.887 -1.2836 -0.1690  1.6652
 7211SOL     OW33268   1.096   3.965   6.142  0.0006  0.2065  0.5739
 7211SOL    HW133269   1.008   3.934   6.162  0.2515  0.1633  1.6239
 7211SOL    HW233270   1.126   3.999   6.227  1.3973  0.6130 -0.0666
 7212SOL     OW33271   1.767   3.145   5.519  0.2281 -0.2487  0.2649
 7212SOL    HW133272   1.801   3.177   5.435  2.2945 -1.8127  0.4999
 7212SOL    HW233273   1.674   3.167   5.518  0.5825  1.1593 -2.2801
 7213SOL     OW33274   3.412   4.124   3.586  0.1457 -0.2283  0.4048
 7213SOL    HW133275   3.435   4.031   3.587  0.9485 -0.0194  1.1516
 7213SOL    HW233276   3.395   4.140   3.493 -0.0611 -2.8413 -0.0077
 7214SOL     OW33277   2.227   2.372   4.518  0.1388  0.0254 -0.3741
 7214SOL    HW133278   2.198   2.450   4.472  0.0242 -0.0750 -0.4727
 7214SOL    HW233279   2.300   2.403   4.571  0.3684 -0.1263 -0.5998
 7215SOL     OW33280   3.158   1.421   7.979  0.3427 -0.3491 -0.2292
 7215SOL    HW133281   3.171   1.381   7.893 -1.2898 -0.0681 -0.6161
 7215SOL    HW233282   3.235   1.479   7.976  0.5420 -0.5582  1.3411
 7216SOL     OW33283   0.072   0.546  11.670 -0.3207  0.4918  0.6310
 7216SOL    HW133284   0.097   0.621  11.725 -0.5722 -1.7413  3.8346
 7216SOL    HW233285   0.155   0.501  11.687  0.7488  1.0362 -3.1261
 7217SOL     OW33286   3.131   1.863  13.908 -0.1981 -0.3657 -0.3005
 7217SOL    HW133287   3.055   1.886  13.854  0.1828  1.2867 -0.1414
 7217SOL    HW233288   3.208   1.875  13.852 -0.3931  0.4956 -0.3901
 7218SOL     OW33289   1.048   3.848   4.658 -0.3494  0.5338 -0.0240
 7218SOL    HW133290   1.059   3.914   4.589  1.8658 -0.7280 -0.8623
 7218SOL    HW233291   1.077   3.887   4.741 -0.4662 -0.9302  0.7088
 7219SOL     OW33292   0.454   1.995   4.246  0.5792  0.6783 -0.0230
 7219SOL    HW133293   0.451   2.001   4.341  1.6336 -1.9169  0.1500
 7219SOL    HW233294   0.432   2.085   4.218  0.3216  0.1913 -1.3976
 7220SOL     OW33295   1.293   0.043   7.396  0.0419  0.0686  0.0769
 7220SOL    HW133296   1.387   0.045   7.376  0.0837  2.8643  0.4917
 7220SOL    HW233297   1.271   0.114   7.336 -0.7852 -1.6720 -1.6967
 7221SOL     OW33298   3.936   4.470   2.258 -0.5013 -0.4017 -0.7414
 7221SOL    HW133299   3.840   4.477   2.262 -0.5789 -1.4991 -0.4052
 7221SOL    HW233300   3.956   4.555   2.220 -0.6470 -0.8076 -1.7334
 7222SOL     OW33301   2.275   2.793   8.370 -0.2669  0.1301 -0.0766
 7222SOL    HW133302   2.345   2.843   8.413  0.9853 -0.9198 -0.8592
 7222SOL    HW233303   2.248   2.860   8.308  0.6399  1.5555  1.0728
 7223SOL     OW33304   0.207   0.611   1.956  0.2367  0.7106 -0.3385
 7223SOL    HW133305   0.197   0.687   2.013  0.6069 -1.0211  2.0207
 7223SOL    HW233306   0.165   0.542   2.008  2.1684 -0.0223  0.2493
 7224SOL     OW33307   0.758   0.913   3.876  0.8460 -0.0911  0.1979
 7224SOL    HW133308   0.756   1.002   3.841 -1.8707 -0.5806 -0.8827
 7224SOL    HW233309   0.684   0.873   3.830  0.0250  1.1901  0.3973
 7225SOL     OW33310   1.942   2.574   5.037  0.6879 -0.8696  0.5119
 7225SOL    HW133311   1.870   2.619   4.993  1.2416  0.3923  0.9136
 7225SOL    HW233312   2.021   2.625   5.016  0.5563 -1.4049 -1.2894
 7226SOL     OW33313   0.393   3.616   9.519  0.3275 -0.2892 -0.3307
 7226SOL    HW133314   0.411   3.683   9.584  3.3377 -1.3580 -0.0968
 7226SOL    HW233315   0.338   3.556   9.570 -0.6063 -0.4005 -1.4436
 7227SOL     OW33316   4.399   0.006  17.577  0.0479 -0.2135  0.0166
 7227SOL    HW133317   4.393   4.710  17.667 -0.3965  0.5955  0.2855
 7227SOL    HW233318   4.493   4.730  17.569  0.0536 -1.2770  1.9475
 7228SOL     OW33319   2.821   4.323   2.705 -0.0192  0.1052  0.5819
 7228SOL    HW133320   2.785   4.399   2.750 -0.3570  0.0823  0.3529
 7228SOL    HW233321   2.915   4.332   2.723  0.8142 -0.6612 -3.2419
 7229SOL     OW33322   0.240   2.719   1.354  0.1160 -0.2715 -0.2196
 7229SOL    HW133323   0.253   2.796   1.300 -1.9441 -1.0040 -1.7314
 7229SOL    HW233324   0.238   2.763   1.439  2.0914 -0.3963 -0.0955
 7230SOL     OW33325   3.897   3.537   3.225 -0.1276 -0.1997 -0.1826
 7230SOL    HW133326   3.899   3.449   3.263  1.7754  0.2976  0.8668
 7230SOL    HW233327   3.822   3.544   3.166  0.8060  2.2586 -1.0544
 7231SOL     OW33328   1.173   3.024   8.180  0.3568  0.2452 -0.8654
 7231SOL    HW133329   1.083   3.028   8.213  0.1018 -0.2244 -1.5194
 7231SOL    HW233330   1.196   3.115   8.161  1.5139  0.2574  0.6101
 7232SOL     OW33331   4.261   0.942   2.940  0.1081 -0.1045  0.4845
 7232SOL    HW133332   4.212   0.867   2.975  3.3584 -3.0088 -1.2571
 7232SOL    HW233333   4.231   0.940   2.849  3.4581  1.5733 -0.6197
 7233SOL     OW33334   3.102   3.583  14.657 -0.6599  0.0510  0.1783
 7233SOL    HW133335   3.177   3.629  14.694 -0.5090  1.2289 -1.5500
 7233SOL    HW233336   3.062   3.537  14.731 -0.3418  0.1447  0.4094
 7234SOL     OW33337   3.054   2.846   6.830  0.2379 -0.0788 -0.2500
 7234SOL    HW133338   3.059   2.939   6.851  1.8627 -0.4686  1.0488
 7234SOL    HW233339   2.969   2.827   6.790 -0.2973  0.1110  0.7931
 7235SOL     OW33340   4.652   3.643   7.381 -0.0213 -0.6283  0.1683
 7235SOL    HW133341   4.583   3.709   7.370  0.1970 -0.3755  0.3009
 7235SOL    HW233342   4.639   3.614   7.471 -1.3536 -0.1258  0.1396
 7236SOL     OW33343   2.010   2.717   2.447 -0.5318  0.4510 -0.2580
 7236SOL    HW133344   2.061   2.777   2.502  0.5311 -0.9291  0.2769
 7236SOL    HW233345   1.926   2.733   2.490 -0.7713 -0.9341 -0.2013
 7237SOL     OW33346   2.855   1.240   7.282  0.9012 -0.0032 -0.3777
 7237SOL    HW133347   2.916   1.182   7.236  0.7700 -0.9435  0.6141
 7237SOL    HW233348   2.891   1.325   7.257  1.6443  0.4174  2.0797
 7238SOL     OW33349   2.912   2.469  10.370 -0.0835  0.7862 -0.4435
 7238SOL    HW133350   2.868   2.434  10.447  1.3408 -3.0845 -1.4219
 7238SOL    HW233351   2.843   2.455  10.305 -1.1571 -2.0396  1.3058
 7239SOL     OW33352   0.194   1.373   7.668  0.2456  0.3459  0.3460
 7239SOL    HW133353   0.262   1.371   7.736 -0.3507  1.4028  0.9692
 7239SOL    HW233354   0.176   1.282   7.644  0.6365  0.6209 -0.9702
 7240SOL     OW33355   2.936   2.684   2.602 -0.5587 -0.9025 -0.1497
 7240SOL    HW133356   2.915   2.646   2.517  1.3990 -0.8598 -0.6744
 7240SOL    HW233357   3.022   2.718   2.575 -0.6155 -0.5730  0.0867
 7241SOL     OW33358   0.976   2.511   2.228 -0.1312 -1.0743  0.3931
 7241SOL    HW133359   1.010   2.596   2.258  1.0285 -1.4270  0.0869
 7241SOL    HW233360   0.959   2.527   2.135 -1.0572  0.3157  0.7978
 7242SOL     OW33361   3.887   1.044   1.955  0.1397  0.7648 -0.8122
 7242SOL    HW133362   3.954   1.075   2.016  1.4739  0.2978 -2.0464
 7242SOL    HW233363   3.944   0.978   1.916 -0.0383  0.8588 -1.2317
 7243SOL     OW33364   0.182   3.588   6.123 -0.2627 -0.0616  0.5049
 7243SOL    HW133365   0.253   3.544   6.170  0.6013  1.4849  0.6463
 7243SOL    HW233366   0.107   3.573   6.179 -0.4204 -0.9311  0.0553
 7244SOL     OW33367   1.363   3.886   8.497  0.6169 -0.1040  0.3404
 7244SOL    HW133368   1.289   3.871   8.555  0.8533  0.1876  0.7182
 7244SOL    HW233369   1.375   3.809   8.441 -1.4644 -0.0883 -0.1293
 7245SOL     OW33370   3.721   2.260   0.350 -0.1925  0.5376 -0.6634
 7245SOL    HW133371   3.727   2.230   0.441  1.4648  0.8796 -0.6567
 7245SOL    HW233372   3.677   2.190   0.303 -0.4789  0.4170 -0.2112
 7246SOL     OW33373   3.318   3.952   2.239 -0.0736 -0.0037  0.4205
 7246SOL    HW133374   3.344   3.907   2.159 -2.8454 -2.0849  0.6718
 7246SOL    HW233375   3.329   3.881   2.303  0.3681 -0.2589  0.0571
 7247SOL     OW33376   3.687   0.621   2.734  0.1712 -0.0826 -1.0413
 7247SOL    HW133377   3.652   0.533   2.750 -0.4813  0.3032 -0.3779
 7247SOL    HW233378   3.611   0.679   2.728 -0.9637 -1.5292 -0.7616
 7248SOL     OW33379   3.863   4.331  12.076  0.0317  0.5832  0.4491
 7248SOL    HW133380   3.945   4.304  12.035 -0.5160 -0.9087  0.3267
 7248SOL    HW233381   3.841   4.253  12.127 -3.0025  1.8195  0.9838
 7249SOL     OW33382   2.054   2.892   5.623  0.0459 -0.8474  0.0794
 7249SOL    HW133383   1.975   2.928   5.664 -0.6326 -1.2044 -0.9184
 7249SOL    HW233384   2.042   2.895   5.528  1.0079 -2.0297 -0.0684
 7250SOL     OW33385   1.116   0.980   1.430 -0.3392 -0.0817 -0.0235
 7250SOL    HW133386   1.179   1.026   1.486 -0.1732 -2.0918  1.4131
 7250SOL    HW233387   1.079   0.928   1.501  0.3835 -0.4490  0.0916
 7251SOL     OW33388   1.026   2.590   4.166 -0.1045 -0.0969  0.0910
 7251SOL    HW133389   0.953   2.638   4.207  0.2892  1.4299 -1.0187
 7251SOL    HW233390   0.976   2.514   4.137  0.6649 -1.1803  1.5943
 7252SOL     OW33391   2.224   4.102   6.876  0.1808 -0.0622 -0.0358
 7252SOL    HW133392   2.248   4.170   6.814  1.9569  0.0884  0.8078
 7252SOL    HW233393   2.309   4.085   6.917  0.4372  1.6877  0.1663
 7253SOL     OW33394   2.156   1.230  15.370 -0.2985 -0.5716 -0.0788
 7253SOL    HW133395   2.186   1.240  15.280 -0.3088  1.1215  0.1128
 7253SOL    HW233396   2.243   1.218  15.407 -0.6697 -0.8816  0.6890
 7254SOL     OW33397   4.185   3.129   0.415 -0.7425  0.0506 -0.4397
 7254SOL    HW133398   4.221   3.149   0.329  0.8215 -2.7658 -0.4445
 7254SOL    HW233399   4.223   3.044   0.438 -0.9832 -0.4169 -1.7800
 7255SOL     OW33400   2.094   1.514   9.566 -0.1239 -0.3326 -0.4497
 7255SOL    HW133401   2.089   1.419   9.554 -1.3624 -0.3640  0.2417
 7255SOL    HW233402   2.117   1.517   9.659 -2.6294  0.9805  0.1298
 7256SOL     OW33403   1.759   2.535   3.594 -0.0659 -0.2596  0.2757
 7256SOL    HW133404   1.704   2.457   3.600  1.7846 -1.5322  0.8954
 7256SOL    HW233405   1.711   2.591   3.534  1.1843  0.7142  0.1909
 7257SOL     OW33406   0.714   4.358   7.874  0.3124  0.1038 -0.2977
 7257SOL    HW133407   0.790   4.416   7.880  0.7782 -0.6193  0.6547
 7257SOL    HW233408   0.694   4.335   7.964 -1.5110  2.9672  0.0005
 7258SOL     OW33409   1.645   3.523  10.577 -0.4055 -0.2060  0.1259
 7258SOL    HW133410   1.599   3.548  10.657  1.1704  0.1921  0.8962
 7258SOL    HW233411   1.597   3.573  10.511 -1.6272 -1.9547 -0.3023
 7259SOL     OW33412   1.974   1.570  10.623 -0.4588  0.4258 -0.1946
 7259SOL    HW133413   1.953   1.663  10.614  0.4816  0.9217  2.7777
 7259SOL    HW233414   1.984   1.553  10.717 -1.4851 -2.2173 -0.5554
 7260SOL     OW33415   1.311   3.137   4.503 -0.4483  0.2422 -0.2474
 7260SOL    HW133416   1.301   3.232   4.490  1.8614  0.5784  0.4095
 7260SOL    HW233417   1.223   3.107   4.479  0.4611 -0.4613 -2.6252
 7261SOL     OW33418   0.416   1.652   2.781  0.3417 -0.3357  0.1089
 7261SOL    HW133419   0.325   1.634   2.804  0.0781  1.9572  0.8564
 7261SOL    HW233420   0.410   1.637   2.687  0.8246 -0.1838  0.0548
 7262SOL     OW33421   0.247   1.795   8.204  0.0552  0.2971 -0.2291
 7262SOL    HW133422   0.187   1.835   8.266  2.1183 -0.3874  2.2029
 7262SOL    HW233423   0.178   1.767   8.144  0.2937 -0.9782  0.0946
 7263SOL     OW33424   1.037   2.560   1.832 -0.1804 -0.0956 -0.3124
 7263SOL    HW133425   0.977   2.627   1.866 -0.4594 -1.0718  1.1070
 7263SOL    HW233426   1.123   2.600   1.818  0.3276 -2.0506 -2.9059
 7264SOL     OW33427   4.256   0.136   6.235 -0.5221  0.5135  0.0370
 7264SOL    HW133428   4.324   0.071   6.249 -1.7717 -0.2989  2.3353
 7264SOL    HW233429   4.267   0.203   6.302  1.6532 -0.1076  0.2832
 7265SOL     OW33430   2.586   1.098   1.769 -0.3628 -0.0727  0.4638
 7265SOL    HW133431   2.510   1.156   1.767 -0.4837 -0.3264 -1.7020
 7265SOL    HW233432   2.640   1.141   1.836 -2.9394 -0.0024  2.4906
 7266SOL     OW33433   4.447   3.757   1.248  0.4294 -0.3329  0.0489
 7266SOL    HW133434   4.416   3.814   1.178  0.1178 -0.4547  0.0875
 7266SOL    HW233435   4.374   3.695   1.240  0.9214 -1.1540  1.9745
 7267SOL     OW33436   4.661   1.450   0.659  0.5067  0.3703 -0.6912
 7267SOL    HW133437   4.673   1.387   0.729 -0.3793 -1.2825 -2.0386
 7267SOL    HW233438   4.583   1.423   0.611 -0.8590  3.0759  0.0072
 7268SOL     OW33439   2.571   3.994  10.677 -0.0253 -0.4305  0.4529
 7268SOL    HW133440   2.625   4.017  10.753  1.3414 -0.6565 -0.4435
 7268SOL    HW233441   2.560   4.083  10.643  2.4153  0.1102  1.0765
 7269SOL     OW33442   0.693   3.811   5.816 -0.2355  0.2181 -0.4793
 7269SOL    HW133443   0.664   3.895   5.780  0.5290  1.0174  0.7466
 7269SOL    HW233444   0.772   3.786   5.769 -0.3460 -0.1427 -0.4691
 7270SOL     OW33445   4.143   1.415   5.533 -0.0730  0.4396  0.2196
 7270SOL    HW133446   4.193   1.475   5.588  0.9505  0.8733 -1.1873
 7270SOL    HW233447   4.063   1.396   5.582 -1.3261 -0.8025 -2.3174
 7271SOL     OW33448   3.300   3.259  15.379  0.2752 -0.4597  0.2922
 7271SOL    HW133449   3.256   3.210  15.449 -1.6209 -2.4047 -2.2873
 7271SOL    HW233450   3.379   3.205  15.373 -0.0298 -0.9002  0.2038
 7272SOL     OW33451   3.093   1.152   4.355  0.0124  0.7019  0.1114
 7272SOL    HW133452   3.024   1.088   4.372 -0.6891  1.3257 -0.4371
 7272SOL    HW233453   3.046   1.223   4.312 -1.6429 -0.2424  0.3687
 7273SOL     OW33454   4.366   2.757   9.521 -0.7265 -0.4545 -0.2415
 7273SOL    HW133455   4.461   2.751   9.522 -0.7090 -0.1383  0.6156
 7273SOL    HW233456   4.333   2.674   9.487 -0.1523 -1.3398  1.3647
 7274SOL     OW33457   2.746   3.564   5.860 -0.0963 -0.2476 -0.1407
 7274SOL    HW133458   2.686   3.491   5.848 -1.9233  0.6634  3.5062
 7274SOL    HW233459   2.809   3.535   5.795  0.6417  1.0501 -0.0011
 7275SOL     OW33460   0.482   1.027   7.034  0.3397 -0.0210  0.1511
 7275SOL    HW133461   0.409   1.056   6.980 -1.2316 -0.4767  2.0491
 7275SOL    HW233462   0.454   1.039   7.125 -1.2432 -0.6059 -0.2743
 7276SOL     OW33463   3.935   1.517   1.376 -0.5010  0.5710 -0.1375
 7276SOL    HW133464   3.953   1.538   1.467  2.0970  2.1145 -1.0322
 7276SOL    HW233465   4.028   1.509   1.354 -0.3129  1.1671  0.4538
 7277SOL     OW33466   1.347   4.581   3.683 -0.0820 -0.3901  0.1883
 7277SOL    HW133467   1.366   4.648   3.617 -1.0625  1.7461  2.0748
 7277SOL    HW233468   1.267   4.545   3.644  0.0998 -0.5554 -0.0363
 7278SOL     OW33469   3.739   4.635   9.393 -0.2712 -0.1071  0.2900
 7278SOL    HW133470   3.805   4.633   9.324 -0.5659  0.1493  0.0033
 7278SOL    HW233471   3.770   4.572   9.458 -2.4680 -2.2637 -0.7478
 7279SOL     OW33472   0.119   0.458   8.600 -0.1812 -0.4913 -0.3401
 7279SOL    HW133473   0.078   0.544   8.590  0.0285 -0.1357  1.7237
 7279SOL    HW233474   0.174   0.477   8.676  0.9473  0.6083 -1.4256
 7280SOL     OW33475   3.584   0.287   3.789  0.2616 -0.0451  0.1870
 7280SOL    HW133476   3.638   0.254   3.718 -1.9148 -0.8560 -1.1046
 7280SOL    HW233477   3.573   0.380   3.768  0.0687 -0.3052 -0.8693
 7281SOL     OW33478   2.696   1.042  13.125  0.8460  0.1608  0.4430
 7281SOL    HW133479   2.688   0.970  13.187  2.0421 -1.4185 -1.2198
 7281SOL    HW233480   2.634   1.106  13.159  1.8076  0.4199  1.6833
 7282SOL     OW33481   4.066   2.891   6.369 -0.2301 -0.1992  0.1106
 7282SOL    HW133482   4.009   2.843   6.429 -0.1154  0.8161  1.0302
 7282SOL    HW233483   4.149   2.898   6.416 -0.8021  2.7318  0.7146
 7283SOL     OW33484   3.836   0.509   3.260  0.2923  0.2373 -0.4566
 7283SOL    HW133485   3.867   0.599   3.249 -1.1033  1.0333  2.0131
 7283SOL    HW233486   3.905   0.465   3.211 -0.9764 -2.6674  0.3921
 7284SOL     OW33487   2.223   4.180   1.890  0.5194 -0.4397  0.5094
 7284SOL    HW133488   2.206   4.144   1.977  0.9253  0.8363  1.1222
 7284SOL    HW233489   2.244   4.271   1.913 -2.7228  0.7139 -1.0485
 7285SOL     OW33490   1.535   4.617   0.681 -0.0804 -0.1604 -0.0868
 7285SOL    HW133491   1.542   4.708   0.711  1.1574 -0.8986  1.8560
 7285SOL    HW233492   1.625   4.590   0.662  0.9090  0.9689  2.9585
 7286SOL     OW33493   1.767   3.021   9.401  0.3628 -0.3017  0.1282
 7286SOL    HW133494   1.724   2.939   9.379  0.6826 -0.2912 -0.5419
 7286SOL    HW233495   1.687   3.074   9.405  0.5262  0.0598 -1.3976
 7287SOL     OW33496   2.363   4.300   6.105  0.1392 -0.1750  0.4163
 7287SOL    HW133497   2.370   4.383   6.152  1.1507 -0.5210  0.8845
 7287SOL    HW233498   2.419   4.244   6.159  0.3191 -1.4042 -1.0420
 7288SOL     OW33499   2.151   3.989   8.967 -0.0842 -0.0574  0.0114
 7288SOL    HW133500   2.087   3.944   8.911  0.2791  1.0336 -1.2753
 7288SOL    HW233501   2.219   4.009   8.903 -1.1184 -0.4834 -1.2385
 7289SOL     OW33502   1.481   2.063   2.096 -0.1112 -0.7107 -0.3584
 7289SOL    HW133503   1.551   2.080   2.033 -0.3308  1.1046 -0.1056
 7289SOL    HW233504   1.412   2.099   2.041  0.4795 -0.0180 -0.6535
 7290SOL     OW33505   3.804   2.277   3.680 -0.3486 -0.0289 -0.1968
 7290SOL    HW133506   3.859   2.225   3.621 -1.9761 -0.8296 -1.0212
 7290SOL    HW233507   3.719   2.290   3.638  0.2602 -0.9289 -1.7036
 7291SOL     OW33508   2.435   1.007   6.726  0.3191  0.5121  0.0590
 7291SOL    HW133509   2.502   1.070   6.751 -1.0377  1.7679  0.5790
 7291SOL    HW233510   2.403   0.989   6.815  2.3308  1.2738  0.9260
 7292SOL     OW33511   2.095   0.296   2.707 -0.1088 -0.0538  1.1395
 7292SOL    HW133512   2.108   0.240   2.784  3.0705 -0.0188  0.5932
 7292SOL    HW233513   2.005   0.323   2.726  0.0995  1.6111 -0.2624
 7293SOL     OW33514   0.511   4.545   8.811  0.1182 -0.2739 -0.8372
 7293SOL    HW133515   0.484   4.600   8.885  1.4454 -0.3725 -0.2934
 7293SOL    HW233516   0.481   4.457   8.831  0.2827 -0.6147 -2.0722
 7294SOL     OW33517   3.208   1.474   0.409 -0.7616  0.6361 -0.9123
 7294SOL    HW133518   3.205   1.568   0.429  2.3635  0.0331  2.4510
 7294SOL    HW233519   3.295   1.460   0.371  0.1615  0.9263  1.0375
 7295SOL     OW33520   4.615   0.175   5.180 -0.0617  0.0886 -0.0102
 7295SOL    HW133521   4.673   0.250   5.168  1.4111 -0.6572  2.4206
 7295SOL    HW233522   4.530   0.210   5.207 -1.0629 -1.4235 -1.1842
 7296SOL     OW33523   3.541   2.558   7.491 -0.2495 -0.2110  0.3089
 7296SOL    HW133524   3.498   2.480   7.524 -0.3379  0.0101  0.7212
 7296SOL    HW233525   3.548   2.549   7.396 -0.8725 -0.6810  0.3093
 7297SOL     OW33526   0.850   2.401   5.356 -0.0538 -0.0902  0.3375
 7297SOL    HW133527   0.872   2.462   5.427 -0.4460  0.7059 -0.2161
 7297SOL    HW233528   0.759   2.430   5.349 -0.4475 -1.7530 -1.4696
 7298SOL     OW33529   4.557   2.716   3.966  0.4009 -0.1315  0.1493
 7298SOL    HW133530   4.568   2.733   4.059 -1.7191 -1.4624  0.6514
 7298SOL    HW233531   4.476   2.665   3.958  0.9730 -1.0216  0.0741
 7299SOL     OW33532   2.388   1.052   3.983  0.1975  0.2626  0.1315
 7299SOL    HW133533   2.351   1.137   3.957  2.7566  0.9559 -1.2449
 7299SOL    HW233534   2.462   1.048   3.922  1.7527  0.2782  2.0540
 7300SOL     OW33535   1.735   4.524   5.907 -0.1287 -0.1998  0.2071
 7300SOL    HW133536   1.819   4.536   5.950 -0.0179  0.2547 -0.1420
 7300SOL    HW233537   1.701   4.613   5.893 -0.3130 -0.6753 -2.2964
 7301SOL     OW33538   3.635   2.599   5.317  0.4436 -0.1831  0.4103
 7301SOL    HW133539   3.654   2.598   5.224 -3.3333  1.6128 -0.4124
 7301SOL    HW233540   3.605   2.508   5.320  0.4115 -0.2196 -0.9621
 7302SOL     OW33541   1.767   1.164   9.209 -0.3894  0.1469  0.5210
 7302SOL    HW133542   1.745   1.239   9.154 -1.0964 -1.4254 -1.3448
 7302SOL    HW233543   1.863   1.164   9.201 -0.4323  0.4498  0.0410
 7303SOL     OW33544   2.581   3.575   3.888  0.0236 -0.0072  0.8390
 7303SOL    HW133545   2.637   3.648   3.914  1.9201 -0.8629 -0.8400
 7303SOL    HW233546   2.572   3.549   3.980 -4.3398 -1.8916 -0.1286
 7304SOL     OW33547   4.086   2.977   5.813 -0.0951  0.6502  0.1605
 7304SOL    HW133548   4.082   3.003   5.905  1.3499 -2.8775  1.2202
 7304SOL    HW233549   3.994   2.971   5.788  0.1017  1.7745 -0.8626
 7305SOL     OW33550   2.997   2.134  16.262 -0.1716 -0.0852 -0.1776
 7305SOL    HW133551   3.002   2.044  16.231 -2.7775 -0.9569  1.8935
 7305SOL    HW233552   2.965   2.129  16.352  2.3217 -0.3415  0.6954
 7306SOL     OW33553   2.131   4.719   1.701  0.5379  0.1025  0.2771
 7306SOL    HW133554   2.079   0.062   1.703 -3.1763 -2.3273  1.3948
 7306SOL    HW233555   2.065   4.651   1.715 -0.6795  1.3769  0.7008
 7307SOL     OW33556   1.830   3.765   3.545 -0.2406 -0.1838 -0.1132
 7307SOL    HW133557   1.916   3.789   3.510  0.4255  0.0898  1.6905
 7307SOL    HW233558   1.808   3.696   3.482 -1.2093  0.0576 -0.0422
 7308SOL     OW33559   3.593   0.674   3.221  0.5140 -0.4794  0.4939
 7308SOL    HW133560   3.592   0.607   3.152  0.5411 -0.5387  0.5503
 7308SOL    HW233561   3.640   0.626   3.290 -0.7994 -1.6751  0.5693
 7309SOL     OW33562   1.604   1.345   7.788  0.1314 -0.0438 -0.6028
 7309SOL    HW133563   1.680   1.383   7.745 -0.9121  2.6088 -0.1063
 7309SOL    HW233564   1.548   1.329   7.712  1.4455 -1.2889 -1.2869
 7310SOL     OW33565   1.202   1.387   0.666  0.3731 -0.2786 -0.1627
 7310SOL    HW133566   1.209   1.448   0.739 -1.9223  0.8718 -0.8901
 7310SOL    HW233567   1.168   1.315   0.720  1.9262 -2.5618 -2.2607
 7311SOL     OW33568   1.728   0.692   5.582 -0.8533 -0.1616 -0.5173
 7311SOL    HW133569   1.817   0.695   5.615 -1.3821  0.7437  0.8388
 7311SOL    HW233570   1.741   0.655   5.495  0.3511 -2.9464  0.8424
 7312SOL     OW33571   0.646   0.913  16.475 -0.1859  0.4802  0.7194
 7312SOL    HW133572   0.593   0.925  16.554 -0.8473  0.2999  0.2934
 7312SOL    HW233573   0.716   0.859  16.511 -0.2320 -0.1114 -0.0768
 7313SOL     OW33574   2.458   1.017   1.199  0.0530 -0.0595 -0.2968
 7313SOL    HW133575   2.464   0.922   1.212  0.0591  0.0478  0.4674
 7313SOL    HW233576   2.530   1.043   1.141  0.9888 -0.5267  0.6574
 7314SOL     OW33577   1.965   3.530   8.857  0.0671 -0.5643  0.1040
 7314SOL    HW133578   1.943   3.469   8.787  2.2448 -0.5568 -0.5824
 7314SOL    HW233579   1.976   3.464   8.926 -2.9031 -0.3324  0.8281
 7315SOL     OW33580   1.492   0.569   3.715 -0.0157  0.3010  0.2537
 7315SOL    HW133581   1.436   0.615   3.651 -1.0829  0.5783  1.3901
 7315SOL    HW233582   1.581   0.597   3.693  0.5084 -1.1362  0.6039
 7316SOL     OW33583   2.879   0.664  13.584 -0.9171  0.5988  0.3695
 7316SOL    HW133584   2.837   0.733  13.636 -0.1692  0.3971  1.2458
 7316SOL    HW233585   2.969   0.681  13.611 -0.1959 -0.7958 -1.1621
 7317SOL     OW33586   1.163   1.959   8.674  0.2340  0.3767 -0.4616
 7317SOL    HW133587   1.085   1.983   8.724  1.4189  0.9063  1.1033
 7317SOL    HW233588   1.141   1.980   8.583 -0.3704 -1.9723 -0.8623
 7318SOL     OW33589   1.154   3.694  16.448  0.1744  0.5413 -0.1937
 7318SOL    HW133590   1.241   3.718  16.417  0.9918 -2.2050 -0.0588
 7318SOL    HW233591   1.177   3.634  16.520  0.5655  0.2056 -0.5995
 7319SOL     OW33592   4.558   3.029   2.976 -0.6596 -0.6978  0.1198
 7319SOL    HW133593   4.483   3.004   3.030 -3.0580  0.9955 -2.4499
 7319SOL    HW233594   4.527   3.104   2.925 -0.4892  0.8130  2.2228
 7320SOL     OW33595   3.908   0.158  16.607 -0.6102  0.3159  0.2239
 7320SOL    HW133596   3.872   0.070  16.598  0.7608 -0.6542  4.1874
 7320SOL    HW233597   3.941   0.176  16.520  0.3728  1.2541  0.7920
 7321SOL     OW33598   0.393   2.134  11.092  0.1838 -0.0849 -0.5536
 7321SOL    HW133599   0.365   2.080  11.166 -0.4162 -0.6279 -1.1780
 7321SOL    HW233600   0.466   2.087  11.051  1.0154 -1.3807  2.3935
 7322SOL     OW33601   0.390   3.111   2.477 -0.0371 -0.4822 -0.1185
 7322SOL    HW133602   0.363   3.202   2.476  1.0109 -0.1752 -0.5434
 7322SOL    HW233603   0.390   3.088   2.570  0.3320  0.2734  0.0654
 7323SOL     OW33604   2.707   0.668  13.289 -0.3413  0.6706  0.1694
 7323SOL    HW133605   2.727   0.575  13.298  0.0857  0.7813  0.3731
 7323SOL    HW233606   2.660   0.673  13.206  0.5335  0.8529 -0.3192
 7324SOL     OW33607   3.500   1.823   5.863  0.5200  0.1741 -0.0415
 7324SOL    HW133608   3.572   1.769   5.896 -1.2134 -0.8004  2.1578
 7324SOL    HW233609   3.430   1.758   5.867  2.0091 -1.2271  3.2613
 7325SOL     OW33610   0.655   1.642   4.520  0.2704 -0.0487  0.3399
 7325SOL    HW133611   0.638   1.586   4.595 -1.2145 -0.2211 -0.1314
 7325SOL    HW233612   0.570   1.668   4.485  0.5370  0.7159  0.2755
 7326SOL     OW33613   1.992   0.629   3.523 -0.0473 -0.1553 -1.4413
 7326SOL    HW133614   2.059   0.589   3.578  0.2770  1.1887 -0.8521
 7326SOL    HW233615   1.973   0.705   3.578 -0.8533 -0.2568 -1.5796
 7327SOL     OW33616   1.989   1.089   8.050 -0.4557 -0.5047  0.3310
 7327SOL    HW133617   2.049   1.032   8.002  0.8934 -0.2591  1.7304
 7327SOL    HW233618   2.055   1.148   8.085 -2.9974  1.5747  1.5947
 7328SOL     OW33619   1.448   2.502  12.141  0.1245 -0.1213 -0.1279
 7328SOL    HW133620   1.517   2.458  12.191  1.7568  0.7735 -1.5967
 7328SOL    HW233621   1.397   2.546  12.209  2.0391 -0.4867  1.5436
 7329SOL     OW33622   2.774   2.897   8.419  0.2063 -0.4730  0.3115
 7329SOL    HW133623   2.805   2.988   8.424  1.8232 -0.8637 -2.8064
 7329SOL    HW233624   2.750   2.879   8.510  1.0113 -0.2684  0.5618
 7330SOL     OW33625   1.692   2.146   3.448 -0.5723 -0.2286 -0.1733
 7330SOL    HW133626   1.656   2.224   3.405  2.0331  0.9427 -0.2311
 7330SOL    HW233627   1.687   2.086   3.373  0.8977 -2.7730  1.7621
 7331SOL     OW33628   1.997   4.120   4.590 -0.3603 -0.0586  0.3603
 7331SOL    HW133629   1.991   4.067   4.512 -1.0677 -2.6169  2.1656
 7331SOL    HW233630   2.040   4.054   4.645  0.9962  1.3125  0.9597
 7332SOL     OW33631   2.215   3.956  16.710 -0.0692  0.5228 -0.2722
 7332SOL    HW133632   2.131   4.001  16.698 -0.7687 -0.5651  0.5543
 7332SOL    HW233633   2.206   3.902  16.789 -0.5143  0.1693 -0.5671
 7333SOL     OW33634   2.056   2.671   8.510 -0.2643  0.4085 -0.5930
 7333SOL    HW133635   2.006   2.639   8.434 -0.8169  1.0835 -0.5190
 7333SOL    HW233636   2.128   2.716   8.466  0.6415  1.3324  1.8419
 7334SOL     OW33637   0.727   1.818   2.849 -0.0811  0.4843 -0.1104
 7334SOL    HW133638   0.814   1.805   2.885 -0.5132 -1.3144  0.3120
 7334SOL    HW233639   0.683   1.752   2.905 -0.5601  0.4088 -0.5748
 7335SOL     OW33640   1.158   1.624   3.547 -0.8400  0.1098 -0.4381
 7335SOL    HW133641   1.127   1.579   3.626 -1.9057  2.3302  0.4116
 7335SOL    HW233642   1.226   1.679   3.583 -0.8092  1.0835 -1.9916
 7336SOL     OW33643   3.307   2.657   3.335  0.1031 -0.2096 -0.4122
 7336SOL    HW133644   3.329   2.736   3.285  0.5988 -1.0723 -1.5556
 7336SOL    HW233645   3.322   2.604   3.256 -0.4907  0.7401 -1.1673
 7337SOL     OW33646   2.896   4.548   8.382  0.0961  0.2682  0.3640
 7337SOL    HW133647   2.917   4.455   8.376 -1.6848  0.1133 -3.6565
 7337SOL    HW233648   2.823   4.548   8.445 -0.6807  1.2399 -0.5276
 7338SOL     OW33649   0.454   3.592   8.840  0.3024 -0.1455  0.0546
 7338SOL    HW133650   0.545   3.618   8.851  0.1395  0.5898 -0.3668
 7338SOL    HW233651   0.403   3.650   8.897 -0.6482 -0.8420 -0.0896
 7339SOL     OW33652   2.634   4.239   3.330  0.4594  0.1814 -1.2467
 7339SOL    HW133653   2.705   4.297   3.358 -0.8913  0.7486  0.9832
 7339SOL    HW233654   2.645   4.236   3.235  1.0082  2.2141 -1.2402
 7340SOL     OW33655   3.665   2.962   5.122  0.3082  0.6195  0.2848
 7340SOL    HW133656   3.601   2.893   5.140 -0.0023  1.0683  0.9505
 7340SOL    HW233657   3.667   3.017   5.201 -0.3846 -0.5869  1.1472
 7341SOL     OW33658   1.121   2.175  10.328  0.1785 -0.0749  0.1218
 7341SOL    HW133659   1.120   2.122  10.407  0.4991 -1.1293 -0.5823
 7341SOL    HW233660   1.199   2.227  10.346 -0.2772  0.9058 -0.7367
 7342SOL     OW33661   0.617   4.678  17.700 -0.3320 -0.1650 -0.0245
 7342SOL    HW133662   0.670   4.660  17.622 -1.6215 -1.2505 -0.6455
 7342SOL    HW233663   0.597   0.033  17.685 -0.8597  0.0290  1.8619
 7343SOL     OW33664   1.795   2.794   2.601  0.5387 -0.3249  0.6220
 7343SOL    HW133665   1.735   2.769   2.672  0.1089 -3.9375 -1.0020
 7343SOL    HW233666   1.792   2.889   2.612  1.7695  0.0208 -2.3434
 7344SOL     OW33667   0.108   1.829   6.321 -0.2895 -0.9421  0.1921
 7344SOL    HW133668   0.055   1.908   6.321  1.7265  0.3924  1.2666
 7344SOL    HW233669   0.125   1.811   6.228  1.5304 -2.5970  0.8350
 7345SOL     OW33670   1.808   0.816  10.774  0.1041 -0.2610  0.4735
 7345SOL    HW133671   1.748   0.855  10.711 -0.4916 -1.3552  0.3677
 7345SOL    HW233672   1.751   0.751  10.814  1.0634 -0.9523  0.7181
 7346SOL     OW33673   3.646   2.644   2.228  0.0597  0.0509 -0.1109
 7346SOL    HW133674   3.736   2.613   2.236  0.1394  0.4190  0.3962
 7346SOL    HW233675   3.638   2.690   2.312 -1.7283  1.7499 -1.2270
 7347SOL     OW33676   1.744   1.272  12.600 -0.0014  0.2931  0.2515
 7347SOL    HW133677   1.740   1.210  12.527  1.6343  2.1912 -1.4531
 7347SOL    HW233678   1.769   1.220  12.676 -0.0092 -0.2804 -0.1329
 7348SOL     OW33679   3.655   0.839   6.093 -0.0617  0.0385  0.1970
 7348SOL    HW133680   3.716   0.766   6.101 -2.1824 -1.7925 -0.6758
 7348SOL    HW233681   3.680   0.864   6.004  0.4914  0.6437  0.5156
 7349SOL     OW33682   1.083   4.397   5.028  0.1440 -0.4891 -0.0607
 7349SOL    HW133683   1.151   4.410   4.962 -1.2546 -0.8041 -1.5638
 7349SOL    HW233684   1.023   4.333   4.989 -2.1211  0.3831  1.9376
 7350SOL     OW33685   0.901   2.573   4.935  0.1051 -0.0620 -0.3944
 7350SOL    HW133686   0.946   2.492   4.911 -1.7223 -1.5533  1.1950
 7350SOL    HW233687   0.970   2.614   4.987 -0.2512 -0.4972  0.4297
 7351SOL     OW33688   4.468   2.162   2.535 -0.5580 -0.3538 -0.2482
 7351SOL    HW133689   4.495   2.078   2.574 -1.0297 -1.2189 -1.7943
 7351SOL    HW233690   4.379   2.178   2.565 -0.2576 -0.1862  0.5581
 7352SOL     OW33691   4.200   0.860   2.358 -0.4145 -0.3354  0.2506
 7352SOL    HW133692   4.268   0.903   2.305  0.8156 -0.2262  1.8945
 7352SOL    HW233693   4.134   0.928   2.369 -1.3132 -1.1609 -0.0507
 7353SOL     OW33694   3.483   0.137   5.251 -0.0484 -0.4291  0.0309
 7353SOL    HW133695   3.471   0.198   5.178  1.0722  0.3897  0.5242
 7353SOL    HW233696   3.542   0.075   5.209 -2.5083 -2.5449 -0.2440
 7354SOL     OW33697   4.122   0.078   4.942  0.1986  0.5191 -0.5922
 7354SOL    HW133698   4.045   0.059   4.888 -1.0906  0.6791  1.1997
 7354SOL    HW233699   4.114   0.164   4.982 -0.2338  0.4439 -0.5146
 7355SOL     OW33700   1.068   3.271   4.380 -0.3863 -0.5875 -0.1434
 7355SOL    HW133701   1.123   3.238   4.309  0.5745  0.0247  0.3084
 7355SOL    HW233702   1.119   3.344   4.416 -3.0584  1.5256 -0.6298
 7356SOL     OW33703   3.562   1.250   3.085  0.7479 -0.0170  0.2363
 7356SOL    HW133704   3.644   1.213   3.053  0.5145  1.0028 -1.5731
 7356SOL    HW233705   3.561   1.341   3.054 -0.5910  0.5342  1.9002
 7357SOL     OW33706   1.119   2.878   1.823  0.3031  0.5070 -0.2376
 7357SOL    HW133707   1.161   2.893   1.738 -1.5069 -0.7588 -1.3455
 7357SOL    HW233708   1.050   2.944   1.818  0.0961  0.2022 -1.2772
 7358SOL     OW33709   2.871   3.123   8.561 -0.9733 -0.1310  0.4235
 7358SOL    HW133710   2.819   3.153   8.635 -1.3366 -1.6774  0.7920
 7358SOL    HW233711   2.954   3.171   8.565 -0.1209 -1.1706 -4.4068
 7359SOL     OW33712   0.838   2.117   9.441 -0.3027  0.1586  0.7263
 7359SOL    HW133713   0.805   2.110   9.531 -0.6387  2.0491  0.7435
 7359SOL    HW233714   0.775   2.060   9.398  2.8144 -3.4329  0.8705
 7360SOL     OW33715   4.388   3.218   5.021  0.0927  0.1333 -0.7915
 7360SOL    HW133716   4.375   3.310   4.997  0.7535  1.2030  2.9552
 7360SOL    HW233717   4.309   3.203   5.072  0.5897  1.8173  0.4590
 7361SOL     OW33718   0.045   0.103   2.786 -0.5594 -0.3165 -0.1748
 7361SOL    HW133719   0.032   0.049   2.708 -1.2471 -1.6725  0.8689
 7361SOL    HW233720   0.124   0.148   2.757 -0.3067 -1.0669 -0.6630
 7362SOL     OW33721   1.528   2.622   8.759  0.1990  0.2064  0.2601
 7362SOL    HW133722   1.462   2.584   8.817 -2.1417  1.0032 -1.9116
 7362SOL    HW233723   1.506   2.714   8.774  0.1502 -0.2268  2.8793
 7363SOL     OW33724   0.896   3.554   4.406 -0.2119 -0.0054 -0.1893
 7363SOL    HW133725   0.899   3.562   4.502  0.2979  0.1820 -0.2200
 7363SOL    HW233726   0.841   3.629   4.385  1.0501  1.7364  2.6288
 7364SOL     OW33727   1.297   3.758   5.701  0.2533  0.0522 -0.1560
 7364SOL    HW133728   1.245   3.783   5.625  0.3759  1.8168  0.3426
 7364SOL    HW233729   1.385   3.758   5.663  1.1820 -2.3247  2.0197
 7365SOL     OW33730   2.797   2.051  16.925  0.3609 -0.2990  0.9008
 7365SOL    HW133731   2.845   2.133  16.917  2.2155 -1.5984 -1.1603
 7365SOL    HW233732   2.853   1.989  16.878  0.0194 -0.6722  0.9855
 7366SOL     OW33733   4.255   4.144  15.723 -0.4249 -0.6288  0.9354
 7366SOL    HW133734   4.224   4.054  15.716 -1.8270 -0.0336 -0.5078
 7366SOL    HW233735   4.340   4.127  15.764 -1.3271  2.3830  4.0560
 7367SOL     OW33736   1.448   1.905   7.928 -0.5510  0.4372 -0.8623
 7367SOL    HW133737   1.466   1.982   7.982  1.7104  0.4363 -1.6164
 7367SOL    HW233738   1.352   1.900   7.924 -0.5902 -0.4696  1.1241
 7368SOL     OW33739   2.629   3.242   0.844  0.1566  0.2041  0.1541
 7368SOL    HW133740   2.535   3.228   0.852  0.0968  1.4767  1.7371
 7368SOL    HW233741   2.630   3.225   0.750  2.2089  0.1007  0.2016
 7369SOL     OW33742   3.198   2.435   6.060 -0.4077 -0.5901 -0.5205
 7369SOL    HW133743   3.146   2.387   6.124 -2.0606  0.9479 -0.7084
 7369SOL    HW233744   3.148   2.515   6.045  0.6289 -0.2437 -2.1482
 7370SOL     OW33745   2.399   0.225   6.098 -0.1044  0.1845 -0.1649
 7370SOL    HW133746   2.311   0.228   6.060  0.1768 -0.0367 -0.8305
 7370SOL    HW233747   2.452   0.209   6.021 -0.6193  2.8318 -1.0706
 7371SOL     OW33748   3.136   2.014   9.047 -0.0769 -0.7823 -0.3219
 7371SOL    HW133749   3.216   2.049   9.007 -0.3253 -0.5166 -0.5756
 7371SOL    HW233750   3.163   2.000   9.138 -3.5576  0.3898  0.8827
 7372SOL     OW33751   2.970   0.920   1.689  0.1686 -0.4002  0.7805
 7372SOL    HW133752   2.960   0.833   1.650  0.4675  0.4698 -1.2437
 7372SOL    HW233753   2.896   0.966   1.649 -0.1108 -0.5273  1.1567
 7373SOL     OW33754   1.820   3.260   5.262 -0.4116 -0.5596  0.6286
 7373SOL    HW133755   1.753   3.312   5.217 -0.4699 -1.6938 -0.5928
 7373SOL    HW233756   1.884   3.326   5.289 -0.7174  0.4552 -1.1436
 7374SOL     OW33757   3.742   1.634   5.939 -0.4001 -0.9832 -0.6038
 7374SOL    HW133758   3.698   1.551   5.962  1.0838 -1.2725  1.2043
 7374SOL    HW233759   3.831   1.615   5.969 -1.8753 -0.5644  4.0523
 7375SOL     OW33760   0.568   3.814   2.441  0.2669  0.6758 -0.6411
 7375SOL    HW133761   0.478   3.814   2.474  1.2854  4.0061  2.2484
 7375SOL    HW233762   0.610   3.853   2.518  0.4362 -0.5888 -0.0923
 7376SOL     OW33763   0.504   4.707   8.595  0.2899  0.2973 -0.6153
 7376SOL    HW133764   0.508   4.662   8.679  0.9120 -1.0960 -1.4041
 7376SOL    HW233765   0.468   4.639   8.538  2.5722 -0.7158 -0.8439
 7377SOL     OW33766   3.848   4.548  15.694 -0.0342 -0.1603 -0.3459
 7377SOL    HW133767   3.919   4.522  15.634 -0.1796 -2.6625  0.5543
 7377SOL    HW233768   3.874   4.639  15.702  0.1091 -0.2870  0.5687
 7378SOL     OW33769   2.210   4.389   3.343 -0.0193  0.2793 -0.0712
 7378SOL    HW133770   2.150   4.354   3.408  2.6819 -0.2142  2.1675
 7378SOL    HW233771   2.255   4.307   3.319  0.9582  0.3553  1.5269
 7379SOL     OW33772   3.588   1.651   4.214 -0.2918  0.6251 -0.0320
 7379SOL    HW133773   3.585   1.556   4.205  0.7351  0.8266 -2.5997
 7379SOL    HW233774   3.604   1.678   4.123  1.8671  0.0149  0.1551
 7380SOL     OW33775   1.255   3.065   3.299  0.2731  0.1235 -0.0795
 7380SOL    HW133776   1.207   3.141   3.330  0.2470  0.2175 -0.3438
 7380SOL    HW233777   1.215   2.989   3.340 -1.1453  0.1145 -1.4617
 7381SOL     OW33778   1.439   0.823  16.465 -0.0422  0.1503 -0.3130
 7381SOL    HW133779   1.387   0.875  16.525 -2.3556 -1.3182 -1.0453
 7381SOL    HW233780   1.437   0.737  16.506 -0.2962 -0.2755 -1.2064
 7382SOL     OW33781   3.620   4.479   0.001 -0.0173 -0.1635  0.6369
 7382SOL    HW133782   3.538   4.430  17.747 -1.2949  1.9794 -0.8874
 7382SOL    HW233783   3.667   4.427   0.065 -0.8833 -1.0973  0.5142
 7383SOL     OW33784   2.434   2.431   6.558 -0.2536  0.1533 -0.1517
 7383SOL    HW133785   2.483   2.395   6.632  2.2893  1.5266 -1.1483
 7383SOL    HW233786   2.479   2.513   6.536  0.5181 -0.5206 -1.0740
 7384SOL     OW33787   2.761   2.946   6.383  0.3647  0.2811 -0.3506
 7384SOL    HW133788   2.697   3.012   6.355  0.0221  1.2059  2.6624
 7384SOL    HW233789   2.736   2.879   6.319 -0.5839 -1.2138  1.5728
 7385SOL     OW33790   1.465   0.303   3.471  0.6157 -0.0620 -0.1375
 7385SOL    HW133791   1.422   0.378   3.430 -0.4322 -0.8368 -0.4454
 7385SOL    HW233792   1.490   0.257   3.391 -0.0070 -3.0967  1.3865
 7386SOL     OW33793   0.580   2.929   5.337  0.1329 -0.0023 -0.3822
 7386SOL    HW133794   0.618   2.937   5.250 -0.8255 -1.7250 -0.9560
 7386SOL    HW233795   0.565   3.022   5.355 -0.3044 -0.0423 -0.5531
 7387SOL     OW33796   4.465   1.192   2.443 -0.2679 -0.4277  0.2229
 7387SOL    HW133797   4.457   1.120   2.505 -1.3548  0.5626  1.2393
 7387SOL    HW233798   4.547   1.238   2.463  0.0168  0.4436 -2.8810
 7388SOL     OW33799   4.522   2.673   4.263 -0.1996  0.1944  0.7549
 7388SOL    HW133800   4.504   2.759   4.300  0.4670  1.3794 -1.6777
 7388SOL    HW233801   4.596   2.649   4.318  1.8916  1.5775 -1.5092
 7389SOL     OW33802   0.056   2.684   5.081 -0.4622  0.0490 -0.5176
 7389SOL    HW133803   4.723   2.637   5.126  0.2723 -0.2748  0.3000
 7389SOL    HW233804   0.094   2.731   5.156  1.0298  0.0616 -1.2736
 7390SOL     OW33805   4.713   2.565   7.384  0.2249  0.1155  0.2363
 7390SOL    HW133806   4.673   2.579   7.298  0.4902  0.6960  0.2080
 7390SOL    HW233807   4.678   2.478   7.405 -0.4361  0.2361 -0.3856
 7391SOL     OW33808   3.717   0.348  11.844 -0.0096 -0.3777 -0.3443
 7391SOL    HW133809   3.779   0.373  11.913 -1.2539  1.9567 -0.0958
 7391SOL    HW233810   3.760   0.396  11.774  0.9881 -1.5516 -0.5382
 7392SOL     OW33811   3.324   3.382   4.984  0.0470  0.2720 -0.5725
 7392SOL    HW133812   3.251   3.402   5.044  0.4660 -1.1613  0.3942
 7392SOL    HW233813   3.381   3.328   5.038  0.6574  0.7985 -0.6910
 7393SOL     OW33814   1.382   2.814   8.166  0.0681  0.1067 -0.5486
 7393SOL    HW133815   1.323   2.769   8.227  0.7443 -1.2474 -0.8863
 7393SOL    HW233816   1.349   2.902   8.148  2.3755  0.9495 -0.6395
 7394SOL     OW33817   1.039   2.906   4.980 -0.1711  0.3515  0.4099
 7394SOL    HW133818   1.058   2.814   4.998  1.4709  0.2990 -1.5241
 7394SOL    HW233819   1.108   2.939   5.037 -0.0304  0.9050 -0.0850
 7395SOL     OW33820   0.518   2.313   8.445  0.3925 -0.2953  0.1990
 7395SOL    HW133821   0.550   2.324   8.535  0.3926 -0.6654  0.2429
 7395SOL    HW233822   0.511   2.218   8.450 -0.4343 -0.2935 -0.9937
 7396SOL     OW33823   3.881   0.974  12.567  0.1132 -0.2489 -0.4627
 7396SOL    HW133824   3.976   0.984  12.575 -0.0283  1.3153 -0.6592
 7396SOL    HW233825   3.847   0.963  12.656  0.6785  0.6468 -0.1367
 7397SOL     OW33826   3.429   4.017   5.612 -0.1454 -0.4013 -0.0449
 7397SOL    HW133827   3.462   3.961   5.681  0.5654  1.1642  0.8848
 7397SOL    HW233828   3.499   4.001   5.549 -0.1566 -1.6412  0.2630
 7398SOL     OW33829   0.112   2.756  12.907 -0.4812 -0.0395  0.3295
 7398SOL    HW133830   0.171   2.828  12.928  1.1200 -1.7181  1.6203
 7398SOL    HW233831   0.036   2.812  12.891  0.4296  1.1494  0.1469
 7399SOL     OW33832   0.225   1.658   6.510  0.0664 -0.3138  0.2931
 7399SOL    HW133833   0.197   1.716   6.439  1.8768 -1.2760 -1.2151
 7399SOL    HW233834   0.299   1.613   6.469 -0.3724 -0.7138 -0.0432
 7400SOL     OW33835   1.419   4.639   9.568  0.0642  0.4754 -0.0675
 7400SOL    HW133836   1.376   4.563   9.528 -0.2843  1.0977 -0.8928
 7400SOL    HW233837   1.511   4.613   9.569  0.4402  1.7804  0.1740
 7401SOL     OW33838   0.607   2.839   8.360 -0.1012  0.2132 -0.0681
 7401SOL    HW133839   0.563   2.924   8.360  1.7558  1.1759 -2.5725
 7401SOL    HW233840   0.527   2.792   8.384 -0.1885 -0.4254 -1.6296
 7402SOL     OW33841   3.089   3.940   9.266  0.4079 -1.0323  0.0984
 7402SOL    HW133842   3.033   3.945   9.344  1.2195 -0.5643  0.6439
 7402SOL    HW233843   3.076   4.030   9.237  0.5037 -0.6148  1.3573
 7403SOL     OW33844   1.628   4.357   2.982 -0.2473 -0.2115  0.6624
 7403SOL    HW133845   1.582   4.386   3.060  0.4177  0.4738  0.8034
 7403SOL    HW233846   1.584   4.418   2.922  1.3090 -1.2019 -1.4878
 7404SOL     OW33847   3.711   2.594   5.769 -0.9809 -0.6758  0.2389
 7404SOL    HW133848   3.627   2.581   5.814 -1.0452  1.7063  0.8031
 7404SOL    HW233849   3.765   2.613   5.846 -1.5723  1.1070  0.2026
 7405SOL     OW33850   3.204   3.379   9.204 -0.8284  0.8983 -0.1634
 7405SOL    HW133851   3.207   3.462   9.253 -0.2867  1.4442 -1.1124
 7405SOL    HW233852   3.114   3.356   9.185 -0.4820  0.5739 -1.3896
 7406SOL     OW33853   4.625   2.567   8.073 -0.8424 -0.0718  0.0908
 7406SOL    HW133854   4.711   2.593   8.106  0.3542  0.0733 -3.1140
 7406SOL    HW233855   4.648   2.484   8.031 -1.6979 -0.9789  1.4273
 7407SOL     OW33856   2.181   1.920   7.880 -0.2940 -0.1987 -0.0014
 7407SOL    HW133857   2.099   1.922   7.929 -0.6283  1.3528 -0.6233
 7407SOL    HW233858   2.227   1.995   7.917 -1.8502  1.2442 -1.0082
 7408SOL     OW33859   0.374   4.711   1.934 -0.6295  0.1789  0.2916
 7408SOL    HW133860   0.389   0.066   1.957  0.4470  0.3991 -1.2550
 7408SOL    HW233861   0.447   4.700   1.874  0.6998  0.4126  1.8762
 7409SOL     OW33862   1.859   1.176  11.414 -0.5688 -0.2523 -0.2463
 7409SOL    HW133863   1.921   1.136  11.474 -2.1711 -0.1576  1.4942
 7409SOL    HW233864   1.909   1.237  11.359 -1.3306 -0.0449 -0.7253
 7410SOL     OW33865   1.440   4.053   8.070 -0.2042 -0.6400 -0.4873
 7410SOL    HW133866   1.472   4.142   8.057 -1.3100  0.1528  2.3033
 7410SOL    HW233867   1.514   4.000   8.099  0.3071  0.4563  0.1841
 7411SOL     OW33868   1.071   4.302   7.286  0.0222 -0.6562  0.4005
 7411SOL    HW133869   1.012   4.273   7.356  0.5371 -0.2414  1.0074
 7411SOL    HW233870   1.085   4.394   7.309  0.0096 -0.1801 -1.5338
 7412SOL     OW33871   1.716   1.026   3.264 -0.1190  0.2963  0.2089
 7412SOL    HW133872   1.742   0.995   3.351 -2.0184 -1.5085  0.1335
 7412SOL    HW233873   1.734   0.948   3.212 -0.7874  0.9912 -1.0596
 7413SOL     OW33874   3.848   0.277  12.412 -0.1061  0.0225 -0.2899
 7413SOL    HW133875   3.762   0.318  12.417  0.2711  0.7528  0.1523
 7413SOL    HW233876   3.894   0.348  12.367 -2.2908 -0.3951 -3.1744
 7414SOL     OW33877   2.612   0.821  14.631  0.3778 -0.4277  0.3698
 7414SOL    HW133878   2.527   0.808  14.589 -0.2701 -0.6172  1.7273
 7414SOL    HW233879   2.628   0.915  14.628  0.0923 -0.3879  0.0846
 7415SOL     OW33880   2.957   3.090  12.002 -0.5722  0.0292 -0.2914
 7415SOL    HW133881   2.907   3.045  11.933  0.6087  0.2420 -1.2883
 7415SOL    HW233882   2.960   3.027  12.074 -2.6423 -1.0810 -1.1680
 7416SOL     OW33883   2.939   2.092  13.075 -0.1196  0.2124  0.1669
 7416SOL    HW133884   2.972   2.179  13.098 -0.1473 -0.0948  1.3435
 7416SOL    HW233885   2.902   2.049  13.152 -1.7287  1.4366  0.0630
 7417SOL     OW33886   2.547   0.753   1.175 -0.3871 -0.4547  0.2867
 7417SOL    HW133887   2.620   0.806   1.145 -1.0748 -0.2027 -0.9384
 7417SOL    HW233888   2.572   0.716   1.260 -1.2031  1.3982  1.3203
 7418SOL     OW33889   0.138   2.445  14.477 -0.0525  0.2863 -0.0471
 7418SOL    HW133890   0.208   2.510  14.475 -1.9975  2.4108  1.1404
 7418SOL    HW233891   0.073   2.495  14.526  0.1636  0.8397 -0.3231
 7419SOL     OW33892   4.279   2.459   2.760 -0.2114  0.0449  0.0258
 7419SOL    HW133893   4.371   2.456   2.735  0.4415  2.8879  2.0089
 7419SOL    HW233894   4.258   2.550   2.784  2.9600  0.0429  2.7239
 7420SOL     OW33895   2.801   0.434   2.644 -0.3238 -0.6458  0.2433
 7420SOL    HW133896   2.727   0.383   2.676  0.2751 -0.8102  1.3724
 7420SOL    HW233897   2.756   0.518   2.647 -1.6524 -1.3243 -0.6705
 7421SOL     OW33898   2.062   3.481   2.354  0.4996  0.0292  0.4976
 7421SOL    HW133899   2.070   3.459   2.261  1.1880 -1.0187  0.8054
 7421SOL    HW233900   1.977   3.442   2.375  0.0186 -0.0747 -1.6158
 7422SOL     OW33901   2.992   1.547   8.908  0.3715  0.3189  0.2167
 7422SOL    HW133902   3.001   1.464   8.861  1.9418  0.8015 -0.3261
 7422SOL    HW233903   3.039   1.608   8.851  0.1066 -1.6077 -2.0980
 7423SOL     OW33904   1.508   0.232   2.533  0.3485  0.1212  0.0918
 7423SOL    HW133905   1.591   0.222   2.579  1.5485  2.3692 -1.6274
 7423SOL    HW233906   1.510   0.325   2.512 -0.2973  0.1410  0.1063
 7424SOL     OW33907   2.896   2.991   2.083 -0.2895 -0.3187  0.2075
 7424SOL    HW133908   2.830   3.046   2.127 -0.7714  0.2553 -1.2561
 7424SOL    HW233909   2.967   3.055   2.077 -1.1381  0.7165  0.9619
 7425SOL     OW33910   2.796   2.165  10.805 -0.1943  0.1429  0.5574
 7425SOL    HW133911   2.876   2.129  10.766 -0.7737 -0.2537 -0.2679
 7425SOL    HW233912   2.792   2.117  10.887 -0.5192  1.5402  1.3478
 7426SOL     OW33913   1.263   2.536   5.388  0.4807  0.5685 -0.2416
 7426SOL    HW133914   1.237   2.598   5.455 -1.0666 -0.4291  0.0868
 7426SOL    HW233915   1.298   2.590   5.316  0.3202 -1.9745 -2.2205
 7427SOL     OW33916   4.440   3.657  14.845  0.5533  0.3404 -0.4849
 7427SOL    HW133917   4.470   3.672  14.755 -1.8819  1.5265 -1.0997
 7427SOL    HW233918   4.509   3.699  14.895  0.8012  1.8422 -2.0928
 7428SOL     OW33919   0.073   4.048   0.548  0.1896 -0.3863  0.1761
 7428SOL    HW133920   0.018   4.087   0.616  0.7020  1.0342 -0.2107
 7428SOL    HW233921   0.041   4.097   0.472  0.6499  0.3439  0.4520
 7429SOL     OW33922   1.149   1.986  10.520 -0.0984  0.4634 -0.1233
 7429SOL    HW133923   1.136   1.891  10.523  0.8375  0.2554 -3.2673
 7429SOL    HW233924   1.234   1.991  10.563 -1.6583  2.3690  2.7347
 7430SOL     OW33925   2.712   4.700   6.875  0.5125  0.1076 -0.0724
 7430SOL    HW133926   2.722   4.643   6.951 -0.1428  3.4251  2.4536
 7430SOL    HW233927   2.654   0.031   6.909 -0.6510 -0.0718 -1.6938
 7431SOL     OW33928   3.894   2.362  17.064 -0.2202  0.7041  0.1997
 7431SOL    HW133929   3.944   2.400  16.992 -1.8993 -1.1802 -1.9908
 7431SOL    HW233930   3.809   2.345  17.024  0.9291 -2.1755 -1.0926
 7432SOL     OW33931   0.370   2.904  11.766 -0.6536 -0.8990 -0.2138
 7432SOL    HW133932   0.409   2.820  11.791 -0.0174 -0.9698 -1.4145
 7432SOL    HW233933   0.361   2.893  11.671  0.3302 -3.2797 -0.0278
 7433SOL     OW33934   0.842   0.980   5.325 -0.0611 -0.4971  0.3631
 7433SOL    HW133935   0.924   0.959   5.369  0.0826  0.2421  0.4528
 7433SOL    HW233936   0.871   0.977   5.233  0.6859 -2.6359  0.6818
 7434SOL     OW33937   0.084   0.602  12.024  0.4878 -0.4353  0.3739
 7434SOL    HW133938   0.006   0.565  12.065 -1.4318  3.9471  0.6724
 7434SOL    HW233939   0.091   0.677  12.082 -3.4115 -0.9143  1.4984
 7435SOL     OW33940   0.132   3.435   3.849 -0.4392  0.5859  0.1426
 7435SOL    HW133941   0.190   3.392   3.786  0.0547 -0.4771  1.3303
 7435SOL    HW233942   0.198   3.446   3.918  0.4775  0.0122 -0.6316
 7436SOL     OW33943   0.173   3.229   7.091  0.0133  0.1897  0.6418
 7436SOL    HW133944   0.093   3.263   7.131  0.2818  1.7178 -0.0885
 7436SOL    HW233945   0.245   3.279   7.130 -0.8241  0.5061  1.7748
 7437SOL     OW33946   4.245   1.261   2.314 -0.0635 -0.2437 -0.5947
 7437SOL    HW133947   4.337   1.254   2.339 -0.4271 -0.8363  0.6161
 7437SOL    HW233948   4.204   1.278   2.400  3.8122 -1.8105  1.5593
 7438SOL     OW33949   1.629   2.379   2.802  0.4628 -0.3616  0.6792
 7438SOL    HW133950   1.662   2.407   2.716  0.6317  1.5532  1.3668
 7438SOL    HW233951   1.582   2.301   2.774  2.3156 -1.1598 -0.2523
 7439SOL     OW33952   4.514   4.468  14.881 -0.4090  0.1031 -0.2452
 7439SOL    HW133953   4.533   4.375  14.896 -0.5685 -0.7224 -5.0017
 7439SOL    HW233954   4.424   4.478  14.912 -0.6028 -1.1171 -0.4134
 7440SOL     OW33955   0.508   1.676  13.186 -0.2279  0.5140 -1.0934
 7440SOL    HW133956   0.597   1.663  13.153  0.6202 -0.8429  1.6912
 7440SOL    HW233957   0.498   1.771  13.184 -2.2127  0.2855 -2.1095
 7441SOL     OW33958   4.682   0.179  17.167  0.1521 -0.1443 -0.6756
 7441SOL    HW133959   0.001   0.101  17.163  0.1967 -0.2340  1.4382
 7441SOL    HW233960   4.632   0.169  17.086 -1.5923  0.3252  0.3451
 7442SOL     OW33961   4.308   3.245   7.109 -0.2229 -0.4134  0.2996
 7442SOL    HW133962   4.346   3.331   7.090  0.3483 -0.0595  3.0569
 7442SOL    HW233963   4.282   3.216   7.021  1.9182  1.2701 -0.8813
 7443SOL     OW33964   2.662   1.670   6.380  0.2290  0.3203  0.5143
 7443SOL    HW133965   2.660   1.576   6.399 -1.6218  0.0921 -0.7714
 7443SOL    HW233966   2.708   1.668   6.296 -1.2445 -1.3696 -0.2443
 7444SOL     OW33967   2.613   0.972  16.916 -0.6050  0.2453 -0.2531
 7444SOL    HW133968   2.688   0.916  16.896 -2.3045 -2.0857 -0.1072
 7444SOL    HW233969   2.565   0.983  16.834 -0.7704  2.9467  0.1968
 7445SOL     OW33970   2.459   4.172   6.484  0.0295  0.3723  0.1034
 7445SOL    HW133971   2.510   4.233   6.430 -0.5062 -0.0151 -0.8533
 7445SOL    HW233972   2.434   4.116   6.410 -2.3973  0.1378  1.1026
 7446SOL     OW33973   4.402   1.798   4.300  0.6012 -0.0933  0.0356
 7446SOL    HW133974   4.479   1.850   4.276 -0.0365  0.2506 -1.2917
 7446SOL    HW233975   4.365   1.772   4.216  1.6905 -3.0183  0.4681
 7447SOL     OW33976   0.231   0.820   1.556  0.0743 -0.4223  0.0974
 7447SOL    HW133977   0.203   0.744   1.607  1.5755 -2.9194 -2.8828
 7447SOL    HW233978   0.302   0.785   1.503 -1.4892 -0.8662 -1.7091
 7448SOL     OW33979   2.603   0.465  11.556  0.1711 -0.4363 -0.1350
 7448SOL    HW133980   2.631   0.457  11.465  2.5253  0.9789  0.4492
 7448SOL    HW233981   2.686   0.465  11.605  1.4990 -1.7193 -2.3891
 7449SOL     OW33982   3.780   2.361   8.515  0.6043 -0.3890  0.0473
 7449SOL    HW133983   3.824   2.388   8.596  0.5946 -0.0407 -0.0637
 7449SOL    HW233984   3.707   2.421   8.499  0.0008 -1.1401 -0.0339
 7450SOL     OW33985   2.262   3.601   3.486  0.8431  0.5985 -0.5414
 7450SOL    HW133986   2.338   3.643   3.526  0.2126  0.6506  0.5990
 7450SOL    HW233987   2.253   3.522   3.540 -1.2750  1.7554  0.8151
 7451SOL     OW33988   2.181   3.060   7.276 -0.5782 -0.0252 -0.8546
 7451SOL    HW133989   2.192   3.001   7.201 -1.6582  0.4367 -1.3803
 7451SOL    HW233990   2.154   3.144   7.238  0.7782  0.0394 -1.6695
 7452SOL     OW33991   4.291   4.602   5.663 -0.5964 -0.3648  0.4922
 7452SOL    HW133992   4.199   4.578   5.675 -0.8387 -0.5147 -1.5676
 7452SOL    HW233993   4.323   4.634   5.747  1.0562 -0.9475  0.0890
 7453SOL     OW33994   3.761   0.644  11.949 -0.1518 -0.3787  0.1447
 7453SOL    HW133995   3.817   0.662  11.873 -1.3042  1.8377 -0.1636
 7453SOL    HW233996   3.789   0.562  11.988  2.6850  0.0473 -0.9545
 7454SOL     OW33997   3.604   4.194  12.571 -0.5076 -0.0121 -0.5783
 7454SOL    HW133998   3.574   4.280  12.541 -0.6917  1.3054  3.3815
 7454SOL    HW233999   3.698   4.215  12.575 -0.1106 -1.9145 -0.0824
 7455SOL     OW34000   0.177   2.873   9.732  0.0197 -0.6557  0.3014
 7455SOL    HW134001   0.099   2.908   9.776 -0.3964 -0.3779 -0.6746
 7455SOL    HW234002   0.193   2.800   9.792  0.6767 -1.6691 -1.1118
 7456SOL     OW34003   0.298   4.343  15.449  0.4381 -0.1031 -0.1182
 7456SOL    HW134004   0.227   4.371  15.392 -1.1288  1.3877  2.5223
 7456SOL    HW234005   0.240   4.300  15.512 -0.6215 -1.7037 -2.1996
 7457SOL     OW34006   4.734   3.050  17.652  0.2036  0.0949  0.1200
 7457SOL    HW134007   4.644   3.055  17.622  0.2166 -0.0561  0.0539
 7457SOL    HW234008   0.043   3.084  17.576  0.3365  1.3445  0.7554
 7458SOL     OW34009   4.654   3.879  10.791 -0.5149 -0.1615  0.3424
 7458SOL    HW134010   4.573   3.927  10.774  0.8894  1.2865 -2.2527
 7458SOL    HW234011   4.634   3.836  10.874 -3.8845 -2.3753 -1.5955
 7459SOL     OW34012   1.207   0.676   7.142 -0.2210  0.1287  0.1602
 7459SOL    HW134013   1.270   0.712   7.205  0.2824  1.8007 -1.3084
 7459SOL    HW234014   1.260   0.605   7.108  1.0865  0.2637  1.8992
 7460SOL     OW34015   0.943   2.556  17.415  0.4740  0.6556 -0.2669
 7460SOL    HW134016   0.852   2.583  17.398  0.3770  0.2035 -0.4905
 7460SOL    HW234017   0.945   2.473  17.368 -1.9983 -0.6174  1.8596
 7461SOL     OW34018   1.207   3.698   8.023 -0.0913  0.3619 -0.0154
 7461SOL    HW134019   1.208   3.634   7.952 -0.8756  1.4919 -1.0426
 7461SOL    HW234020   1.298   3.710   8.050 -0.4830  0.5665  1.2556
 7462SOL     OW34021   4.176   1.964   2.108  0.1421  0.6629  0.0040
 7462SOL    HW134022   4.222   2.020   2.172 -1.3800  0.0937  1.6044
 7462SOL    HW234023   4.247   1.921   2.061  0.1933  1.1272 -0.3416
 7463SOL     OW34024   1.101   2.916  12.864  0.0078 -0.0846 -0.5316
 7463SOL    HW134025   1.059   2.945  12.944  0.3930  0.0070 -0.3622
 7463SOL    HW234026   1.057   2.974  12.802  0.8821  0.2021 -0.8806
 7464SOL     OW34027   0.164   3.286   6.266 -0.4787  0.1397  0.0024
 7464SOL    HW134028   0.203   3.282   6.179 -1.7789 -0.9191 -0.5182
 7464SOL    HW234029   0.225   3.344   6.312  1.0022 -1.5259  0.1177
 7465SOL     OW34030   3.664   0.532   5.432 -0.4668 -0.2207 -0.2028
 7465SOL    HW134031   3.661   0.537   5.337  3.0634 -0.2937 -0.3292
 7465SOL    HW234032   3.719   0.610   5.441 -0.6752  0.0227 -1.0122
 7466SOL     OW34033   4.636   0.880   9.978 -0.8024 -0.1422  0.4836
 7466SOL    HW134034   4.563   0.832   9.940 -0.4798 -0.1812 -0.0815
 7466SOL    HW234035   4.655   0.833  10.060 -0.3918  0.0150  0.4819
 7467SOL     OW34036   1.743   2.158   8.827  0.4605  0.1672 -0.2562
 7467SOL    HW134037   1.735   2.206   8.745 -2.8768 -1.5649 -0.9414
 7467SOL    HW234038   1.651   2.131   8.831 -0.0444  2.0601  0.8032
 7468SOL     OW34039   0.565   2.622  16.969  0.0492  0.2333  0.3013
 7468SOL    HW134040   0.557   2.580  17.054  1.4841  0.5658  0.6081
 7468SOL    HW234041   0.657   2.608  16.946  0.0424  2.0903 -0.9033
 7469SOL     OW34042   3.036   1.427   7.474 -0.5243  0.2393 -0.2133
 7469SOL    HW134043   3.037   1.347   7.421  0.4628 -0.5530  0.9882
 7469SOL    HW234044   2.946   1.455   7.456 -0.4329 -0.1770 -1.3315
 7470SOL     OW34045   3.462   3.591   5.287 -0.4086  0.4361 -0.2392
 7470SOL    HW134046   3.548   3.564   5.254  0.0029 -0.9988  1.9608
 7470SOL    HW234047   3.418   3.619   5.206 -1.0381 -0.4157 -0.1951
 7471SOL     OW34048   0.963   3.627   2.635  0.0247  0.2008  0.4616
 7471SOL    HW134049   0.939   3.607   2.545 -4.3758  1.4870  1.3688
 7471SOL    HW234050   0.916   3.553   2.673 -0.9696  0.4607 -0.2830
 7472SOL     OW34051   1.477   1.600   4.565 -0.0281 -0.3689  0.1835
 7472SOL    HW134052   1.502   1.660   4.494  1.6058  0.1081  1.1794
 7472SOL    HW234053   1.512   1.516   4.537  2.2566  0.9434 -0.8992
 7473SOL     OW34054   0.057   1.857   3.433 -0.4459 -0.0835  0.0644
 7473SOL    HW134055   0.077   1.922   3.366 -2.8015 -0.3683 -0.8957
 7473SOL    HW234056   0.096   1.906   3.506  1.6165 -1.5590 -0.0700
 7474SOL     OW34057   4.008   2.216   2.714  0.7764  0.3281  0.5003
 7474SOL    HW134058   3.931   2.161   2.698  1.8094 -1.0465  0.2554
 7474SOL    HW234059   4.045   2.158   2.780  0.1423 -1.1432 -0.4308
 7475SOL     OW34060   4.141   1.716   4.629  0.2227 -0.5358  0.0761
 7475SOL    HW134061   4.182   1.662   4.697 -0.0457 -0.0484  0.6255
 7475SOL    HW234062   4.055   1.676   4.639 -0.0468 -0.5429 -2.2964
 7476SOL     OW34063   4.276   2.559  10.730  0.0180 -0.0455  0.2063
 7476SOL    HW134064   4.357   2.588  10.688  0.2367 -0.7805  0.1227
 7476SOL    HW234065   4.292   2.579  10.823  1.7424  3.7332 -0.9361
 7477SOL     OW34066   4.563   2.842   8.305  0.5505  0.1035 -0.2210
 7477SOL    HW134067   4.616   2.877   8.233  0.8838 -0.9296 -0.4682
 7477SOL    HW234068   4.510   2.920   8.323 -1.4021 -1.8211  2.2850
 7478SOL     OW34069   2.874   2.541   5.801  0.2414  0.5396 -0.0356
 7478SOL    HW134070   2.949   2.532   5.860  0.8553  0.3490 -0.8579
 7478SOL    HW234071   2.799   2.551   5.860  2.3967  0.2694  2.7356
 7479SOL     OW34072   0.896   0.745   3.069  0.1322 -0.2313 -0.6144
 7479SOL    HW134073   0.913   0.741   2.975 -0.5178 -0.4307 -0.7228
 7479SOL    HW234074   0.975   0.794   3.093 -0.0746  0.7794 -2.0550
 7480SOL     OW34075   3.813   3.840   5.296 -0.1209  0.0886 -0.6700
 7480SOL    HW134076   3.865   3.885   5.362  0.1696 -1.3225  0.0682
 7480SOL    HW234077   3.732   3.889   5.310 -0.1067 -0.5312  1.4383
 7481SOL     OW34078   1.275   0.708   2.898 -0.2339 -0.3306 -0.2836
 7481SOL    HW134079   1.180   0.710   2.907 -0.1092  0.6036  0.8257
 7481SOL    HW234080   1.290   0.627   2.946  1.5078  1.7268  2.6684
 7482SOL     OW34081   4.507   4.597   8.377  0.0073 -0.3496  0.3014
 7482SOL    HW134082   4.511   4.634   8.465 -0.0039  1.1274 -0.3196
 7482SOL    HW234083   4.576   4.651   8.336  1.2619 -1.5808  0.7921
 7483SOL     OW34084   2.073   3.821  12.446  0.2278 -0.1115  0.3212
 7483SOL    HW134085   2.051   3.854  12.533  1.6078 -0.4321  0.7798
 7483SOL    HW234086   2.052   3.897  12.391  0.2994  1.5910  2.6879
 7484SOL     OW34087   2.644   0.159   0.106 -0.6763  0.0486  0.2757
 7484SOL    HW134088   2.582   0.098   0.146  0.5160 -1.5617 -0.3249
 7484SOL    HW234089   2.720   0.141   0.162 -1.3871 -1.3388  0.8002
 7485SOL     OW34090   1.445   1.572   9.593  0.1511  0.0210  0.3734
 7485SOL    HW134091   1.472   1.551   9.504  1.6964  1.3910  0.5326
 7485SOL    HW234092   1.454   1.666   9.581  1.1937 -0.0592  0.5745
 7486SOL     OW34093   1.874   4.213  15.138 -0.1269  0.3309 -0.3509
 7486SOL    HW134094   1.805   4.148  15.152 -0.4679  0.4578 -1.4532
 7486SOL    HW234095   1.853   4.270  15.212 -1.7875 -0.7890  0.0577
 7487SOL     OW34096   3.373   3.686   8.492  0.2000 -0.3090 -0.0646
 7487SOL    HW134097   3.319   3.720   8.421  0.5902 -2.5952 -1.4668
 7487SOL    HW234098   3.445   3.749   8.497  0.1598 -0.3478  1.2108
 7488SOL     OW34099   2.158   2.079   4.010 -0.2995  0.0969 -0.4090
 7488SOL    HW134100   2.079   2.102   4.059 -0.1279  0.3000 -0.2281
 7488SOL    HW234101   2.139   2.116   3.923 -0.7540 -0.0784 -0.3839
 7489SOL     OW34102   1.670   0.847   8.589  0.6874 -0.7695  0.0919
 7489SOL    HW134103   1.583   0.882   8.610  0.3348 -2.0774  0.8171
 7489SOL    HW234104   1.654   0.756   8.562  1.8260 -0.1825 -2.5659
 7490SOL     OW34105   0.540   2.219   7.917  0.1526 -0.5178  0.8974
 7490SOL    HW134106   0.522   2.125   7.912  1.0066 -0.5878 -0.6637
 7490SOL    HW234107   0.598   2.218   7.993  0.8566  0.0166  0.3609
 7491SOL     OW34108   1.708   1.160   7.541  0.0433 -0.2561  0.1395
 7491SOL    HW134109   1.625   1.123   7.510 -1.4245  2.9765  0.1712
 7491SOL    HW234110   1.701   1.138   7.634  1.6055 -0.5158  0.1864
 7492SOL     OW34111   0.743   4.561   7.483  0.5633 -0.2379 -0.2838
 7492SOL    HW134112   0.690   4.484   7.462  0.0189 -0.2465  1.1072
 7492SOL    HW234113   0.812   4.550   7.417 -0.4325 -0.9345 -1.2075
 7493SOL     OW34114   2.930   4.359   8.712 -0.2175 -0.0327  0.0004
 7493SOL    HW134115   2.937   4.279   8.659  0.5304  0.5173 -0.7421
 7493SOL    HW234116   2.847   4.347   8.756  0.3013 -1.0032  0.7003
 7494SOL     OW34117   3.581   0.426   1.469  0.0392 -0.2323 -0.4515
 7494SOL    HW134118   3.666   0.468   1.456 -1.3599  2.2254 -1.5421
 7494SOL    HW234119   3.547   0.469   1.548  0.9568  0.0534 -0.2147
 7495SOL     OW34120   2.284   3.677   6.381  0.4165 -0.1742  0.4211
 7495SOL    HW134121   2.379   3.683   6.390  0.2509  1.6563  1.0032
 7495SOL    HW234122   2.260   3.687   6.473 -0.2571 -1.9690  0.4364
 7496SOL     OW34123   4.701   4.305  13.811  0.5830  0.4367  0.3640
 7496SOL    HW134124   4.664   4.340  13.892 -0.3945 -1.8432  0.8978
 7496SOL    HW234125   4.736   4.386  13.773 -1.1000  0.0272 -2.0351
 7497SOL     OW34126   4.311   1.474   4.082  0.1388  0.8489  0.8126
 7497SOL    HW134127   4.259   1.546   4.116 -2.9662  0.0638 -2.3019
 7497SOL    HW234128   4.374   1.514   4.023 -0.1416 -0.4488 -0.3760
 7498SOL     OW34129   2.206   3.691   8.740  0.0113  0.3216 -0.6984
 7498SOL    HW134130   2.171   3.608   8.708  0.1102 -0.7239  1.9069
 7498SOL    HW234131   2.282   3.703   8.683 -0.2968 -1.7340 -1.5602
 7499SOL     OW34132   2.435   0.471   4.063 -0.3574 -0.3912  0.4565
 7499SOL    HW134133   2.340   0.475   4.075 -0.2545  1.0697  0.7205
 7499SOL    HW234134   2.480   0.447   4.144 -0.8284  2.1069  1.4404
 7500SOL     OW34135   3.991   1.357  13.166  0.0775 -0.6209  0.2356
 7500SOL    HW134136   3.911   1.381  13.120  0.2361 -1.9824 -0.7422
 7500SOL    HW234137   3.951   1.295  13.227  1.1604 -1.0290  0.5351
 7501SOL     OW34138   3.603   3.465   9.033  0.3141  0.0613  0.3472
 7501SOL    HW134139   3.646   3.384   9.060  0.8781  0.1486 -0.3016
 7501SOL    HW234140   3.513   3.445   9.057  0.4464 -0.7104  0.1946
 7502SOL     OW34141   4.347   0.615   6.472  0.3326 -0.1893  0.1216
 7502SOL    HW134142   4.270   0.654   6.513  0.5884  0.3541  0.0870
 7502SOL    HW234143   4.386   0.690   6.428 -2.6196  0.3009 -1.6428
 7503SOL     OW34144   2.436   1.418   1.292  0.3176  0.3253  0.9673
 7503SOL    HW134145   2.352   1.464   1.296 -1.0151 -2.0953  0.6918
 7503SOL    HW234146   2.491   1.468   1.232 -0.3028  1.4684  1.3420
 7504SOL     OW34147   1.014   0.202   5.943  0.0968 -0.2508 -0.3253
 7504SOL    HW134148   0.950   0.260   5.983  0.8082  0.4613 -0.2190
 7504SOL    HW234149   1.094   0.254   5.949  0.1114 -0.0631 -1.9755
 7505SOL     OW34150   4.402   2.302   9.705 -0.4065  0.1753 -0.4475
 7505SOL    HW134151   4.457   2.302   9.627  0.8789  1.2599  0.4526
 7505SOL    HW234152   4.466   2.262   9.764 -0.6860 -1.7481 -1.4195
 7506SOL     OW34153   3.358   2.221   3.591  0.5268 -0.0920  0.5182
 7506SOL    HW134154   3.262   2.228   3.591  0.7094  2.4905  0.1069
 7506SOL    HW234155   3.367   2.202   3.684  1.1160  0.9705  0.6746
 7507SOL     OW34156   4.607   1.160   2.195  0.0325 -0.3362 -0.1404
 7507SOL    HW134157   4.578   1.246   2.163 -1.4722 -1.9483 -3.1782
 7507SOL    HW234158   4.651   1.182   2.277 -1.8308 -1.6035  1.1842
 7508SOL     OW34159   3.858   2.534   9.855 -0.2351 -0.3469 -0.3237
 7508SOL    HW134160   3.797   2.582   9.799  0.7711  0.2057 -0.9369
 7508SOL    HW234161   3.804   2.502   9.928  0.7668  1.9251  1.4248
 7509SOL     OW34162   1.084   2.615   2.500  0.0580 -0.4857 -0.0457
 7509SOL    HW134163   1.016   2.553   2.476 -0.3835  0.9043 -2.4333
 7509SOL    HW234164   1.136   2.568   2.565  1.7693  1.2743 -0.1122
 7510SOL     OW34165   3.864   1.328   8.368 -0.0294  0.6892 -0.2238
 7510SOL    HW134166   3.784   1.296   8.326 -0.0627 -1.9032  1.8386
 7510SOL    HW234167   3.846   1.290   8.454 -0.6937 -0.5390 -0.9081
 7511SOL     OW34168   0.259   1.502   6.742 -0.0453 -0.2521  0.2279
 7511SOL    HW134169   0.202   1.558   6.795 -3.6129 -1.2970 -2.4495
 7511SOL    HW234170   0.246   1.542   6.656  1.2162 -0.8170 -0.2191
 7512SOL     OW34171   4.311   2.038   7.504  0.3527  0.1142  0.1841
 7512SOL    HW134172   4.368   2.109   7.475  1.4690 -0.6258  0.5602
 7512SOL    HW234173   4.374   1.966   7.508 -0.3112 -0.4760  0.0780
 7513SOL     OW34174   1.526   3.160   9.334  0.1304  0.0123  0.4870
 7513SOL    HW134175   1.524   3.241   9.282 -3.4443  1.1753  2.5068
 7513SOL    HW234176   1.454   3.176   9.394  0.4576 -0.0318  0.8948
 7514SOL     OW34177   0.126   0.405   2.115  0.3660 -0.6179  0.3190
 7514SOL    HW134178   0.153   0.477   2.172  2.4774 -0.7894 -0.4504
 7514SOL    HW234179   0.062   0.362   2.171 -0.0470 -0.4382 -0.0192
 7515SOL     OW34180   3.777   0.934  16.132 -0.3621  0.1785  0.1501
 7515SOL    HW134181   3.867   0.929  16.100 -1.0977 -0.2549 -1.8944
 7515SOL    HW234182   3.778   0.884  16.213 -1.7047  0.1996  0.1795
 7516SOL     OW34183   2.059   4.085   5.015 -0.1656 -0.0298 -0.0214
 7516SOL    HW134184   2.136   4.135   5.039  0.8961 -3.1121  3.0348
 7516SOL    HW234185   1.991   4.149   5.035  0.5671 -0.2901  3.3453
 7517SOL     OW34186   3.856   0.723   5.129  0.1676 -0.6852 -0.0969
 7517SOL    HW134187   3.944   0.686   5.117  0.4560 -0.1454  0.3052
 7517SOL    HW234188   3.848   0.777   5.051 -1.6575 -0.8009  0.0137
 7518SOL     OW34189   2.682   3.473   0.338 -0.1703 -0.3214 -0.2300
 7518SOL    HW134190   2.662   3.494   0.429  2.3250  0.3886  0.1469
 7518SOL    HW234191   2.595   3.479   0.299 -0.2598 -2.3402 -0.3271
 7519SOL     OW34192   4.309   3.955   6.129  0.9031 -0.4698  0.1859
 7519SOL    HW134193   4.314   3.877   6.074  1.4837 -1.6338  1.9331
 7519SOL    HW234194   4.225   3.931   6.168  0.2318 -0.1299 -1.0104
 7520SOL     OW34195   2.821   0.956  17.727  0.1218 -0.2648  0.0352
 7520SOL    HW134196   2.858   1.041   0.004  0.3819 -0.0609 -1.1066
 7520SOL    HW234197   2.841   0.959  17.634  1.5219  0.5552  0.3590
 7521SOL     OW34198   0.869   2.366   8.909 -0.3419  0.1723  0.0508
 7521SOL    HW134199   0.779   2.361   8.941 -0.3297  1.2563  0.2719
 7521SOL    HW234200   0.886   2.460   8.918 -1.5604  0.5485 -1.5309
 7522SOL     OW34201   4.278   2.124   9.074 -0.0395 -0.7758 -0.1438
 7522SOL    HW134202   4.337   2.169   9.133 -2.1958  3.3647 -1.1275
 7522SOL    HW234203   4.200   2.111   9.128 -1.2449  0.2920 -1.6125
 7523SOL     OW34204   0.779   2.143  16.143 -0.9237  0.0702 -0.0936
 7523SOL    HW134205   0.760   2.218  16.086 -0.0715  1.0250  0.8561
 7523SOL    HW234206   0.806   2.188  16.224  0.1822 -0.4495 -0.1783
 7524SOL     OW34207   2.586   2.196  17.410  0.5375  0.2957 -0.1082
 7524SOL    HW134208   2.616   2.161  17.327 -3.1923 -1.5357 -0.7176
 7524SOL    HW234209   2.605   2.290  17.403  3.5386 -0.4695 -2.0009
 7525SOL     OW34210   2.621   2.088   3.070 -0.0777  0.0398  0.2250
 7525SOL    HW134211   2.620   2.078   2.975  1.9014  1.7908 -0.0017
 7525SOL    HW234212   2.601   2.182   3.063 -0.0417  0.1398  1.3672
 7526SOL     OW34213   0.717   2.012   1.092  0.2361 -0.1871  0.3096
 7526SOL    HW134214   0.787   2.070   1.062 -0.2523  0.8996  1.2652
 7526SOL    HW234215   0.646   2.074   1.108  0.6848  0.7268 -1.2405
 7527SOL     OW34216   0.318   0.879  14.107 -0.1652  0.4185  0.0740
 7527SOL    HW134217   0.403   0.915  14.082 -0.1962  1.0417  0.8760
 7527SOL    HW234218   0.257   0.952  14.100 -2.4055 -1.3849  0.6549
 7528SOL     OW34219   3.390   2.968   2.194  0.1524 -0.1679 -0.1487
 7528SOL    HW134220   3.319   2.979   2.130 -0.8556  0.3346  1.0498
 7528SOL    HW234221   3.467   2.969   2.138 -0.4344  0.4283 -0.9571
 7529SOL     OW34222   1.927   2.309   3.344  0.3225  0.4048 -0.1303
 7529SOL    HW134223   1.950   2.274   3.258 -2.2007  0.2826 -0.7418
 7529SOL    HW234224   1.872   2.379   3.308  0.7331  0.1048 -1.3636
 7530SOL     OW34225   2.856   1.219   6.884  0.5277 -0.1034 -0.1220
 7530SOL    HW134226   2.868   1.250   6.974  0.0130 -1.2350  0.3314
 7530SOL    HW234227   2.889   1.130   6.894 -4.6579 -1.9915 -0.0755
 7531SOL     OW34228   4.283   3.001   6.044 -0.2253 -0.1093  0.0482
 7531SOL    HW134229   4.323   2.918   6.020 -0.2743 -0.1427  0.0823
 7531SOL    HW234230   4.350   3.066   6.021 -1.2627  1.0598  0.2905
 7532SOL     OW34231   0.153   4.587  14.363 -0.0449 -0.7983 -0.2177
 7532SOL    HW134232   0.170   4.614  14.453 -2.0593  0.0385 -0.0801
 7532SOL    HW234233   0.121   4.666  14.319  1.7847 -0.3939 -0.7940
 7533SOL     OW34234   3.064   2.857   5.824 -0.3384  0.1130 -0.0302
 7533SOL    HW134235   3.077   2.952   5.818  1.1280 -0.1115 -0.5183
 7533SOL    HW234236   2.985   2.852   5.770  0.8172  1.8818 -1.8876
 7534SOL     OW34237   4.253   2.461   6.354  0.0560  0.0578  0.1449
 7534SOL    HW134238   4.272   2.385   6.409 -0.2669 -0.5617 -0.5858
 7534SOL    HW234239   4.168   2.483   6.390 -1.2510 -2.1080 -1.5785
 7535SOL     OW34240   2.914   4.214  17.339  1.0687  0.5758  0.5283
 7535SOL    HW134241   2.847   4.247  17.279 -0.7102 -1.4273  1.4148
 7535SOL    HW234242   2.974   4.170  17.279  0.7525  1.0032 -0.1046
 7536SOL     OW34243   2.895   0.112   2.245  0.0549  0.0739 -0.1226
 7536SOL    HW134244   2.977   0.159   2.231 -1.3554  1.5738 -3.2930
 7536SOL    HW234245   2.828   0.177   2.222  1.6570  1.3523 -1.1882
 7537SOL     OW34246   2.097   2.858   7.448  0.0977  0.6916  0.6538
 7537SOL    HW134247   2.139   2.925   7.394  1.1959 -0.3296  0.2542
 7537SOL    HW234248   2.012   2.860   7.404  0.3806  1.3711  0.1381
 7538SOL     OW34249   4.348   1.719   7.650  0.7062 -0.4861  0.2247
 7538SOL    HW134250   4.430   1.670   7.651  1.6723  1.0320 -2.6764
 7538SOL    HW234251   4.288   1.661   7.601  1.2038 -1.6691  1.0314
 7539SOL     OW34252   4.633   2.748  13.253  0.4465 -0.1126 -0.2179
 7539SOL    HW134253   4.564   2.782  13.195  0.4751  1.4402  0.6609
 7539SOL    HW234254   4.695   2.819  13.266 -0.9099  1.2135 -0.9895
 7540SOL     OW34255   0.085   1.078   9.999 -0.5196  0.0226 -0.5045
 7540SOL    HW134256   0.005   1.028   9.984 -1.7360  1.7168  0.3908
 7540SOL    HW234257   0.139   1.055   9.923  0.5805  1.3312 -0.1280
 7541SOL     OW34258   0.212   4.274   3.870 -0.2683 -0.3694 -0.3754
 7541SOL    HW134259   0.154   4.206   3.835 -2.3267  0.8499  0.6803
 7541SOL    HW234260   0.217   4.337   3.799 -1.4179  1.0925  0.8402
 7542SOL     OW34261   1.137   3.394   8.508  0.6449 -0.4389  0.1043
 7542SOL    HW134262   1.119   3.301   8.496 -0.9066 -0.1876  0.4961
 7542SOL    HW234263   1.208   3.410   8.446 -0.3926  2.8317 -0.2150
 7543SOL     OW34264   4.505   4.359   3.337  0.8286 -0.0816  0.3493
 7543SOL    HW134265   4.482   4.342   3.246  0.4756  4.9926 -0.5476
 7543SOL    HW234266   4.506   4.271   3.374  0.4701 -0.1833  0.1096
 7544SOL     OW34267   3.075   3.384   6.248  0.1632  0.1508  0.4706
 7544SOL    HW134268   2.991   3.402   6.205 -0.0210  0.7369  1.0817
 7544SOL    HW234269   3.091   3.305   6.197  0.4573  0.3459  0.2655
 7545SOL     OW34270   2.083   4.018   6.639 -0.0910  0.0209  0.3350
 7545SOL    HW134271   2.020   4.076   6.596 -0.7284 -0.5307  0.5278
 7545SOL    HW234272   2.127   4.077   6.700  1.7232  0.6392 -1.5734
 7546SOL     OW34273   0.200   0.874   4.460  0.1952 -0.1798 -0.0308
 7546SOL    HW134274   0.244   0.796   4.495 -1.0228 -1.0667 -0.4650
 7546SOL    HW234275   0.261   0.947   4.469 -0.9123  0.7863 -0.3861
 7547SOL     OW34276   0.145   3.728   4.717 -0.3807  0.2176  0.0742
 7547SOL    HW134277   0.151   3.665   4.644 -0.5198 -1.2778  1.3519
 7547SOL    HW234278   0.052   3.745   4.708 -0.2508  0.9787  0.2123
 7548SOL     OW34279   0.265   2.917   6.584  0.0739 -0.6325  0.3475
 7548SOL    HW134280   0.297   2.891   6.670  0.6006  2.1605  1.0262
 7548SOL    HW234281   0.178   2.949   6.608  0.9324  1.5497  0.5923
 7549SOL     OW34282   2.966   2.271   7.156 -0.1394  0.3625  0.2064
 7549SOL    HW134283   2.949   2.182   7.185  1.8363 -0.2173 -0.3744
 7549SOL    HW234284   2.909   2.318   7.217 -1.9246 -0.1523 -1.0723
 7550SOL     OW34285   3.202   1.291   0.142  0.2282  0.4571 -0.2958
 7550SOL    HW134286   3.296   1.276   0.149  0.2379 -0.1645 -1.7621
 7550SOL    HW234287   3.193   1.357   0.211 -2.4099  1.1445 -1.2900
 7551SOL     OW34288   0.634   0.924   7.437  0.1475  0.4448  0.5130
 7551SOL    HW134289   0.712   0.877   7.408  0.1647  2.1883 -2.2629
 7551SOL    HW234290   0.597   0.863   7.501 -1.9434 -1.1250 -2.2151
 7552SOL     OW34291   3.458   2.609   9.536 -0.4534 -0.3238  0.2275
 7552SOL    HW134292   3.427   2.668   9.467  0.2097  0.3689  0.5296
 7552SOL    HW234293   3.461   2.529   9.483 -1.0833 -0.8967  1.0519
 7553SOL     OW34294   3.591   1.628   5.437 -0.5387  0.0629 -0.2229
 7553SOL    HW134295   3.565   1.718   5.457 -0.4516  0.3533 -1.4091
 7553SOL    HW234296   3.590   1.635   5.342  2.2226 -0.6274 -0.3300
 7554SOL     OW34297   0.341   3.971   6.822  0.0183  0.4646  0.1391
 7554SOL    HW134298   0.349   4.014   6.737 -1.8205  0.2591 -0.1471
 7554SOL    HW234299   0.246   3.980   6.835 -0.3717 -2.5999 -0.5445
 7555SOL     OW34300   3.817   0.809  15.030 -0.3796  0.0682  0.1533
 7555SOL    HW134301   3.820   0.761  14.948  0.3944 -0.5885  0.5627
 7555SOL    HW234302   3.723   0.821  15.036  0.1193  3.9897 -0.3926
 7556SOL     OW34303   2.170   0.987  15.154  0.3136 -0.5831  0.0543
 7556SOL    HW134304   2.204   1.074  15.175 -0.3047 -0.6820  1.4249
 7556SOL    HW234305   2.129   1.012  15.071 -0.6198 -1.4844  0.2422
 7557SOL     OW34306   2.916   0.368   5.423  0.9630 -0.1585  0.0197
 7557SOL    HW134307   2.881   0.367   5.334 -0.7589  1.0184  0.6667
 7557SOL    HW234308   2.930   0.279   5.454  3.7491  0.1848 -0.2412
 7558SOL     OW34309   1.217   3.475   2.274  0.3737 -0.3072  0.6164
 7558SOL    HW134310   1.127   3.482   2.305 -0.1430  0.4785 -1.0886
 7558SOL    HW234311   1.259   3.548   2.321 -0.1795  0.3001  0.1584
 7559SOL     OW34312   1.476   4.695   4.442 -0.4356 -0.5899  0.2634
 7559SOL    HW134313   1.385   4.701   4.470 -0.1626 -0.1525  1.0470
 7559SOL    HW234314   1.472   4.660   4.353  0.3794 -0.3381  0.1281
 7560SOL     OW34315   4.152   4.010   1.957  0.1598  0.8686  0.1248
 7560SOL    HW134316   4.141   3.936   2.017  0.1903  1.7995  1.2773
 7560SOL    HW234317   4.121   4.089   2.001  0.0909  1.1920 -0.5099
 7561SOL     OW34318   2.199   0.369   7.837  0.0915  0.0971 -0.0346
 7561SOL    HW134319   2.150   0.305   7.785 -0.9402  0.2017  0.8173
 7561SOL    HW234320   2.233   0.421   7.764 -0.0137 -0.3628 -0.4134
 7562SOL     OW34321   1.157   0.292  16.400 -0.7773  0.0614 -0.2942
 7562SOL    HW134322   1.083   0.245  16.437  0.1170  0.1729  1.6175
 7562SOL    HW234323   1.230   0.243  16.438  0.5278  0.5526 -2.1454
 7563SOL     OW34324   0.309   0.234   7.197  0.3876 -0.4469 -0.4946
 7563SOL    HW134325   0.357   0.258   7.277  0.3636 -0.2676 -0.5328
 7563SOL    HW234326   0.320   0.313   7.144  0.9725  0.8494  1.5124
 7564SOL     OW34327   2.408   4.528   6.261 -0.4979  0.1599  0.5141
 7564SOL    HW134328   2.370   4.531   6.349 -1.5294 -2.7050  0.1711
 7564SOL    HW234329   2.344   4.572   6.206 -0.5314 -0.5246  0.0074
 7565SOL     OW34330   2.044   1.886   1.589 -0.4630  0.4321 -0.1455
 7565SOL    HW134331   2.096   1.958   1.552  0.7334 -0.7572 -0.7463
 7565SOL    HW234332   1.974   1.937   1.630  2.2874  1.3036  3.4772
 7566SOL     OW34333   0.334   1.491   7.395 -0.1252  0.2382  0.0308
 7566SOL    HW134334   0.281   1.564   7.364 -0.2054  0.3014  0.3255
 7566SOL    HW234335   0.287   1.471   7.475 -0.4035 -2.7694 -0.8823
 7567SOL     OW34336   1.622   2.986   4.223  0.0945  0.0892 -0.0353
 7567SOL    HW134337   1.586   3.014   4.139  0.0004  2.0344  0.6577
 7567SOL    HW234338   1.665   3.069   4.245 -0.7471  1.0049 -1.8804
 7568SOL     OW34339   4.341   2.851   9.768  0.4075  0.2017  0.4648
 7568SOL    HW134340   4.336   2.758   9.789 -3.9550 -0.1930 -2.2148
 7568SOL    HW234341   4.329   2.839   9.673  1.0098  0.3134  0.3757
 7569SOL     OW34342   0.041   0.566  13.686 -0.6846  0.7900  0.5357
 7569SOL    HW134343   0.113   0.627  13.706 -0.0692 -0.5074  2.2556
 7569SOL    HW234344   4.707   0.627  13.666 -0.6043  0.3573 -1.0280
 7570SOL     OW34345   0.984   2.535   6.335 -0.5267 -0.2946  0.2116
 7570SOL    HW134346   0.985   2.630   6.325  1.1700 -0.2439  1.0084
 7570SOL    HW234347   1.073   2.525   6.302 -0.0868 -1.0695  1.6511
 7571SOL     OW34348   3.826   4.121  10.175 -0.1967  0.4744  0.5180
 7571SOL    HW134349   3.798   4.204  10.135  0.5832  0.8802  0.8178
 7571SOL    HW234350   3.774   4.062  10.121 -0.0639  0.5691  0.2895
 7572SOL     OW34351   4.234   3.616  13.543  0.2143 -0.1996 -0.5044
 7572SOL    HW134352   4.156   3.668  13.526  0.5554  0.9683  1.3955
 7572SOL    HW234353   4.270   3.661  13.620 -0.7112 -0.8839  0.3332
 7573SOL     OW34354   1.788   0.277  11.427  0.0663 -0.5040 -0.2156
 7573SOL    HW134355   1.721   0.291  11.494 -0.0068  0.4337 -0.4832
 7573SOL    HW234356   1.862   0.314  11.474 -0.4045 -0.4650  0.4947
 7574SOL     OW34357   0.004   1.633   3.908  0.2345 -0.2569  0.1158
 7574SOL    HW134358   4.710   1.721   3.927 -0.9108 -0.2921 -1.5668
 7574SOL    HW234359   4.661   1.595   3.871  0.0661 -1.2515  1.4856
 7575SOL     OW34360   4.227   1.115   8.732 -0.3776 -0.1227 -0.0873
 7575SOL    HW134361   4.296   1.175   8.706 -0.4613 -0.8332 -1.9162
 7575SOL    HW234362   4.160   1.140   8.668  0.8965 -0.0379 -1.3704
 7576SOL     OW34363   0.532   0.269  15.034  0.0847 -0.3816  0.7316
 7576SOL    HW134364   0.613   0.281  15.083 -0.3445  0.9856  1.1170
 7576SOL    HW234365   0.534   0.349  14.983  1.4758 -0.9825 -0.1392
 7577SOL     OW34366   3.132   1.689   3.447  0.0436 -0.1376  0.2637
 7577SOL    HW134367   3.146   1.675   3.354  1.4433  1.6183  0.2034
 7577SOL    HW234368   3.111   1.598   3.469  0.5811 -0.9518 -2.5185
 7578SOL     OW34369   4.135   0.465   8.193  0.1262 -0.4379  0.6264
 7578SOL    HW134370   4.163   0.503   8.109 -1.5136 -1.6561 -0.4805
 7578SOL    HW234371   4.042   0.483   8.201 -0.3524 -2.4681 -0.1199
 7579SOL     OW34372   2.089   3.295   5.934 -0.6949 -0.1393 -0.4576
 7579SOL    HW134373   2.012   3.275   5.988 -0.5413  3.5282  1.1406
 7579SOL    HW234374   2.083   3.390   5.933 -1.8213 -0.2309 -1.4269
 7580SOL     OW34375   2.950   4.240  14.674 -0.1570  0.1949  0.2163
 7580SOL    HW134376   2.910   4.318  14.713  0.2568  1.1364 -1.2243
 7580SOL    HW234377   2.904   4.242  14.590  0.6378  0.1857 -0.2180
 7581SOL     OW34378   0.379   3.887   4.750 -0.0496 -0.3207  0.1098
 7581SOL    HW134379   0.301   3.836   4.729  1.3260 -2.6280  0.6584
 7581SOL    HW234380   0.339   3.972   4.769 -0.3594 -1.1443  3.1238
 7582SOL     OW34381   0.908   1.440  11.816  0.4891 -0.3242 -0.2681
 7582SOL    HW134382   0.931   1.415  11.905 -1.6646  3.4081  1.3700
 7582SOL    HW234383   0.954   1.524  11.812  1.2191 -0.6879  0.4856
 7583SOL     OW34384   2.938   0.712  13.060  0.5071 -0.0709 -0.5179
 7583SOL    HW134385   2.955   0.663  13.141  2.1352  2.5161  0.7040
 7583SOL    HW234386   2.994   0.789  13.071  1.2820 -0.7232  0.0431
 7584SOL     OW34387   3.087   3.770   2.464  0.3522  0.7179 -0.0626
 7584SOL    HW134388   3.012   3.817   2.501  1.9402  1.1239  2.6832
 7584SOL    HW234389   3.078   3.688   2.514  0.1775  1.7032  1.5394
 7585SOL     OW34390   0.645   1.210   8.169 -0.3319 -0.0035 -0.1737
 7585SOL    HW134391   0.689   1.190   8.252 -0.0364  0.6546 -0.1761
 7585SOL    HW234392   0.681   1.145   8.109 -3.0967  0.8788 -2.7295
 7586SOL     OW34393   2.925   2.527   1.777 -0.4194 -0.1880  0.9022
 7586SOL    HW134394   2.991   2.545   1.843  1.3456  1.1343 -1.2494
 7586SOL    HW234395   2.871   2.606   1.779 -1.5972 -0.9893  0.7656
 7587SOL     OW34396   0.598   0.464   3.782 -0.2233 -0.0039  0.7623
 7587SOL    HW134397   0.576   0.399   3.849  1.5906 -0.8998  0.4821
 7587SOL    HW234398   0.622   0.399   3.716  1.8409 -0.1998  1.6980
 7588SOL     OW34399   2.237   1.909   4.382 -0.6226 -0.1472 -0.0228
 7588SOL    HW134400   2.148   1.939   4.364 -0.9203 -0.1267  1.4458
 7588SOL    HW234401   2.266   1.982   4.436  2.5441  0.7620 -2.9586
 7589SOL     OW34402   4.665   4.357   8.419  0.2519  0.1398  0.2137
 7589SOL    HW134403   4.611   4.425   8.379 -1.5379 -1.1204  0.4896
 7589SOL    HW234404   4.640   4.272   8.383 -2.8432  1.6132 -1.0806
 7590SOL     OW34405   4.517   1.974  11.153 -0.3226  1.3281 -0.4568
 7590SOL    HW134406   4.452   1.922  11.198  1.4816  0.2097  0.8338
 7590SOL    HW234407   4.599   1.947  11.196 -0.9582  1.1435  0.6178
 7591SOL     OW34408   2.411   2.496  16.706 -0.4074  0.0757 -0.0014
 7591SOL    HW134409   2.326   2.470  16.743 -0.5932 -0.3015 -0.6972
 7591SOL    HW234410   2.397   2.591  16.708 -0.2110  0.1048 -0.0284
 7592SOL     OW34411   0.924   2.585   5.555 -0.1648 -0.3743  0.4373
 7592SOL    HW134412   0.868   2.655   5.521  0.0002 -0.1521  0.6222
 7592SOL    HW234413   0.889   2.577   5.644 -0.4695  1.2041  0.4551
 7593SOL     OW34414   1.257   0.078   6.137 -0.0142 -0.6049  0.2887
 7593SOL    HW134415   1.329   0.104   6.194 -2.1422  0.0565  2.6974
 7593SOL    HW234416   1.247   0.160   6.088  1.9090 -0.9816 -0.7155
 7594SOL     OW34417   3.926   0.120  13.907 -0.4389  0.5105  0.4484
 7594SOL    HW134418   3.966   0.173  13.838  1.4869 -3.3844 -1.4155
 7594SOL    HW234419   3.842   0.102  13.864 -0.0343 -0.9430  0.2740
 7595SOL     OW34420   3.370   0.343   1.302  0.1314  0.3997  0.2614
 7595SOL    HW134421   3.366   0.407   1.372 -2.3062 -1.0716  1.4503
 7595SOL    HW234422   3.320   0.270   1.340 -1.2140  0.4638 -1.3458
 7596SOL     OW34423   3.377   0.617   2.829  0.0827  0.2086 -0.0390
 7596SOL    HW134424   3.416   0.702   2.808 -0.1937  1.1528  3.2941
 7596SOL    HW234425   3.289   0.628   2.793  0.0618  1.8899  0.5039
 7597SOL     OW34426   2.094   3.791   3.439 -0.3732  0.5123  0.1648
 7597SOL    HW134427   2.154   3.719   3.460  0.9862  2.2216  2.1134
 7597SOL    HW234428   2.162   3.848   3.402 -1.0537 -1.2599 -3.8747
 7598SOL     OW34429   1.334   1.643   4.165  0.0558 -0.4547  0.7297
 7598SOL    HW134430   1.295   1.643   4.078  0.6554  2.1219  0.4439
 7598SOL    HW234431   1.425   1.623   4.142 -0.4691 -1.0888 -0.7658
 7599SOL     OW34432   3.175   2.164   6.964 -0.1899 -0.1927  0.1706
 7599SOL    HW134433   3.150   2.224   7.034 -1.1509  0.6077 -0.8487
 7599SOL    HW234434   3.095   2.112   6.959  1.3336 -2.5272  0.1780
 7600SOL     OW34435   3.458   2.408   9.349  0.3170 -0.0634  0.3154
 7600SOL    HW134436   3.436   2.339   9.412 -0.2549  0.7282  0.9809
 7600SOL    HW234437   3.377   2.427   9.302  0.4716  0.9076  0.4548
 7601SOL     OW34438   0.194   0.352   6.022  0.2787  0.0612 -0.0034
 7601SOL    HW134439   0.263   0.319   5.964  0.4782  2.0125 -0.8518
 7601SOL    HW234440   0.238   0.364   6.106  1.3324  2.1888 -0.8453
 7602SOL     OW34441   0.008   1.984   1.992  0.0081 -0.0357  0.2700
 7602SOL    HW134442   4.694   1.928   2.050 -0.2580  1.1910  1.2279
 7602SOL    HW234443   0.078   1.931   1.955  1.0139 -0.1580  2.3450
 7603SOL     OW34444   4.297   0.687   5.574  0.0461 -0.6761  0.1870
 7603SOL    HW134445   4.327   0.778   5.576 -1.4882 -0.2100  1.7751
 7603SOL    HW234446   4.235   0.682   5.647  2.4399 -3.3548  2.0225
 7604SOL     OW34447   3.934   0.397   6.770  0.1247 -0.4463  0.0641
 7604SOL    HW134448   3.857   0.352   6.735  0.0256 -1.3018  1.3860
 7604SOL    HW234449   3.882   0.463   6.818  0.6189 -0.4430  0.5862
 7605SOL     OW34450   0.236   2.330   8.843 -0.5553  0.5240 -0.5643
 7605SOL    HW134451   0.198   2.259   8.894  1.1055 -0.4944 -0.7150
 7605SOL    HW234452   0.215   2.402   8.903 -0.5024 -0.9200  1.2062
 7606SOL     OW34453   3.778   4.151   5.584  0.3905 -0.2539  0.1565
 7606SOL    HW134454   3.808   4.211   5.515 -0.7508 -1.1377 -1.1286
 7606SOL    HW234455   3.698   4.198   5.608 -0.3638 -0.8562 -1.1726
 7607SOL     OW34456   4.530   2.809  16.385  0.5514 -0.0685 -0.3617
 7607SOL    HW134457   4.597   2.874  16.406  1.5031 -1.4106  0.7357
 7607SOL    HW234458   4.574   2.753  16.320 -2.6419 -2.5547 -0.3908
 7608SOL     OW34459   1.007   0.003   2.367 -0.2021 -0.2595  0.1383
 7608SOL    HW134460   0.972   4.689   2.293  2.3345  1.0236 -1.9416
 7608SOL    HW234461   1.044   4.676   2.427 -1.5611 -2.3393 -1.2418
 7609SOL     OW34462   0.139   4.170  12.945 -0.2340  0.2138 -0.1391
 7609SOL    HW134463   0.171   4.207  13.027  0.5652  0.3872 -0.5333
 7609SOL    HW234464   0.059   4.126  12.974 -0.3060  0.4664  0.0430
 7610SOL     OW34465   1.717   4.095  14.424 -0.0801  0.1674  0.1490
 7610SOL    HW134466   1.687   4.121  14.511  1.4121  3.1922 -0.2373
 7610SOL    HW234467   1.790   4.036  14.444  1.4869  1.7615 -0.9274
 7611SOL     OW34468   2.940   2.943   3.425 -0.4216  0.1159 -0.0378
 7611SOL    HW134469   2.936   2.999   3.502  0.6432 -1.3761  1.0912
 7611SOL    HW234470   2.956   2.862   3.472 -2.1938  0.2225  0.7547
 7612SOL     OW34471   1.167   3.453   1.625  0.0593 -0.3682  0.1330
 7612SOL    HW134472   1.176   3.490   1.713  0.4279 -2.2984  0.9027
 7612SOL    HW234473   1.148   3.528   1.568  0.6638  0.9424  1.6442
 7613SOL     OW34474   0.276   3.845   8.668  0.0203  0.1005 -0.1830
 7613SOL    HW134475   0.253   3.891   8.588  0.0903  0.0437 -0.2360
 7613SOL    HW234476   0.360   3.807   8.642  0.5203 -0.0839  1.7083
 7614SOL     OW34477   1.858   4.251  13.439 -0.2081 -0.4774  0.4730
 7614SOL    HW134478   1.917   4.231  13.366 -2.2437  2.3973 -1.9683
 7614SOL    HW234479   1.787   4.187  13.437 -0.9799  0.3529  0.8611
 7615SOL     OW34480   0.439   3.039   4.978  0.2434  0.1237  0.3302
 7615SOL    HW134481   0.345   3.053   4.965  0.5491  2.0414  0.1614
 7615SOL    HW234482   0.467   3.107   5.039 -0.4862 -0.1145  0.9325
 7616SOL     OW34483   0.907   3.570   3.304 -0.7145  0.1146 -0.1247
 7616SOL    HW134484   0.975   3.627   3.267 -0.6547 -0.3732 -0.7615
 7616SOL    HW234485   0.904   3.603   3.394 -0.6053 -2.8693  0.9831
 7617SOL     OW34486   1.491   0.696   9.987 -0.6447 -0.2522  0.0205
 7617SOL    HW134487   1.545   0.761  10.031 -0.7226 -1.6960  2.3014
 7617SOL    HW234488   1.472   0.738   9.903 -0.4428 -1.7732 -0.7869
 7618SOL     OW34489   1.962   0.614   3.225 -0.0405 -0.8221  0.9788
 7618SOL    HW134490   1.943   0.595   3.317  2.3426 -0.4256  1.5770
 7618SOL    HW234491   2.058   0.608   3.232 -0.1870 -0.6903  3.1296
 7619SOL     OW34492   2.525   3.186   7.449  0.0066  0.3986 -0.4146
 7619SOL    HW134493   2.569   3.121   7.505  0.6496  2.7084  1.7613
 7619SOL    HW234494   2.437   3.181   7.485 -0.3266 -0.6985 -1.3838
 7620SOL     OW34495   4.239   3.042  15.775  0.4008  0.0205 -0.1795
 7620SOL    HW134496   4.148   3.072  15.773  0.2096 -0.4992  0.7296
 7620SOL    HW234497   4.243   2.970  15.837  1.6007  0.9004  0.7689
 7621SOL     OW34498   1.197   0.420   6.580 -0.2620  0.3211  0.2019
 7621SOL    HW134499   1.289   0.433   6.555 -0.5090  1.1800 -0.2529
 7621SOL    HW234500   1.177   0.329   6.557 -0.3907  1.1196 -2.8509
 7622SOL     OW34501   4.570   0.027   1.818 -0.2165  0.1050  0.0189
 7622SOL    HW134502   4.641   0.068   1.867  1.1686 -0.0226 -1.8956
 7622SOL    HW234503   4.612   4.687   1.780  0.5990  0.2012  0.7304
 7623SOL     OW34504   2.057   2.293   2.559 -0.0491 -0.0173  0.0214
 7623SOL    HW134505   2.035   2.261   2.471 -0.3408  1.9467 -0.6246
 7623SOL    HW234506   2.153   2.289   2.560  0.0280  1.5767 -1.6159
 7624SOL     OW34507   1.705   4.404  12.717  0.1783 -0.2696  0.1077
 7624SOL    HW134508   1.781   4.403  12.658 -0.4128 -1.1931 -0.6341
 7624SOL    HW234509   1.669   4.493  12.714  0.6455 -0.1145 -1.0523
 7625SOL     OW34510   3.078   0.014   4.283 -0.4803 -0.1791  0.1191
 7625SOL    HW134511   3.002   4.712   4.240 -0.7589 -0.3257  0.7503
 7625SOL    HW234512   3.134   0.042   4.210  0.5009 -4.3230 -0.7654
 7626SOL     OW34513   1.093   1.561   8.534  0.7865  0.2469 -0.2034
 7626SOL    HW134514   1.160   1.496   8.557  0.1492 -0.2790  0.1497
 7626SOL    HW234515   1.073   1.595   8.621 -0.9150  1.4154 -1.0748
 7627SOL     OW34516   0.190   4.603   6.304 -0.5944 -0.6034 -0.3269
 7627SOL    HW134517   0.182   4.697   6.318  1.7770 -0.5834  0.8552
 7627SOL    HW234518   0.248   4.578   6.376  0.6960 -0.0199 -1.1644
 7628SOL     OW34519   2.412   3.449   1.526  0.0504 -0.0728 -0.1952
 7628SOL    HW134520   2.497   3.457   1.571  1.4715 -0.6626 -2.8164
 7628SOL    HW234521   2.406   3.535   1.485 -2.6760  0.3325  1.0605
 7629SOL     OW34522   0.231   4.096   6.256  0.4373  0.0005  0.1663
 7629SOL    HW134523   0.303   4.120   6.198  0.4144 -0.7587 -0.1680
 7629SOL    HW234524   0.242   4.002   6.268 -0.6219 -0.1767 -0.2770
 7630SOL     OW34525   3.192   0.100   7.493  0.8271 -0.4175 -0.2815
 7630SOL    HW134526   3.201   0.065   7.404 -0.2135 -0.9611 -0.1732
 7630SOL    HW234527   3.136   0.172   7.466 -0.7956 -1.9090 -0.8786
 7631SOL     OW34528   3.579   4.136   2.613  0.3655  1.0536  0.0990
 7631SOL    HW134529   3.537   4.157   2.530 -1.1060 -0.8347  0.3681
 7631SOL    HW234530   3.516   4.187   2.664 -0.5517 -0.2880  0.2955
 7632SOL     OW34531   1.903   0.036  13.310 -0.4894 -0.2039  0.1896
 7632SOL    HW134532   1.916   0.004  13.400  0.8361 -1.5887 -0.4950
 7632SOL    HW234533   1.876   4.692  13.266 -0.6714  0.2123 -0.4652
 7633SOL     OW34534   4.631   0.367   2.530 -0.0688 -0.0420  0.2598
 7633SOL    HW134535   4.586   0.451   2.520  0.4320  0.4906  2.3794
 7633SOL    HW234536   4.712   0.384   2.578  0.3424 -0.2098 -0.3749
 7634SOL     OW34537   4.406   1.447   6.949 -0.1522  0.0275  0.5957
 7634SOL    HW134538   4.470   1.503   6.906  0.3667 -0.8918  0.1744
 7634SOL    HW234539   4.470   1.409   7.010 -1.5985 -0.3603  1.8916
 7635SOL     OW34540   1.456   0.098  16.024 -0.1631 -0.8560  0.8210
 7635SOL    HW134541   1.365   0.104  15.994  0.3897  0.3286 -0.6365
 7635SOL    HW234542   1.492   0.156  15.957 -0.8706  0.1924  1.3397
 7636SOL     OW34543   0.864   0.457  16.466 -0.1047 -0.8280 -0.4070
 7636SOL    HW134544   0.818   0.397  16.406  0.1436 -0.9260 -0.4984
 7636SOL    HW234545   0.859   0.539  16.418  0.7439 -0.8937 -0.5977
 7637SOL     OW34546   2.449   4.626   3.362  0.2814 -0.2244 -0.2159
 7637SOL    HW134547   2.535   4.664   3.380  0.9749 -1.5526 -0.7909
 7637SOL    HW234548   2.399   4.694   3.316 -0.4362  0.1864  1.1599
 7638SOL     OW34549   3.448   0.615   4.511 -0.0398 -0.1064  0.1311
 7638SOL    HW134550   3.436   0.533   4.464 -0.1077  0.3771 -0.6997
 7638SOL    HW234551   3.542   0.616   4.528  0.5962  0.7611 -3.3337
 7639SOL     OW34552   2.635   3.030  15.966 -0.7634  0.8821  0.0598
 7639SOL    HW134553   2.658   3.009  15.875 -0.6687  2.3250 -0.2442
 7639SOL    HW234554   2.540   3.030  15.956 -0.6564 -0.9343 -0.9535
 7640SOL     OW34555   1.032   4.212   5.315 -0.0990  0.1623 -0.4390
 7640SOL    HW134556   1.030   4.304   5.341 -1.4106  0.2469 -0.7922
 7640SOL    HW234557   0.950   4.214   5.264 -0.2553 -1.9491 -0.2614
 7641SOL     OW34558   4.173   2.599   5.800  0.0856 -0.0331  0.1301
 7641SOL    HW134559   4.158   2.507   5.825  0.9325 -0.2275 -0.0620
 7641SOL    HW234560   4.148   2.636   5.884  0.0038 -0.7759  0.4328
 7642SOL     OW34561   1.095   4.664  15.027  1.0152 -0.1108  0.4079
 7642SOL    HW134562   1.016   4.703  15.066  0.3473 -1.6710  0.5982
 7642SOL    HW234563   1.083   4.676  14.933 -2.1536  0.7449  0.9250
 7643SOL     OW34564   1.315   4.282  10.524 -0.3206 -0.2949  0.0221
 7643SOL    HW134565   1.390   4.262  10.580 -1.3487 -1.3043  1.0479
 7643SOL    HW234566   1.261   4.350  10.564  1.6587  0.7488  0.9229
 7644SOL     OW34567   3.112   2.597  14.275  0.2670 -0.6315 -0.9647
 7644SOL    HW134568   3.054   2.530  14.311  0.4447  1.1646  2.6404
 7644SOL    HW234569   3.046   2.666  14.267 -0.5124 -1.1004  1.5919
 7645SOL     OW34570   2.395   2.101   4.169 -0.3771 -0.2379 -0.5972
 7645SOL    HW134571   2.452   2.118   4.093  1.1620 -1.8822  0.1803
 7645SOL    HW234572   2.315   2.066   4.130 -1.3397  2.7038 -1.2806
 7646SOL     OW34573   4.645   3.972   3.164  0.3009  0.2468 -0.3760
 7646SOL    HW134574   4.576   3.996   3.225  0.2696 -2.0744  0.5150
 7646SOL    HW234575   4.696   3.902   3.205 -0.6381 -0.7925 -0.9773
 7647SOL     OW34576   4.014   1.446   3.072 -0.2382 -0.4643  0.4576
 7647SOL    HW134577   4.083   1.440   3.138  0.2576 -1.0742 -0.1033
 7647SOL    HW234578   4.040   1.521   3.018 -0.2241 -0.8287 -0.0498
 7648SOL     OW34579   1.776   2.252   6.833 -0.1034  0.2274  0.0831
 7648SOL    HW134580   1.865   2.219   6.821  0.2180  2.3012 -3.2590
 7648SOL    HW234581   1.769   2.333   6.781  0.9043 -0.3758 -0.9834
 7649SOL     OW34582   2.809   4.638   4.234  0.4234  0.2809 -0.2081
 7649SOL    HW134583   2.722   4.673   4.215 -0.6311 -0.5615  3.1435
 7649SOL    HW234584   2.836   4.616   4.144  3.3078  2.1294  0.2147
 7650SOL     OW34585   2.643   1.236   8.774 -0.2904 -0.2057  0.0349
 7650SOL    HW134586   2.737   1.226   8.793 -0.4361  0.1948  0.9604
 7650SOL    HW234587   2.617   1.145   8.790 -1.3490  0.2503  0.8708
 7651SOL     OW34588   4.671   2.948   8.080 -0.3834 -0.0211  0.1839
 7651SOL    HW134589   4.681   2.870   8.026 -2.3373 -0.4552  0.4577
 7651SOL    HW234590   4.643   3.000   8.005 -1.7924 -4.3152 -2.2547
 7652SOL     OW34591   4.393   4.442   8.718  0.0406  0.0502 -1.1527
 7652SOL    HW134592   4.381   4.352   8.747  1.3191  0.3116  0.1859
 7652SOL    HW234593   4.484   4.440   8.687  0.8597 -1.5760  1.3366
 7653SOL     OW34594   3.930   2.012  12.683 -0.0932 -0.0839 -0.3447
 7653SOL    HW134595   4.011   2.061  12.667 -0.2450  1.3759  3.5836
 7653SOL    HW234596   3.957   1.951  12.752 -2.0417 -1.3091 -0.6500
 7654SOL     OW34597   0.079   1.794   5.572 -0.2633  0.3491 -0.5129
 7654SOL    HW134598   0.143   1.865   5.571 -0.7428  0.8312  2.3788
 7654SOL    HW234599   0.033   1.837   5.500 -1.5220  0.0741  0.1208
 7655SOL     OW34600   0.715   0.002   5.007  0.3251  0.3306  0.0348
 7655SOL    HW134601   0.668   4.657   5.024  0.7837  0.5310  2.2727
 7655SOL    HW234602   0.769   0.020   5.084 -0.7079 -1.1020  1.1082
 7656SOL     OW34603   3.991   3.430   2.470  0.7553  0.3573 -0.4041
 7656SOL    HW134604   4.067   3.404   2.522  0.5662  1.5940  0.4862
 7656SOL    HW234605   3.998   3.523   2.491  0.1515  0.3881 -0.3310
 7657SOL     OW34606   1.393   1.291   8.783 -0.0450  0.0315 -0.1788
 7657SOL    HW134607   1.310   1.268   8.824  0.3121 -0.9343 -0.0031
 7657SOL    HW234608   1.363   1.321   8.698  0.1106 -1.4460 -0.7399
 7658SOL     OW34609   0.719   0.278   7.703  0.6666 -0.1602  0.0123
 7658SOL    HW134610   0.702   0.211   7.636 -0.8790 -1.6891  1.9574
 7658SOL    HW234611   0.635   0.290   7.746  0.6676 -1.8025  0.4951
 7659SOL     OW34612   2.336   2.541   8.230  0.0764  0.2393  0.3761
 7659SOL    HW134613   2.252   2.576   8.258 -0.8986 -1.4575 -0.4337
 7659SOL    HW234614   2.370   2.511   8.314 -0.3860 -2.2108 -0.3304
 7660SOL     OW34615   2.415   4.547   3.839  0.3528  0.1303 -0.0659
 7660SOL    HW134616   2.424   4.520   3.748  2.9157 -0.6998  0.4297
 7660SOL    HW234617   2.476   4.619   3.825  1.1271 -0.2306  1.4487
 7661SOL     OW34618   1.238   4.705   7.003 -0.8608 -0.3993  0.6954
 7661SOL    HW134619   1.234   0.063   7.014 -0.7609 -0.0717 -2.0912
 7661SOL    HW234620   1.159   4.680   7.049  0.3157 -5.2893  0.0424
 7662SOL     OW34621   2.259   1.046   1.949  0.5939 -0.1880  0.2807
 7662SOL    HW134622   2.308   1.123   1.918  0.2312  0.2751  0.8722
 7662SOL    HW234623   2.175   1.054   1.903  0.8768  0.8139 -0.0650
 7663SOL     OW34624   4.259   3.588   6.767 -0.5839  0.5616  0.4730
 7663SOL    HW134625   4.182   3.606   6.713 -0.5258 -2.2957 -0.5510
 7663SOL    HW234626   4.310   3.536   6.704 -0.4564  2.0274 -0.6253
 7664SOL     OW34627   3.207   4.114   4.521  0.0262 -0.1587 -0.9642
 7664SOL    HW134628   3.212   4.209   4.508  2.0786  0.0175  1.2388
 7664SOL    HW234629   3.239   4.076   4.439 -0.2358 -0.1088 -1.0896
 7665SOL     OW34630   2.019   2.444   5.895 -0.0852 -0.2028  0.6821
 7665SOL    HW134631   2.073   2.388   5.951  0.9120 -0.7608 -0.8479
 7665SOL    HW234632   1.960   2.379   5.855 -1.8687  2.0395 -0.3319
 7666SOL     OW34633   4.623   4.363   5.223 -0.4209 -0.1562 -0.2597
 7666SOL    HW134634   4.688   4.347   5.292 -1.9637  0.0018  1.2424
 7666SOL    HW234635   4.612   4.458   5.229  1.3778 -0.0610  1.4602
 7667SOL     OW34636   2.656   1.779   4.075  0.2532 -0.0832  0.3377
 7667SOL    HW134637   2.745   1.755   4.049 -0.2621 -1.6197 -0.0282
 7667SOL    HW234638   2.668   1.826   4.158 -2.5477  1.2188  0.0016
 7668SOL     OW34639   0.891   3.893  10.250  0.0448 -0.1449 -1.2021
 7668SOL    HW134640   0.858   3.982  10.262 -0.0401 -0.1122 -1.6951
 7668SOL    HW234641   0.941   3.875  10.330 -0.8099 -0.6879 -0.7867
 7669SOL     OW34642   3.102   2.838   4.936  0.0223 -0.0470  0.4305
 7669SOL    HW134643   3.090   2.805   4.847 -1.0086 -0.1823  0.6244
 7669SOL    HW234644   3.162   2.771   4.968  0.0430 -0.3271 -0.1883
 7670SOL     OW34645   1.833   3.271   6.365 -0.2050  0.4343 -0.0180
 7670SOL    HW134646   1.810   3.207   6.298  1.0619  0.2078 -0.2332
 7670SOL    HW234647   1.924   3.248   6.383 -0.1649  0.5544 -0.0659
 7671SOL     OW34648   0.626   2.907   7.899  0.0875  0.1546 -0.0381
 7671SOL    HW134649   0.545   2.921   7.948  0.2357 -0.8382  0.4909
 7671SOL    HW234650   0.641   2.813   7.898 -1.7394 -0.1087 -0.6840
 7672SOL     OW34651   1.180   0.935   7.363  0.0954  0.2201 -0.2009
 7672SOL    HW134652   1.145   0.949   7.276  1.8301 -0.3851 -1.0059
 7672SOL    HW234653   1.221   0.848   7.358 -2.0269 -0.7735 -0.2900
 7673SOL     OW34654   1.866   1.773   4.291 -0.5638  0.2801 -0.1964
 7673SOL    HW134655   1.886   1.866   4.305  0.7545  0.3487 -2.5457
 7673SOL    HW234656   1.947   1.726   4.276 -0.5297  0.5692 -0.9079
 7674SOL     OW34657   1.238   0.956   8.952  0.4909 -0.3340  0.1096
 7674SOL    HW134658   1.273   0.873   8.918  1.4616  0.7354 -1.4756
 7674SOL    HW234659   1.324   0.993   8.972 -1.2714  3.2014  1.0028
 7675SOL     OW34660   0.990   3.495   5.436 -0.6977  0.0574  0.0730
 7675SOL    HW134661   0.981   3.402   5.417  0.4281  0.1748 -1.0089
 7675SOL    HW234662   0.929   3.530   5.371 -0.5205  0.2925  0.0317
 7676SOL     OW34663   4.209   0.863  15.113 -0.6340 -0.8368 -0.3714
 7676SOL    HW134664   4.152   0.808  15.168  0.3685 -2.0270 -0.5082
 7676SOL    HW234665   4.203   0.832  15.023  0.1297  0.8331 -0.9865
 7677SOL     OW34666   4.245   0.360  12.509  0.1498  0.1894 -0.4940
 7677SOL    HW134667   4.268   0.356  12.416  0.6119  2.2660 -0.4648
 7677SOL    HW234668   4.186   0.285  12.512 -2.6076  2.3618 -0.5739
 7678SOL     OW34669   1.029   0.216   8.326 -0.2067 -0.1098 -0.3300
 7678SOL    HW134670   0.988   0.137   8.291 -0.9537 -0.7536  1.9841
 7678SOL    HW234671   0.974   0.238   8.401 -1.7246 -0.5105 -1.3424
 7679SOL     OW34672   3.697   3.540   2.803 -0.2172  0.3396  0.1183
 7679SOL    HW134673   3.745   3.465   2.837  0.0718  0.7438  0.6106
 7679SOL    HW234674   3.760   3.594   2.755 -1.0237  1.3664  0.2150
 7680SOL     OW34675   0.533   1.546   4.772 -0.5571  0.2689  0.3239
 7680SOL    HW134676   0.451   1.505   4.801  0.3310 -0.1180  2.3287
 7680SOL    HW234677   0.583   1.540   4.854 -0.9859  0.2637  0.5849
 7681SOL     OW34678   2.530   0.268   7.607 -0.0165 -0.2277 -0.2868
 7681SOL    HW134679   2.465   0.201   7.585 -1.1266  0.3841  1.0991
 7681SOL    HW234680   2.496   0.344   7.561  1.4649  0.4378 -0.2712
 7682SOL     OW34681   1.949   3.210  13.614 -0.4021 -0.3290  0.4142
 7682SOL    HW134682   1.869   3.166  13.586  0.6238 -1.8656 -0.1105
 7682SOL    HW234683   1.957   3.275  13.544 -2.0171 -1.1098 -0.5067
 7683SOL     OW34684   1.271   1.996   5.028 -0.3885  0.2362  0.2892
 7683SOL    HW134685   1.189   1.950   5.011  1.1084 -2.4253  0.2092
 7683SOL    HW234686   1.256   2.004   5.123 -0.6313 -1.2971  0.3735
 7684SOL     OW34687   3.840   2.468   1.787  0.1631  0.3158 -0.4201
 7684SOL    HW134688   3.825   2.561   1.807 -1.3225  0.0393 -0.2366
 7684SOL    HW234689   3.790   2.417   1.850  0.0047  0.1905 -0.6484
 7685SOL     OW34690   0.507   2.865   5.640 -0.0179  0.2302  0.1473
 7685SOL    HW134691   0.501   2.939   5.580 -0.3639  0.4787  0.4867
 7685SOL    HW234692   0.455   2.797   5.598 -1.6055  0.6367  1.4490
 7686SOL     OW34693   0.810   0.082   7.964  0.0866  0.2166 -0.1197
 7686SOL    HW134694   0.729   0.037   7.986 -0.6593  1.0180 -1.1477
 7686SOL    HW234695   0.786   0.103   7.873  1.9989  0.6791 -0.5193
 7687SOL     OW34696   0.328   0.541   7.938 -0.3254  0.2727 -0.0163
 7687SOL    HW134697   0.291   0.619   7.897 -1.2580 -0.1154  0.0992
 7687SOL    HW234698   0.324   0.566   8.030 -2.9115 -2.5401  0.6158
 7688SOL     OW34699   3.988   0.451   6.386  0.6775  0.4492 -0.2517
 7688SOL    HW134700   4.064   0.486   6.431  0.0905 -1.1226  1.9763
 7688SOL    HW234701   4.026   0.383   6.330 -1.3766 -0.3760 -0.6693
 7689SOL     OW34702   1.417   0.283   5.158  0.0364 -0.1239 -0.0909
 7689SOL    HW134703   1.384   0.318   5.241  1.2965  2.2584 -0.6037
 7689SOL    HW234704   1.369   0.347   5.105  0.9685  0.1737 -0.5800
 7690SOL     OW34705   0.618   2.512   4.533  0.4253 -0.0566  0.0279
 7690SOL    HW134706   0.709   2.489   4.514  0.8486  0.6538  1.1853
 7690SOL    HW234707   0.626   2.523   4.628  0.4552  0.6445 -0.0521
 7691SOL     OW34708   4.304   0.987  12.427 -0.2693  0.2890 -0.7052
 7691SOL    HW134709   4.244   1.015  12.496 -1.2487 -1.6088 -0.7840
 7691SOL    HW234710   4.340   1.066  12.386 -1.2097  0.9386 -0.2801
 7692SOL     OW34711   2.213   2.402  16.864 -0.2725 -0.2796  0.2756
 7692SOL    HW134712   2.221   2.474  16.927 -2.3312  0.2224 -0.0208
 7692SOL    HW234713   2.139   2.421  16.806 -0.1940  0.6756  0.4865
 7693SOL     OW34714   3.573   1.308   5.120 -0.4736  0.2004 -0.5301
 7693SOL    HW134715   3.576   1.231   5.063  0.1487 -0.3188  0.2023
 7693SOL    HW234716   3.665   1.331   5.117 -0.2389 -0.5385  0.8744
 7694SOL     OW34717   3.226   3.767   8.290 -0.3057  0.3100  0.8222
 7694SOL    HW134718   3.219   3.860   8.271 -0.5727  0.1023 -0.0974
 7694SOL    HW234719   3.241   3.723   8.206 -1.2771  2.5092 -0.4907
 7695SOL     OW34720   1.087   3.779   2.277  0.2441 -0.1175  0.2950
 7695SOL    HW134721   1.132   3.787   2.361 -0.8904  1.3341  0.7611
 7695SOL    HW234722   1.062   3.687   2.290 -0.8240  0.0127 -0.8195
 7696SOL     OW34723   4.181   2.232   9.513 -0.2802 -0.9370  0.8716
 7696SOL    HW134724   4.112   2.278   9.560 -1.7626 -1.2552 -1.0163
 7696SOL    HW234725   4.253   2.246   9.575  0.8139 -3.5642  0.1634
 7697SOL     OW34726   3.999   2.489   6.434  0.1466 -0.0174  0.0717
 7697SOL    HW134727   3.955   2.573   6.424  1.6169  0.6917 -0.4192
 7697SOL    HW234728   3.940   2.444   6.494 -0.7714 -0.6426 -1.2923
 7698SOL     OW34729   2.363   4.687   1.115 -0.4146  0.1548 -0.0390
 7698SOL    HW134730   2.314   0.028   1.139 -0.1830 -0.5188  2.6262
 7698SOL    HW234731   2.407   4.678   1.199  0.5770 -0.7122 -0.6416
 7699SOL     OW34732   1.166   2.366  15.443  0.3177 -0.1411  0.7370
 7699SOL    HW134733   1.148   2.273  15.429 -0.0307 -0.0094  0.3046
 7699SOL    HW234734   1.257   2.384  15.418  0.0925  0.5883  0.4322
 7700SOL     OW34735   1.585   2.416   8.618  0.4003 -0.1118 -0.1286
 7700SOL    HW134736   1.583   2.501   8.661  3.4034  0.1929 -0.6317
 7700SOL    HW234737   1.495   2.416   8.585  0.5721  0.2550 -0.5860
 7701SOL     OW34738   0.258   2.148  12.621 -0.2201 -0.1765 -0.5293
 7701SOL    HW134739   0.219   2.224  12.665 -2.9120 -1.4316 -0.7562
 7701SOL    HW234740   0.352   2.151  12.641 -0.1318  0.1707 -0.9922
 7702SOL     OW34741   3.085   3.483   5.191  0.8458 -0.6459 -0.4926
 7702SOL    HW134742   3.128   3.553   5.239  0.3820 -0.3815 -0.4684
 7702SOL    HW234743   3.016   3.532   5.147 -0.5825 -1.5659  0.7347
 7703SOL     OW34744   1.960   4.375   4.701  0.0481  0.1049  0.3545
 7703SOL    HW134745   1.944   4.289   4.663  0.2904 -0.4905  1.6411
 7703SOL    HW234746   2.056   4.379   4.695 -0.0121  4.7267  1.8653
 7704SOL     OW34747   2.485   0.167   5.067 -0.4360  0.1867 -0.2412
 7704SOL    HW134748   2.434   0.246   5.088  0.9852  0.9203  0.4309
 7704SOL    HW234749   2.529   0.181   4.983 -0.6742  0.3473 -0.3423
 7705SOL     OW34750   1.271   0.154   7.693  0.1601  0.1024 -0.5335
 7705SOL    HW134751   1.276   0.133   7.600  0.7475  0.1787 -0.5180
 7705SOL    HW234752   1.361   0.147   7.724 -0.0985  0.4526  0.3261
 7706SOL     OW34753   1.470   3.428   5.918  0.1186  0.3853 -0.2201
 7706SOL    HW134754   1.494   3.414   6.010  0.0387 -0.0464 -0.2688
 7706SOL    HW234755   1.378   3.452   5.925  0.4320  1.6902 -0.4802
 7707SOL     OW34756   3.476   3.704   9.179 -0.6101 -0.0067 -0.4496
 7707SOL    HW134757   3.473   3.800   9.180 -2.5542 -0.0662 -0.3324
 7707SOL    HW234758   3.500   3.694   9.087  0.3820  1.8466 -0.4075
 7708SOL     OW34759   1.020   3.424   9.218  0.1898  0.5359 -0.0536
 7708SOL    HW134760   0.993   3.498   9.163 -0.8100 -3.0310 -4.3194
 7708SOL    HW234761   0.985   3.449   9.303 -0.6187  0.5279 -0.3870
 7709SOL     OW34762   4.637   0.799   6.859  0.0015  0.1001 -0.3169
 7709SOL    HW134763   4.547   0.826   6.837 -0.6920 -0.0003  2.3429
 7709SOL    HW234764   4.640   0.707   6.834 -2.3400  0.1522 -0.7922
 7710SOL     OW34765   4.577   0.861   3.945  0.0317 -0.0730 -0.1342
 7710SOL    HW134766   4.672   0.857   3.953 -0.1944 -1.4233  1.7202
 7710SOL    HW234767   4.569   0.917   4.022 -0.2912  0.9020 -0.8572
 7711SOL     OW34768   4.271   3.486   4.960  0.5603  1.0832 -0.1447
 7711SOL    HW134769   4.178   3.499   4.974  0.6174 -1.6450  2.5950
 7711SOL    HW234770   4.282   3.509   4.867  1.7635  1.5159  0.1069
 7712SOL     OW34771   2.111   1.880   5.709  0.0548 -0.1715  0.3132
 7712SOL    HW134772   2.184   1.939   5.729 -2.0041  2.0096  1.3070
 7712SOL    HW234773   2.106   1.843   5.797  0.1819 -0.2642  0.2815
 7713SOL     OW34774   1.885   0.775   7.907  0.0018  0.6398  0.5553
 7713SOL    HW134775   1.798   0.751   7.877  0.2095 -1.0278  1.2877
 7713SOL    HW234776   1.896   0.733   7.992  1.2324 -1.1633 -0.5029
 7714SOL     OW34777   0.914   3.540   4.950 -0.4724 -0.4382 -0.1915
 7714SOL    HW134778   0.959   3.455   4.948  0.3475 -0.0321  1.2402
 7714SOL    HW234779   0.902   3.556   5.044  0.9076  1.2793 -0.3166
 7715SOL     OW34780   3.640   2.340   2.540  0.3931 -0.3362 -0.0495
 7715SOL    HW134781   3.554   2.378   2.559  1.1922  2.2433 -1.4778
 7715SOL    HW234782   3.624   2.250   2.568  2.8243 -1.1709 -1.3503
 7716SOL     OW34783   2.205   1.134   9.577  0.2149  0.3120 -0.0554
 7716SOL    HW134784   2.118   1.173   9.580 -0.0892 -0.3568 -0.1013
 7716SOL    HW234785   2.175   1.043   9.578  0.9994  0.0343 -1.3820
 7717SOL     OW34786   1.576   1.950  17.493 -0.0793 -0.2614 -0.2301
 7717SOL    HW134787   1.480   1.959  17.497  0.0907  0.9852  1.3064
 7717SOL    HW234788   1.575   1.878  17.430  3.1968  0.2378 -0.8495
 7718SOL     OW34789   2.970   1.658   1.459  0.2368  1.0581  0.2770
 7718SOL    HW134790   3.036   1.712   1.503  0.5763  0.5746  0.3570
 7718SOL    HW234791   2.981   1.582   1.517  1.4750  0.6975 -0.4217
 7719SOL     OW34792   0.237   0.253  17.509  0.2332  0.0826 -0.1295
 7719SOL    HW134793   0.221   0.321  17.444 -0.8393  0.2712  0.3260
 7719SOL    HW234794   0.316   0.219  17.468  1.6778  2.6835  0.4737
 7720SOL     OW34795   2.783   4.570   1.779  0.5651 -0.3341  0.0879
 7720SOL    HW134796   2.805   4.543   1.689 -0.7961 -2.4706  0.3846
 7720SOL    HW234797   2.688   4.580   1.773  0.8278  1.3848 -1.1156
 7721SOL     OW34798   1.565   4.454   7.692  0.0024 -0.2395 -0.0442
 7721SOL    HW134799   1.505   4.523   7.720 -1.4375 -1.5560  0.0928
 7721SOL    HW234800   1.644   4.474   7.742 -0.7597  1.2792  0.5368
 7722SOL     OW34801   1.328   3.562   7.634 -0.0353  0.4349 -0.5622
 7722SOL    HW134802   1.261   3.606   7.685  0.9438  1.3377 -0.0749
 7722SOL    HW234803   1.357   3.641   7.589 -0.2803  0.6745 -0.2927
 7723SOL     OW34804   0.973   1.318   8.084  0.1532 -0.3001 -0.3023
 7723SOL    HW134805   0.962   1.238   8.032  1.5581 -0.8586  0.2421
 7723SOL    HW234806   1.022   1.373   8.024  1.3205 -0.4529  0.5022
 7724SOL     OW34807   4.260   3.438   9.851  0.4600 -0.5834  0.3387
 7724SOL    HW134808   4.259   3.358   9.904 -1.7049 -0.6497  0.2068
 7724SOL    HW234809   4.277   3.504   9.918 -0.8450  0.8775 -0.7597
 7725SOL     OW34810   1.184   0.034   4.265 -0.2530 -0.0214  0.1187
 7725SOL    HW134811   1.191   4.687   4.219  0.2293  0.3344 -0.4625
 7725SOL    HW234812   1.206   0.099   4.198 -0.5964  0.2993  0.3167
 7726SOL     OW34813   1.444   4.487   9.080 -0.4506  0.4365 -0.1400
 7726SOL    HW134814   1.404   4.412   9.038 -0.0107 -1.3889  2.6909
 7726SOL    HW234815   1.371   4.512   9.137 -0.0654 -0.0542  0.5768
 7727SOL     OW34816   3.210   1.967   7.582  0.3553  0.2520 -0.4589
 7727SOL    HW134817   3.169   1.940   7.500 -0.7971  0.3835  0.0745
 7727SOL    HW234818   3.148   1.929   7.643 -1.2476  0.4892 -1.9562
 7728SOL     OW34819   2.704   4.141   4.173  0.1116  0.5771  0.4145
 7728SOL    HW134820   2.643   4.086   4.221  0.5410 -0.0224  0.2706
 7728SOL    HW234821   2.691   4.223   4.222  1.4051  0.9711  0.1070
 7729SOL     OW34822   1.923   1.258   8.855 -0.1210 -0.2693  0.1864
 7729SOL    HW134823   1.966   1.173   8.845  0.5742  0.2426 -1.1627
 7729SOL    HW234824   1.868   1.256   8.776  1.9861 -2.1927 -1.2193
 7730SOL     OW34825   0.893   0.246   2.327 -0.4833 -0.1401 -0.4686
 7730SOL    HW134826   0.974   0.284   2.292 -0.3530  0.7503  0.8242
 7730SOL    HW234827   0.926   0.157   2.343 -1.2940 -0.0169  1.8653
 7731SOL     OW34828   4.469   2.182   4.344 -0.2344 -0.3651  0.5026
 7731SOL    HW134829   4.426   2.163   4.427  2.0465 -2.5057  1.1750
 7731SOL    HW234830   4.510   2.100   4.316 -1.9045 -1.3714  1.0134
 7732SOL     OW34831   2.822   1.220   5.793  0.1802  0.0859 -0.7046
 7732SOL    HW134832   2.865   1.181   5.717 -0.3780  0.6722 -1.3200
 7732SOL    HW234833   2.863   1.163   5.858  1.6593  0.6751 -1.1082
 7733SOL     OW34834   3.434   2.858   7.977  0.0448 -0.2443 -0.0708
 7733SOL    HW134835   3.474   2.773   7.961 -1.2048 -0.4712 -2.0247
 7733SOL    HW234836   3.407   2.840   8.066  4.4050  0.3991  1.3851
 7734SOL     OW34837   2.994   0.471  11.457 -0.7860  0.8793 -0.0671
 7734SOL    HW134838   2.919   0.448  11.511  0.4913  0.9756  1.7331
 7734SOL    HW234839   2.967   0.445  11.369 -1.7037  2.1279 -0.1567
 7735SOL     OW34840   3.278   0.813  15.582  0.4348  0.4144 -0.5101
 7735SOL    HW134841   3.343   0.849  15.641  1.1675  0.2009 -1.1885
 7735SOL    HW234842   3.194   0.828  15.625 -0.1692 -2.2607 -0.7444
 7736SOL     OW34843   2.799   4.402   8.031  0.5999 -0.5438 -0.5540
 7736SOL    HW134844   2.784   4.416   7.937 -1.1225 -3.4435 -0.6778
 7736SOL    HW234845   2.724   4.448   8.069  0.0226 -1.7268 -0.2795
 7737SOL     OW34846   3.283   1.234   4.505 -0.2188 -0.0785 -0.5264
 7737SOL    HW134847   3.214   1.198   4.450  0.1176 -3.3673  1.2439
 7737SOL    HW234848   3.351   1.238   4.438 -0.9318 -1.6049 -1.3316
 7738SOL     OW34849   0.952   4.588   2.795 -0.2243  0.1590 -0.0226
 7738SOL    HW134850   1.042   4.591   2.828 -0.3720  0.6928  0.3263
 7738SOL    HW234851   0.942   4.681   2.779 -1.1261 -0.0076 -0.4218
 7739SOL     OW34852   0.422   1.100  13.612  0.3241  0.1505  0.0621
 7739SOL    HW134853   0.413   1.149  13.530  1.1745 -0.3918 -0.3537
 7739SOL    HW234854   0.345   1.129  13.660  0.7122  0.1033  0.7085
 7740SOL     OW34855   0.625   2.280  11.931  0.2385 -0.3860 -0.4462
 7740SOL    HW134856   0.612   2.247  11.842 -2.6767 -0.7858  0.1106
 7740SOL    HW234857   0.670   2.203  11.965 -0.7646 -1.0731 -0.6814
 7741SOL     OW34858   1.526   3.570   8.643  0.5395 -0.3682 -0.1145
 7741SOL    HW134859   1.602   3.511   8.649  1.9949  1.4686 -0.4740
 7741SOL    HW234860   1.563   3.655   8.667  0.3595 -0.4911  0.5859
 7742SOL     OW34861   0.545   2.799   4.938 -0.0508 -0.2476 -0.0463
 7742SOL    HW134862   0.517   2.891   4.943 -2.0161 -0.8764  0.2982
 7742SOL    HW234863   0.629   2.798   4.984  0.7026  0.8641 -1.3725
 7743SOL     OW34864   2.086   3.812   2.456 -0.7890 -0.4159 -0.4454
 7743SOL    HW134865   2.025   3.747   2.493 -0.0497 -0.8414  0.0246
 7743SOL    HW234866   2.107   3.775   2.370  1.4645  0.8486 -0.4299
 7744SOL     OW34867   0.728   4.558  16.464 -0.0187 -0.5757 -0.0128
 7744SOL    HW134868   0.817   4.542  16.433  0.6309 -0.4122  1.7757
 7744SOL    HW234869   0.703   4.633  16.410  0.1611 -2.1167 -2.2131
 7745SOL     OW34870   1.154   0.436   8.061  0.6568 -0.1042 -0.0778
 7745SOL    HW134871   1.130   0.521   8.098  0.9609 -0.6749  1.4424
 7745SOL    HW234872   1.081   0.414   8.002  0.7819  1.2247 -0.7265
 7746SOL     OW34873   0.325   1.123   2.642  0.3487 -0.1713 -0.0765
 7746SOL    HW134874   0.321   1.171   2.724  1.0464  1.0691 -0.7620
 7746SOL    HW234875   0.231   1.122   2.620  1.0129 -0.2048 -2.9475
 7747SOL     OW34876   3.567   0.552   7.699  0.1466 -0.1932 -0.0990
 7747SOL    HW134877   3.572   0.638   7.741  0.0610 -0.4619  0.4612
 7747SOL    HW234878   3.659   0.539   7.674  0.1890  2.4993 -1.3893
 7748SOL     OW34879   1.466   2.454   2.337  0.2064 -0.2053 -0.6580
 7748SOL    HW134880   1.548   2.483   2.297  1.1297 -0.3369  1.1113
 7748SOL    HW234881   1.455   2.512   2.412 -2.8964  1.3798 -2.3365
 7749SOL     OW34882   1.159   0.787  13.973 -0.0865 -0.1960  0.1963
 7749SOL    HW134883   1.080   0.736  13.952 -0.6719  0.5074  0.6783
 7749SOL    HW234884   1.138   0.875  13.943  0.5386  0.2927  1.2118
 7750SOL     OW34885   1.296   1.634   8.233  0.0340  0.3745  0.6087
 7750SOL    HW134886   1.307   1.647   8.138  0.3912  3.4542  1.0811
 7750SOL    HW234887   1.324   1.543   8.234  3.0706  1.2672 -1.2630
 7751SOL     OW34888   0.142   3.072   3.838  0.7734 -0.4748  0.3447
 7751SOL    HW134889   0.180   3.008   3.777 -2.5382 -0.5028 -1.6891
 7751SOL    HW234890   0.191   3.077   3.920 -0.8374  0.9762  1.1940
 7752SOL     OW34891   2.523   0.663  13.064 -0.2985 -0.1605 -0.1155
 7752SOL    HW134892   2.506   0.590  13.004 -0.3571  0.1343 -0.4594
 7752SOL    HW234893   2.444   0.711  13.041  0.5160  0.5956 -1.3594
 7753SOL     OW34894   1.316   1.597   8.757  0.1052 -0.1317  0.4100
 7753SOL    HW134895   1.273   1.675   8.792 -0.9712 -0.6530  0.2314
 7753SOL    HW234896   1.355   1.556   8.835  0.1717  1.1563  1.0552
 7754SOL     OW34897   1.965   0.545   1.071 -0.1729  0.4239  0.1783
 7754SOL    HW134898   1.979   0.468   1.016  0.1430  0.4218  0.2576
 7754SOL    HW234899   1.875   0.569   1.052 -0.3136 -0.3213 -0.1012
 7755SOL     OW34900   1.079   1.278  14.651 -0.4422  0.1563  0.3716
 7755SOL    HW134901   1.042   1.364  14.631 -1.0956  0.2711  2.1075
 7755SOL    HW234902   1.133   1.252  14.576 -2.2151  3.3017 -1.9780
 7756SOL     OW34903   3.777   4.181   2.229 -0.5013 -0.0615 -0.2216
 7756SOL    HW134904   3.752   4.119   2.297 -2.7171 -0.2404 -1.2015
 7756SOL    HW234905   3.804   4.261   2.274 -0.6729 -1.1582  1.8189
 7757SOL     OW34906   3.670   0.747   4.240  0.4443  0.0866  0.3306
 7757SOL    HW134907   3.658   0.657   4.269 -1.2802  0.3101  0.3130
 7757SOL    HW234908   3.735   0.734   4.171 -2.0929 -0.2537 -1.9738
 7758SOL     OW34909   3.624   4.664   3.186  0.3913  0.1126 -0.0568
 7758SOL    HW134910   3.625   4.669   3.090  1.6374 -1.3545 -0.1340
 7758SOL    HW234911   3.532   4.642   3.201 -0.4824  2.5450 -1.9654
 7759SOL     OW34912   2.989   3.184   7.753  0.5530  0.0947  0.0067
 7759SOL    HW134913   3.005   3.214   7.842 -4.1943  0.7191  0.6555
 7759SOL    HW234914   2.985   3.267   7.704  0.2935 -0.3910 -0.7951
 7760SOL     OW34915   3.998   1.012   3.840 -0.0574  0.0104  0.1899
 7760SOL    HW134916   4.073   1.070   3.825  0.1947 -0.3824 -0.0690
 7760SOL    HW234917   4.004   0.955   3.763  0.4637  0.3203 -0.0001
 7761SOL     OW34918   0.311   1.657   3.309  0.0347  0.5963 -0.0363
 7761SOL    HW134919   0.252   1.616   3.245 -0.4556  1.1308  0.0798
 7761SOL    HW234920   0.312   1.744   3.270 -1.3182 -0.4647 -2.4695
 7762SOL     OW34921   0.974   0.988  12.602  0.3187 -0.2920 -0.2480
 7762SOL    HW134922   0.892   1.037  12.610  1.2433  1.4311 -1.2163
 7762SOL    HW234923   0.962   0.911  12.656 -3.9217  0.6749  0.2404
 7763SOL     OW34924   2.860   3.993  11.146 -0.5115  0.1893  0.4661
 7763SOL    HW134925   2.940   3.965  11.189 -1.4500  0.3732  2.3372
 7763SOL    HW234926   2.818   4.051  11.209  1.1310  2.2699 -0.3911
 7764SOL     OW34927   4.099   0.549   5.380 -0.2428 -0.5140  0.3923
 7764SOL    HW134928   4.041   0.620   5.352  0.4248  1.1877  3.2798
 7764SOL    HW234929   4.158   0.594   5.440 -1.3743  1.2512  0.2003
 7765SOL     OW34930   3.459   4.684   1.562  0.0642 -0.1756  0.4174
 7765SOL    HW134931   3.490   4.694   1.472 -0.1418 -0.8552  0.2718
 7765SOL    HW234932   3.479   4.594   1.585 -0.1016 -0.2206  0.3899
 7766SOL     OW34933   3.949   2.891   6.081 -0.6749  0.2674 -0.1671
 7766SOL    HW134934   3.989   2.859   6.162 -1.2126 -0.5669 -0.2334
 7766SOL    HW234935   3.903   2.966   6.119 -0.5765 -0.2791  1.0257
 7767SOL     OW34936   4.077   4.422   7.799 -0.2502  0.7402 -0.5353
 7767SOL    HW134937   4.041   4.505   7.767  0.1287  0.6686 -1.1549
 7767SOL    HW234938   4.112   4.441   7.886 -1.3123  2.0425 -0.3910
 7768SOL     OW34939   2.927   4.605   3.997  0.2650  0.2345  0.1066
 7768SOL    HW134940   3.015   4.602   4.034  0.0373 -0.3748  0.6040
 7768SOL    HW234941   2.950   4.659   3.921  2.9207 -1.5108 -0.3397
 7769SOL     OW34942   2.883   4.343  12.115  0.5122  0.1524  0.1030
 7769SOL    HW134943   2.867   4.320  12.023 -1.3201 -0.9339  0.6979
 7769SOL    HW234944   2.975   4.371  12.122  0.0214  1.8068 -0.0293
 7770SOL     OW34945   2.381   2.769  16.642 -0.0286  0.1148 -0.1732
 7770SOL    HW134946   2.384   2.809  16.728  0.7751  0.9318 -0.5730
 7770SOL    HW234947   2.324   2.829  16.594 -1.8095  1.4533  3.6322
 7771SOL     OW34948   1.430   4.485  15.356 -0.3360 -0.4371  0.5524
 7771SOL    HW134949   1.456   4.431  15.282  1.4808  1.1260  0.0410
 7771SOL    HW234950   1.431   4.572  15.315  2.1500  0.0751  1.7626
 7772SOL     OW34951   2.597   3.835   6.755 -0.2177  0.1542 -0.4262
 7772SOL    HW134952   2.653   3.824   6.832  0.3232 -0.1425 -0.8585
 7772SOL    HW234953   2.633   3.920   6.730  0.9196 -0.1638  0.1287
 7773SOL     OW34954   0.702   0.119   7.444  0.3600  0.4182 -0.3054
 7773SOL    HW134955   0.699   0.026   7.469  1.9455 -0.2792 -2.7967
 7773SOL    HW234956   0.715   0.109   7.350 -1.8828  0.8199 -0.6652
 7774SOL     OW34957   0.101   2.860   3.261  0.2775 -0.0114 -0.1233
 7774SOL    HW134958   0.098   2.860   3.165  0.5969 -1.4585 -0.1296
 7774SOL    HW234959   0.044   2.935   3.277  1.8707  0.9585  1.0426
 7775SOL     OW34960   2.314   0.924  16.859  0.1580  0.3627 -0.1965
 7775SOL    HW134961   2.333   0.983  16.785 -0.0180  0.6530 -0.0108
 7775SOL    HW234962   2.397   0.940  16.905 -0.0619  1.6125 -0.2208
 7776SOL     OW34963   1.341   3.323  11.997 -0.3569  0.2557 -0.2053
 7776SOL    HW134964   1.343   3.405  12.047 -1.3375 -0.1020  0.4053
 7776SOL    HW234965   1.429   3.327  11.959 -1.6745  0.6650 -3.2456
 7777SOL     OW34966   4.197   4.010   7.156 -0.1877 -0.0453 -0.2128
 7777SOL    HW134967   4.151   4.027   7.073  0.8779 -0.4418 -0.8945
 7777SOL    HW234968   4.209   3.915   7.156  1.1415  0.1224 -0.4090
 7778SOL     OW34969   0.364   2.915   8.002 -0.0241 -0.6047  0.7075
 7778SOL    HW134970   0.334   2.871   8.082 -1.4810 -0.5260  0.2095
 7778SOL    HW234971   0.331   2.858   7.932  2.2306  1.0973 -1.7192
 7779SOL     OW34972   1.015   2.610   3.488  0.0643  0.5745 -0.0966
 7779SOL    HW134973   1.017   2.528   3.538 -1.0202  1.2933  1.1152
 7779SOL    HW234974   0.935   2.588   3.441 -0.2557  2.3235 -0.3655
 7780SOL     OW34975   4.597   3.701  11.543 -0.0586  0.2293  0.1462
 7780SOL    HW134976   4.583   3.607  11.550 -1.5653  0.4217 -0.1549
 7780SOL    HW234977   4.599   3.727  11.635  1.6044  4.6690 -1.1164
 7781SOL     OW34978   4.456   0.059   4.791 -0.7083  0.3429  0.0746
 7781SOL    HW134979   4.423   0.033   4.878 -0.5199 -0.9018 -0.2287
 7781SOL    HW234980   4.411   0.142   4.778  1.2653  1.4827  0.5501
 7782SOL     OW34981   1.296   3.670   3.903 -0.7131 -0.2101 -0.3159
 7782SOL    HW134982   1.368   3.703   3.850 -0.0723  1.6181  1.6957
 7782SOL    HW234983   1.241   3.748   3.897  0.9621  0.9991  0.0165
 7783SOL     OW34984   4.410   3.998   6.583 -0.6671  0.3301  0.1910
 7783SOL    HW134985   4.451   4.071   6.630  0.8749  0.6347 -1.6505
 7783SOL    HW234986   4.390   4.039   6.499 -2.1505 -2.4054 -0.7887
 7784SOL     OW34987   1.693   4.076   1.248 -0.1538 -0.1134  0.2394
 7784SOL    HW134988   1.785   4.079   1.225 -0.9279 -1.3977 -3.0315
 7784SOL    HW234989   1.696   4.162   1.291 -1.5484  0.4993 -0.8608
 7785SOL     OW34990   1.960   1.236   9.553 -0.2140  0.2060  0.2733
 7785SOL    HW134991   1.905   1.303   9.513 -0.6988  0.5507  1.5157
 7785SOL    HW234992   1.888   1.192   9.598  0.4847 -0.6975  0.5364
 7786SOL     OW34993   4.349   0.813   5.183  0.0580 -0.6419  0.7515
 7786SOL    HW134994   4.364   0.898   5.224 -0.5607 -1.1158  1.9885
 7786SOL    HW234995   4.440   0.786   5.176  0.5363  1.2641 -0.1724
 7787SOL     OW34996   0.711   4.464   4.582 -0.7412 -0.0836 -0.0089
 7787SOL    HW134997   0.671   4.461   4.669  0.2638 -0.8563  0.4274
 7787SOL    HW234998   0.747   4.378   4.562  0.7087  1.0298 -2.0819
 7788SOL     OW34999   2.506   3.654   5.519  0.0935  0.3311  0.2686
 7788SOL    HW135000   2.446   3.623   5.587 -4.0598  4.3953 -1.5357
 7788SOL    HW235001   2.558   3.574   5.506 -0.8567  0.3462 -3.8447
 7789SOL     OW35002   0.955   3.066   1.285 -0.2580 -0.3797 -0.4085
 7789SOL    HW135003   0.974   2.986   1.333 -0.6166 -0.5487 -0.5534
 7789SOL    HW235004   0.948   3.134   1.352 -1.5726 -0.9411  0.0303
 7790SOL     OW35005   4.625   1.182   6.627  0.4893  0.6669  0.0881
 7790SOL    HW135006   4.549   1.182   6.568 -0.2095 -1.8394  1.0001
 7790SOL    HW235007   4.680   1.237   6.571  2.5682 -0.0227  1.4767
 7791SOL     OW35008   3.531   3.099  14.031  0.4074  0.2170 -0.1173
 7791SOL    HW135009   3.449   3.134  13.997 -0.6061 -1.3450  0.7133
 7791SOL    HW235010   3.504   3.033  14.095 -1.6504  0.3071 -0.9117
 7792SOL     OW35011   1.352   3.297   6.431 -0.6152 -0.0180 -0.1367
 7792SOL    HW135012   1.408   3.234   6.387 -0.4530  1.0769 -1.4809
 7792SOL    HW235013   1.344   3.265   6.521  0.4078  0.5686  0.1586
 7793SOL     OW35014   3.012   1.136  12.545  0.0879 -0.1580  0.1424
 7793SOL    HW135015   2.978   1.205  12.603 -0.4759 -0.6403  0.3838
 7793SOL    HW235016   3.088   1.094  12.586 -1.0710 -0.6187  1.8376
 7794SOL     OW35017   4.320   0.504   1.067  0.1918  0.5924 -0.2850
 7794SOL    HW135018   4.391   0.534   1.010  0.0395 -1.0643 -1.3489
 7794SOL    HW235019   4.347   0.546   1.149 -0.9636 -0.6266  0.7320
 7795SOL     OW35020   3.104   4.125   8.630 -0.1097  0.2963 -0.2398
 7795SOL    HW135021   3.198   4.134   8.617  0.1614  0.3066  1.7027
 7795SOL    HW235022   3.088   4.055   8.567 -3.1995 -0.8962  1.8717
 7796SOL     OW35023   1.833   2.223   6.202 -0.8596  0.1286  0.2472
 7796SOL    HW135024   1.765   2.198   6.266 -0.5101  0.2625  0.6736
 7796SOL    HW235025   1.827   2.146   6.146  0.2108  0.0746  0.2044
 7797SOL     OW35026   1.265   4.658   2.554  0.3848 -0.4261  0.0445
 7797SOL    HW135027   1.251   0.002   2.505  1.0953 -0.8633 -0.8991
 7797SOL    HW235028   1.343   4.640   2.501 -1.1156 -4.3274 -0.8583
 7798SOL     OW35029   2.162   0.633   2.091  0.2502 -0.8262  0.0603
 7798SOL    HW135030   2.107   0.680   2.154  0.8113 -2.1826  1.5512
 7798SOL    HW235031   2.143   0.686   2.013 -1.0709  0.5103  1.2772
 7799SOL     OW35032   2.344   3.676   2.685 -0.1350 -0.1440 -0.3695
 7799SOL    HW135033   2.317   3.607   2.624 -3.2561 -0.6832  1.5685
 7799SOL    HW235034   2.308   3.637   2.765  1.3722 -1.7012 -0.4583
 7800SOL     OW35035   0.094   1.513   4.469 -0.4151  0.6043  0.9829
 7800SOL    HW135036   0.056   1.586   4.517  0.0519  1.3430  0.2417
 7800SOL    HW235037   0.058   1.435   4.511  0.4632 -1.1537 -1.5038
 7801SOL     OW35038   1.693   1.576   2.456  0.0981  0.5997  0.3870
 7801SOL    HW135039   1.703   1.503   2.517 -1.4795 -1.5532 -1.9179
 7801SOL    HW235040   1.704   1.654   2.511 -1.0665 -0.1435  1.6665
 7802SOL     OW35041   2.556   2.034   4.437 -0.1555  0.0573 -0.2689
 7802SOL    HW135042   2.525   2.049   4.348 -0.5155 -1.5081 -0.3988
 7802SOL    HW235043   2.476   2.033   4.490 -0.8454  1.1893 -1.2794
 7803SOL     OW35044   0.782   2.723   2.833  0.2043 -0.5071 -0.7018
 7803SOL    HW135045   0.747   2.812   2.822  1.6091  0.0674 -0.5139
 7803SOL    HW235046   0.750   2.670   2.760  0.6946  0.2755 -1.4855
 7804SOL     OW35047   3.849   0.420   4.336  0.6115 -0.2638  0.4981
 7804SOL    HW135048   3.897   0.391   4.259  1.4213  2.0730  0.1286
 7804SOL    HW235049   3.914   0.394   4.402  1.2189 -1.1633 -0.4488
 7805SOL     OW35050   4.208   2.183   3.713  1.1779  0.4250 -0.7909
 7805SOL    HW135051   4.202   2.095   3.678  1.5632  0.2605 -0.4532
 7805SOL    HW235052   4.245   2.169   3.800  0.3593 -0.5615 -0.6038
 7806SOL     OW35053   1.825   0.542   4.400 -0.3862  0.7623  0.0566
 7806SOL    HW135054   1.877   0.503   4.330 -2.2087 -1.6695  0.0855
 7806SOL    HW235055   1.755   0.480   4.417  1.3107 -0.6049  2.0234
 7807SOL     OW35056   3.259   1.496  12.946  0.6278 -0.1400  0.1718
 7807SOL    HW135057   3.197   1.425  12.932  0.0096  0.2893  0.7699
 7807SOL    HW235058   3.283   1.519  12.856 -1.4023  1.3388 -0.0030
 7808SOL     OW35059   0.285   3.266   2.103  0.1088  0.0949  0.1430
 7808SOL    HW135060   0.278   3.174   2.130  1.1842 -0.5670 -1.8243
 7808SOL    HW235061   0.210   3.272   2.043  1.3079 -2.5172 -1.6211
 7809SOL     OW35062   2.181   0.156   3.198 -0.1160 -0.5771 -0.0579
 7809SOL    HW135063   2.167   0.075   3.246  0.4398 -1.6449 -1.7229
 7809SOL    HW235064   2.272   0.135   3.177 -0.0314 -0.9309  0.6878
 7810SOL     OW35065   2.619   1.024   8.037 -0.4327  0.6384  0.5824
 7810SOL    HW135066   2.650   1.113   8.018 -3.1951  1.0556 -1.9122
 7810SOL    HW235067   2.584   1.038   8.125  0.8260 -0.9176  1.3280
 7811SOL     OW35068   1.408   0.070   8.652 -0.0011  0.0893 -0.1494
 7811SOL    HW135069   1.418   0.081   8.747  0.3295  0.1744 -0.1934
 7811SOL    HW235070   1.409   4.712   8.650 -0.7792  0.0322  2.3519
 7812SOL     OW35071   2.694   3.990  14.878 -0.8626 -0.4147 -0.1409
 7812SOL    HW135072   2.665   3.918  14.935  1.9870 -0.0081  1.8247
 7812SOL    HW235073   2.774   4.020  14.922  0.6380 -0.3017 -2.9815
 7813SOL     OW35074   1.462   3.830   2.650 -0.0088 -0.1106  0.4959
 7813SOL    HW135075   1.495   3.765   2.713 -2.4932 -0.0694  1.8429
 7813SOL    HW235076   1.537   3.835   2.591  0.7290 -2.5720  1.2055
 7814SOL     OW35077   3.248   1.215   5.003  0.3099  0.1846 -0.6356
 7814SOL    HW135078   3.195   1.218   4.923 -0.8489 -0.4687  0.1078
 7814SOL    HW235079   3.292   1.133   4.983  0.0215 -0.1702  0.1772
 7815SOL     OW35080   2.562   3.463   4.414 -0.6207 -0.1747 -0.6425
 7815SOL    HW135081   2.551   3.553   4.446 -1.3097 -0.5007  0.0252
 7815SOL    HW235082   2.541   3.480   4.322 -1.8642  0.6810 -0.2024
 7816SOL     OW35083   0.213   0.856   3.001  0.1548  0.0590  0.0509
 7816SOL    HW135084   0.150   0.927   3.013 -0.7960 -1.0806  1.7832
 7816SOL    HW235085   0.292   0.900   3.033 -1.7719  3.7934 -0.2377
 7817SOL     OW35086   4.719   0.697   1.207 -0.0874  0.1580 -0.1609
 7817SOL    HW135087   0.047   0.638   1.169 -1.9082 -1.5904 -0.5624
 7817SOL    HW235088   4.694   0.751   1.132  1.4071  1.8885  0.5696
 7818SOL     OW35089   3.820   0.871   7.539  0.4327 -0.6113 -0.6055
 7818SOL    HW135090   3.864   0.955   7.551 -0.6128 -0.4878  2.3670
 7818SOL    HW235091   3.802   0.839   7.627 -2.0316 -2.2659 -1.7004
 7819SOL     OW35092   3.003   2.908   8.263 -0.0934  0.2838  0.1458
 7819SOL    HW135093   3.069   2.925   8.331  0.8209 -0.6243 -0.5175
 7819SOL    HW235094   2.924   2.898   8.316 -0.0350  0.0917  0.1957
 7820SOL     OW35095   3.508   1.309   6.099  0.0233  0.4424  0.6869
 7820SOL    HW135096   3.497   1.327   6.006  0.4290 -1.7183  0.2324
 7820SOL    HW235097   3.488   1.216   6.095  3.5430 -0.1126 -3.1611
 7821SOL     OW35098   2.855   4.382   6.127 -0.2818  0.5045  0.4602
 7821SOL    HW135099   2.856   4.352   6.036  0.5143  0.1176  0.5984
 7821SOL    HW235100   2.910   4.460   6.124 -0.2709  0.3304 -3.3227
 7822SOL     OW35101   2.549   1.082   3.748  0.1408 -0.7826 -0.2538
 7822SOL    HW135102   2.464   1.059   3.710 -0.2907  2.6857 -1.3429
 7822SOL    HW235103   2.556   1.171   3.715  1.3331 -0.5055  0.7669
 7823SOL     OW35104   1.650   3.823   5.240 -0.1427 -0.2717  0.1578
 7823SOL    HW135105   1.590   3.874   5.186  0.0331  0.7651  0.9428
 7823SOL    HW235106   1.679   3.749   5.187  0.2634  0.6252 -0.8958
 7824SOL     OW35107   2.114   1.846   7.525 -0.0786  0.1229 -0.9008
 7824SOL    HW135108   2.049   1.882   7.586  0.5309  0.6862 -0.5803
 7824SOL    HW235109   2.181   1.913   7.540 -0.9320  0.5810  0.9469
 7825SOL     OW35110   1.180   2.068   6.854 -0.0763 -0.4302  0.0656
 7825SOL    HW135111   1.235   2.034   6.783 -1.6733  1.4471 -2.0471
 7825SOL    HW235112   1.115   2.108   6.798  0.0444  1.1386  1.0640
 7826SOL     OW35113   1.762   2.109   5.213 -0.4334 -0.3767 -0.1565
 7826SOL    HW135114   1.688   2.166   5.193  0.3074 -0.1544 -2.2558
 7826SOL    HW235115   1.833   2.172   5.197  0.2458 -0.7916  1.2199
 7827SOL     OW35116   0.723   0.621   3.360  0.0570 -0.2696 -0.6457
 7827SOL    HW135117   0.722   0.592   3.269  0.3046 -0.2206 -0.6627
 7827SOL    HW235118   0.787   0.691   3.366  1.9630 -2.0007 -0.7340
 7828SOL     OW35119   3.451   1.589   4.732  0.3177 -0.5199  0.0251
 7828SOL    HW135120   3.538   1.551   4.718  1.1443  1.5624 -0.6132
 7828SOL    HW235121   3.410   1.569   4.648 -2.4351  0.2400  1.1805
 7829SOL     OW35122   1.479   2.888   8.837 -0.4698 -0.7901 -0.3453
 7829SOL    HW135123   1.416   2.951   8.801 -0.6827 -1.1766 -0.6466
 7829SOL    HW235124   1.431   2.859   8.915 -1.4228  1.8241  0.0529
 7830SOL     OW35125   2.757   1.913   9.287 -0.3513 -0.3323  0.6707
 7830SOL    HW135126   2.818   1.840   9.294 -1.4541 -1.4371 -1.3288
 7830SOL    HW235127   2.677   1.862   9.304 -0.8621 -0.7642 -3.1512
 7831SOL     OW35128   1.994   0.304  15.603  0.0654  0.0299  0.2008
 7831SOL    HW135129   2.064   0.239  15.608  0.7757  0.8615  0.8680
 7831SOL    HW235130   1.960   0.299  15.514  1.0236 -0.2793 -0.1446
 7832SOL     OW35131   4.031   3.177   3.660 -0.3628  0.1369 -0.1105
 7832SOL    HW135132   3.960   3.235   3.631  0.0510 -0.2626 -1.9014
 7832SOL    HW235133   3.978   3.099   3.676 -2.2917  1.2281 -1.1182
 7833SOL     OW35134   3.908   3.733   5.566  0.3251 -0.2342 -0.2568
 7833SOL    HW135135   3.824   3.698   5.596  0.0229 -0.0286 -0.8663
 7833SOL    HW235136   3.956   3.661   5.525  3.1788  1.3446  0.3038
 7834SOL     OW35137   2.873   3.411   6.073  0.5080 -0.5557  0.9014
 7834SOL    HW135138   2.835   3.329   6.041 -0.4809 -0.0026  0.6386
 7834SOL    HW235139   2.839   3.471   6.006  1.3083 -0.2542  0.7606
 7835SOL     OW35140   1.123   0.342   5.581 -0.2670 -0.1060  0.1017
 7835SOL    HW135141   1.092   0.389   5.658  1.8953  0.7441  0.4308
 7835SOL    HW235142   1.188   0.294   5.631 -1.2420 -0.3626  1.1313
 7836SOL     OW35143   2.557   1.238   6.284  0.1546 -0.4515  0.4465
 7836SOL    HW135144   2.541   1.144   6.292 -1.0400 -0.1273  1.8521
 7836SOL    HW235145   2.620   1.234   6.211 -0.1606 -0.1914  0.1613
 7837SOL     OW35146   2.033   3.277  10.632  0.5313 -0.3195  0.5496
 7837SOL    HW135147   1.971   3.300  10.701  1.7669  0.0646  1.5177
 7837SOL    HW235148   2.019   3.344  10.565  0.8196 -1.8883 -1.0824
 7838SOL     OW35149   2.211   2.131   7.213  0.2487  0.0084 -0.0864
 7838SOL    HW135150   2.245   2.220   7.228 -2.7829  0.8811  1.4902
 7838SOL    HW235151   2.283   2.095   7.160 -0.2204  1.8764 -2.0241
 7839SOL     OW35152   0.613   1.970  12.725 -0.1464 -0.2366  0.0008
 7839SOL    HW135153   0.548   1.939  12.788  0.3781  0.5834  0.9521
 7839SOL    HW235154   0.566   2.041  12.683  0.0202  0.5604  1.1544
 7840SOL     OW35155   2.082   3.664   9.774 -0.3165 -0.7443 -0.1404
 7840SOL    HW135156   2.106   3.757   9.781  1.9057 -1.2653 -0.7946
 7840SOL    HW235157   1.991   3.662   9.743 -0.8185 -1.5969  1.4176
 7841SOL     OW35158   0.727   4.498   1.607  0.0121  0.4408 -0.5734
 7841SOL    HW135159   0.802   4.449   1.643 -2.1399 -1.2178  1.6382
 7841SOL    HW235160   0.693   4.431   1.548  0.6081 -2.0188  1.8566
 7842SOL     OW35161   2.629   4.531   7.784  0.3112  0.4449 -0.4795
 7842SOL    HW135162   2.682   4.587   7.727  0.8170 -0.1378 -0.5866
 7842SOL    HW235163   2.581   4.478   7.722 -0.8582  1.3722 -0.3616
 7843SOL     OW35164   2.737   3.101   6.060  0.1447 -0.1108 -0.2746
 7843SOL    HW135165   2.647   3.092   6.091  0.8502  1.0187  2.0989
 7843SOL    HW235166   2.739   3.015   6.017 -1.2894 -1.5983  2.6878
 7844SOL     OW35167   3.479   2.502   6.633 -0.3882  0.1362 -0.0833
 7844SOL    HW135168   3.407   2.450   6.597  0.0535 -0.6167  0.1161
 7844SOL    HW235169   3.448   2.592   6.619 -2.0357 -0.1859  1.5630
 7845SOL     OW35170   0.415   1.344   1.633 -0.5051 -0.3608  0.0408
 7845SOL    HW135171   0.441   1.289   1.559 -2.2648 -0.7239 -0.3070
 7845SOL    HW235172   0.322   1.357   1.615 -0.4032 -1.6540 -1.3867
 7846SOL     OW35173   1.474   0.419   9.617  0.6321 -0.1590  0.0363
 7846SOL    HW135174   1.559   0.390   9.585  0.8390  2.5316 -1.8245
 7846SOL    HW235175   1.430   0.442   9.536  2.9651  1.6285 -0.7257
 7847SOL     OW35176   2.695   3.882   4.573 -0.9665  0.1990  0.5008
 7847SOL    HW135177   2.672   3.970   4.605  0.8695  0.3285  1.4498
 7847SOL    HW235178   2.788   3.901   4.559 -1.6539  1.5640 -2.1388
 7848SOL     OW35179   4.675   4.151   7.370  0.1087  0.4163 -1.0382
 7848SOL    HW135180   4.704   4.182   7.285  1.5949  0.5168 -0.4895
 7848SOL    HW235181   4.641   4.065   7.344 -0.3119  0.0633  0.6709
 7849SOL     OW35182   2.451   3.349   2.623 -0.3563  0.3694 -0.6335
 7849SOL    HW135183   2.485   3.358   2.712 -0.4086  0.4703 -0.6238
 7849SOL    HW235184   2.497   3.270   2.595  1.2011  0.9727  0.2181
 7850SOL     OW35185   0.904   3.491   5.719 -0.4207  0.2251  0.0406
 7850SOL    HW135186   0.964   3.479   5.645 -0.2222 -2.2188  0.6328
 7850SOL    HW235187   0.887   3.586   5.713 -1.8907 -0.0812 -0.6908
 7851SOL     OW35188   0.255   3.147   0.839  0.0486  0.5257  0.2939
 7851SOL    HW135189   0.330   3.177   0.890  1.9875 -0.9024 -1.7458
 7851SOL    HW235190   0.251   3.223   0.781 -2.1453  1.0031  1.0736
 7852SOL     OW35191   3.579   3.944   7.206  0.1737 -0.1728  0.0731
 7852SOL    HW135192   3.590   3.945   7.301  0.2069 -2.5439  0.1001
 7852SOL    HW235193   3.551   4.033   7.189 -0.0981 -0.5778 -1.5595
 7853SOL     OW35194   1.146   3.337   7.635  0.2467  0.7218  0.2914
 7853SOL    HW135195   1.105   3.355   7.550 -2.6599  0.4917  1.6513
 7853SOL    HW235196   1.206   3.411   7.632  0.8760  0.2062  0.2778
 7854SOL     OW35197   4.284   2.454   3.301  0.0155  0.6984  0.3412
 7854SOL    HW135198   4.202   2.438   3.255 -0.2500  0.4565  0.9035
 7854SOL    HW235199   4.255   2.447   3.392  1.2499 -0.1061  0.6761
 7855SOL     OW35200   1.447   4.583   2.380 -0.0611  0.1385 -0.6563
 7855SOL    HW135201   1.528   4.602   2.333 -0.1923  0.7478 -0.6327
 7855SOL    HW235202   1.401   4.536   2.310 -2.9909  0.1581  1.2681
 7856SOL     OW35203   3.293   0.722   6.546 -0.2227 -0.6936 -0.2380
 7856SOL    HW135204   3.358   0.652   6.557 -0.6572 -1.2059 -0.9190
 7856SOL    HW235205   3.260   0.742   6.634 -0.6379 -0.3810 -0.4682
 7857SOL     OW35206   2.246   1.180   2.805  0.2578 -0.5590 -0.1388
 7857SOL    HW135207   2.339   1.204   2.798  0.0747 -0.0264 -0.8101
 7857SOL    HW235208   2.241   1.164   2.899  0.6672 -3.0138 -0.5356
 7858SOL     OW35209   4.042   1.300   4.810  0.4587  0.0065 -0.6005
 7858SOL    HW135210   3.997   1.358   4.749  0.8196  1.4090  0.4552
 7858SOL    HW235211   4.103   1.268   4.744  0.5684 -0.3286 -0.3382
 7859SOL     OW35212   1.434   3.182   1.652  0.5340 -0.0957  0.3628
 7859SOL    HW135213   1.516   3.138   1.675 -0.2732 -0.9496  1.6224
 7859SOL    HW235214   1.395   3.184   1.739  0.2845 -0.6759  0.2646
 7860SOL     OW35215   0.487   3.855   9.637 -0.0686 -0.5057  0.1744
 7860SOL    HW135216   0.561   3.869   9.578  0.1123 -0.4574  0.4125
 7860SOL    HW235217   0.520   3.897   9.717  0.8606  0.8239 -0.8902
 7861SOL     OW35218   3.532   4.053   3.066 -0.4123  0.0510 -0.2927
 7861SOL    HW135219   3.601   4.019   3.009  0.1482 -2.3675  1.8658
 7861SOL    HW235220   3.462   3.992   3.044  0.3938 -0.3270 -1.7707
 7862SOL     OW35221   2.534   0.373   4.337 -0.2001 -0.2308  0.0661
 7862SOL    HW135222   2.503   0.298   4.388  3.2889  0.0337  2.5158
 7862SOL    HW235223   2.616   0.336   4.305 -2.0234 -1.3296 -3.4228
 7863SOL     OW35224   2.243   0.478   4.335  0.5052 -0.7280  0.0611
 7863SOL    HW135225   2.269   0.566   4.308  0.4476 -1.0038 -0.8737
 7863SOL    HW235226   2.330   0.445   4.357  0.3997 -1.8310 -1.1637
 7864SOL     OW35227   4.238   4.572   2.048  0.5119  0.0547 -0.1837
 7864SOL    HW135228   4.247   4.653   2.098 -2.0482  0.8474 -1.0022
 7864SOL    HW235229   4.229   4.603   1.959  0.3578 -0.1703 -0.2474
 7865SOL     OW35230   0.385   1.872   7.404 -0.4239  0.2792  0.2785
 7865SOL    HW135231   0.385   1.963   7.374 -2.1129 -0.0593 -0.7470
 7865SOL    HW235232   0.404   1.876   7.497  0.2940  0.2932  0.1371
 7866SOL     OW35233   3.897   2.378   8.786  0.1127 -0.0255 -1.0135
 7866SOL    HW135234   3.818   2.328   8.807  0.5259 -0.2546 -0.0142
 7866SOL    HW235235   3.903   2.425   8.869 -1.5852 -1.5090 -0.0368
 7867SOL     OW35236   2.122   1.343   5.390 -0.2833 -0.2337  0.2842
 7867SOL    HW135237   2.112   1.281   5.462 -1.4930  1.9333  1.9663
 7867SOL    HW235238   2.193   1.394   5.428 -1.1595  0.2851  1.2161
 7868SOL     OW35239   1.137   2.597   5.936  0.0813  0.6019  0.0492
 7868SOL    HW135240   1.174   2.684   5.954  1.5883  0.2305 -1.2066
 7868SOL    HW235241   1.190   2.574   5.860  1.2041 -0.5854  1.1745
 7869SOL     OW35242   1.176   4.061   1.609 -0.4362 -0.3472 -0.1617
 7869SOL    HW135243   1.263   4.037   1.579 -0.0144  2.6905 -1.3638
 7869SOL    HW235244   1.170   4.000   1.683  1.0219 -0.5339 -0.1905
 7870SOL     OW35245   2.913   1.281   8.777 -0.6259  0.0302  0.0677
 7870SOL    HW135246   2.947   1.352   8.723 -0.5279  1.1033  1.5239
 7870SOL    HW235247   2.939   1.200   8.735  0.9347  0.4772  0.1451
 7871SOL     OW35248   3.469   0.118   5.531  0.0802 -0.0708  0.2097
 7871SOL    HW135249   3.455   0.119   5.436 -1.0609 -0.9438  0.3650
 7871SOL    HW235250   3.469   0.211   5.554 -1.0557 -0.5968  2.3115
 7872SOL     OW35251   2.105   3.706   3.805 -0.2042 -0.7306  0.1041
 7872SOL    HW135252   2.063   3.630   3.765 -1.2441  0.0640 -0.3287
 7872SOL    HW235253   2.089   3.673   3.894 -0.0372 -0.6054  0.1805
 7873SOL     OW35254   4.161   3.991  12.558  0.5127 -0.6494 -0.4856
 7873SOL    HW135255   4.241   4.039  12.542 -0.7638  1.9664  1.0329
 7873SOL    HW235256   4.130   4.043  12.632  0.7354 -2.0952  0.6403
 7874SOL     OW35257   0.975   3.942  16.922  0.7503  0.1689 -0.9440
 7874SOL    HW135258   0.911   3.911  16.858 -1.1157  1.1731  0.4391
 7874SOL    HW235259   0.986   3.862  16.973 -1.4759  1.4226  1.4706
 7875SOL     OW35260   1.279   1.412   5.625 -0.0446  0.5020 -0.1127
 7875SOL    HW135261   1.349   1.347   5.637  0.0011  0.7232  0.7780
 7875SOL    HW235262   1.304   1.449   5.540 -0.9058 -0.4808 -0.7988
 7876SOL     OW35263   3.367   3.147   7.917 -0.4338  0.8169 -0.0470
 7876SOL    HW135264   3.445   3.158   7.863  0.3283  0.9627  1.0909
 7876SOL    HW235265   3.370   3.051   7.921  0.1368  0.7715 -1.4856
 7877SOL     OW35266   0.170   2.359   9.637 -0.1207  0.6276 -0.6846
 7877SOL    HW135267   0.155   2.265   9.629  3.8658 -0.1975  1.6180
 7877SOL    HW235268   0.196   2.367   9.729  0.6234 -2.7050 -0.5915
 7878SOL     OW35269   2.891   2.060   7.281 -0.8277 -0.3210  0.3728
 7878SOL    HW135270   2.916   2.098   7.365 -0.1811  2.0827 -0.8990
 7878SOL    HW235271   2.804   2.026   7.303 -0.0227 -2.5340  0.0870
 7879SOL     OW35272   0.677   4.362   0.604 -0.1469 -0.2464  1.0944
 7879SOL    HW135273   0.748   4.420   0.576 -0.8372 -0.4360 -1.0466
 7879SOL    HW235274   0.717   4.306   0.670  1.5987 -0.6437 -0.3030
 7880SOL     OW35275   2.796   1.166   1.974 -0.9232  0.7014 -0.3130
 7880SOL    HW135276   2.796   1.105   2.048 -0.4675  0.9795 -0.0775
 7880SOL    HW235277   2.790   1.250   2.020 -0.5796  0.0151  1.0072
 7881SOL     OW35278   0.761   0.317  16.249 -0.0890 -0.2666  0.6833
 7881SOL    HW135279   0.678   0.282  16.218  0.1638  0.5070 -0.8381
 7881SOL    HW235280   0.823   0.258  16.207 -1.7461 -1.2652 -0.3296
 7882SOL     OW35281   2.731   3.180   5.620 -0.0899  0.0398  0.6727
 7882SOL    HW135282   2.812   3.176   5.571 -0.5680  1.8021 -0.2612
 7882SOL    HW235283   2.690   3.094   5.610  2.7934 -1.1400 -0.9546
 7883SOL     OW35284   4.524   4.228   8.023 -0.2034  0.3332  0.2653
 7883SOL    HW135285   4.482   4.294   8.077 -0.4991  1.2150 -1.0413
 7883SOL    HW235286   4.458   4.161   8.005 -1.9328  0.9508  4.3698
 7884SOL     OW35287   1.505   4.456   8.269  0.0776  0.2370 -0.3500
 7884SOL    HW135288   1.540   4.384   8.321 -2.0996 -1.8642 -1.7800
 7884SOL    HW235289   1.517   4.530   8.329 -5.1210 -0.2910  1.3721
 7885SOL     OW35290   2.431   4.629   4.586  0.2708  0.6461  0.6777
 7885SOL    HW135291   2.512   4.629   4.637 -0.1631 -0.1602  1.3666
 7885SOL    HW235292   2.471   4.594   4.507 -1.7091  0.8034 -0.4057
 7886SOL     OW35293   3.715   0.742   4.853 -0.0299  0.9027 -0.0392
 7886SOL    HW135294   3.656   0.695   4.794 -0.0137  0.3378  0.3956
 7886SOL    HW235295   3.802   0.735   4.815 -0.4495  0.2194 -0.8707
 7887SOL     OW35296   1.556   1.450  12.517 -0.0562  0.4599 -0.0595
 7887SOL    HW135297   1.618   1.411  12.579 -0.0091 -0.4682 -0.6913
 7887SOL    HW235298   1.593   1.411  12.438 -2.3547 -0.6226 -0.5768
 7888SOL     OW35299   4.172   2.965   8.126 -0.3359  0.2313  0.2424
 7888SOL    HW135300   4.259   2.998   8.102 -0.1220  0.9076  1.9289
 7888SOL    HW235301   4.170   3.019   8.205  2.7913  1.3987 -0.4531
 7889SOL     OW35302   2.120   3.360   9.088  0.3223  0.3193 -0.1167
 7889SOL    HW135303   2.076   3.276   9.072 -1.3770  1.0473  0.6669
 7889SOL    HW235304   2.145   3.356   9.181 -0.7818 -0.8963  0.1336
 7890SOL     OW35305   4.494   3.707   9.715  0.1038 -0.1855  0.2491
 7890SOL    HW135306   4.545   3.774   9.670  1.4407 -0.3456  1.5224
 7890SOL    HW235307   4.503   3.726   9.808 -1.2667 -0.2563  0.3992
 7891SOL     OW35308   1.281   2.809   4.723  0.3576 -0.5546  0.2981
 7891SOL    HW135309   1.244   2.804   4.635  0.0708 -0.0560  0.3871
 7891SOL    HW235310   1.286   2.715   4.736  2.7020 -0.4190  0.3333
 7892SOL     OW35311   4.343   1.490   8.597  0.4180  0.2622 -0.2855
 7892SOL    HW135312   4.251   1.509   8.576  0.5453  1.0660 -0.1256
 7892SOL    HW235313   4.384   1.506   8.512 -0.1165  1.7916 -0.2582
 7893SOL     OW35314   3.685   2.645   1.949  0.5003 -0.0840  0.0781
 7893SOL    HW135315   3.637   2.562   1.938 -0.6225  0.2666  2.3640
 7893SOL    HW235316   3.656   2.681   2.033 -1.9628  0.3611 -0.9725
 7894SOL     OW35317   3.310   1.110   0.393 -0.6054 -0.5510  0.0603
 7894SOL    HW135318   3.330   1.170   0.465 -2.3763  1.6699 -1.2896
 7894SOL    HW235319   3.238   1.155   0.348 -1.1126 -0.3151  1.1000
 7895SOL     OW35320   2.637   0.645   7.905 -0.4748  0.4183  0.4753
 7895SOL    HW135321   2.645   0.557   7.942  3.3771 -0.0686 -1.4733
 7895SOL    HW235322   2.725   0.676   7.927  0.0230 -0.6753  0.0083
 7896SOL     OW35323   2.822   0.845   4.158  0.5773 -0.7490  0.5075
 7896SOL    HW135324   2.869   0.906   4.214  1.6485 -2.4773  1.4573
 7896SOL    HW235325   2.740   0.894   4.162  1.0068 -0.0890  1.0938
 7897SOL     OW35326   3.625   0.080  12.641  0.0282 -0.1234  0.0327
 7897SOL    HW135327   3.669   0.014  12.588 -2.0963 -2.3950  1.1104
 7897SOL    HW235328   3.635   0.160  12.590  2.1195 -0.1231  0.4394
 7898SOL     OW35329   3.395   4.726   2.676 -0.1521 -0.4911 -0.4033
 7898SOL    HW135330   3.351   4.644   2.652  1.4210 -1.9116  1.4863
 7898SOL    HW235331   3.426   0.023   2.593  1.9920 -0.4613  0.4078
 7899SOL     OW35332   1.708   0.063   7.082 -0.3587  0.4005 -0.0848
 7899SOL    HW135333   1.640   0.083   7.018 -0.6260 -1.9190 -0.5468
 7899SOL    HW235334   1.733   0.141   7.131 -0.0913  1.3513 -1.7491
 7900SOL     OW35335   1.471   3.116   6.239  0.1142  0.1584  0.3348
 7900SOL    HW135336   1.439   3.033   6.273  1.1704  0.5542  2.2793
 7900SOL    HW235337   1.564   3.096   6.237 -0.2903 -1.6230 -0.8159
 7901SOL     OW35338   1.387   3.166   0.984 -0.0980 -0.1969  0.2013
 7901SOL    HW135339   1.351   3.098   1.041 -0.6828 -2.0889 -2.4112
 7901SOL    HW235340   1.419   3.223   1.053  0.2730 -1.5090  1.1146
 7902SOL     OW35341   2.355   2.179   6.513 -0.1299  0.3323  0.9233
 7902SOL    HW135342   2.340   2.191   6.420 -0.0022 -0.4486  0.8016
 7902SOL    HW235343   2.368   2.270   6.540 -0.1167  0.3893  0.7256
 7903SOL     OW35344   4.477   2.667   5.045 -0.5575 -0.1544 -0.1526
 7903SOL    HW135345   4.433   2.593   5.086 -2.6644  0.1895 -1.7609
 7903SOL    HW235346   4.402   2.707   5.000 -1.5461 -2.9955 -1.0040
 7904SOL     OW35347   1.355   3.294  11.611 -0.8071  0.1698 -0.0341
 7904SOL    HW135348   1.390   3.338  11.689 -3.3305  0.4828  0.8999
 7904SOL    HW235349   1.336   3.366  11.551  1.5254 -0.0227 -1.0393
 7905SOL     OW35350   4.394   1.858   5.622  0.5288 -0.7569 -0.2243
 7905SOL    HW135351   4.471   1.879   5.676  1.1987 -1.2511 -0.9909
 7905SOL    HW235352   4.333   1.931   5.637  0.9723 -0.4925  0.3160
 7906SOL     OW35353   3.502   0.499   3.595 -0.1863  0.5286  0.5172
 7906SOL    HW135354   3.506   0.455   3.510 -1.6050 -2.1506  1.8011
 7906SOL    HW235355   3.407   0.500   3.608 -0.6275 -0.3509 -2.6092
 7907SOL     OW35356   1.376   1.255  10.803  0.0817  0.0798 -0.1233
 7907SOL    HW135357   1.426   1.225  10.879  0.4799  0.0997 -0.3781
 7907SOL    HW235358   1.409   1.345  10.804 -1.4459  0.6494  0.7673
 7908SOL     OW35359   3.312   1.334   8.403 -0.1584 -0.3661 -0.3129
 7908SOL    HW135360   3.355   1.385   8.334  1.5520  1.3201  1.9661
 7908SOL    HW235361   3.236   1.305   8.353 -0.4298 -1.5692  0.7791
 7909SOL     OW35362   0.631   4.697  11.781 -0.3465  0.5272  0.1748
 7909SOL    HW135363   0.559   4.637  11.760  0.7071 -0.8049  0.3683
 7909SOL    HW235364   0.669   4.661  11.862  0.5329  0.2677 -0.3604
 7910SOL     OW35365   1.782   0.009   0.418  0.1680  0.2619  0.7018
 7910SOL    HW135366   1.696   0.008   0.375  0.0271 -0.1728  0.9952
 7910SOL    HW235367   1.766   4.686   0.491 -0.2068 -0.9137 -0.3455
 7911SOL     OW35368   0.088   0.176   0.666 -0.3151 -0.0316 -0.2233
 7911SOL    HW135369   0.125   0.091   0.690 -0.7241 -0.1040  0.1404
 7911SOL    HW235370   0.015   0.189   0.726  0.6738 -0.3693  1.0519
 7912SOL     OW35371   3.558   2.545  14.679  0.6113 -0.4610  0.5735
 7912SOL    HW135372   3.468   2.518  14.660  0.3824 -0.3038  1.4448
 7912SOL    HW235373   3.578   2.513  14.767  2.9060 -0.4711  0.0448
 7913SOL     OW35374   2.908   3.040   4.705  0.2770 -0.3928 -0.0072
 7913SOL    HW135375   2.848   3.097   4.753  0.1369 -0.1830 -0.4267
 7913SOL    HW235376   2.855   3.017   4.629  0.0864  0.3820 -0.1089
 7914SOL     OW35377   1.285   2.541   4.828  0.2896 -0.1805 -0.0284
 7914SOL    HW135378   1.252   2.489   4.755 -0.2735 -0.6699  0.5767
 7914SOL    HW235379   1.293   2.469   4.889  0.5206  0.2604  0.4599
 7915SOL     OW35380   1.968   0.547   6.635 -0.0900 -0.2515 -0.0604
 7915SOL    HW135381   2.016   0.581   6.710  2.0322 -3.4696  0.0360
 7915SOL    HW235382   1.985   0.453   6.646 -4.0808 -0.9275  0.3213
 7916SOL     OW35383   0.012   2.351   6.199  0.2177 -0.5498 -0.4250
 7916SOL    HW135384   4.655   2.333   6.195  0.6726 -3.4802  2.9654
 7916SOL    HW235385   0.009   2.446   6.209 -2.0339 -0.5168 -1.3846
 7917SOL     OW35386   1.006   0.390   9.510 -0.1186  0.1730 -0.2459
 7917SOL    HW135387   1.085   0.357   9.554  0.1271  2.1702  0.8291
 7917SOL    HW235388   1.029   0.474   9.471 -1.0294  0.3689 -0.3528
 7918SOL     OW35389   3.302   1.086   6.375 -0.0209 -0.2791  0.1316
 7918SOL    HW135390   3.251   1.166   6.361  0.4589  0.2489  1.4419
 7918SOL    HW235391   3.323   1.064   6.284 -4.4500 -0.3881 -0.8732
 7919SOL     OW35392   1.800   0.348   3.900 -0.1900 -0.1240 -0.6024
 7919SOL    HW135393   1.776   0.328   3.810 -1.6217 -0.6703 -0.0909
 7919SOL    HW235394   1.764   0.435   3.916  1.9899  0.4438  1.2491
 7920SOL     OW35395   0.193   1.184   5.600  0.0557 -0.1801 -0.2745
 7920SOL    HW135396   0.253   1.115   5.573 -0.7713 -0.5675 -1.1013
 7920SOL    HW235397   0.197   1.165   5.694  1.6009  2.4572  0.2059
 7921SOL     OW35398   2.680   3.020  16.382  0.3028  0.0769 -0.3089
 7921SOL    HW135399   2.586   3.004  16.376  0.3127  0.8709 -2.8539
 7921SOL    HW235400   2.674   3.089  16.315  0.7026  1.0944  0.6911
 7922SOL     OW35401   1.114   0.000   3.214  0.4844 -0.0607  0.1564
 7922SOL    HW135402   1.117   4.643   3.229 -1.0507 -0.3929 -1.5852
 7922SOL    HW235403   1.151   0.032   3.296  0.3767 -0.2992  0.2986
 7923SOL     OW35404   0.564   3.594   2.279  0.0778  0.0517 -0.3756
 7923SOL    HW135405   0.473   3.576   2.259 -0.6969  1.6112  1.7489
 7923SOL    HW235406   0.552   3.681   2.318  1.2074 -0.6080  1.4041
 7924SOL     OW35407   1.746   3.953   6.311  0.0985 -0.6054 -0.5745
 7924SOL    HW135408   1.683   3.887   6.283  0.6737 -0.4754 -2.1682
 7924SOL    HW235409   1.749   4.008   6.232 -1.2983  0.3129  0.0047
 7925SOL     OW35410   3.267   1.394  11.151  0.0955 -0.4126  0.1749
 7925SOL    HW135411   3.222   1.419  11.071  1.8788 -0.0257 -0.7135
 7925SOL    HW235412   3.205   1.390  11.224  0.5440 -1.4591  0.5034
 7926SOL     OW35413   2.687   0.038  11.429 -0.0876  0.2670 -0.1630
 7926SOL    HW135414   2.734   0.086  11.497 -1.4203  0.8599  0.3230
 7926SOL    HW235415   2.606   0.087  11.441  1.7432  3.4758 -1.0282
 7927SOL     OW35416   2.231   3.453   6.257 -0.3304  0.1760  0.2427
 7927SOL    HW135417   2.279   3.472   6.177 -1.3541 -2.1046 -0.9091
 7927SOL    HW235418   2.264   3.528   6.307 -0.2602  1.1533 -1.2749
 7928SOL     OW35419   0.910   2.184  17.743 -0.5078  0.0895  0.0035
 7928SOL    HW135420   0.977   2.214  17.681 -0.7091  0.4773 -0.0307
 7928SOL    HW235421   0.951   2.213   0.077  2.1770  0.5786 -1.5143
 7929SOL     OW35422   2.759   1.941   3.841  0.0519 -0.5942  0.4156
 7929SOL    HW135423   2.749   1.919   3.748  0.8122  1.8562 -0.2577
 7929SOL    HW235424   2.671   1.925   3.875  0.4913 -2.5661  0.5946
 7930SOL     OW35425   1.648   3.285  11.563  0.1808 -0.0525  0.3045
 7930SOL    HW135426   1.556   3.261  11.570  0.6799 -1.8852  0.6505
 7930SOL    HW235427   1.651   3.336  11.482 -2.4558  2.2104  1.6578
 7931SOL     OW35428   4.472   0.108   8.063 -0.3406  0.0159  0.6002
 7931SOL    HW135429   4.432   0.021   8.069 -2.3579  0.8885 -0.4600
 7931SOL    HW235430   4.403   0.157   8.107 -0.8203 -0.8941  0.8523
 7932SOL     OW35431   3.236   1.088  17.334 -0.2294 -0.1779  0.1923
 7932SOL    HW135432   3.218   1.000  17.367  0.6272 -0.9076 -1.2910
 7932SOL    HW235433   3.261   1.078  17.242 -1.8465 -0.7158 -0.2011
 7933SOL     OW35434   2.968   3.214  12.343 -0.1850  0.3038  0.0813
 7933SOL    HW135435   3.001   3.301  12.321  2.4852 -0.8303 -0.3387
 7933SOL    HW235436   3.030   3.150  12.308 -2.0065 -1.3539 -0.1354
 7934SOL     OW35437   4.397   3.492   9.604 -0.9560  0.0791 -0.5829
 7934SOL    HW135438   4.338   3.482   9.679 -2.0032 -1.7453 -1.6546
 7934SOL    HW235439   4.438   3.574   9.633  1.8256 -2.5218  2.7892
 7935SOL     OW35440   2.068   1.029  11.499  0.1698  0.1533 -0.4700
 7935SOL    HW135441   2.136   1.037  11.432  0.5930  0.7826  0.0332
 7935SOL    HW235442   2.108   0.959  11.551 -0.2638  0.1790 -0.1040
 7936SOL     OW35443   3.811   2.311   4.432 -0.8039  0.7307 -0.0111
 7936SOL    HW135444   3.854   2.356   4.359  2.5882 -0.5153  1.2307
 7936SOL    HW235445   3.883   2.291   4.491  0.0813  3.0763 -0.3097
 7937SOL     OW35446   0.311   2.183   5.701 -0.2880  0.4203 -0.1177
 7937SOL    HW135447   0.257   2.256   5.731  0.0296  0.8243 -0.5292
 7937SOL    HW235448   0.329   2.139   5.784  0.1621  1.1079  0.1472
 7938SOL     OW35449   4.301   4.396  11.545 -0.4893 -0.2714  0.2623
 7938SOL    HW135450   4.268   4.485  11.556 -1.3931 -0.3491 -1.7865
 7938SOL    HW235451   4.251   4.345  11.609 -0.1258 -1.3407 -0.3014
 7939SOL     OW35452   3.343   0.758  12.578  0.1247 -0.1613 -0.5631
 7939SOL    HW135453   3.402   0.705  12.525  0.7755 -2.9730  2.9633
 7939SOL    HW235454   3.397   0.836  12.595  1.0857 -1.0534  0.4995
 7940SOL     OW35455   3.411   2.451   2.604  0.6159 -0.1854  0.0629
 7940SOL    HW135456   3.347   2.406   2.548  0.9803 -0.0918 -0.4279
 7940SOL    HW235457   3.369   2.535   2.620 -1.7131 -1.2476 -0.4603
 7941SOL     OW35458   2.525   4.526   1.767  0.0342 -0.3129 -0.4502
 7941SOL    HW135459   2.458   4.502   1.831  0.4625 -0.9146 -0.2277
 7941SOL    HW235460   2.470   4.512   1.690 -1.0188  1.9270 -0.1195
 7942SOL     OW35461   3.215   1.155   1.549 -0.0937  0.0881  0.6434
 7942SOL    HW135462   3.234   1.146   1.642  1.0957  0.5778  0.4494
 7942SOL    HW235463   3.181   1.245   1.542 -0.6568 -0.2325 -0.7951
 7943SOL     OW35464   4.258   4.586   7.077  0.7025  0.2928 -0.1355
 7943SOL    HW135465   4.204   4.510   7.100  1.3176  0.6784  2.5508
 7943SOL    HW235466   4.300   4.545   7.002 -1.7094  2.6660 -2.7688
 7944SOL     OW35467   3.761   0.634   9.105 -0.3761 -0.5897 -0.2761
 7944SOL    HW135468   3.775   0.585   9.186  1.3314  0.6014  0.1573
 7944SOL    HW235469   3.846   0.677   9.099 -0.2983 -0.8204 -0.8100
 7945SOL     OW35470   1.964   3.177   8.076 -0.0799 -0.1984 -0.8743
 7945SOL    HW135471   1.969   3.231   7.997 -0.2173 -0.2729 -0.9333
 7945SOL    HW235472   1.890   3.117   8.063  0.2016 -1.0143  1.3162
 7946SOL     OW35473   3.338   0.205  17.704 -0.5648 -0.7041 -0.2268
 7946SOL    HW135474   3.271   0.274  17.699 -3.2614 -3.2539  0.4131
 7946SOL    HW235475   3.352   0.193   0.051  0.6854  1.4107 -0.1567
 7947SOL     OW35476   4.463   3.641   0.516  0.2010 -0.2769 -0.0786
 7947SOL    HW135477   4.473   3.708   0.585  4.0588 -1.3691  0.4589
 7947SOL    HW235478   4.394   3.682   0.465  1.4268 -0.8780 -2.2423
 7948SOL     OW35479   4.264   2.238   6.506  0.4344  0.9065 -0.0422
 7948SOL    HW135480   4.314   2.266   6.583  0.8719 -0.4017  0.1557
 7948SOL    HW235481   4.196   2.181   6.541 -1.5004  2.7516 -0.7820
 7949SOL     OW35482   1.460   2.062   3.579  0.2193 -0.5782 -0.1233
 7949SOL    HW135483   1.546   2.103   3.572  0.2924 -0.1824  2.9920
 7949SOL    HW235484   1.447   2.029   3.490 -0.1310 -2.2782  0.5554
 7950SOL     OW35485   1.302   0.750   7.874  0.3994  0.2045  0.1918
 7950SOL    HW135486   1.357   0.820   7.836  1.2820 -0.3844  0.3790
 7950SOL    HW235487   1.250   0.718   7.800  0.3802  1.3214 -0.2892
 7951SOL     OW35488   4.256   4.605   8.029  0.4075  0.1492  0.1101
 7951SOL    HW135489   4.188   4.673   8.030  0.6903  0.4150  1.0511
 7951SOL    HW235490   4.272   4.597   7.935 -0.7798 -2.0836  0.1209
 7952SOL     OW35491   4.729   1.026   3.094  0.0544 -0.1182 -0.1648
 7952SOL    HW135492   0.018   0.970   3.167  0.4793  2.0345  1.3117
 7952SOL    HW235493   4.664   0.969   3.052 -0.5804  0.6123 -0.1641
 7953SOL     OW35494   2.999   0.789  10.371 -0.1543  0.3348  0.0591
 7953SOL    HW135495   3.008   0.694  10.369  0.4645  0.3911  0.1149
 7953SOL    HW235496   3.014   0.809  10.463  0.0386 -2.5415  0.6434
 7954SOL     OW35497   4.016   3.368  13.813 -0.1971 -0.0579 -0.3157
 7954SOL    HW135498   4.086   3.344  13.874 -0.7101 -0.1554  0.2272
 7954SOL    HW235499   4.051   3.345  13.727 -1.1887 -0.7625 -0.5303
 7955SOL     OW35500   3.545   1.422   9.097 -0.2212  0.4915  0.4148
 7955SOL    HW135501   3.619   1.462   9.051 -0.3867  0.8087  0.4227
 7955SOL    HW235502   3.476   1.423   9.030 -1.4658  0.2726  1.6822
 7956SOL     OW35503   2.904   4.326   7.716 -0.2667 -0.5769  0.3554
 7956SOL    HW135504   2.926   4.341   7.624 -0.9491 -0.4413  0.2126
 7956SOL    HW235505   2.977   4.276   7.751  1.1355  0.3275 -1.2969
 7957SOL     OW35506   0.755   0.595   0.257 -0.0648 -0.1954 -0.5665
 7957SOL    HW135507   0.794   0.594   0.345 -0.8753  1.2041 -0.1859
 7957SOL    HW235508   0.708   0.678   0.261 -0.5501 -0.6215  2.6981
 7958SOL     OW35509   0.756   2.127   5.567  0.7044  0.2729  0.1635
 7958SOL    HW135510   0.793   2.183   5.499 -4.7810  0.7252 -2.4600
 7958SOL    HW235511   0.662   2.139   5.554  0.9811  0.3805 -1.7250
 7959SOL     OW35512   2.708   1.645  12.282 -0.3830  0.1439 -0.3776
 7959SOL    HW135513   2.629   1.600  12.252  1.1433 -2.1314 -0.9292
 7959SOL    HW235514   2.725   1.600  12.365 -2.1409  1.2652  0.6033
 7960SOL     OW35515   2.315   3.745   8.029 -0.2004 -0.7138 -0.3527
 7960SOL    HW135516   2.241   3.793   8.067  1.2727  0.2060  1.3173
 7960SOL    HW235517   2.268   3.662   8.016 -2.0178  0.6165 -2.3195
 7961SOL     OW35518   1.284   2.366   2.147 -0.4548  0.3807  0.1721
 7961SOL    HW135519   1.322   2.415   2.074  1.5638  1.2742  1.8196
 7961SOL    HW235520   1.337   2.398   2.220  0.6680 -1.5775  0.2167
 7962SOL     OW35521   4.585   2.282  15.169  0.5026  0.2496  0.1455
 7962SOL    HW135522   4.598   2.224  15.244 -2.5926 -1.2231 -0.4221
 7962SOL    HW235523   4.677   2.294  15.146  0.0944 -0.4663 -1.8492
 7963SOL     OW35524   0.242   1.156   3.409 -0.2564  0.0927  0.1216
 7963SOL    HW135525   0.295   1.083   3.442  0.9685  0.3103 -1.4035
 7963SOL    HW235526   0.164   1.110   3.377  0.1706 -0.3293 -0.3139
 7964SOL     OW35527   4.386   0.502   3.685  0.1924 -0.3978 -0.0675
 7964SOL    HW135528   4.434   0.486   3.603  2.2282 -0.0368  1.0664
 7964SOL    HW235529   4.426   0.579   3.725 -0.1471 -0.0331 -0.4288
 7965SOL     OW35530   1.182   3.392  16.169 -0.2415 -0.2122  0.7259
 7965SOL    HW135531   1.112   3.447  16.204 -1.7645 -0.8821 -1.2815
 7965SOL    HW235532   1.247   3.391  16.239 -0.6289  0.1356  1.0896
 7966SOL     OW35533   3.059   0.338   7.441  0.0993  0.3713  0.0493
 7966SOL    HW135534   3.104   0.412   7.482  0.0699 -0.6880  1.9993
 7966SOL    HW235535   2.973   0.366   7.473  0.1110  1.2425 -0.6939
 7967SOL     OW35536   2.957   1.660   7.937 -0.1404  0.3485 -0.3138
 7967SOL    HW135537   2.924   1.716   8.007 -0.7412 -2.1564  1.3898
 7967SOL    HW235538   3.020   1.607   7.986 -0.8274 -0.2797 -0.1166
 7968SOL     OW35539   1.070   4.002   2.111 -0.6956  0.0354 -0.7092
 7968SOL    HW135540   1.058   3.923   2.164  1.9288  0.7116  0.8820
 7968SOL    HW235541   1.005   4.001   2.041  0.1072 -1.7182 -1.4454
 7969SOL     OW35542   1.440   0.193   6.708 -0.8224  0.1345  0.2389
 7969SOL    HW135543   1.412   0.103   6.695 -0.0606 -0.1146  0.2948
 7969SOL    HW235544   1.535   0.181   6.701 -0.8091 -0.5816  1.8432
 7970SOL     OW35545   0.505   1.806   5.202  0.1334  0.7403 -0.5023
 7970SOL    HW135546   0.451   1.753   5.260 -0.7093 -0.0677 -2.0286
 7970SOL    HW235547   0.519   1.881   5.260 -2.6366 -1.1529  2.5310
 7971SOL     OW35548   3.192   2.810   2.525  0.0047 -0.4336  0.1492
 7971SOL    HW135549   3.287   2.804   2.514  0.3926  0.4354  3.0100
 7971SOL    HW235550   3.176   2.900   2.497  0.4260 -0.7917 -1.2502
 7972SOL     OW35551   0.493   2.347   3.681  0.3481  0.0092 -0.3953
 7972SOL    HW135552   0.422   2.393   3.727 -0.2313 -0.8874 -0.3895
 7972SOL    HW235553   0.569   2.373   3.732  0.8014 -1.5907 -0.2379
 7973SOL     OW35554   4.700   1.280   4.604 -0.6201 -0.1497  0.5315
 7973SOL    HW135555   4.606   1.295   4.603 -0.4492  1.0372  2.1771
 7973SOL    HW235556   4.705   1.189   4.576  0.5184  0.1415 -0.1788
 7974SOL     OW35557   1.459   3.978   5.129  0.0643 -0.5282 -0.4551
 7974SOL    HW135558   1.416   3.940   5.052 -2.3988 -0.2181  0.7518
 7974SOL    HW235559   1.387   4.003   5.187 -0.8748 -3.4222 -0.3629
 7975SOL     OW35560   2.377   3.491   4.814 -0.4268  0.4238 -0.6253
 7975SOL    HW135561   2.440   3.430   4.778  1.2191  1.0113  1.2676
 7975SOL    HW235562   2.405   3.489   4.906 -1.5786 -0.0524 -0.2799
 7976SOL     OW35563   3.780   1.810   9.749 -0.6520 -0.4265 -0.0187
 7976SOL    HW135564   3.870   1.781   9.735 -0.4835  0.7448 -1.4235
 7976SOL    HW235565   3.733   1.748   9.693  0.9011 -4.4717  3.1402
 7977SOL     OW35566   2.845   4.219  11.843  0.3617  0.2266  0.4939
 7977SOL    HW135567   2.787   4.143  11.844  0.0136  0.4900 -1.1184
 7977SOL    HW235568   2.930   4.177  11.859  0.0989 -0.8888 -1.1734
 7978SOL     OW35569   3.020   3.213  16.173 -0.1380 -0.6138 -0.1974
 7978SOL    HW135570   2.991   3.296  16.135  0.3362 -1.3158 -2.1107
 7978SOL    HW235571   2.970   3.151  16.120  0.9349 -0.1884 -1.6970
 7979SOL     OW35572   4.375   2.966   3.327  0.6230  0.4152 -0.1409
 7979SOL    HW135573   4.379   2.909   3.250  1.0426 -0.7195  0.7169
 7979SOL    HW235574   4.326   2.911   3.388  2.5248 -1.2742 -0.1259
 7980SOL     OW35575   3.487   2.509   3.681  0.1968  0.1142 -0.1365
 7980SOL    HW135576   3.401   2.513   3.640  0.7662 -0.0137 -1.3414
 7980SOL    HW235577   3.523   2.438   3.627  0.3797  1.1987 -1.4321
 7981SOL     OW35578   4.408   0.663  12.743  0.6726  0.1532 -1.0398
 7981SOL    HW135579   4.326   0.708  12.765  0.8379  0.1939 -0.5087
 7981SOL    HW235580   4.369   0.576  12.731 -2.1164  1.4982 -1.6294
 7982SOL     OW35581   0.314   0.527   3.359 -0.3176  0.2059  0.1654
 7982SOL    HW135582   0.362   0.462   3.307  0.6816  0.7709  0.3841
 7982SOL    HW235583   0.249   0.557   3.295 -1.3491  0.2903  1.2546
 7983SOL     OW35584   0.278   2.221   8.005  0.0158  0.4835 -0.2010
 7983SOL    HW135585   0.273   2.134   8.045  1.1612  1.0858  1.2672
 7983SOL    HW235586   0.371   2.247   8.004  0.3236 -0.6144 -1.6240
 7984SOL     OW35587   2.458   4.102  16.699 -0.3534  0.3244 -0.4940
 7984SOL    HW135588   2.377   4.065  16.733 -0.6399  1.1439 -0.2693
 7984SOL    HW235589   2.530   4.065  16.750 -0.1298 -0.5242 -1.4278
 7985SOL     OW35590   0.823   2.299  16.387  0.3015 -0.1516  0.0415
 7985SOL    HW135591   0.753   2.300  16.452 -0.1107  4.3466 -0.4670
 7985SOL    HW235592   0.869   2.382  16.400  0.2579 -0.0698 -0.3186
 7986SOL     OW35593   2.732   0.405  10.324 -0.0040 -0.2315  0.3570
 7986SOL    HW135594   2.739   0.375  10.415 -0.9304  0.9492  0.8289
 7986SOL    HW235595   2.721   0.326  10.273 -1.0396 -0.3796  0.8045
 7987SOL     OW35596   1.638   3.883   9.145 -0.1940  0.0637  0.0925
 7987SOL    HW135597   1.708   3.819   9.129 -0.8608 -1.1222  1.9518
 7987SOL    HW235598   1.564   3.846   9.097  1.9238 -1.5352 -2.0094
 7988SOL     OW35599   1.177   1.276   4.533  0.3976 -0.1644 -0.3253
 7988SOL    HW135600   1.178   1.337   4.460 -0.5909 -2.0085 -1.8788
 7988SOL    HW235601   1.261   1.231   4.523  0.3348  0.3637 -3.1636
 7989SOL     OW35602   3.917   3.036  12.363 -0.0088  0.3560 -0.6931
 7989SOL    HW135603   3.900   3.087  12.442 -2.0967 -2.3684  0.6091
 7989SOL    HW235604   4.009   3.054  12.344 -0.3473  0.2554 -2.4722
 7990SOL     OW35605   3.185   1.784   8.175  0.5384 -0.4797  0.3213
 7990SOL    HW135606   3.211   1.868   8.214 -3.1456  1.6758 -1.7634
 7990SOL    HW235607   3.209   1.813   8.086 -1.5810 -0.3944 -0.2328
 7991SOL     OW35608   4.391   1.256   4.254 -0.2631  0.0705 -0.3561
 7991SOL    HW135609   4.401   1.276   4.347  0.4016 -1.3022 -0.1184
 7991SOL    HW235610   4.344   1.333   4.223 -1.0141 -0.3587 -0.2888
 7992SOL     OW35611   1.633   4.385  13.840 -0.5325  0.4538 -0.2913
 7992SOL    HW135612   1.672   4.403  13.754 -1.4381 -0.8087 -0.9848
 7992SOL    HW235613   1.540   4.369  13.822 -1.2041  2.0063  1.7971
 7993SOL     OW35614   1.615   1.347   4.696 -0.1050 -0.4586  0.1623
 7993SOL    HW135615   1.597   1.423   4.751 -0.6162 -0.3296 -0.1805
 7993SOL    HW235616   1.623   1.275   4.758 -1.7485  1.2380  2.3588
 7994SOL     OW35617   3.519   3.541   6.271 -0.0762 -0.4312 -0.5488
 7994SOL    HW135618   3.613   3.540   6.286  0.2814  1.2841 -2.6872
 7994SOL    HW235619   3.485   3.549   6.361  0.5995  1.8424 -0.4861
 7995SOL     OW35620   1.959   3.431   2.793 -0.4417  0.6956 -0.3453
 7995SOL    HW135621   2.022   3.453   2.724  2.0565  0.4004  1.8484
 7995SOL    HW235622   1.983   3.488   2.867  1.8333 -0.0975 -0.4817
 7996SOL     OW35623   0.460   1.976   6.467 -0.2684  0.4798  0.1225
 7996SOL    HW135624   0.498   1.949   6.550 -0.6495  0.7914  0.3988
 7996SOL    HW235625   0.542   1.949   6.425 -1.4099 -2.9657  0.1263
 7997SOL     OW35626   4.103   0.827  11.873 -0.7379  0.1683 -0.7371
 7997SOL    HW135627   4.131   0.737  11.855 -0.4809 -0.3478  2.2815
 7997SOL    HW235628   4.076   0.821  11.964 -0.5857  0.9232 -0.6482
 7998SOL     OW35629   1.693   1.807   8.995 -0.2573  0.4182  0.2301
 7998SOL    HW135630   1.778   1.774   9.025  0.7194  1.5616 -1.3119
 7998SOL    HW235631   1.719   1.821   8.904  0.2279 -0.1250  0.2804
 7999SOL     OW35632   1.212   0.446   4.394  0.3195  0.5690  0.4482
 7999SOL    HW135633   1.163   0.421   4.473 -1.0801  0.5175 -0.4363
 7999SOL    HW235634   1.283   0.382   4.396 -1.7320 -1.7445 -0.4569
 8000SOL     OW35635   4.558   4.726   7.202  0.3165  0.1770  0.2250
 8000SOL    HW135636   4.561   0.077   7.240 -2.3993 -0.1954  1.2696
 8000SOL    HW235637   4.483   4.733   7.143  1.3098  0.4710 -1.0165
 8001SOL     OW35638   3.067   1.118   7.094 -0.4370  0.3403  0.0183
 8001SOL    HW135639   3.107   1.051   7.037 -0.2016 -1.7014  2.5696
 8001SOL    HW235640   3.130   1.190   7.096  0.9908 -0.8298 -3.0240
 8002SOL     OW35641   0.643   2.192  10.425  0.1049 -0.7149 -0.1796
 8002SOL    HW135642   0.683   2.136  10.492 -0.4658 -0.3946  0.4311
 8002SOL    HW235643   0.713   2.181  10.361  0.4440  0.1565  0.0415
 8003SOL     OW35644   1.310   2.231  13.682  0.9944  0.2847 -0.0710
 8003SOL    HW135645   1.375   2.165  13.707 -0.5955 -1.3645 -0.2798
 8003SOL    HW235646   1.352   2.309  13.718 -3.1630  2.8503 -0.7216
 8004SOL     OW35647   3.686   4.514   8.391  0.1453  0.0254  0.1893
 8004SOL    HW135648   3.613   4.501   8.330  0.3586 -1.5701  0.2622
 8004SOL    HW235649   3.755   4.463   8.349 -3.0570 -1.3230 -3.4202
 8005SOL     OW35650   0.611   2.208   6.554 -0.9065 -0.2078 -0.1511
 8005SOL    HW135651   0.522   2.185   6.529 -1.5421  1.0362  0.9863
 8005SOL    HW235652   0.609   2.211   6.650  1.9456 -1.4156 -0.0546
 8006SOL     OW35653   1.457   2.161   8.036  0.3618 -0.3569 -0.3084
 8006SOL    HW135654   1.545   2.150   8.001 -0.0741 -1.3333 -1.0826
 8006SOL    HW235655   1.414   2.220   7.974 -0.6868 -0.3237  0.4476
 8007SOL     OW35656   1.087   0.935  15.749  0.0161  0.2889  0.0120
 8007SOL    HW135657   1.114   0.930  15.840 -0.0867 -0.4537 -0.0015
 8007SOL    HW235658   1.160   0.887  15.711  0.0170  1.9240 -2.0483
 8008SOL     OW35659   0.257   3.222   5.191 -0.3732  0.0098  0.5438
 8008SOL    HW135660   0.246   3.162   5.117 -0.8774 -0.1891  0.7776
 8008SOL    HW235661   0.165   3.220   5.219 -0.7642 -0.8285 -0.7843
 8009SOL     OW35662   4.483   2.817  10.809 -0.3468  0.4874  0.2839
 8009SOL    HW135663   4.523   2.731  10.806 -0.1785  0.5094  2.0328
 8009SOL    HW235664   4.563   2.869  10.821 -0.4583  0.2038  2.2692
 8010SOL     OW35665   0.254   0.898   3.506  0.7078 -0.6608 -0.6390
 8010SOL    HW135666   0.160   0.897   3.485  0.7409 -0.3297 -0.8027
 8010SOL    HW235667   0.244   0.912   3.600  0.3470  2.8020 -1.1824
 8011SOL     OW35668   3.182   4.002   8.162 -0.1056  0.0460 -0.4675
 8011SOL    HW135669   3.108   4.044   8.118 -0.6091  0.4555  0.8005
 8011SOL    HW235670   3.231   3.978   8.083  0.2983 -1.0088  0.1005
 8012SOL     OW35671   4.091   0.008  14.900  0.7760  0.2140  0.0288
 8012SOL    HW135672   4.039   4.664  14.906 -0.2605  0.9526  1.1238
 8012SOL    HW235673   4.173   4.722  14.944 -0.0314 -0.9841  0.9077
 8013SOL     OW35674   2.797   0.133  11.069 -0.7621  0.4784 -0.3051
 8013SOL    HW135675   2.856   0.131  11.145  0.7595 -2.0160 -1.5607
 8013SOL    HW235676   2.739   0.204  11.096 -2.3237 -0.6100 -0.8296
 8014SOL     OW35677   4.606   3.787  14.999  0.2122 -0.0237 -0.3023
 8014SOL    HW135678   4.529   3.773  15.055  0.6624 -3.0033 -0.4694
 8014SOL    HW235679   4.679   3.767  15.057 -2.0282  0.8704  2.8816
 8015SOL     OW35680   0.195   3.339  12.010  0.1365  0.6548  0.4254
 8015SOL    HW135681   0.202   3.418  11.956 -0.6303 -0.8157 -1.7874
 8015SOL    HW235682   0.245   3.273  11.963  0.5985  0.3738  1.3140
 8016SOL     OW35683   0.242   0.385  10.874 -0.1941  0.1298 -0.0120
 8016SOL    HW135684   0.283   0.465  10.906  0.6750 -0.6978  0.9383
 8016SOL    HW235685   0.150   0.400  10.898 -0.5482 -3.3069  0.9039
 8017SOL     OW35686   1.951   3.042   2.908 -0.6341  0.0189 -0.4186
 8017SOL    HW135687   2.039   3.070   2.936 -0.1008 -0.8148 -1.2775
 8017SOL    HW235688   1.957   2.962   2.960  0.4539 -0.7911 -1.8046
 8018SOL     OW35689   0.677   3.621   7.364 -0.7363 -0.2219  0.0312
 8018SOL    HW135690   0.751   3.592   7.419  0.6088  0.3904 -1.4714
 8018SOL    HW235691   0.603   3.614   7.425 -1.0642  4.2747  0.1359
 8019SOL     OW35692   4.667   0.049  15.890 -0.4786  0.2862  0.2146
 8019SOL    HW135693   4.596   0.075  15.832  0.2778  0.4267 -0.6406
 8019SOL    HW235694   4.690   0.138  15.919 -0.9299  1.2581 -2.3940
 8020SOL     OW35695   1.437   1.919   9.042 -0.0949 -0.3373  0.5305
 8020SOL    HW135696   1.438   1.865   9.121  1.1619 -0.4886  0.4193
 8020SOL    HW235697   1.516   1.894   8.993 -0.1816 -1.3960  0.9370
 8021SOL     OW35698   0.475   3.262  10.326  0.2006 -0.2059 -0.0148
 8021SOL    HW135699   0.529   3.195  10.284  0.0649  0.4864 -1.2655
 8021SOL    HW235700   0.435   3.218  10.401  1.6993  0.2668  1.0588
 8022SOL     OW35701   0.791   1.788   9.479  0.3020 -0.1635  0.1553
 8022SOL    HW135702   0.882   1.800   9.452  0.1472  0.4207 -0.1107
 8022SOL    HW235703   0.749   1.867   9.445 -2.5273 -1.9628 -0.6337
 8023SOL     OW35704   0.250   2.862   7.414  0.1951 -0.3029 -0.8150
 8023SOL    HW135705   0.248   2.878   7.320 -2.8933  1.3701 -0.4598
 8023SOL    HW235706   0.342   2.871   7.440  0.1946 -2.2313 -0.1531
 8024SOL     OW35707   2.677   0.341  11.290 -0.3081 -0.2670 -0.3969
 8024SOL    HW135708   2.599   0.301  11.254  0.2104 -0.8855 -0.8249
 8024SOL    HW235709   2.697   0.395  11.213  0.9673 -1.9472 -1.2417
 8025SOL     OW35710   2.756   4.615   7.189  0.4476 -0.1030 -0.2018
 8025SOL    HW135711   2.704   4.656   7.259 -1.5519 -0.9333 -1.1925
 8025SOL    HW235712   2.845   4.597   7.220  0.6582  0.0373 -0.7250
 8026SOL     OW35713   0.132   3.208   2.880 -0.4812  0.0170  0.5466
 8026SOL    HW135714   0.179   3.249   2.952 -1.6969  1.2146  0.6461
 8026SOL    HW235715   0.052   3.260   2.892  0.9632  2.1573  0.8743
 8027SOL     OW35716   0.096   4.398  12.768 -0.0078 -0.1379 -0.1806
 8027SOL    HW135717   0.088   4.362  12.857 -0.3213  2.3965  0.8247
 8027SOL    HW235718   0.092   4.491  12.793  0.0909 -0.2532  0.2599
 8028SOL     OW35719   2.241   0.237   6.735  0.6836 -0.3251 -0.6290
 8028SOL    HW135720   2.176   0.243   6.665  1.5489 -0.5186 -1.4411
 8028SOL    HW235721   2.184   0.221   6.811  2.8677  1.7017  1.4438
 8029SOL     OW35722   4.136   3.877   9.413  0.4107  0.2237 -0.2934
 8029SOL    HW135723   4.080   3.841   9.482  1.9300  1.0312  1.3631
 8029SOL    HW235724   4.123   3.806   9.351 -1.7032 -1.9715  2.6666
 8030SOL     OW35725   3.976   0.382   5.196  0.1518 -0.1488 -0.5565
 8030SOL    HW135726   4.038   0.351   5.130  0.5641 -1.6608  0.5431
 8030SOL    HW235727   4.038   0.426   5.254  0.5913 -0.2322 -0.9628
 8031SOL     OW35728   0.447   4.594   9.190  0.2192 -0.3908  0.1300
 8031SOL    HW135729   0.359   4.561   9.170  0.5611 -1.4440  0.3554
 8031SOL    HW235730   0.509   4.526   9.163 -0.9914 -2.0083  1.4030
 8032SOL     OW35731   4.306   0.756  11.579 -0.4138  0.0600  0.5231
 8032SOL    HW135732   4.299   0.802  11.662 -1.8727  0.7478  0.0294
 8032SOL    HW235733   4.400   0.737  11.573 -0.3536  0.0565  1.6282
 8033SOL     OW35734   2.982   1.448   2.376  0.3114  0.7717  0.2667
 8033SOL    HW135735   2.964   1.504   2.451 -1.7106  0.8714 -0.2871
 8033SOL    HW235736   3.025   1.512   2.320  0.9735  0.3860  0.3249
 8034SOL     OW35737   0.132   0.246   0.002  1.2508  0.2248  0.2243
 8034SOL    HW135738   0.177   0.255  17.665 -0.0193  0.1485 -0.4527
 8034SOL    HW235739   0.142   0.151   0.008 -0.9990  0.0899  1.6144
 8035SOL     OW35740   4.334   2.790  13.538 -0.3318  0.1785  0.2345
 8035SOL    HW135741   4.324   2.877  13.499  0.4970  0.4156  0.5583
 8035SOL    HW235742   4.242   2.766  13.549  0.2323 -1.4899  1.3681
 8036SOL     OW35743   2.532   1.360   9.005 -0.1491  0.2741  0.1450
 8036SOL    HW135744   2.590   1.436   8.998 -2.8510  2.4210  1.0087
 8036SOL    HW235745   2.561   1.304   8.933 -0.4192  2.1285 -1.3979
 8037SOL     OW35746   2.994   4.263   4.386 -0.2441  0.6068  0.0249
 8037SOL    HW135747   2.941   4.212   4.324 -2.0943 -1.1912  3.0885
 8037SOL    HW235748   3.061   4.298   4.327  1.1476  0.5655  1.5908
 8038SOL     OW35749   3.350   0.787   4.721 -0.0243  0.1841  0.6577
 8038SOL    HW135750   3.418   0.849   4.696 -0.2000  0.2135  0.2607
 8038SOL    HW235751   3.369   0.716   4.660 -0.5612 -1.2091  2.1089
 8039SOL     OW35752   2.198   2.749   4.655 -0.1777  0.1371 -0.2236
 8039SOL    HW135753   2.183   2.682   4.722 -1.4017 -0.6847 -1.2944
 8039SOL    HW235754   2.195   2.700   4.573  1.6981 -0.6018  0.1480
 8040SOL     OW35755   1.753   2.513  14.695 -0.6417 -0.2053 -0.0064
 8040SOL    HW135756   1.693   2.585  14.674  0.0261  0.6009  0.8547
 8040SOL    HW235757   1.801   2.545  14.772  0.8529 -2.3916 -0.0347
 8041SOL     OW35758   4.169   4.310   8.477 -0.1255 -0.9355  0.3090
 8041SOL    HW135759   4.190   4.313   8.570 -0.1275  0.7565  0.2572
 8041SOL    HW235760   4.073   4.311   8.472 -0.0251  0.9091 -1.2110
 8042SOL     OW35761   3.891   4.116   5.137 -0.2896  0.2201 -0.3819
 8042SOL    HW135762   3.974   4.162   5.122 -1.1884  1.7475 -0.7179
 8042SOL    HW235763   3.920   4.032   5.170 -3.4818 -0.3804  0.8647
 8043SOL     OW35764   3.557   4.316  17.169 -0.3626  0.1228 -0.2281
 8043SOL    HW135765   3.629   4.359  17.122  0.6877 -1.4022 -0.0323
 8043SOL    HW235766   3.478   4.357  17.134 -0.1560  0.9712  0.3201
 8044SOL     OW35767   4.141   1.075   8.984  0.3214  0.0222  0.3028
 8044SOL    HW135768   4.213   1.015   9.004 -0.3143 -1.3435 -1.5375
 8044SOL    HW235769   4.180   1.102   8.900  0.0824 -3.8855 -1.0577
 8045SOL     OW35770   1.773   4.453  13.612 -0.8087 -0.5476 -0.4260
 8045SOL    HW135771   1.810   4.389  13.550 -0.6331  0.6116 -1.5053
 8045SOL    HW235772   1.832   4.527  13.602 -1.0369 -0.4703 -1.1832
 8046SOL     OW35773   2.432   2.783  16.100 -0.7364  0.3301  0.2543
 8046SOL    HW135774   2.375   2.720  16.142 -1.4319  1.0606  0.4136
 8046SOL    HW235775   2.505   2.803  16.158  0.2022 -0.0758 -0.7746
 8047SOL     OW35776   3.320   0.620  11.227 -0.4575  0.1638 -0.1745
 8047SOL    HW135777   3.378   0.564  11.279 -0.4792  1.5966  1.3981
 8047SOL    HW235778   3.265   0.556  11.183 -0.7063  0.5678 -0.4557
 8048SOL     OW35779   3.739   2.584   2.562  0.2975  0.3198 -0.5027
 8048SOL    HW135780   3.714   2.494   2.539  0.4968 -0.7874  3.5028
 8048SOL    HW235781   3.831   2.569   2.582  0.4712 -0.8993 -2.1801
 8049SOL     OW35782   2.371   1.633   5.338 -0.3796 -0.4271 -0.0385
 8049SOL    HW135783   2.292   1.682   5.316 -0.2616 -0.4518 -0.5200
 8049SOL    HW235784   2.409   1.622   5.250 -0.6575 -1.4055 -0.0315
 8050SOL     OW35785   2.113   1.862   3.476 -0.0553  0.3549  0.0613
 8050SOL    HW135786   2.058   1.939   3.489 -0.4987  0.2412 -1.1491
 8050SOL    HW235787   2.194   1.886   3.521 -0.3459  1.9191 -0.2428
 8051SOL     OW35788   4.079   4.437  13.607  0.1563 -0.2423  0.3381
 8051SOL    HW135789   4.125   4.520  13.615 -1.6870  0.7023  1.0851
 8051SOL    HW235790   3.989   4.463  13.627  0.3181  0.5309  0.0483
 8052SOL     OW35791   1.534   4.670  11.056  0.0596 -0.1710  0.1511
 8052SOL    HW135792   1.464   4.694  10.996 -0.8154 -0.6430  0.9698
 8052SOL    HW235793   1.512   4.576  11.055  0.4385 -0.2669  0.5718
 8053SOL     OW35794   2.509   2.484  10.371 -0.0212 -0.2507 -0.1912
 8053SOL    HW135795   2.442   2.512  10.309 -1.4193 -0.9703  0.9908
 8053SOL    HW235796   2.579   2.474  10.306 -1.0360  0.2738 -1.3674
 8054SOL     OW35797   0.318   2.699   8.162 -0.4904  0.3836 -0.5932
 8054SOL    HW135798   0.234   2.655   8.174 -1.8037  2.8216 -0.7912
 8054SOL    HW235799   0.339   2.731   8.249 -1.7706  0.1216 -0.1811
 8055SOL     OW35800   2.206   1.475   5.664  0.1881 -0.2749 -0.0748
 8055SOL    HW135801   2.151   1.553   5.654  1.6408  0.9537  1.6274
 8055SOL    HW235802   2.257   1.507   5.739 -0.6669  0.5951  0.1420
 8056SOL     OW35803   4.643   2.083  16.426  0.0077  0.1145 -0.0809
 8056SOL    HW135804   4.648   2.006  16.483  1.6023 -0.0230 -0.3826
 8056SOL    HW235805   4.665   2.049  16.339 -0.6190  0.3061 -0.3152
 8057SOL     OW35806   3.749   0.720  12.686  0.4624 -0.3433  0.4987
 8057SOL    HW135807   3.808   0.644  12.691  1.6095  0.6027  1.3331
 8057SOL    HW235808   3.668   0.670  12.688  0.4351 -0.3016  0.4270
 8058SOL     OW35809   1.136   2.030   8.403  0.1194  0.4659 -0.2482
 8058SOL    HW135810   1.097   2.109   8.366  0.9572  1.4928  1.0034
 8058SOL    HW235811   1.202   2.010   8.337 -0.1769 -2.1547  0.2472
 8059SOL     OW35812   2.501   2.780   7.573  0.4497  0.1535  0.3424
 8059SOL    HW135813   2.427   2.762   7.514 -0.0763 -0.7888  1.2823
 8059SOL    HW235814   2.473   2.734   7.652  1.5656 -0.0459  0.6106
 8060SOL     OW35815   4.611   3.613   2.626  0.1078 -0.3814  0.1256
 8060SOL    HW135816   4.529   3.623   2.674 -0.3861  2.8390 -1.3562
 8060SOL    HW235817   4.584   3.643   2.539  1.8750 -3.6591 -1.5328
 8061SOL     OW35818   3.548   3.714   8.123  0.0421 -0.0656 -0.0717
 8061SOL    HW135819   3.467   3.663   8.114 -0.1306  0.1556  0.2031
 8061SOL    HW235820   3.559   3.729   8.030  0.4354  0.0358 -0.0077
 8062SOL     OW35821   1.387   4.725  12.345 -0.7784  0.3790 -0.0937
 8062SOL    HW135822   1.363   4.714  12.253  0.9313  2.0376 -0.7435
 8062SOL    HW235823   1.481   4.726  12.329 -1.0107  2.0963 -1.4385
 8063SOL     OW35824   4.512   3.702   6.900 -0.1771  0.2324 -0.1200
 8063SOL    HW135825   4.466   3.684   6.818 -0.3999 -1.4804  0.3814
 8063SOL    HW235826   4.446   3.744   6.955 -0.7258  0.4370 -0.9210
 8064SOL     OW35827   1.692   1.014   4.159 -0.4887  0.2702  0.2178
 8064SOL    HW135828   1.638   1.051   4.229  0.1340  0.9517  0.3519
 8064SOL    HW235829   1.650   0.930   4.146 -0.0651 -0.0710  1.0630
 8065SOL     OW35830   4.234   0.210  16.643  0.4855  0.0504  0.1970
 8065SOL    HW135831   4.311   0.167  16.607  0.8112  0.4049  0.4711
 8065SOL    HW235832   4.157   0.167  16.605  0.0822 -0.4405  1.5740
 8066SOL     OW35833   1.350   2.950   3.755  0.0654  0.3699 -0.9665
 8066SOL    HW135834   1.331   2.857   3.742  2.0310 -0.0724 -0.6473
 8066SOL    HW235835   1.268   2.997   3.739  0.4009  1.5716  0.9206
 8067SOL     OW35836   1.844   2.326   8.599 -0.1450 -0.1939  0.2572
 8067SOL    HW135837   1.754   2.345   8.572 -1.0235  1.1167  4.1273
 8067SOL    HW235838   1.892   2.320   8.516  0.1941 -1.5794  0.5499
 8068SOL     OW35839   0.294   4.001   5.779  0.0966  0.2253  0.3053
 8068SOL    HW135840   0.370   4.007   5.721 -1.9912 -0.1335 -2.4762
 8068SOL    HW235841   0.274   4.094   5.788 -0.6035  0.0085  0.9761
 8069SOL     OW35842   4.093   4.695   2.584 -0.0781 -0.3282 -0.1158
 8069SOL    HW135843   4.029   4.688   2.514 -1.1576 -3.3148  1.1915
 8069SOL    HW235844   4.137   0.039   2.558 -1.7875  0.6238  0.0207
 8070SOL     OW35845   3.516   1.922   3.766 -0.4651  0.4520 -0.0688
 8070SOL    HW135846   3.521   1.912   3.671 -1.1070  1.8865 -0.2506
 8070SOL    HW235847   3.443   1.984   3.769  0.8477  1.8322  3.7050
 8071SOL     OW35848   4.139   4.032   8.282 -0.4902 -0.2454 -0.0751
 8071SOL    HW135849   4.152   3.978   8.204 -3.9013  0.1887 -0.9526
 8071SOL    HW235850   4.119   4.113   8.236 -0.0645  0.3555  0.7887
 8072SOL     OW35851   2.440   0.821   5.677 -0.7915  0.0262 -0.1359
 8072SOL    HW135852   2.512   0.788   5.623 -0.1261  1.6880 -0.2763
 8072SOL    HW235853   2.470   0.892   5.734  1.1107  1.1264 -2.5129
 8073SOL     OW35854   0.078   3.301   4.515 -0.6464  0.2692  0.5322
 8073SOL    HW135855   0.063   3.207   4.507 -0.5475  0.3052 -0.0215
 8073SOL    HW235856   0.172   3.318   4.519 -0.8447  1.1105  1.5091
 8074SOL     OW35857   4.184   0.314   5.043 -0.1505 -0.0326  0.0683
 8074SOL    HW135858   4.240   0.350   5.113  0.2633 -0.7365  0.1015
 8074SOL    HW235859   4.244   0.327   4.969  0.7486  0.1161  0.8152
 8075SOL     OW35860   0.594   4.665   1.792  0.0594 -0.4534  0.3598
 8075SOL    HW135861   0.636   4.608   1.727 -0.6474  1.4295 -1.7436
 8075SOL    HW235862   0.611   4.616   1.873 -0.8906 -1.6211 -0.1276
 8076SOL     OW35863   2.687   2.380   3.785  0.7475  0.6252  0.2059
 8076SOL    HW135864   2.650   2.468   3.783  2.0810  1.1713 -1.2852
 8076SOL    HW235865   2.772   2.405   3.822  0.5049 -1.8217  2.3765
 8077SOL     OW35866   2.056   1.699  10.085  0.5191  0.1212  0.8699
 8077SOL    HW135867   2.062   1.765  10.154 -0.1007  0.6479  0.4175
 8077SOL    HW235868   2.048   1.625  10.146  1.8972  1.3469  2.5450
 8078SOL     OW35869   1.946   4.214   7.337 -0.3986  0.0840  0.4556
 8078SOL    HW135870   1.932   4.182   7.427 -0.9474  3.5240  1.5714
 8078SOL    HW235871   1.855   4.231   7.313 -0.3675  1.3077  1.2240
 8079SOL     OW35872   0.880   0.201   6.924  0.0432  0.0098  0.4077
 8079SOL    HW135873   0.905   0.178   6.835  0.0877  0.1166  0.3932
 8079SOL    HW235874   0.958   0.243   6.961  1.8346 -0.5626 -2.7174
 8080SOL     OW35875   1.134   1.742  16.401 -0.3358 -0.3293  0.0490
 8080SOL    HW135876   1.103   1.783  16.321  0.3285 -0.8245 -0.4596
 8080SOL    HW235877   1.064   1.679  16.417 -0.4993 -0.0175  0.5920
 8081SOL     OW35878   4.272   1.388   3.210  0.3074 -0.4544 -0.3020
 8081SOL    HW135879   4.320   1.360   3.287 -0.2811 -1.2755 -0.2413
 8081SOL    HW235880   4.273   1.309   3.156  1.1750 -0.1508 -0.7374
 8082SOL     OW35881   0.625   0.820   2.723 -0.3892  0.2784 -0.1379
 8082SOL    HW135882   0.544   0.849   2.764  0.1634 -0.6175  1.5665
 8082SOL    HW235883   0.681   0.897   2.736 -0.9267  0.7394 -0.5331
 8083SOL     OW35884   2.214   0.538   5.281 -0.1398  0.2985  0.8688
 8083SOL    HW135885   2.270   0.600   5.327  0.2470  0.7509 -0.1919
 8083SOL    HW235886   2.224   0.470   5.347 -0.4582  1.4632  2.1097
 8084SOL     OW35887   0.641   0.259   4.994 -0.3062  0.0357 -0.6721
 8084SOL    HW135888   0.683   0.294   5.072  0.2940 -1.1508 -0.4594
 8084SOL    HW235889   0.669   0.168   4.986  2.7640  1.0353 -1.1041
 8085SOL     OW35890   4.045   2.543   5.395 -0.2394  0.1382 -0.4084
 8085SOL    HW135891   3.996   2.562   5.476 -0.7879 -0.6426 -0.5529
 8085SOL    HW235892   3.979   2.482   5.360 -1.3577  1.5384 -0.7636
 8086SOL     OW35893   1.709   1.316  14.097 -0.1109 -0.3534  0.0804
 8086SOL    HW135894   1.719   1.369  14.018 -1.4837  0.7213  0.6184
 8086SOL    HW235895   1.777   1.250  14.088  0.5919  0.2848  0.7719
 8087SOL     OW35896   2.744   4.522   3.703  0.0964  0.3189 -0.7548
 8087SOL    HW135897   2.787   4.481   3.778 -1.4667  2.1225  1.1213
 8087SOL    HW235898   2.699   4.591   3.751  3.1137  1.3387  0.6139
 8088SOL     OW35899   3.390   1.360  11.726  0.0330 -0.0734  0.8259
 8088SOL    HW135900   3.334   1.285  11.748  0.5699 -0.5784  0.4481
 8088SOL    HW235901   3.328   1.432  11.711 -0.4615 -0.4319  1.1170
 8089SOL     OW35902   4.418   4.047   3.302 -0.3559 -0.3190 -0.2098
 8089SOL    HW135903   4.405   4.030   3.209 -2.2816 -0.0951  0.0246
 8089SOL    HW235904   4.335   4.093   3.314 -0.7302 -1.0265 -0.0707
 8090SOL     OW35905   3.128   0.844   2.415  0.0994  0.5361 -0.7110
 8090SOL    HW135906   3.094   0.917   2.466  2.1998  1.7843 -1.0938
 8090SOL    HW235907   3.055   0.784   2.403 -0.4536  1.0430  0.1270
 8091SOL     OW35908   2.173   1.162  11.825 -0.5337  0.4091 -0.2186
 8091SOL    HW135909   2.143   1.071  11.814 -1.1821  0.6793 -0.7157
 8091SOL    HW235910   2.094   1.209  11.798 -3.0147 -1.9427  2.9401
 8092SOL     OW35911   4.232   2.750   4.910 -0.4389 -0.2489 -0.4540
 8092SOL    HW135912   4.173   2.758   4.985  0.9122  1.3972  0.4463
 8092SOL    HW235913   4.218   2.827   4.854  0.9521 -0.9192 -1.7094
 8093SOL     OW35914   0.199   0.085   2.236  0.2260 -0.3854 -0.3965
 8093SOL    HW135915   0.192   0.144   2.161 -1.1301  0.2785  0.2573
 8093SOL    HW235916   0.128   0.121   2.289  0.6567  0.5381 -0.4358
 8094SOL     OW35917   3.352   3.269   8.989 -0.1880 -0.2135  0.0246
 8094SOL    HW135918   3.283   3.320   9.030  0.3440 -0.0133  0.6704
 8094SOL    HW235919   3.377   3.211   9.061 -0.6127  1.2013  1.3079
 8095SOL     OW35920   4.289   0.460   2.117  0.4308  0.1577 -0.1550
 8095SOL    HW135921   4.223   0.530   2.120 -0.7140 -1.0031  1.8900
 8095SOL    HW235922   4.235   0.381   2.128  0.0957  0.5564  1.0781
 8096SOL     OW35923   2.119   4.060   5.590 -0.2061  0.3936  0.0334
 8096SOL    HW135924   2.067   4.130   5.630 -0.8799 -0.3285  0.4180
 8096SOL    HW235925   2.065   3.989   5.623  1.0488  0.3439  2.0035
 8097SOL     OW35926   0.339   2.738   5.454 -0.7727  0.2772  0.4046
 8097SOL    HW135927   0.300   2.826   5.454 -0.4198  0.4317  0.1622
 8097SOL    HW235928   0.358   2.718   5.363  1.8587  0.6917  0.8635
 8098SOL     OW35929   1.074   1.290   2.593 -0.1103 -0.0694 -0.5301
 8098SOL    HW135930   1.056   1.229   2.522 -0.6906 -0.1273 -0.3355
 8098SOL    HW235931   1.011   1.362   2.589  1.0682  1.0394  0.5261
 8099SOL     OW35932   0.238   4.051   7.247 -0.4730 -0.0750 -0.2068
 8099SOL    HW135933   0.228   3.973   7.301 -0.7190 -0.6655 -1.1073
 8099SOL    HW235934   0.289   4.108   7.305 -1.4880  0.1910  0.4269
 8100SOL     OW35935   1.048   2.340  13.270  0.2353 -0.4442  0.2408
 8100SOL    HW135936   1.062   2.359  13.178  0.9292  3.4502  1.1178
 8100SOL    HW235937   1.097   2.408  13.318  1.3064 -0.7512 -0.4369
 8101SOL     OW35938   3.058   3.535   2.608  0.1419 -0.0939 -0.2053
 8101SOL    HW135939   2.993   3.510   2.674  0.9681  0.5897  0.8690
 8101SOL    HW235940   3.124   3.467   2.608 -0.1111 -0.3351  0.1800
 8102SOL     OW35941   3.158   0.275   5.253 -0.7301  0.1219  0.1631
 8102SOL    HW135942   3.181   0.277   5.346  3.6517 -2.0929 -0.9033
 8102SOL    HW235943   3.237   0.301   5.206 -0.9623 -2.5401 -1.6678
 8103SOL     OW35944   2.873   2.661   3.577 -0.3257 -0.5636  0.0231
 8103SOL    HW135945   2.930   2.718   3.629 -0.2798  0.1110 -0.7773
 8103SOL    HW235946   2.785   2.682   3.610 -0.6058 -2.0199  0.2029
 8104SOL     OW35947   0.985   3.165  11.618 -0.2168  0.4633  0.2620
 8104SOL    HW135948   1.069   3.121  11.636 -0.8175 -0.6877  0.2580
 8104SOL    HW235949   0.933   3.091  11.585 -0.2357  0.9937 -0.8989
 8105SOL     OW35950   4.600   0.140   3.034  0.5957 -0.2114  0.2336
 8105SOL    HW135951   4.635   0.186   2.958  2.3352 -1.9980 -0.0328
 8105SOL    HW235952   4.528   0.088   2.997 -0.4218  1.4196 -0.0899
 8106SOL     OW35953   1.377   3.014  13.141  0.5400 -0.0891  0.7588
 8106SOL    HW135954   1.443   3.080  13.120  0.8436 -0.6157  0.0503
 8106SOL    HW235955   1.400   2.951  13.072  0.8281  2.3386 -1.3593
 8107SOL     OW35956   4.090   3.471   2.887 -0.1825 -0.3390 -0.7947
 8107SOL    HW135957   4.014   3.416   2.866 -0.8611  1.0611 -2.0170
 8107SOL    HW235958   4.106   3.513   2.802 -0.7652  1.0060 -0.2315
 8108SOL     OW35959   1.611   2.943   9.700 -0.4166 -0.5460 -0.1103
 8108SOL    HW135960   1.616   2.866   9.643 -0.6683  0.8632 -1.9924
 8108SOL    HW235961   1.639   2.900   9.781 -1.8060 -1.3367 -0.0520
 8109SOL     OW35962   2.020   2.021   8.783 -0.2504  0.4079  0.5077
 8109SOL    HW135963   1.933   2.057   8.765  0.1468  0.0339 -2.1826
 8109SOL    HW235964   2.058   2.097   8.827  1.4625  0.5180 -1.2078
 8110SOL     OW35965   3.871   2.074   3.368  0.1354 -0.0988 -0.0136
 8110SOL    HW135966   3.808   2.130   3.323  0.4914  0.4822  0.2092
 8110SOL    HW235967   3.915   2.136   3.426  2.1701 -0.7401 -0.8583
 8111SOL     OW35968   0.298   0.373   6.300  0.5439 -0.0254 -0.8530
 8111SOL    HW135969   0.391   0.369   6.321  0.7915  2.8694 -1.4340
 8111SOL    HW235970   0.256   0.417   6.374  3.5338  0.0132  0.8221
 8112SOL     OW35971   3.300   1.615   8.379  0.4721  0.4353 -0.4122
 8112SOL    HW135972   3.211   1.590   8.406  0.7155  1.0179  0.9408
 8112SOL    HW235973   3.290   1.684   8.314 -2.1441  0.5839  0.1281
 8113SOL     OW35974   1.530   4.408  11.069 -0.3912  0.4469 -0.1266
 8113SOL    HW135975   1.512   4.340  11.003 -1.7801 -1.4264  2.1931
 8113SOL    HW235976   1.507   4.356  11.146 -0.7813  0.3351 -0.3205
 8114SOL     OW35977   1.046   4.412   6.763 -0.0407 -0.0482  0.6898
 8114SOL    HW135978   1.017   4.393   6.852 -1.5212 -0.3801  0.1255
 8114SOL    HW235979   0.964   4.448   6.729 -0.5824 -2.4818 -0.5500
 8115SOL     OW35980   2.447   2.048   7.435 -0.0700  0.0683 -0.0338
 8115SOL    HW135981   2.424   2.140   7.420 -0.4696  0.1542  1.1432
 8115SOL    HW235982   2.401   2.023   7.515 -1.3606  0.0832 -0.7836
 8116SOL     OW35983   3.212   3.884  12.361  0.0195 -0.3545 -0.3142
 8116SOL    HW135984   3.149   3.944  12.400 -1.7219 -2.1520 -0.3629
 8116SOL    HW235985   3.295   3.924  12.387 -0.8555  2.0371 -1.1883
 8117SOL     OW35986   3.887   1.378   5.685  0.0236  0.5997 -0.0297
 8117SOL    HW135987   3.840   1.321   5.746  2.1994 -2.2600 -1.0293
 8117SOL    HW235988   3.813   1.435   5.666 -0.3326 -0.1965 -1.0418
 8118SOL     OW35989   0.277   4.454   3.412 -0.2664  0.0447 -0.2842
 8118SOL    HW135990   0.357   4.486   3.370  0.1178 -2.1064 -1.1974
 8118SOL    HW235991   0.217   4.524   3.386  0.0814  1.5964  3.0953
 8119SOL     OW35992   2.954   1.592   6.155  0.1053 -0.4835 -0.5688
 8119SOL    HW135993   2.932   1.530   6.225  2.2460 -0.7518 -0.1390
 8119SOL    HW235994   2.939   1.541   6.075  2.6302 -2.4263  0.2247
 8120SOL     OW35995   1.461   1.247   9.190 -0.4201  0.5980 -0.4818
 8120SOL    HW135996   1.479   1.340   9.177 -2.5746  1.6236  3.7067
 8120SOL    HW235997   1.367   1.260   9.208  0.0320 -0.5103  2.7295
 8121SOL     OW35998   2.453   0.376   6.437 -0.4081  0.3251  0.1805
 8121SOL    HW135999   2.392   0.310   6.405  0.1005  0.5183 -1.1877
 8121SOL    HW236000   2.408   0.454   6.402  0.8168  0.3668 -1.2850
 8122SOL     OW36001   0.349   0.464   7.097 -0.6290  0.7339 -0.2864
 8122SOL    HW136002   0.294   0.530   7.056 -3.5454 -1.8605 -0.5357
 8122SOL    HW236003   0.434   0.507   7.087 -0.5624  0.6470 -0.1108
 8123SOL     OW36004   2.919   1.441   5.931 -0.4589  0.3225 -0.2903
 8123SOL    HW136005   2.915   1.484   5.846 -0.1435 -0.7456 -0.8510
 8123SOL    HW236006   2.869   1.368   5.895  1.1001 -1.6152  1.4594
 8124SOL     OW36007   2.037   1.148   1.209 -0.7646 -0.0295 -0.5142
 8124SOL    HW136008   2.080   1.111   1.132  1.8104  2.1419 -0.1459
 8124SOL    HW236009   2.049   1.239   1.182 -2.0210  0.4795  0.6339
 8125SOL     OW36010   1.939   1.396   4.682  0.0766 -0.5189  0.0751
 8125SOL    HW136011   2.017   1.393   4.627  0.9062 -0.2011  1.2359
 8125SOL    HW236012   1.956   1.331   4.751  0.3019  1.8069  2.2098
 8126SOL     OW36013   4.375   0.084  12.825  0.6874  0.3587 -0.3113
 8126SOL    HW136014   4.304   0.039  12.780  0.1826 -0.2552  1.1085
 8126SOL    HW236015   4.447   0.023  12.809 -0.0382 -2.0074  5.5022
 8127SOL     OW36016   0.812   1.858   5.209  0.2701  0.3277  0.4591
 8127SOL    HW136017   0.887   1.916   5.194 -0.5096  1.1160 -0.3560
 8127SOL    HW236018   0.810   1.848   5.305  0.3444 -0.0029  0.4257
 8128SOL     OW36019   2.618   4.519   5.824  0.0029  0.2597 -0.6719
 8128SOL    HW136020   2.535   4.565   5.838 -1.6740 -2.8568 -0.5320
 8128SOL    HW236021   2.603   4.425   5.831 -0.9133  0.4944  0.5212
 8129SOL     OW36022   3.750   0.191   3.612  0.5572 -1.2784 -0.0364
 8129SOL    HW136023   3.844   0.188   3.626  0.7847  1.7683 -0.8538
 8129SOL    HW236024   3.741   0.164   3.520 -0.5504 -1.3694  0.0920
 8130SOL     OW36025   1.191   2.749   7.919  0.1731  0.2459  0.4947
 8130SOL    HW136026   1.165   2.743   8.011  2.1225 -1.8883  0.8967
 8130SOL    HW236027   1.187   2.842   7.897  3.3616  0.5003  0.9894
 8131SOL     OW36028   1.313   0.427   5.364  0.3187 -0.7215  0.3411
 8131SOL    HW136029   1.238   0.411   5.422 -0.5782 -0.0985 -0.6454
 8131SOL    HW236030   1.302   0.521   5.350 -2.1769 -0.8531  1.2725
 8132SOL     OW36031   2.880   3.992  12.679 -0.0748 -0.1045  0.2771
 8132SOL    HW136032   2.875   3.931  12.753 -2.0263 -0.4732 -0.1710
 8132SOL    HW236033   2.877   4.081  12.716  0.0028 -1.7145  4.1910
 8133SOL     OW36034   2.337   0.057   4.789  0.2581 -0.3460 -0.2114
 8133SOL    HW136035   2.377   4.733   4.727  0.6327  0.3644 -0.6748
 8133SOL    HW236036   2.336   0.002   4.867 -0.7131  0.4837  0.3507
 8134SOL     OW36037   4.328   1.060   7.519 -0.0726 -0.1802 -0.0858
 8134SOL    HW136038   4.394   0.991   7.506 -1.0421 -1.2720  0.7979
 8134SOL    HW236039   4.367   1.144   7.497  1.9118 -1.5087 -1.7362
 8135SOL     OW36040   2.702   3.676   1.814 -0.6164  0.4753  0.1575
 8135SOL    HW136041   2.657   3.758   1.831 -0.0238  0.4096  2.1104
 8135SOL    HW236042   2.714   3.647   1.905  1.0727  0.8173  0.0398
 8136SOL     OW36043   0.858   1.465   7.220  0.3877 -0.0127 -0.5659
 8136SOL    HW136044   0.804   1.509   7.286 -1.0641  0.6026 -2.1608
 8136SOL    HW236045   0.853   1.530   7.150 -0.1770  0.6603  0.0964
 8137SOL     OW36046   1.125   0.144   3.850  0.8786 -0.5496  0.0826
 8137SOL    HW136047   1.203   0.164   3.799  0.9919  0.3174  0.5833
 8137SOL    HW236048   1.060   0.142   3.780  0.7148 -1.3699  0.2644
 8138SOL     OW36049   3.612   4.702   4.613  0.2056 -1.0206 -0.0260
 8138SOL    HW136050   3.547   0.002   4.673 -0.5860 -1.8300 -0.3742
 8138SOL    HW236051   3.563   4.685   4.532  0.4642  1.6127 -0.7397
 8139SOL     OW36052   3.705   1.641   2.701  0.5274  0.3521  0.1248
 8139SOL    HW136053   3.687   1.714   2.641  1.1553 -0.6981 -1.3130
 8139SOL    HW236054   3.649   1.659   2.776  0.1452  1.0550 -0.3278
 8140SOL     OW36055   4.221   2.060   5.645  0.1831  0.2458  0.0181
 8140SOL    HW136056   4.168   2.137   5.668 -1.4366 -1.0106  0.5291
 8140SOL    HW236057   4.160   1.998   5.605  2.2157 -2.2340  0.7345
 8141SOL     OW36058   0.697   0.499   8.740 -0.3539 -0.3282  1.1246
 8141SOL    HW136059   0.680   0.500   8.834  0.3198  2.7445  1.2135
 8141SOL    HW236060   0.777   0.445   8.742  0.4995  0.9660  2.2310
 8142SOL     OW36061   3.447   2.667   4.619 -0.3897  0.1229  0.3196
 8142SOL    HW136062   3.455   2.620   4.536  1.0053  0.3625  0.3183
 8142SOL    HW236063   3.391   2.741   4.598 -0.1199 -0.8272 -3.6897
 8143SOL     OW36064   2.278   1.130   6.527 -0.2541  0.5510 -0.1161
 8143SOL    HW136065   2.324   1.074   6.590  0.2357  1.4015  0.2783
 8143SOL    HW236066   2.241   1.192   6.589 -0.4134  1.3961 -1.0587
 8144SOL     OW36067   4.732   3.882   7.623  0.5966 -0.1676 -0.0775
 8144SOL    HW136068   4.678   3.916   7.552 -2.6850 -1.8548  1.6539
 8144SOL    HW236069   4.734   3.955   7.686  0.1053  0.4253 -0.7511
 8145SOL     OW36070   3.227   3.427   3.280 -0.0114 -0.1591 -0.0134
 8145SOL    HW136071   3.220   3.494   3.349 -0.0262  1.0017 -1.1370
 8145SOL    HW236072   3.242   3.342   3.320 -1.6302 -2.4014 -4.2143
 8146SOL     OW36073   0.655   0.903  10.197  0.6350  0.3904  0.2499
 8146SOL    HW136074   0.675   0.989  10.232 -0.3644  0.9054 -0.4508
 8146SOL    HW236075   0.743   0.865  10.193  0.3609 -0.6218  4.0572
 8147SOL     OW36076   0.960   2.473  12.714  0.1065 -0.7708 -0.0038
 8147SOL    HW136077   0.874   2.447  12.682  0.1324  0.1787 -0.8273
 8147SOL    HW236078   0.957   2.446  12.806 -1.3665 -0.7032 -0.0342
 8148SOL     OW36079   3.234   0.913   6.968  0.4228  0.2693  0.1802
 8148SOL    HW136080   3.319   0.953   6.988 -1.0602  2.1184  2.8294
 8148SOL    HW236081   3.229   0.841   7.031  0.8401  1.5957  1.7300
 8149SOL     OW36082   2.772   0.889   3.742 -0.7028  0.2050 -0.0312
 8149SOL    HW136083   2.710   0.961   3.725  0.0863  0.6095 -1.1780
 8149SOL    HW236084   2.744   0.835   3.668  1.9086 -1.2711  0.0819
 8150SOL     OW36085   4.700   4.502   9.264 -0.0557  0.5952 -0.5446
 8150SOL    HW136086   4.612   4.487   9.299  1.2460 -0.7811  2.1271
 8150SOL    HW236087   4.710   4.409   9.246 -2.9388  0.3812 -0.9151
 8151SOL     OW36088   4.712   4.130  13.600 -0.1011  0.0338  0.0562
 8151SOL    HW136089   4.730   4.179  13.680  0.5239 -1.2303  0.6918
 8151SOL    HW236090   4.638   4.176  13.560  0.0858 -1.0449 -1.5253
 8152SOL     OW36091   4.628   0.592   4.731 -0.3444  0.4282  0.0424
 8152SOL    HW136092   4.629   0.571   4.637  1.1702  0.0940  0.1411
 8152SOL    HW236093   4.624   0.688   4.729  0.6474  0.4797  0.6774
 8153SOL     OW36094   2.054   0.010   0.352 -0.2029 -0.6101  0.2853
 8153SOL    HW136095   2.063   4.658   0.385  3.4538 -0.3073  0.1512
 8153SOL    HW236096   1.967   0.034   0.385  0.6512  3.8979 -0.7333
 8154SOL     OW36097   0.458   4.554  15.449  0.1106  0.8565  0.2754
 8154SOL    HW136098   0.394   4.483  15.449  2.4155 -1.2418  0.8687
 8154SOL    HW236099   0.424   4.594  15.369 -2.2235  0.2654  0.9691
 8155SOL     OW36100   0.878   1.179   4.352  0.2579  1.0859 -0.4764
 8155SOL    HW136101   0.887   1.253   4.292  1.2324  1.8004  0.5665
 8155SOL    HW236102   0.958   1.128   4.338  0.2954  1.1731 -0.5685
 8156SOL     OW36103   2.666   3.359   8.100  0.0642  0.3245  0.9587
 8156SOL    HW136104   2.670   3.274   8.142  0.4359 -0.3081 -0.3708
 8156SOL    HW236105   2.620   3.409   8.168 -1.3126 -1.1740  1.1195
 8157SOL     OW36106   0.638   1.601  14.053 -0.0250  0.2971  0.5130
 8157SOL    HW136107   0.550   1.634  14.034  0.5655 -0.1902 -3.0696
 8157SOL    HW236108   0.623   1.527  14.113 -2.5261  0.2075 -0.2379
 8158SOL     OW36109   0.445   2.579   9.054 -0.0360 -0.0162 -0.0937
 8158SOL    HW136110   0.488   2.657   9.089 -0.8086  1.2955 -2.1479
 8158SOL    HW236111   0.518   2.518   9.067 -0.0977  0.0757  0.6791
 8159SOL     OW36112   4.412   1.322   7.397 -0.6294 -0.3699  0.0309
 8159SOL    HW136113   4.365   1.374   7.332 -0.5983  0.2273  0.4873
 8159SOL    HW236114   4.505   1.335   7.378 -1.0516  0.9338 -1.1270
 8160SOL     OW36115   4.105   0.551  11.804  0.5245  0.3008  0.1483
 8160SOL    HW136116   4.070   0.587  11.723  0.4854  1.8882  0.8550
 8160SOL    HW236117   4.175   0.495  11.772 -1.4404 -0.8174 -2.1746
 8161SOL     OW36118   1.804   1.092  12.820  0.2501  0.1690  0.3897
 8161SOL    HW136119   1.889   1.062  12.851  0.5863  1.3408  0.6145
 8161SOL    HW236120   1.755   1.012  12.804  0.6097  0.0613 -0.1297
 8162SOL     OW36121   4.251   3.726  13.795 -0.2086 -0.5268 -0.3228
 8162SOL    HW136122   4.336   3.748  13.834 -1.4957  0.6890  1.8012
 8162SOL    HW236123   4.188   3.797  13.809 -0.6495 -0.8579 -0.6211
 8163SOL     OW36124   1.833   1.023   1.645  0.2202  0.0495 -0.2106
 8163SOL    HW136125   1.827   1.020   1.549  0.3423  1.4185 -0.2646
 8163SOL    HW236126   1.792   1.109   1.647  0.0277 -0.0907  1.4299
 8164SOL     OW36127   0.989   3.914   4.229  0.3291 -0.0232 -0.4692
 8164SOL    HW136128   0.897   3.888   4.221  0.2364  0.2544 -0.3075
 8164SOL    HW236129   1.008   3.987   4.170 -0.2505  0.8839  0.4572
 8165SOL     OW36130   0.237   2.931   1.528 -0.5412  0.1397  0.2085
 8165SOL    HW136131   0.308   2.994   1.537  1.8583 -2.1778 -2.5758
 8165SOL    HW236132   0.177   2.987   1.480  0.3734  0.1766 -0.8827
 8166SOL     OW36133   0.638   0.478   7.078 -0.0807  0.2326 -0.3728
 8166SOL    HW136134   0.645   0.573   7.075 -1.4209  0.4054  1.3876
 8166SOL    HW236135   0.729   0.448   7.082 -0.0783  0.4608  1.6837
 8167SOL     OW36136   1.132   1.529  15.247 -0.6002  0.0209  0.0922
 8167SOL    HW136137   1.210   1.581  15.227 -1.4790  1.0179 -0.6980
 8167SOL    HW236138   1.143   1.496  15.336  1.4226  1.6295  0.4417
 8168SOL     OW36139   0.981   2.539   6.804 -0.2639 -0.7339  0.1626
 8168SOL    HW136140   1.042   2.531   6.878  0.3736 -0.3258 -0.3160
 8168SOL    HW236141   0.901   2.550   6.855  0.2010  1.0764  0.4923
 8169SOL     OW36142   2.630   0.664   2.708  0.8503 -0.4822  0.0679
 8169SOL    HW136143   2.610   0.685   2.800 -1.6513  2.7506 -1.2081
 8169SOL    HW236144   2.698   0.731   2.699  0.0637  0.4672  1.1460
 8170SOL     OW36145   3.207   3.048  15.511  0.1650 -0.3197 -0.2329
 8170SOL    HW136146   3.271   3.008  15.570  1.4873  1.9288 -0.1362
 8170SOL    HW236147   3.125   3.006  15.536  0.4676 -1.1246 -0.5739
 8171SOL     OW36148   3.388   4.250   6.490 -0.1819 -0.4092 -0.0890
 8171SOL    HW136149   3.369   4.182   6.426  1.4025 -0.3785 -0.6091
 8171SOL    HW236150   3.460   4.299   6.450  1.1956 -1.0298  1.6192
 8172SOL     OW36151   3.013   1.423  11.904  0.5258 -0.1450  0.1857
 8172SOL    HW136152   2.954   1.483  11.950 -2.3834 -0.6666 -2.8202
 8172SOL    HW236153   3.079   1.401  11.969  0.8402  2.6158  0.7871
 8173SOL     OW36154   4.158   0.646   5.081  0.3839  0.3216 -0.1146
 8173SOL    HW136155   4.232   0.688   5.124 -0.2539 -0.4076  1.6968
 8173SOL    HW236156   4.204   0.568   5.052  0.1318 -0.0380  0.4528
 8174SOL     OW36157   0.065   0.743   6.564 -0.1611 -0.1281  0.5659
 8174SOL    HW136158   0.080   0.783   6.478 -1.2215 -1.0118 -0.0155
 8174SOL    HW236159   4.735   0.677   6.545 -0.4462  0.3744 -0.1886
 8175SOL     OW36160   1.532   4.322   6.215 -0.0179  0.3449 -0.4618
 8175SOL    HW136161   1.456   4.308   6.160 -1.4820  1.8711  1.1442
 8175SOL    HW236162   1.490   4.328   6.301 -2.8592 -0.9533 -1.7888
 8176SOL     OW36163   1.826   3.629   2.583 -0.2512 -0.3108 -0.0420
 8176SOL    HW136164   1.781   3.641   2.500  1.8138 -0.3291 -1.1698
 8176SOL    HW236165   1.846   3.535   2.574  1.7269  0.1150 -0.1232
 8177SOL     OW36166   3.590   2.996   9.536 -0.2046 -0.3620  0.5015
 8177SOL    HW136167   3.515   2.972   9.591 -0.8219  0.5118  0.0501
 8177SOL    HW236168   3.666   2.994   9.594  0.4459 -1.9960 -0.4299
 8178SOL     OW36169   0.721   1.749   0.682 -0.4337 -0.1775 -0.8472
 8178SOL    HW136170   0.740   1.658   0.659  0.1221 -0.3804  0.4084
 8178SOL    HW236171   0.625   1.750   0.678 -0.5241 -2.5787  0.7024
 8179SOL     OW36172   3.960   1.808  14.883 -0.3987 -0.0394  0.4878
 8179SOL    HW136173   3.868   1.783  14.892 -0.8389  1.1558 -0.8068
 8179SOL    HW236174   3.949   1.903  14.878 -2.3043 -0.3599 -1.1586
 8180SOL     OW36175   3.764   4.497   8.874 -0.1795 -0.1133  0.0310
 8180SOL    HW136176   3.678   4.537   8.867 -0.3623 -0.3691  0.8212
 8180SOL    HW236177   3.750   4.407   8.844 -0.0857 -0.6484  1.5884
 8181SOL     OW36178   0.650   1.034   4.281  0.3005 -0.6043  0.4558
 8181SOL    HW136179   0.711   1.081   4.337 -0.3783 -0.0007  0.6972
 8181SOL    HW236180   0.698   0.952   4.268  1.8738  0.3463  0.2562
 8182SOL     OW36181   1.828   1.958  12.138  0.1024  0.3378  0.2807
 8182SOL    HW136182   1.898   1.928  12.196  0.1840  0.4096  0.2185
 8182SOL    HW236183   1.873   1.983  12.058  0.3508  1.7088  0.8581
 8183SOL     OW36184   0.294   2.028  11.341  0.1568  0.0411  0.3958
 8183SOL    HW136185   0.213   1.994  11.304 -0.2406  2.0272 -0.5016
 8183SOL    HW236186   0.276   2.121  11.352  0.2205 -0.1803  2.3680
 8184SOL     OW36187   3.737   2.401  16.807  0.2205  0.4326  0.4816
 8184SOL    HW136188   3.828   2.408  16.834  0.3094  3.2455 -0.4730
 8184SOL    HW236189   3.742   2.416  16.713 -1.0868  0.4864  0.4108
 8185SOL     OW36190   1.571   1.767   1.972 -0.0632  0.1955 -0.2264
 8185SOL    HW136191   1.648   1.769   2.028 -0.3542  1.3263  0.1268
 8185SOL    HW236192   1.615   1.726   1.897 -1.7174 -0.5315 -0.8166
 8186SOL     OW36193   0.491   2.006   4.557 -0.0763  0.0429  0.1906
 8186SOL    HW136194   0.416   2.048   4.597  0.6206  0.8409  0.6687
 8186SOL    HW236195   0.503   1.942   4.627 -1.0263 -0.9374 -0.5424
 8187SOL     OW36196   3.093   3.155   1.752 -0.1875  0.4715 -0.5152
 8187SOL    HW136197   3.024   3.092   1.731  2.2030 -1.6420 -2.0066
 8187SOL    HW236198   3.150   3.150   1.675  0.4842  0.6800 -0.0236
 8188SOL     OW36199   0.867   2.830   8.191 -0.3675  0.1765 -0.6247
 8188SOL    HW136200   0.886   2.871   8.106 -0.8614 -1.3281 -1.4624
 8188SOL    HW236201   0.772   2.839   8.191 -0.3440  0.4431 -1.8289
 8189SOL     OW36202   0.097   1.836  13.296 -0.3900  0.3506  0.2584
 8189SOL    HW136203   0.011   1.801  13.272 -0.0506 -1.4025  1.5467
 8189SOL    HW236204   0.094   1.894  13.220  0.2897 -0.1300 -0.1437
 8190SOL     OW36205   1.907   1.654  14.358  0.2133  0.0181  0.0230
 8190SOL    HW136206   1.903   1.734  14.410 -1.0452 -0.2010  0.2730
 8190SOL    HW236207   1.979   1.678  14.300 -0.1812  2.5174  0.5824
 8191SOL     OW36208   3.813   0.841   9.361  0.2883  0.5460 -0.4541
 8191SOL    HW136209   3.780   0.757   9.393  2.0660  0.5533  1.3460
 8191SOL    HW236210   3.767   0.899   9.423  0.3076 -2.0411  1.9584
 8192SOL     OW36211   1.033   0.112   3.549  0.1957  0.0390  0.7153
 8192SOL    HW136212   0.977   0.036   3.565  0.4379 -0.2217  0.3068
 8192SOL    HW236213   0.974   0.170   3.502 -0.6173 -1.9286 -0.7142
 8193SOL     OW36214   3.979   1.882   7.620 -0.6752  0.0064 -0.4984
 8193SOL    HW136215   4.065   1.897   7.658 -0.4973 -1.0507 -0.4948
 8193SOL    HW236216   3.933   1.959   7.655  2.4309  1.5156  0.2134
 8194SOL     OW36217   3.301   3.489   2.291 -1.3711 -0.2125 -0.6199
 8194SOL    HW136218   3.342   3.403   2.293 -0.5752  0.1733  0.1855
 8194SOL    HW236219   3.322   3.516   2.202  0.0476 -3.0788 -1.1402
 8195SOL     OW36220   1.369   1.779   9.313  0.0826  0.0126 -0.2893
 8195SOL    HW136221   1.280   1.768   9.346  0.6053 -1.1597  0.7275
 8195SOL    HW236222   1.384   1.700   9.262 -1.0121  0.1760 -0.8717
 8196SOL     OW36223   0.587   3.855  17.052  0.5428  0.0617 -0.4707
 8196SOL    HW136224   0.514   3.899  17.096  0.0392 -1.1472 -0.0985
 8196SOL    HW236225   0.665   3.868  17.106  1.4194 -2.3673 -1.1725
 8197SOL     OW36226   0.261   2.620   9.288 -0.5423 -0.3331  0.2522
 8197SOL    HW136227   0.310   2.650   9.364 -1.6443  1.0215  0.4392
 8197SOL    HW236228   0.324   2.568   9.239  0.3159  2.1503 -1.2962
 8198SOL     OW36229   2.872   0.224   8.776  0.0059 -0.6377  0.3660
 8198SOL    HW136230   2.870   0.152   8.839  2.1624 -1.0547 -0.0800
 8198SOL    HW236231   2.911   0.290   8.834 -0.9773  0.1805  0.1125
 8199SOL     OW36232   3.123   3.691   1.987 -0.0682  0.1110 -0.4844
 8199SOL    HW136233   3.188   3.761   1.977  1.8232 -1.7844 -1.5207
 8199SOL    HW236234   3.081   3.715   2.069  0.9123 -0.5385  0.2077
 8200SOL     OW36235   0.461   2.334   4.747  0.0024 -0.0027  0.7423
 8200SOL    HW136236   0.485   2.368   4.834  0.1131 -1.7719  1.4099
 8200SOL    HW236237   0.551   2.318   4.719 -0.1718  0.8736 -0.2814
 8201SOL     OW36238   4.066   0.632   3.123 -0.0611  0.1610 -0.6968
 8201SOL    HW136239   4.004   0.658   3.055 -0.8963  0.1873  0.0875
 8201SOL    HW236240   4.132   0.587   3.070 -0.5296 -2.2838  0.8047
 8202SOL     OW36241   3.295   3.083   3.933 -0.2698 -0.3123  0.1534
 8202SOL    HW136242   3.322   3.053   4.020 -0.5466  0.0734  0.3756
 8202SOL    HW236243   3.292   2.992   3.905 -2.8693 -0.6932  1.6202
 8203SOL     OW36244   3.124   2.385   5.181  0.0663  0.3313  0.3850
 8203SOL    HW136245   3.198   2.327   5.165 -1.4985 -1.4248 -0.3887
 8203SOL    HW236246   3.151   2.452   5.243 -0.6153  0.4060  0.6071
 8204SOL     OW36247   0.236   2.077   4.871  0.8163 -0.2864  0.3485
 8204SOL    HW136248   0.210   1.992   4.906  2.0123 -0.7720  0.0562
 8204SOL    HW236249   0.291   2.099   4.946  1.7211 -1.5323  0.0597
 8205SOL     OW36250   3.302   0.672   8.827  0.3805  0.2487  0.2357
 8205SOL    HW136251   3.382   0.655   8.877  0.4241 -1.7042 -0.5025
 8205SOL    HW236252   3.326   0.747   8.773  1.5077 -1.1194 -1.1677
 8206SOL     OW36253   0.067   1.335   7.937 -0.5197  0.2714 -0.4077
 8206SOL    HW136254   0.007   1.280   7.887 -1.8026  1.1661  0.1703
 8206SOL    HW236255   0.122   1.268   7.979 -0.2160  0.5251 -0.3995
 8207SOL     OW36256   1.748   2.492   2.602 -0.3798 -0.3205 -0.0508
 8207SOL    HW136257   1.752   2.489   2.506  1.3742 -2.9560  0.1258
 8207SOL    HW236258   1.774   2.581   2.624  0.1162 -0.6770  0.7813
 8208SOL     OW36259   1.833   0.254   4.544  0.1219  0.1667 -0.0101
 8208SOL    HW136260   1.808   0.191   4.611 -0.9052 -0.2715 -0.7981
 8208SOL    HW236261   1.924   0.232   4.525  0.8650  2.0441  1.3500
 8209SOL     OW36262   4.223   1.189   3.017 -0.3928 -0.3217  0.8880
 8209SOL    HW136263   4.234   1.101   2.982  0.8578  0.4258 -0.5852
 8209SOL    HW236264   4.277   1.231   2.951 -0.5541  0.8442  1.4961
 8210SOL     OW36265   4.453   0.470   7.057  0.0260 -0.0591  0.2099
 8210SOL    HW136266   4.426   0.557   7.086 -2.1401  0.1239 -2.3485
 8210SOL    HW236267   4.510   0.444   7.129 -0.2495 -0.8061  0.1646
 8211SOL     OW36268   2.062   1.306   0.183 -0.4991  0.3625 -0.7818
 8211SOL    HW136269   2.052   1.384   0.239  1.5066  0.2028 -0.2153
 8211SOL    HW236270   2.155   1.292   0.165 -0.1082 -0.9047  2.1681
 8212SOL     OW36271   4.579   2.720   7.578 -0.5843  0.3988 -0.4874
 8212SOL    HW136272   4.533   2.665   7.514 -1.0557 -2.0480  1.9482
 8212SOL    HW236273   4.636   2.771   7.521  0.2947  1.0108  0.9648
 8213SOL     OW36274   3.171   2.978  17.714 -0.1026 -0.0721  0.0618
 8213SOL    HW136275   3.208   3.055  17.671  2.1053 -2.8181 -2.9699
 8213SOL    HW236276   3.086   3.020  17.731 -1.3789 -1.1462 -3.5176
 8214SOL     OW36277   1.207   1.671   7.012 -0.0830  0.1208  0.1148
 8214SOL    HW136278   1.300   1.689   7.019 -0.4646  2.1657 -0.0530
 8214SOL    HW236279   1.199   1.628   6.927 -0.5077  1.4359 -0.5089
 8215SOL     OW36280   0.762   2.348   8.105  0.1680 -0.5433 -0.1049
 8215SOL    HW136281   0.690   2.410   8.119  1.6352  1.4731 -1.5776
 8215SOL    HW236282   0.755   2.284   8.176 -0.4443  0.4769  0.7548
 8216SOL     OW36283   2.352   4.316   7.998  0.3949 -0.2199  0.0860
 8216SOL    HW136284   2.399   4.233   7.994  0.4210 -0.2068  0.1315
 8216SOL    HW236285   2.299   4.317   7.917  1.6007  0.1995 -0.6968
 8217SOL     OW36286   1.706   2.836   9.924  0.5201  0.2429  0.7256
 8217SOL    HW136287   1.657   2.830  10.007  1.4910 -0.6112  1.2347
 8217SOL    HW236288   1.785   2.882   9.953  1.1517 -1.3310  1.4957
 8218SOL     OW36289   0.031   0.801  15.283 -0.0038 -0.2838  0.3859
 8218SOL    HW136290   0.013   0.778  15.374  0.6444 -1.4504  0.2278
 8218SOL    HW236291   4.679   0.827  15.263  0.9516  2.9433  0.3964
 8219SOL     OW36292   2.334   3.492   8.324  0.7450 -0.5077  0.2979
 8219SOL    HW136293   2.250   3.510   8.282 -0.1121  1.2785  2.7913
 8219SOL    HW236294   2.365   3.583   8.325 -1.1631  0.1373  1.6633
 8220SOL     OW36295   4.262   1.909   2.503 -0.5377 -0.2132 -0.4426
 8220SOL    HW136296   4.311   1.826   2.506 -0.4028 -0.1833 -2.0857
 8220SOL    HW236297   4.229   1.904   2.593  1.2075 -1.9849  0.1246
 8221SOL     OW36298   3.287   3.459   8.307  0.3382  0.2641 -0.5517
 8221SOL    HW136299   3.208   3.489   8.353  0.6799  2.4189 -1.3654
 8221SOL    HW236300   3.351   3.515   8.352 -0.5503  1.0045 -0.1970
 8222SOL     OW36301   4.433   0.953   2.232 -0.1132 -0.1899  0.2786
 8222SOL    HW136302   4.494   0.904   2.288 -0.0451 -1.4165 -0.8709
 8222SOL    HW236303   4.496   1.023   2.214  1.1421 -1.3292  0.2760
 8223SOL     OW36304   0.793   1.357   1.688  0.4380 -0.0710 -0.3399
 8223SOL    HW136305   0.784   1.292   1.618 -1.8314  1.7226 -1.7212
 8223SOL    HW236306   0.854   1.416   1.645 -0.2629  0.5297 -0.5063
 8224SOL     OW36307   1.643   2.468   6.642  0.3117 -0.2602 -0.2089
 8224SOL    HW136308   1.550   2.444   6.637 -0.4210  2.2788  1.1365
 8224SOL    HW236309   1.670   2.470   6.551  0.9951 -3.6216 -0.0946
 8225SOL     OW36310   4.010   2.396   3.195 -0.3409 -0.0277  0.1533
 8225SOL    HW136311   3.945   2.338   3.156  1.1946 -0.5110 -1.6524
 8225SOL    HW236312   4.029   2.446   3.116  0.9583 -2.1333 -0.8521
 8226SOL     OW36313   0.547   4.219   8.422 -0.1074  0.3300  1.0135
 8226SOL    HW136314   0.534   4.129   8.452  1.6961  0.3604  1.9107
 8226SOL    HW236315   0.517   4.270   8.497 -1.1920  0.3022  0.5892
 8227SOL     OW36316   2.052   3.556   9.509 -0.0898 -0.4691  0.4059
 8227SOL    HW136317   2.113   3.491   9.475 -1.7649 -1.1374 -1.2857
 8227SOL    HW236318   2.086   3.586   9.594 -0.3105  0.6402  0.1034
 8228SOL     OW36319   0.820   3.407   7.673  0.1152  0.1185 -0.3628
 8228SOL    HW136320   0.844   3.479   7.732  0.8556 -0.3378 -0.1002
 8228SOL    HW236321   0.778   3.344   7.732  0.2204  1.4828  1.1843
 8229SOL     OW36322   1.376   2.434   6.521  0.7335  0.9409  0.3446
 8229SOL    HW136323   1.338   2.499   6.462  1.5642 -0.7377 -2.0078
 8229SOL    HW236324   1.380   2.363   6.457 -0.7225  0.1331  1.1535
 8230SOL     OW36325   1.435   2.784   4.004  0.3909 -0.0460 -0.5479
 8230SOL    HW136326   1.425   2.769   3.910 -2.1526  3.6162 -0.8347
 8230SOL    HW236327   1.477   2.870   4.002 -0.5255  0.3965 -0.9455
 8231SOL     OW36328   3.303   1.105   3.419  0.4815 -0.2088  0.5387
 8231SOL    HW136329   3.366   1.035   3.399 -0.3508 -0.4554 -1.1750
 8231SOL    HW236330   3.264   1.123   3.334  3.0743  0.2254 -0.5862
 8232SOL     OW36331   3.750   3.445   2.337  0.5946 -0.5548  0.4165
 8232SOL    HW136332   3.678   3.394   2.374 -1.0105  1.5015  0.0641
 8232SOL    HW236333   3.817   3.431   2.405  1.1272  2.1282  0.4497
 8233SOL     OW36334   3.047   3.045   4.270 -0.3157  0.5836  0.3468
 8233SOL    HW136335   3.114   3.110   4.292 -0.0526  0.6578 -0.6563
 8233SOL    HW236336   3.083   2.961   4.296  0.3816  0.3077 -1.5000
 8234SOL     OW36337   3.815   2.261   6.580  0.4224 -0.0534 -0.1097
 8234SOL    HW136338   3.725   2.255   6.611  1.4446 -2.5187  2.3650
 8234SOL    HW236339   3.852   2.332   6.633  0.2168 -0.2802  0.3331
 8235SOL     OW36340   2.698   3.844  11.507 -0.3090 -0.1570 -0.2063
 8235SOL    HW136341   2.663   3.869  11.421 -1.2163  0.5362  0.3648
 8235SOL    HW236342   2.649   3.763  11.520 -0.0405 -0.0460  1.3951
 8236SOL     OW36343   2.575   0.357   4.814 -0.1555 -0.2965 -0.0119
 8236SOL    HW136344   2.538   0.425   4.871  2.9558  0.2832  1.3000
 8236SOL    HW236345   2.569   0.400   4.728 -0.4064 -4.0528 -1.8611
 8237SOL     OW36346   1.936   2.827   3.123  0.1079  0.0367 -0.3471
 8237SOL    HW136347   1.989   2.877   3.185  2.3577 -2.3360 -0.3735
 8237SOL    HW236348   1.859   2.806   3.176 -0.5999 -1.7065 -2.0385
 8238SOL     OW36349   2.154   3.157  15.862 -0.0798 -0.2014  0.2432
 8238SOL    HW136350   2.236   3.108  15.859 -0.3487 -0.8625  3.5104
 8238SOL    HW236351   2.139   3.157  15.768 -1.5525  1.9407  0.4717
 8239SOL     OW36352   3.720   3.667  16.879  0.3466 -0.0911  0.0168
 8239SOL    HW136353   3.693   3.758  16.879  1.7357  0.3170 -0.7056
 8239SOL    HW236354   3.655   3.631  16.818  2.4364 -0.4734 -1.9821
 8240SOL     OW36355   2.685   1.218   5.117  0.8571 -0.0860  0.3066
 8240SOL    HW136356   2.730   1.134   5.125  1.9468  0.6725  2.0279
 8240SOL    HW236357   2.596   1.190   5.094  0.9423  0.6794 -0.9506
 8241SOL     OW36358   2.099   0.032   3.949 -0.6482  0.1486 -0.0182
 8241SOL    HW136359   2.140   4.704   4.006  1.3329 -1.5747 -3.4303
 8241SOL    HW236360   2.148   0.111   3.971  0.5797 -1.4804  2.9986
 8242SOL     OW36361   1.314   1.879   0.097  0.2495  0.0200  0.4861
 8242SOL    HW136362   1.311   1.900   0.004 -0.6303  0.2612  0.5674
 8242SOL    HW236363   1.303   1.784   0.098  2.7733 -0.2816 -0.3535
 8243SOL     OW36364   0.786   4.506   6.680 -0.2304 -0.1008 -0.3548
 8243SOL    HW136365   0.721   4.529   6.746  0.2087 -0.6368  0.2685
 8243SOL    HW236366   0.737   4.473   6.604  0.8230  0.1851 -1.1692
 8244SOL     OW36367   0.009   1.361   6.426  0.1107  0.4165 -0.0761
 8244SOL    HW136368   4.690   1.417   6.372  2.0715  1.9012 -0.5936
 8244SOL    HW236369   0.065   1.422   6.474  0.0566  0.5679 -0.2063
 8245SOL     OW36370   2.844   0.054   9.947  0.1215  0.2839 -0.4915
 8245SOL    HW136371   2.752   0.027   9.941  0.9114 -2.6524  0.9144
 8245SOL    HW236372   2.827   0.146   9.968 -1.8775 -0.7717  2.5169
 8246SOL     OW36373   3.007   1.842   4.480 -0.1990 -0.2795 -0.1563
 8246SOL    HW136374   3.099   1.868   4.472 -0.5489  0.5200 -1.6190
 8246SOL    HW236375   3.024   1.765   4.533 -0.0839 -0.3903 -0.3569
 8247SOL     OW36376   4.737   4.243   5.539 -0.8245  0.3253  0.0053
 8247SOL    HW136377   4.660   4.297   5.557 -1.4811 -0.6423  0.0900
 8247SOL    HW236378   4.699   4.157   5.521 -0.3566 -0.3175  2.1058
 8248SOL     OW36379   4.560   1.544   6.067 -0.0598  0.3955  0.2002
 8248SOL    HW136380   4.607   1.471   6.027 -0.5448  0.6698 -0.8731
 8248SOL    HW236381   4.589   1.553   6.158 -1.2952 -0.9111  0.7268
 8249SOL     OW36382   3.204   3.837   6.981 -0.3784  0.6366 -0.0539
 8249SOL    HW136383   3.161   3.900   6.922  1.0519 -0.8716 -2.7211
 8249SOL    HW236384   3.181   3.868   7.069  1.3637 -0.1263  0.6527
 8250SOL     OW36385   1.843   0.398   2.760  0.1486  0.3373 -0.0118
 8250SOL    HW136386   1.755   0.375   2.729  0.3076 -0.4493  0.1180
 8250SOL    HW236387   1.841   0.408   2.855 -0.6087 -2.7232  0.2930
 8251SOL     OW36388   3.996   2.957   5.275 -0.2574  0.6707  0.4843
 8251SOL    HW136389   3.996   3.053   5.275  0.2279  0.6596  2.0337
 8251SOL    HW236390   3.927   2.920   5.330 -0.0129  1.0112  1.0201
 8252SOL     OW36391   0.749   3.269   4.942  0.5150  0.6547  0.5169
 8252SOL    HW136392   0.747   3.257   4.847 -0.2043  0.9738  0.4963
 8252SOL    HW236393   0.695   3.347   4.947 -0.7461 -0.3928  2.8004
 8253SOL     OW36394   1.686   0.376   6.071  0.1522 -0.1647 -0.0118
 8253SOL    HW136395   1.693   0.472   6.068 -0.2132 -0.1300  0.3356
 8253SOL    HW236396   1.666   0.348   5.982 -3.2848 -0.4343  0.8783
 8254SOL     OW36397   0.271   2.282   0.239 -0.1362 -0.2910  0.5128
 8254SOL    HW136398   0.250   2.243   0.323 -0.5645 -0.9687  0.0917
 8254SOL    HW236399   0.358   2.244   0.227  0.5393  1.7782 -1.1487
 8255SOL     OW36400   0.445   1.307  10.084 -0.4292  0.3073  0.4166
 8255SOL    HW136401   0.487   1.392  10.092 -0.4234  0.2825  0.6629
 8255SOL    HW236402   0.432   1.300   9.990 -0.0837 -0.9117  0.4493
 8256SOL     OW36403   0.015   0.188   9.786  0.1635  0.0667  0.3640
 8256SOL    HW136404   4.731   0.280   9.800  2.1901  0.5512  0.2353
 8256SOL    HW236405   0.089   0.167   9.843  0.2096 -1.7834 -0.3563
 8257SOL     OW36406   2.527   4.035   8.878  0.1394  0.3347  0.3878
 8257SOL    HW136407   2.518   3.949   8.917  2.1837 -0.2910 -0.5033
 8257SOL    HW236408   2.439   4.055   8.844  0.1453  0.5722  0.5117
 8258SOL     OW36409   0.871   3.079   7.603 -0.2162  0.2259  0.4699
 8258SOL    HW136410   0.831   3.129   7.532 -0.7856 -0.4327  0.3338
 8258SOL    HW236411   0.889   3.144   7.672  1.2961 -0.6497  0.9010
 8259SOL     OW36412   4.710   4.202   8.979 -0.3298 -0.1775 -0.6933
 8259SOL    HW136413   0.057   4.205   9.024 -0.8236 -0.3873  0.2687
 8259SOL    HW236414   4.675   4.118   9.010  1.1159 -0.4519  0.2153
 8260SOL     OW36415   2.474   1.414   3.637  0.4511  0.2239  0.4483
 8260SOL    HW136416   2.439   1.473   3.569  1.8802  1.7859  1.0701
 8260SOL    HW236417   2.467   1.478   3.707  1.8300  0.7803  0.0714
 8261SOL     OW36418   4.408   0.170  10.884  0.1356  0.6632 -0.1240
 8261SOL    HW136419   4.446   0.138  10.965  0.4596 -0.3870 -0.6816
 8261SOL    HW236420   4.449   0.109  10.823 -0.2846  1.4608 -1.2183
 8262SOL     OW36421   0.708   2.135   4.881 -0.2205  0.2641  0.0974
 8262SOL    HW136422   0.664   2.053   4.901  0.8795 -0.3597 -0.0141
 8262SOL    HW236423   0.794   2.127   4.923  2.1228 -0.4206 -4.7388
 8263SOL     OW36424   4.001   2.789   4.488 -0.4831  0.0930 -0.3567
 8263SOL    HW136425   3.930   2.772   4.426  0.1216  2.4527 -1.7241
 8263SOL    HW236426   4.012   2.704   4.530 -0.0118  2.1468  3.7069
 8264SOL     OW36427   1.064   1.918  16.181 -0.3866 -0.1684 -0.3109
 8264SOL    HW136428   1.063   1.999  16.232  0.4364  0.6433 -1.5957
 8264SOL    HW236429   0.970   1.899  16.172 -0.7890  1.5228  0.4055
 8265SOL     OW36430   2.189   3.810   2.175  0.4112  0.4249  0.1745
 8265SOL    HW136431   2.146   3.895   2.184 -0.6599 -0.2706  1.6875
 8265SOL    HW236432   2.242   3.817   2.095 -0.5195  2.5229 -0.2598
 8266SOL     OW36433   0.805   3.813  12.590 -0.0234 -0.1226  0.2103
 8266SOL    HW136434   0.858   3.886  12.622 -2.1933  1.7885 -0.5859
 8266SOL    HW236435   0.715   3.842  12.604  0.9519  2.8656  0.2571
 8267SOL     OW36436   3.422   2.042   3.270 -0.0334 -0.3241 -0.1725
 8267SOL    HW136437   3.428   2.057   3.365  0.8523 -2.8397  0.1632
 8267SOL    HW236438   3.383   2.124   3.240  1.2939  0.8782  1.3742
 8268SOL     OW36439   4.042   0.646   1.327  0.0347 -0.3692 -0.0681
 8268SOL    HW136440   4.133   0.626   1.305  0.5439 -0.1062  1.8119
 8268SOL    HW236441   4.036   0.740   1.308 -0.3485 -0.6003 -1.0705
 8269SOL     OW36442   2.525   1.992  16.948 -0.4627  0.8523 -0.3676
 8269SOL    HW136443   2.598   2.050  16.927 -0.9595  1.1560 -1.2602
 8269SOL    HW236444   2.478   1.998  16.865 -1.9983 -1.7151  0.3030
 8270SOL     OW36445   3.437   0.494   4.098  0.1330 -0.3450 -0.5518
 8270SOL    HW136446   3.502   0.507   4.030 -2.3585 -1.9056 -3.2179
 8270SOL    HW236447   3.494   0.463   4.168  0.8715  0.6771 -0.7034
 8271SOL     OW36448   2.895   1.206   8.160  0.0696 -0.6441 -0.7798
 8271SOL    HW136449   2.881   1.141   8.091 -0.1680 -0.5233 -0.8450
 8271SOL    HW236450   2.840   1.274   8.122 -0.0351 -1.3808 -1.9782
 8272SOL     OW36451   2.301   4.692   5.036 -0.4015  0.3009 -0.1936
 8272SOL    HW136452   2.375   0.015   5.046  0.2479 -0.4679 -0.3121
 8272SOL    HW236453   2.264   4.702   5.123  1.1099 -2.6905  0.8209
 8273SOL     OW36454   0.772   1.028  15.015  0.8500 -0.2487 -0.0923
 8273SOL    HW136455   0.851   1.045  14.964 -0.0606 -0.0035 -1.4154
 8273SOL    HW236456   0.755   0.934  15.025  1.6233 -0.3964 -0.1505
 8274SOL     OW36457   1.816   1.229   5.058 -0.1355  0.8907  0.2534
 8274SOL    HW136458   1.866   1.301   5.096  0.8168  0.0768  0.5498
 8274SOL    HW236459   1.885   1.164   5.070 -0.2512  0.1257 -3.1555
 8275SOL     OW36460   2.006   0.393   4.239  0.3958 -0.2138 -0.5213
 8275SOL    HW136461   2.014   0.297   4.241 -1.2656 -0.3645 -0.9063
 8275SOL    HW236462   2.097   0.420   4.250 -0.2239  2.0287 -0.9902
 8276SOL     OW36463   3.242   2.053   6.347 -0.3096  0.2904 -0.5175
 8276SOL    HW136464   3.203   1.973   6.315 -0.2145 -0.2713  0.7789
 8276SOL    HW236465   3.303   2.015   6.411  1.3724  0.5718 -1.9466
 8277SOL     OW36466   0.263   2.722   7.811 -0.5352  0.0328 -0.2696
 8277SOL    HW136467   0.237   2.644   7.861  1.2917 -1.1275 -1.1413
 8277SOL    HW236468   0.249   2.683   7.725  0.0739  0.3068 -0.4967
 8278SOL     OW36469   0.830   0.972   6.103  0.8876  0.0529 -0.0371
 8278SOL    HW136470   0.742   1.002   6.081  1.7016  2.0049 -0.6562
 8278SOL    HW236471   0.880   1.030   6.046 -1.1429  2.0686  0.2540
 8279SOL     OW36472   0.347   0.860   2.546  0.5210 -0.2734  0.4411
 8279SOL    HW136473   0.342   0.807   2.626 -1.0751  0.6268  0.9237
 8279SOL    HW236474   0.342   0.948   2.582 -1.1807 -0.1591 -0.0886
 8280SOL     OW36475   4.648   0.103  13.001 -0.3442 -0.3548  0.2389
 8280SOL    HW136476   4.598   0.179  13.031  1.4957  1.3152 -0.8614
 8280SOL    HW236477   4.693   0.128  12.920 -0.8911 -0.2079 -0.0138
 8281SOL     OW36478   1.175   0.534   2.138  0.3231  0.2006 -0.5617
 8281SOL    HW136479   1.102   0.550   2.199 -0.3343 -0.5125 -1.1592
 8281SOL    HW236480   1.246   0.497   2.191  0.0855  1.5255  0.6729
 8282SOL     OW36481   3.456   1.858  15.081  0.0642  0.0142  0.3415
 8282SOL    HW136482   3.438   1.864  15.175  1.5181 -0.3900  0.6318
 8282SOL    HW236483   3.391   1.921  15.050  0.5480  0.8802  1.0864
 8283SOL     OW36484   1.905   3.181  16.619 -0.3844  0.4059 -0.3143
 8283SOL    HW136485   1.867   3.264  16.650  1.5234  0.4503  1.8846
 8283SOL    HW236486   1.995   3.210  16.606 -0.5302  1.8008  1.7383
 8284SOL     OW36487   3.280   2.656  11.197 -0.2945  0.3465  0.2906
 8284SOL    HW136488   3.297   2.703  11.278  0.6035  1.4197 -0.5116
 8284SOL    HW236489   3.184   2.659  11.201 -0.3325  1.4653 -1.3116
 8285SOL     OW36490   2.499   1.269   4.606  0.0696  0.8040  0.2016
 8285SOL    HW136491   2.590   1.269   4.635 -0.3725 -0.3642  1.5547
 8285SOL    HW236492   2.516   1.218   4.526 -1.5205  1.7523 -0.7361
 8286SOL     OW36493   3.234   0.288   6.549 -0.2161  0.1970  0.5968
 8286SOL    HW136494   3.251   0.213   6.606  1.6705  0.8136  0.8272
 8286SOL    HW236495   3.237   0.361   6.611  0.4681  0.1706  0.5917
 8287SOL     OW36496   2.479   2.822   7.201 -0.5874  0.3627  0.1390
 8287SOL    HW136497   2.539   2.748   7.194  1.9247  2.1943  2.1465
 8287SOL    HW236498   2.515   2.898   7.156 -2.0164  1.2670  0.5196
 8288SOL     OW36499   0.723   3.173   7.398 -0.7953 -0.3858 -0.2728
 8288SOL    HW136500   0.636   3.188   7.436 -0.6907  0.9936 -0.5549
 8288SOL    HW236501   0.748   3.253   7.351  0.5992  0.4675  1.9193
 8289SOL     OW36502   0.115   2.442   2.987  0.7143  0.3919 -0.5279
 8289SOL    HW136503   0.203   2.478   2.997 -0.0203  1.8440  0.6344
 8289SOL    HW236504   0.066   2.492   3.052 -0.5680 -1.6826  0.1040
 8290SOL     OW36505   2.638   2.615   5.956  0.2381  0.1771  0.0144
 8290SOL    HW136506   2.646   2.527   5.992 -0.0491  0.6945  1.3749
 8290SOL    HW236507   2.546   2.613   5.928  0.6947  2.3702 -1.6924
 8291SOL     OW36508   3.611   0.360   3.366  0.1675  0.6247  0.6093
 8291SOL    HW136509   3.614   0.371   3.271  1.3121 -0.7008  0.4874
 8291SOL    HW236510   3.704   0.377   3.384  0.7396  1.8843 -3.6886
 8292SOL     OW36511   2.620   2.544   1.219  0.0181  0.0222  0.0523
 8292SOL    HW136512   2.653   2.628   1.187 -2.2640  0.1136 -1.9935
 8292SOL    HW236513   2.594   2.571   1.307  0.8612 -1.2686  0.6950
 8293SOL     OW36514   0.525   2.890   7.404 -0.1638  0.3625  0.7978
 8293SOL    HW136515   0.598   2.868   7.462 -1.6641 -1.3153  2.0474
 8293SOL    HW236516   0.570   2.885   7.320  0.0984  0.0157  0.9589
 8294SOL     OW36517   0.110   2.256   1.127 -0.1371  0.0407 -0.4495
 8294SOL    HW136518   0.065   2.238   1.045 -0.9141 -0.3828  0.0706
 8294SOL    HW236519   0.079   2.342   1.158  0.8241  0.5782 -0.9813
 8295SOL     OW36520   3.192   2.337   2.411 -0.7909  0.0102  0.0337
 8295SOL    HW136521   3.180   2.299   2.324  3.0623  1.9428 -1.3305
 8295SOL    HW236522   3.195   2.432   2.401  0.1258  0.2046  2.1690
 8296SOL     OW36523   2.512   3.055   6.202 -0.0884  0.3591  0.4731
 8296SOL    HW136524   2.550   3.119   6.261 -0.7156  1.0404  0.1360
 8296SOL    HW236525   2.418   3.052   6.219 -0.5343  1.7797 -1.6923
 8297SOL     OW36526   1.645   4.388   5.008  0.6132  0.0850  0.1321
 8297SOL    HW136527   1.564   4.347   5.035  0.6920 -0.6535 -0.7594
 8297SOL    HW236528   1.617   4.475   4.978  1.1244 -0.4469 -1.9368
 8298SOL     OW36529   0.769   2.110   7.066  0.0404 -0.7161 -0.1312
 8298SOL    HW136530   0.807   2.032   7.105  2.4657 -0.7633 -2.6037
 8298SOL    HW236531   0.842   2.139   7.012  0.0372  0.8930  0.7047
 8299SOL     OW36532   2.216   2.283   7.598  0.0402 -0.3131 -0.0971
 8299SOL    HW136533   2.152   2.267   7.668 -0.7462 -1.6989 -1.1568
 8299SOL    HW236534   2.207   2.379   7.592  2.0194 -0.0372  1.3775
 8300SOL     OW36535   2.168   1.512   0.722 -0.5867 -0.2002 -0.9287
 8300SOL    HW136536   2.179   1.447   0.791 -2.4547 -0.9300 -1.3282
 8300SOL    HW236537   2.153   1.453   0.649  1.8633 -2.1313  0.1205
 8301SOL     OW36538   3.738   1.499   3.072 -0.4266 -0.4747  0.3579
 8301SOL    HW136539   3.820   1.521   3.028  0.6873 -0.2392  2.5212
 8301SOL    HW236540   3.765   1.491   3.164 -1.3272  1.2259  0.7610
 8302SOL     OW36541   2.745   2.731  15.733 -0.0322  0.3780  0.4538
 8302SOL    HW136542   2.708   2.705  15.818  2.7119  0.4748  1.6921
 8302SOL    HW236543   2.762   2.824  15.748 -1.4330  0.5836  0.7447
 8303SOL     OW36544   0.773   4.237  14.673 -0.6009 -0.4738  0.2717
 8303SOL    HW136545   0.726   4.173  14.726  0.1590  0.9058  2.5798
 8303SOL    HW236546   0.774   4.315  14.727 -1.9767  0.7893 -1.5393
 8304SOL     OW36547   2.444   3.570  11.731 -0.1011  0.6894  0.2451
 8304SOL    HW136548   2.447   3.662  11.755 -0.0928  1.3681 -2.4269
 8304SOL    HW236549   2.517   3.566  11.669 -0.6491 -0.7270 -0.3105
 8305SOL     OW36550   2.997   2.504   2.101 -0.3375 -0.3609 -0.2052
 8305SOL    HW136551   3.073   2.563   2.093  0.4306 -1.3056  0.1674
 8305SOL    HW236552   2.928   2.569   2.112  0.3456  0.2182  0.6279
 8306SOL     OW36553   0.175   3.947   1.649 -0.9416 -0.7425  0.2984
 8306SOL    HW136554   0.108   3.905   1.703 -2.4138 -0.0994 -1.0015
 8306SOL    HW236555   0.219   3.875   1.604 -2.6468 -0.2961 -2.1312
 8307SOL     OW36556   1.937   4.395   9.074  0.0494 -0.5227  0.3436
 8307SOL    HW136557   1.857   4.446   9.086  1.1261  1.0023  1.0649
 8307SOL    HW236558   1.900   4.307   9.065  0.8713 -0.8002 -0.3165
 8308SOL     OW36559   1.569   4.175   3.735 -0.1384  0.1646 -0.2351
 8308SOL    HW136560   1.545   4.265   3.755 -4.1888 -0.6864 -1.3683
 8308SOL    HW236561   1.611   4.154   3.819 -0.0937  1.8886  0.1687
 8309SOL     OW36562   0.976   1.838   7.019  0.1183  0.2360 -0.1453
 8309SOL    HW136563   1.067   1.807   7.017 -0.3097 -1.0519  0.2847
 8309SOL    HW236564   0.962   1.863   7.110  1.7321 -0.3456  0.2739
 8310SOL     OW36565   2.466   4.170   1.535  0.2221  0.4923 -0.0527
 8310SOL    HW136566   2.505   4.151   1.621  1.7202  0.4016 -0.7587
 8310SOL    HW236567   2.378   4.196   1.562 -0.1334 -1.7913  0.9943
 8311SOL     OW36568   1.399   1.257  12.050 -0.6293  0.1977  0.8543
 8311SOL    HW136569   1.321   1.243  12.104 -2.0150 -0.4698 -1.2906
 8311SOL    HW236570   1.372   1.342  12.015  0.7875  1.6619  3.3605
 8312SOL     OW36571   2.956   2.169  11.630  0.4532 -0.3891  0.2634
 8312SOL    HW136572   2.956   2.264  11.621  0.6819 -0.5045 -0.9220
 8312SOL    HW236573   2.958   2.171  11.726 -1.1493  1.0660  0.2782
 8313SOL     OW36574   4.648   1.101   5.995 -0.0884  0.3925 -0.9697
 8313SOL    HW136575   4.698   1.108   6.077  0.0358 -2.2337 -0.8270
 8313SOL    HW236576   4.714   1.123   5.929  0.7333 -0.6035 -0.4750
 8314SOL     OW36577   1.668   1.918   5.491 -0.2514  0.1329 -0.2746
 8314SOL    HW136578   1.622   1.965   5.560  1.2247  0.1060  0.7371
 8314SOL    HW236579   1.606   1.942   5.422 -0.4705 -1.0512 -0.4788
 8315SOL     OW36580   2.821   0.195   0.388  0.2249  0.1354 -0.1660
 8315SOL    HW136581   2.796   0.248   0.313 -1.3292  0.0333  0.2659
 8315SOL    HW236582   2.763   0.233   0.454 -1.2268 -1.6604 -0.4067
 8316SOL     OW36583   3.233   4.068   6.241 -0.9397  0.3404 -0.1102
 8316SOL    HW136584   3.144   4.101   6.256 -1.0751 -0.1184  0.1101
 8316SOL    HW236585   3.257   4.125   6.168 -2.2500 -0.7910 -1.4363
 8317SOL     OW36586   3.194   4.128   7.533 -0.6153  0.6348  0.1521
 8317SOL    HW136587   3.258   4.056   7.531 -0.9522  0.2930  1.8168
 8317SOL    HW236588   3.226   4.178   7.608  2.0194  1.8809 -1.8202
 8318SOL     OW36589   3.452   2.878   9.749 -0.1361  0.7469 -0.0985
 8318SOL    HW136590   3.442   2.925   9.831  4.5687  3.0507 -0.8719
 8318SOL    HW236591   3.376   2.819   9.747  0.6178 -0.2109 -0.8368
 8319SOL     OW36592   3.751   1.705   7.636  0.0200  0.0954 -0.8271
 8319SOL    HW136593   3.722   1.736   7.550 -1.2338 -0.1101 -0.4727
 8319SOL    HW236594   3.845   1.720   7.630 -0.1742  3.2701  3.9050
 8320SOL     OW36595   4.121   2.536   4.517  0.0071 -0.1117 -0.2271
 8320SOL    HW136596   4.194   2.571   4.567  0.3504  0.3516 -1.0566
 8320SOL    HW236597   4.087   2.465   4.572  2.1483  0.2064  1.4928
 8321SOL     OW36598   1.556   1.033   5.834 -0.5349  0.0674  0.2586
 8321SOL    HW136599   1.556   1.107   5.773 -0.0568  1.9297  2.5201
 8321SOL    HW236600   1.639   0.995   5.805 -0.5628  0.5649 -0.4706
 8322SOL     OW36601   3.030   0.707   8.763 -0.1669  0.1813 -0.0083
 8322SOL    HW136602   2.995   0.627   8.725  0.2376  0.7845 -1.6383
 8322SOL    HW236603   3.114   0.671   8.791 -0.0720 -1.6382 -2.6765
 8323SOL     OW36604   1.949   2.206   4.802  0.4573  0.0384 -0.0263
 8323SOL    HW136605   2.003   2.199   4.881  0.1833 -1.3869  0.0332
 8323SOL    HW236606   1.920   2.296   4.820 -0.7834 -0.2722 -0.4993
 8324SOL     OW36607   3.812   0.301  12.962  0.1198  0.4978 -0.3072
 8324SOL    HW136608   3.836   0.228  13.019 -1.0365  0.4513  0.1314
 8324SOL    HW236609   3.733   0.265  12.920 -0.5916  0.6520  0.9013
 8325SOL     OW36610   1.858   0.108   4.018  0.2669 -0.1353 -0.5416
 8325SOL    HW136611   1.863   0.203   4.011 -1.1739  0.1788  2.6407
 8325SOL    HW236612   1.937   0.076   3.975  0.9008  0.3491  0.2609
 8326SOL     OW36613   3.903   3.271   3.976 -1.0050 -0.9931  0.1482
 8326SOL    HW136614   3.890   3.292   4.069  0.5236 -3.1448  0.8592
 8326SOL    HW236615   3.987   3.313   3.954 -1.1267 -2.1848 -2.6143
 8327SOL     OW36616   1.047   3.014   4.051 -0.0718 -0.1965 -0.3334
 8327SOL    HW136617   0.955   2.987   4.057  0.4948 -1.5786  1.7625
 8327SOL    HW236618   1.077   2.924   4.057  0.4697 -0.0230 -0.4011
 8328SOL     OW36619   4.091   3.861   7.792 -0.2501 -0.0363 -0.3718
 8328SOL    HW136620   4.068   3.954   7.786 -0.1725 -0.0817 -1.4129
 8328SOL    HW236621   4.073   3.831   7.702  0.5598 -1.9411  0.1092
 8329SOL     OW36622   4.540   3.510   7.641 -0.0462  0.3353  0.3001
 8329SOL    HW136623   4.457   3.538   7.680 -1.9837 -1.0192 -2.8576
 8329SOL    HW236624   4.578   3.463   7.715  0.4680  1.1544  0.5631
 8330SOL     OW36625   0.484   4.580  14.899 -0.4949  0.5319 -0.0034
 8330SOL    HW136626   0.571   4.585  14.939  0.6452  0.8827 -2.4792
 8330SOL    HW236627   0.446   4.656  14.943 -1.8005 -0.3673  0.4365
 8331SOL     OW36628   3.173   2.859   7.876  0.4352 -0.1501 -0.7052
 8331SOL    HW136629   3.197   2.782   7.824 -1.4825 -2.9557  2.5111
 8331SOL    HW236630   3.259   2.880   7.913  0.1279 -0.7189  0.3490
 8332SOL     OW36631   0.719   1.786   3.242  0.5714 -0.7949  0.3990
 8332SOL    HW136632   0.663   1.729   3.188 -0.7869  0.4330  0.4988
 8332SOL    HW236633   0.737   1.737   3.322  0.3858  0.6139  1.3002
 8333SOL     OW36634   0.429   0.243   5.889  0.0667  0.2190 -0.6537
 8333SOL    HW136635   0.396   0.161   5.924  0.7461  0.1562 -0.1596
 8333SOL    HW236636   0.515   0.252   5.929  0.3948 -1.9433 -0.8888
 8334SOL     OW36637   0.351   1.055   4.560 -0.1668  0.2642  0.1827
 8334SOL    HW136638   0.317   1.122   4.501  0.1215  2.1106  2.1235
 8334SOL    HW236639   0.398   1.106   4.626 -2.1100  2.0102  0.2055
 8335SOL     OW36640   2.635   0.845  16.155 -0.4371 -0.0677 -0.3384
 8335SOL    HW136641   2.635   0.924  16.209  0.2773 -0.6690  0.5535
 8335SOL    HW236642   2.571   0.871  16.090 -0.3566  0.8161 -0.0583
 8336SOL     OW36643   0.042   1.676   6.971  0.6310 -0.0157  0.5819
 8336SOL    HW136644   4.736   1.616   6.911 -2.4686  0.1629  2.6515
 8336SOL    HW236645   0.108   1.624   7.017  0.8257 -0.1680  0.1221
 8337SOL     OW36646   1.659   2.313   7.748  0.1799 -0.1973  0.6396
 8337SOL    HW136647   1.637   2.403   7.772 -2.6032 -0.3584 -1.2580
 8337SOL    HW236648   1.607   2.258   7.807  0.4416 -0.4952  0.5916
 8338SOL     OW36649   4.237   4.377   5.877 -0.5805  0.2396  0.1331
 8338SOL    HW136650   4.188   4.422   5.947  0.4931  0.1147  0.9688
 8338SOL    HW236651   4.304   4.334   5.930 -1.2315 -0.1492  0.6365
 8339SOL     OW36652   4.615   1.357   5.011 -0.3275 -0.6022 -0.5204
 8339SOL    HW136653   4.677   1.333   4.942  3.0179  0.2034  2.2076
 8339SOL    HW236654   4.677   1.362   5.084  1.0101 -0.6410 -1.6374
 8340SOL     OW36655   2.472   1.543   9.650  0.1491 -0.2523  0.0038
 8340SOL    HW136656   2.497   1.454   9.676  2.5537  0.1971 -0.7243
 8340SOL    HW236657   2.540   1.554   9.584  0.5139 -0.5438  0.3308
 8341SOL     OW36658   4.302   3.548   8.377 -0.6231 -0.5910  0.4264
 8341SOL    HW136659   4.316   3.642   8.392 -0.5177 -0.3167 -1.3445
 8341SOL    HW236660   4.379   3.529   8.322  0.9335 -1.9701  3.0906
 8342SOL     OW36661   3.599   1.583  13.229 -0.3956  0.0172 -0.5282
 8342SOL    HW136662   3.647   1.500  13.225  1.3693  0.9645  0.8931
 8342SOL    HW236663   3.586   1.610  13.138  1.7847 -0.7117 -1.0527
 8343SOL     OW36664   4.664   4.448   8.662 -0.4582  0.6725 -0.0308
 8343SOL    HW136665   4.651   4.405   8.578  0.0291 -0.4157  0.4514
 8343SOL    HW236666   0.019   4.472   8.653 -0.8022  2.9987  2.6388
 8344SOL     OW36667   1.670   1.634   1.766  0.3999  0.0343  0.1388
 8344SOL    HW136668   1.649   1.640   1.673 -1.8261 -0.3770  0.6062
 8344SOL    HW236669   1.764   1.643   1.754 -0.0382  0.3788 -3.0502
 8345SOL     OW36670   2.243   0.697   6.659 -0.1039  0.3260 -0.1556
 8345SOL    HW136671   2.209   0.728   6.743  2.2846 -1.6193  1.5268
 8345SOL    HW236672   2.253   0.783   6.617  0.7138  0.4814  0.3604
 8346SOL     OW36673   1.928   2.437   9.380  0.0831 -0.4092 -0.7396
 8346SOL    HW136674   1.997   2.395   9.433  0.2164 -1.2175 -1.5488
 8346SOL    HW236675   1.859   2.371   9.372  0.2581 -0.5876 -0.7866
 8347SOL     OW36676   2.149   2.060   0.590  0.8421  0.2140  0.1226
 8347SOL    HW136677   2.084   1.989   0.584  1.1725  0.2839 -4.1488
 8347SOL    HW236678   2.103   2.121   0.532 -3.4032 -0.6380  2.6128
 8348SOL     OW36679   0.422   3.150  10.580 -0.3880 -0.5361 -0.2455
 8348SOL    HW136680   0.358   3.210  10.618 -3.2922 -2.9782 -1.2076
 8348SOL    HW236681   0.504   3.174  10.622 -0.3836  2.5560 -2.0305
 8349SOL     OW36682   0.542   1.476   1.334 -0.2028  0.3436  0.1586
 8349SOL    HW136683   0.457   1.451   1.297 -1.9822 -0.2560  4.6110
 8349SOL    HW236684   0.574   1.390   1.360 -1.1820  0.1063  0.6006
 8350SOL     OW36685   2.420   2.354  17.106 -0.0229  0.2589 -0.5366
 8350SOL    HW136686   2.413   2.333  17.013 -2.4871 -0.1785 -0.2370
 8350SOL    HW236687   2.375   2.438  17.114 -0.7394  0.0280 -2.1778
 8351SOL     OW36688   2.516   2.215   3.942 -0.0439  0.1016 -0.3621
 8351SOL    HW136689   2.573   2.263   3.881 -1.8932  0.9787 -1.4038
 8351SOL    HW236690   2.465   2.160   3.882 -1.0582  0.9953 -0.3253
 8352SOL     OW36691   2.275   4.128   8.737  0.7749  0.1746  0.1307
 8352SOL    HW136692   2.315   4.121   8.651 -0.1228 -4.3773  0.1258
 8352SOL    HW236693   2.251   4.221   8.746  0.3821  0.2591 -1.8400
 8353SOL     OW36694   2.793   2.491   4.225 -0.4559  1.0615  0.0494
 8353SOL    HW136695   2.708   2.513   4.264 -0.1752  1.8789  0.2059
 8353SOL    HW236696   2.768   2.405   4.191 -0.8493  1.4177 -0.5654
 8354SOL     OW36697   0.944   4.325   1.688  0.4331  0.1785  0.6675
 8354SOL    HW136698   0.994   4.256   1.733  0.3307  1.1100  2.1794
 8354SOL    HW236699   0.950   4.295   1.597 -0.9954  0.6583  0.4212
 8355SOL     OW36700   4.407   3.546   8.670 -0.7210 -0.1682 -0.0887
 8355SOL    HW136701   4.484   3.600   8.688  0.2246 -2.4312  2.6298
 8355SOL    HW236702   4.442   3.489   8.601  1.4313  0.9262  0.0986
 8356SOL     OW36703   1.341   0.544   9.415  0.4048 -0.4709  0.4184
 8356SOL    HW136704   1.310   0.619   9.465  3.8937 -0.6256  2.8248
 8356SOL    HW236705   1.431   0.573   9.400  1.3461 -1.8502  3.3166
 8357SOL     OW36706   4.576   2.088  16.912 -0.0557  0.1016 -0.4877
 8357SOL    HW136707   4.576   2.159  16.848  0.9718  1.3206  0.8740
 8357SOL    HW236708   4.662   2.099  16.951  1.4887 -2.4179 -3.2019
 8358SOL     OW36709   0.505   0.370   4.488 -0.4926  0.1023 -0.0617
 8358SOL    HW136710   0.593   0.383   4.452  0.4070 -4.3185  0.5812
 8358SOL    HW236711   0.512   0.281   4.522  0.6931 -0.7316 -2.4363
 8359SOL     OW36712   3.165   0.850   5.049 -0.5611 -0.4042  0.1034
 8359SOL    HW136713   3.118   0.906   5.111 -1.0604  0.7333 -1.3235
 8359SOL    HW236714   3.217   0.920   5.010 -0.3100 -0.7475 -0.1795
 8360SOL     OW36715   0.940   4.461  15.369 -0.1003 -0.0944 -0.2089
 8360SOL    HW136716   1.031   4.488  15.360 -0.5070  1.2022 -0.5110
 8360SOL    HW236717   0.941   4.418  15.454  1.7408 -1.1146 -0.7544
 8361SOL     OW36718   0.542   0.696   6.747  0.3082  0.0530 -0.4015
 8361SOL    HW136719   0.550   0.785   6.710  1.1151  0.3511  0.5049
 8361SOL    HW236720   0.449   0.698   6.769  0.4735  2.0192  0.1291
 8362SOL     OW36721   0.638   0.203  10.576  0.0959 -0.8225  0.4110
 8362SOL    HW136722   0.548   0.223  10.602  0.2568  0.9316 -0.3556
 8362SOL    HW236723   0.629   0.114  10.543  1.2372 -0.5839 -0.5412
 8363SOL     OW36724   3.960   3.667  12.300  0.3602 -0.0928 -0.2007
 8363SOL    HW136725   3.888   3.718  12.263  0.2820  0.3104  0.4960
 8363SOL    HW236726   3.958   3.593  12.240 -0.0666 -1.0985  1.0511
 8364SOL     OW36727   4.720   3.700   8.419 -0.2869  0.6650  0.3945
 8364SOL    HW136728   4.706   3.792   8.441  2.5850  1.1724  0.1251
 8364SOL    HW236729   0.077   3.686   8.425 -0.2852  0.1180 -0.7842
 8365SOL     OW36730   2.180   3.332   3.742 -0.1521 -0.1084  0.5554
 8365SOL    HW136731   2.098   3.374   3.716 -0.1700 -1.0823 -0.9574
 8365SOL    HW236732   2.171   3.325   3.837 -0.1388  1.3779  0.6609
 8366SOL     OW36733   2.006   3.978   1.627  0.2272  0.1333 -0.1170
 8366SOL    HW136734   2.051   3.924   1.562  0.0783 -0.3121  0.1541
 8366SOL    HW236735   1.955   4.042   1.576  4.1487  0.6537 -3.4258
 8367SOL     OW36736   1.031   2.817  17.342  0.2205 -0.2881 -0.1900
 8367SOL    HW136737   1.005   2.738  17.390  1.5180  0.5603  1.9493
 8367SOL    HW236738   0.945   2.853  17.324 -1.1942 -3.1425  0.7888
 8368SOL     OW36739   4.608   2.329   2.892  0.1464 -0.1420  0.2909
 8368SOL    HW136740   4.699   2.356   2.905 -0.5919  2.2299  0.4372
 8368SOL    HW236741   4.563   2.342   2.975  0.9559  2.3411  0.3563
 8369SOL     OW36742   1.799   4.153   8.898  0.1683 -0.2317  0.1982
 8369SOL    HW136743   1.709   4.184   8.906  0.8491  1.4660  1.0488
 8369SOL    HW236744   1.822   4.139   8.990 -0.6854  1.9739  0.7273
 8370SOL     OW36745   4.687   1.465   9.933  0.2716  0.5050  0.1317
 8370SOL    HW136746   0.038   1.468   9.969  0.6460  0.7126 -0.8146
 8370SOL    HW236747   4.690   1.391   9.873  0.3865  0.3848  0.2850
 8371SOL     OW36748   1.656   3.288   8.014 -0.8593 -0.2287 -0.4494
 8371SOL    HW136749   1.700   3.203   8.019 -0.1723  0.2569  2.0579
 8371SOL    HW236750   1.693   3.328   8.093 -0.1233  1.4938 -1.6722
 8372SOL     OW36751   3.847   4.477   6.990  0.0839 -0.2103 -0.4145
 8372SOL    HW136752   3.923   4.458   6.935 -1.2844 -1.0662 -2.0330
 8372SOL    HW236753   3.789   4.510   6.922  0.0030  0.8507  0.1770
 8373SOL     OW36754   1.154   1.725   6.346  0.3890 -0.0327  0.1248
 8373SOL    HW136755   1.208   1.646   6.351  0.9511  0.3770  0.4709
 8373SOL    HW236756   1.148   1.733   6.251 -0.1884 -4.1788 -0.2086
 8374SOL     OW36757   4.275   2.424   5.592 -0.1936 -0.2840 -0.1931
 8374SOL    HW136758   4.297   2.486   5.662 -0.9745 -0.3124  0.0768
 8374SOL    HW236759   4.223   2.470   5.527 -0.1393  1.2748  0.8608
 8375SOL     OW36760   0.680   2.313  13.940 -0.0540  0.1132  0.4054
 8375SOL    HW136761   0.757   2.310  13.884  1.8325 -0.9649  3.0263
 8375SOL    HW236762   0.626   2.242  13.905 -0.4468  1.5345 -1.8638
 8376SOL     OW36763   4.123   1.634   8.239 -0.2281  0.2849  0.0862
 8376SOL    HW136764   4.160   1.701   8.297  2.4898 -2.1860  1.2314
 8376SOL    HW236765   4.051   1.678   8.193 -0.4626 -0.6491 -0.4275
 8377SOL     OW36766   2.487   1.197  13.215 -0.0758 -0.2189  0.5077
 8377SOL    HW136767   2.451   1.260  13.152 -0.4579 -0.9761 -0.0234
 8377SOL    HW236768   2.476   1.243  13.298  1.4774 -2.9591  2.2209
 8378SOL     OW36769   3.265   3.990   4.839  0.4023 -0.5507  0.4873
 8378SOL    HW136770   3.316   4.041   4.776  1.8172  0.2064  2.2766
 8378SOL    HW236771   3.219   3.932   4.778  0.2944 -1.6214  1.5896
 8379SOL     OW36772   3.687   2.931   4.388 -0.0790 -0.2255 -0.2834
 8379SOL    HW136773   3.650   3.014   4.359 -4.1062 -1.1101  2.2727
 8379SOL    HW236774   3.683   2.951   4.482 -3.3225  0.2403 -0.5476
 8380SOL     OW36775   2.536   2.803  17.136 -0.0827 -0.5808 -0.5944
 8380SOL    HW136776   2.575   2.870  17.193  0.9336 -0.8288 -1.0015
 8380SOL    HW236777   2.448   2.796  17.172  0.9250  0.4808  2.0381
 8381SOL     OW36778   0.008   1.785   1.395 -0.4141  0.6958 -0.0226
 8381SOL    HW136779   0.004   1.861   1.337 -0.4719  1.1670  0.5913
 8381SOL    HW236780   0.102   1.796   1.414  0.2147 -1.3424 -2.0062
 8382SOL     OW36781   0.382   4.173   7.953  0.0419  0.1040 -0.8781
 8382SOL    HW136782   0.369   4.084   7.985 -1.3989  0.8099  0.4653
 8382SOL    HW236783   0.467   4.190   7.993  0.2828 -1.2140 -0.8336
 8383SOL     OW36784   1.401   1.661   6.572 -0.0365  0.1972 -0.3523
 8383SOL    HW136785   1.434   1.661   6.662 -0.6531  0.0432 -0.1218
 8383SOL    HW236786   1.381   1.568   6.567  0.4422  0.0758  0.1188
 8384SOL     OW36787   3.733   0.613  17.646 -0.8542  0.2462  0.3236
 8384SOL    HW136788   3.782   0.535  17.620 -0.3994  0.8921 -0.7591
 8384SOL    HW236789   3.646   0.585  17.615 -1.1422  0.7998  0.6323
 8385SOL     OW36790   4.721   1.932   3.938  0.2683  0.4938 -0.4688
 8385SOL    HW136791   0.058   1.932   3.877 -1.0717  0.9254 -2.1048
 8385SOL    HW236792   0.016   1.974   4.018 -0.4236  0.5862 -0.2395
 8386SOL     OW36793   1.970   0.535   7.742  0.6027  0.1975 -0.2395
 8386SOL    HW136794   2.053   0.566   7.707 -0.6266  2.7758 -0.8771
 8386SOL    HW236795   1.932   0.617   7.773 -0.5785 -0.6546  0.5744
 8387SOL     OW36796   0.463   3.317   5.315  0.3722 -0.0031 -0.1448
 8387SOL    HW136797   0.397   3.261   5.273  0.3722  0.2927 -0.5381
 8387SOL    HW236798   0.439   3.399   5.271  2.1245  0.3030 -0.5193
 8388SOL     OW36799   3.535   1.429  11.206  0.0045 -0.1156 -0.5240
 8388SOL    HW136800   3.512   1.413  11.298  1.1085 -4.7732 -1.0946
 8388SOL    HW236801   3.444   1.434  11.176 -0.2382 -1.0666  0.0551
 8389SOL     OW36802   0.764   4.536   7.206  0.0758  0.1898  0.0397
 8389SOL    HW136803   0.682   4.584   7.199 -0.2647 -0.5747 -1.1163
 8389SOL    HW236804   0.735   4.451   7.174  0.5749  0.4421 -1.0742
 8390SOL     OW36805   3.621   1.001  13.627 -0.7757 -0.0842  0.8349
 8390SOL    HW136806   3.641   0.941  13.555 -0.7017  0.0127  0.7762
 8390SOL    HW236807   3.701   0.995  13.680 -2.2231  0.6112  3.1210
 8391SOL     OW36808   4.440   0.095  16.502  0.5547 -0.0766  0.0934
 8391SOL    HW136809   4.391   0.100  16.420  0.4329 -1.2921  0.0972
 8391SOL    HW236810   4.530   0.081  16.473  0.4386 -0.2423 -0.1941
 8392SOL     OW36811   2.893   2.909   5.131 -0.9269  0.4702  0.3635
 8392SOL    HW136812   2.926   2.858   5.057  0.6791  2.5654 -0.3577
 8392SOL    HW236813   2.843   2.978   5.085  0.1220  1.2549  0.4023
 8393SOL     OW36814   2.142   3.571  12.532 -0.8761 -0.2081 -0.0922
 8393SOL    HW136815   2.051   3.570  12.562 -1.0294  0.7135 -0.5533
 8393SOL    HW236816   2.150   3.659  12.497  1.3457 -1.1235 -1.9416
 8394SOL     OW36817   2.160   0.717   5.922  0.7515  0.0071  0.3806
 8394SOL    HW136818   2.100   0.662   5.972  1.4717  0.4333  1.7126
 8394SOL    HW236819   2.206   0.641   5.885 -1.8221 -1.6252  0.4999
 8395SOL     OW36820   3.136   0.829   7.918 -0.1926  0.4216  0.3400
 8395SOL    HW136821   3.217   0.825   7.970  0.4332  1.8179 -0.5268
 8395SOL    HW236822   3.103   0.916   7.939 -1.7711 -0.1975  0.4063
 8396SOL     OW36823   1.848   0.833   6.945 -0.7904  0.8497  0.5936
 8396SOL    HW136824   1.859   0.892   7.019  1.5351  0.4149  0.5639
 8396SOL    HW236825   1.929   0.852   6.898 -2.1907 -1.2481 -2.7471
 8397SOL     OW36826   4.375   1.646   2.476 -0.6485 -0.2413  0.4481
 8397SOL    HW136827   4.428   1.621   2.400  0.6966 -1.8428  1.8933
 8397SOL    HW236828   4.440   1.642   2.547  1.1871 -0.0942 -1.2143
 8398SOL     OW36829   4.368   0.522  15.868 -0.1592 -0.2543  0.0522
 8398SOL    HW136830   4.387   0.549  15.958 -1.0101  0.8851 -0.1086
 8398SOL    HW236831   4.381   0.427  15.871 -0.8811 -0.4425 -2.3417
 8399SOL     OW36832   2.116   4.666   9.339  0.7688 -0.0939 -0.1000
 8399SOL    HW136833   2.145   0.018   9.321 -1.3102  0.9651  1.8887
 8399SOL    HW236834   2.104   4.634   9.249  0.8358 -0.2061 -0.0693
 8400SOL     OW36835   1.507   0.683  14.268 -0.2122  0.1416 -0.5877
 8400SOL    HW136836   1.431   0.638  14.231 -1.9891 -0.0534  3.2981
 8400SOL    HW236837   1.507   0.663  14.361 -0.2462 -0.9434 -0.8221
 8401SOL     OW36838   2.886   1.524   5.433 -0.0887  0.0086  0.0791
 8401SOL    HW136839   2.805   1.520   5.382  0.3845 -2.0837 -0.5080
 8401SOL    HW236840   2.928   1.609   5.417  1.4442 -0.9933 -1.2306
 8402SOL     OW36841   2.009   0.529   1.377  0.4951  0.2290 -0.1143
 8402SOL    HW136842   2.045   0.617   1.379  0.2668  0.3543 -2.0364
 8402SOL    HW236843   2.023   0.502   1.286  1.9753  1.5090 -0.2566
 8403SOL     OW36844   2.114   2.623   4.413 -0.2159  0.0782  0.0298
 8403SOL    HW136845   2.159   2.646   4.332  0.2436 -0.5854  0.1025
 8403SOL    HW236846   2.039   2.680   4.396  1.0283  0.7679 -3.2723
 8404SOL     OW36847   3.565   4.468   4.815 -0.5658  0.7154 -0.0991
 8404SOL    HW136848   3.483   4.503   4.779 -2.3325 -3.5692 -0.3140
 8404SOL    HW236849   3.622   4.544   4.806  0.0984 -0.0381 -2.4528
 8405SOL     OW36850   2.704   3.247   8.785 -0.6638  0.0428 -0.1395
 8405SOL    HW136851   2.683   3.339   8.798  0.0041  0.0129  1.1762
 8405SOL    HW236852   2.701   3.215   8.875  0.5952  1.0499  0.2704
 8406SOL     OW36853   2.693   0.599   0.387  0.3336 -0.0027 -0.7065
 8406SOL    HW136854   2.706   0.514   0.344  1.2061 -0.2572  0.0636
 8406SOL    HW236855   2.705   0.653   0.309 -0.1387 -0.4109 -1.0615
 8407SOL     OW36856   0.337   3.394   4.043 -0.1433  0.9942  0.4220
 8407SOL    HW136857   0.361   3.343   3.966 -1.0367 -1.5561  1.8382
 8407SOL    HW236858   0.392   3.346   4.104 -1.7008 -1.0968  0.1938
 8408SOL     OW36859   4.701   4.615   3.135  0.0828 -0.1144  0.0131
 8408SOL    HW136860   4.659   4.529   3.131 -0.8718  0.3262  0.2949
 8408SOL    HW236861   4.655   4.655   3.061  0.6870 -0.9537 -0.8149
 8409SOL     OW36862   3.434   3.547   6.542 -0.3112 -0.0600  0.6654
 8409SOL    HW136863   3.527   3.531   6.557 -0.2971  0.6419  1.3361
 8409SOL    HW236864   3.422   3.599   6.621 -2.5826 -0.8102  0.8282
 8410SOL     OW36865   1.253   0.568  16.303  0.8732  0.2920  0.3447
 8410SOL    HW136866   1.220   0.486  16.341  0.3795  0.1497 -0.3751
 8410SOL    HW236867   1.344   0.543  16.288  0.8596 -0.1330  0.9754
 8411SOL     OW36868   2.404   4.055   7.788  0.2641  0.0429 -0.3528
 8411SOL    HW136869   2.485   4.106   7.783 -0.0591  0.6966  1.0132
 8411SOL    HW236870   2.409   4.027   7.880 -2.5753 -1.5886 -0.6810
 8412SOL     OW36871   3.599   2.762   2.703 -0.0971  0.4342  0.0601
 8412SOL    HW136872   3.512   2.773   2.665 -0.5387 -0.2965  0.8477
 8412SOL    HW236873   3.644   2.713   2.634  2.5389  1.4141  1.0758
 8413SOL     OW36874   4.497   2.890   7.176 -0.6152 -0.2374  0.2754
 8413SOL    HW136875   4.586   2.913   7.201 -0.3909  0.6557 -1.3481
 8413SOL    HW236876   4.450   2.925   7.252 -1.3265 -1.3075  0.3306
 8414SOL     OW36877   4.608   4.001   5.528  0.3502  0.8960 -0.5126
 8414SOL    HW136878   4.564   4.028   5.448 -0.2843 -1.2786 -0.8770
 8414SOL    HW236879   4.536   3.974   5.584 -0.9303  0.9770 -2.1262
 8415SOL     OW36880   1.636   3.386   8.964 -0.1434  0.1055  0.5109
 8415SOL    HW136881   1.605   3.381   9.055  0.3712 -1.2956  0.6208
 8415SOL    HW236882   1.575   3.458   8.948 -0.7067 -0.0475  1.8952
 8416SOL     OW36883   0.689   4.429  10.231 -0.6463  0.3537 -0.4641
 8416SOL    HW136884   0.715   4.420  10.322 -0.0909  1.3862 -0.5161
 8416SOL    HW236885   0.630   4.355  10.220  0.7244 -0.4496 -2.5904
 8417SOL     OW36886   1.274   2.019   9.775  0.1353 -0.0617  0.2254
 8417SOL    HW136887   1.248   2.000   9.685 -2.2780  0.6803  0.7744
 8417SOL    HW236888   1.215   1.960   9.822  0.2421 -1.1685 -1.0574
 8418SOL     OW36889   2.021   3.635  10.757 -0.2673  0.4891  0.0025
 8418SOL    HW136890   2.114   3.648  10.776 -0.3638 -0.8848  1.4003
 8418SOL    HW236891   2.018   3.619  10.663  0.6006  0.3676 -0.0072
 8419SOL     OW36892   1.401   3.836   6.938 -0.4076  0.8091 -0.5439
 8419SOL    HW136893   1.478   3.780   6.933 -1.4801 -0.4529 -2.6277
 8419SOL    HW236894   1.341   3.770   6.972 -1.4496  1.7233 -0.5853
 8420SOL     OW36895   4.239   0.431   7.792 -0.2937  0.2943  0.6087
 8420SOL    HW136896   4.322   0.388   7.775 -0.5138 -0.2280  0.8527
 8420SOL    HW236897   4.261   0.511   7.839  0.3906  0.5466 -0.1409
 8421SOL     OW36898   3.781   1.736   6.362  0.0980  0.1051 -0.1221
 8421SOL    HW136899   3.719   1.664   6.369 -0.4729  0.6639  0.5732
 8421SOL    HW236900   3.715   1.795   6.398  0.6675  0.9963 -0.5080
 8422SOL     OW36901   1.530   1.126   1.692  0.4763 -0.2110  0.5455
 8422SOL    HW136902   1.513   1.057   1.756 -2.7862  1.0267  1.0620
 8422SOL    HW236903   1.538   1.206   1.744  1.1966 -0.0944  0.2516
 8423SOL     OW36904   3.740   2.571  11.938  0.0414 -0.3211 -0.0889
 8423SOL    HW136905   3.737   2.537  11.849 -0.7421 -0.2294 -0.0984
 8423SOL    HW236906   3.673   2.637  11.924  1.4460  1.3364  0.9836
 8424SOL     OW36907   1.081   2.124  16.359  0.0864  0.5903 -0.1381
 8424SOL    HW136908   0.989   2.145  16.372 -0.2492  0.0632 -1.6485
 8424SOL    HW236909   1.120   2.143  16.444  0.5564  0.2632 -0.2809
 8425SOL     OW36910   4.476   2.071   5.840 -0.8975  0.5882 -0.6262
 8425SOL    HW136911   4.459   2.158   5.876 -0.2764  1.2628 -1.9869
 8425SOL    HW236912   4.395   2.027   5.868 -0.3540 -0.1275 -0.1674
 8426SOL     OW36913   0.130   0.950   3.739  0.2968 -0.4152  0.3685
 8426SOL    HW136914   0.129   0.900   3.821 -2.8032 -1.2514 -0.2066
 8426SOL    HW236915   0.038   0.966   3.720  0.2671  0.5582  1.3026
 8427SOL     OW36916   3.822   2.954  15.020 -0.5300  0.2608 -0.3064
 8427SOL    HW136917   3.863   2.886  14.968 -0.2334  0.2249 -0.0254
 8427SOL    HW236918   3.879   2.944  15.097 -1.6790 -1.2144  0.3604
 8428SOL     OW36919   1.401   2.735   5.168  0.3817 -0.2622 -0.0451
 8428SOL    HW136920   1.491   2.742   5.138 -0.2448 -0.7195 -2.0431
 8428SOL    HW236921   1.404   2.799   5.239  0.7981  1.1509 -1.3361
 8429SOL     OW36922   0.886   3.543   7.006  0.1049  0.3058  0.4520
 8429SOL    HW136923   0.922   3.622   6.964 -1.2024  1.2493  1.1024
 8429SOL    HW236924   0.953   3.518   7.069 -0.4965 -1.4894  0.3788
 8430SOL     OW36925   3.333   2.820  14.996 -0.5570  0.4410 -0.1481
 8430SOL    HW136926   3.285   2.870  15.062 -1.5745 -1.1564  0.3314
 8430SOL    HW236927   3.403   2.881  14.975 -1.2497  1.5232  0.7130
 8431SOL     OW36928   0.638   2.369   4.084  0.0790 -0.0999 -0.0806
 8431SOL    HW136929   0.555   2.337   4.049 -0.1192 -1.3500  1.5572
 8431SOL    HW236930   0.600   2.443   4.132  1.0335  1.6572 -2.0108
 8432SOL     OW36931   1.830   2.663   5.819  0.9349  0.3046  0.0291
 8432SOL    HW136932   1.854   2.646   5.728  0.3839 -0.5291  0.0398
 8432SOL    HW236933   1.867   2.587   5.864 -0.1490 -0.9464 -1.2096
 8433SOL     OW36934   1.579   4.352   9.371  0.6495 -0.7679 -1.0678
 8433SOL    HW136935   1.583   4.432   9.318 -2.2659  0.2137  0.1720
 8433SOL    HW236936   1.559   4.290   9.301 -0.7409 -3.4849  1.7681
 8434SOL     OW36937   1.218   1.883  11.105  0.0298  0.5517 -0.1849
 8434SOL    HW136938   1.145   1.922  11.152 -1.3442 -2.8505  0.5117
 8434SOL    HW236939   1.183   1.874  11.016  0.6580 -2.5780 -0.1382
 8435SOL     OW36940   1.750   4.107   2.924  0.3572 -0.3256  0.1374
 8435SOL    HW136941   1.738   4.072   3.013 -0.9278 -1.2235 -0.3854
 8435SOL    HW236942   1.721   4.198   2.931 -2.4455 -1.5117  3.5750
 8436SOL     OW36943   3.454   0.190   2.962  0.2883  0.2101 -0.3369
 8436SOL    HW136944   3.450   0.105   2.918 -0.1718  0.6674 -1.1687
 8436SOL    HW236945   3.392   0.247   2.917  1.2508  1.5412  0.0086
 8437SOL     OW36946   2.004   4.202   8.461 -0.2466 -0.3989 -0.1452
 8437SOL    HW136947   1.925   4.219   8.513  0.6185  0.4872  0.9082
 8437SOL    HW236948   2.042   4.290   8.452  0.3605 -0.6129  0.3403
 8438SOL     OW36949   0.649   1.237   2.506 -0.2211  0.4312  0.6003
 8438SOL    HW136950   0.635   1.290   2.427  0.9564 -0.5672 -0.2994
 8438SOL    HW236951   0.664   1.303   2.573  1.1611  0.0935  0.6372
 8439SOL     OW36952   1.949   3.436   0.823  0.4915 -0.1391  0.5712
 8439SOL    HW136953   1.911   3.519   0.854  0.5079 -0.3391  1.1408
 8439SOL    HW236954   1.984   3.472   0.742  2.1861  0.3784  1.5332
 8440SOL     OW36955   0.899   3.695   4.022 -0.2999 -0.1330  0.6294
 8440SOL    HW136956   0.852   3.778   4.015 -0.9477 -0.5688 -0.1831
 8440SOL    HW236957   0.839   3.635   4.067  1.4438 -2.2066  0.1536
 8441SOL     OW36958   4.135   0.390   5.691 -0.3686 -0.1811  0.2279
 8441SOL    HW136959   4.080   0.391   5.612  0.0052 -1.8331 -0.0450
 8441SOL    HW236960   4.152   0.484   5.682  0.0544 -0.3896 -1.1499
 8442SOL     OW36961   1.787   2.922  16.728 -0.3192  0.2505  0.4535
 8442SOL    HW136962   1.792   2.991  16.661  1.8990 -0.8357 -0.5113
 8442SOL    HW236963   1.709   2.956  16.772  0.6731 -0.6771  2.9180
 8443SOL     OW36964   3.161   2.653   7.613  0.2412 -0.3372 -0.1299
 8443SOL    HW136965   3.197   2.732   7.574  0.0493  0.5172  1.4356
 8443SOL    HW236966   3.125   2.610   7.536  2.1778  1.5447 -2.0647
 8444SOL     OW36967   0.869   2.932  11.490  0.0841 -0.1991 -0.0561
 8444SOL    HW136968   0.947   2.878  11.505 -1.1671 -2.2437 -0.8490
 8444SOL    HW236969   0.795   2.875  11.511  0.7234 -1.0796 -0.1650
 8445SOL     OW36970   0.935   0.256   1.159 -0.0349  0.6566 -0.9506
 8445SOL    HW136971   0.855   0.208   1.181  0.6750  0.2468  0.6988
 8445SOL    HW236972   0.950   0.227   1.069 -0.5758  1.2378 -1.2274
 8446SOL     OW36973   3.835   0.456   1.370 -0.0977  0.0820  0.0216
 8446SOL    HW136974   3.901   0.389   1.350 -0.6617 -0.9597  1.6810
 8446SOL    HW236975   3.890   0.534   1.364  0.1478  0.0115  1.4180
 8447SOL     OW36976   3.734   1.023  11.841  0.0319  0.0329 -0.6624
 8447SOL    HW136977   3.757   0.940  11.799 -1.4446 -0.0095 -1.3552
 8447SOL    HW236978   3.764   1.005  11.930 -1.3715  1.7935  0.1653
 8448SOL     OW36979   3.770   2.108   8.430  0.4011  0.4368  0.3314
 8448SOL    HW136980   3.730   2.184   8.471  1.7559 -0.0191  2.4673
 8448SOL    HW236981   3.812   2.073   8.508  1.7060 -0.4145 -0.7488
 8449SOL     OW36982   3.876   2.727  14.867  0.7886 -0.0605  0.3634
 8449SOL    HW136983   3.901   2.641  14.901 -2.4256 -0.9885  0.3098
 8449SOL    HW236984   3.922   2.723  14.783 -0.8609  1.1771 -0.5937
 8450SOL     OW36985   2.566   2.253   9.049  0.3930  0.0452  0.2484
 8450SOL    HW136986   2.514   2.333   9.041 -1.1089 -0.8870  0.7642
 8450SOL    HW236987   2.637   2.268   8.986 -0.5857  0.6881 -0.6866
 8451SOL     OW36988   1.930   0.485   9.569 -0.1162 -0.2279 -0.3615
 8451SOL    HW136989   1.915   0.434   9.649  0.4422 -1.4218 -1.0102
 8451SOL    HW236990   1.949   0.571   9.607  0.7377 -1.3048  1.6526
 8452SOL     OW36991   1.951   1.713   7.839 -0.2015 -0.0505  0.3337
 8452SOL    HW136992   1.917   1.792   7.797  1.4377 -0.6979 -2.1826
 8452SOL    HW236993   2.042   1.733   7.861 -0.4935  0.8881  0.6964
 8453SOL     OW36994   0.056   1.136   6.246 -0.7063  0.1242  0.0963
 8453SOL    HW136995   0.056   1.197   6.320 -1.8365  1.1342 -0.7299
 8453SOL    HW236996   0.150   1.119   6.240 -0.6309 -0.0290  1.6385
 8454SOL     OW36997   3.736   0.943   5.855  0.3318 -0.6666  0.4654
 8454SOL    HW136998   3.660   0.941   5.797 -0.3805  1.6210  1.2973
 8454SOL    HW236999   3.742   1.038   5.867 -2.5704 -0.5432  1.1041
 8455SOL     OW37000   3.280   3.754   9.382 -0.0077  0.1414  0.1503
 8455SOL    HW137001   3.217   3.811   9.339 -0.8000  0.0968  1.2519
 8455SOL    HW237002   3.334   3.733   9.306 -0.8494 -1.2708 -0.0635
 8456SOL     OW37003   0.682   1.030  13.336  0.8262  0.0919  0.4653
 8456SOL    HW137004   0.746   0.996  13.274 -0.6075 -2.8376  0.5588
 8456SOL    HW237005   0.705   1.122  13.339  0.6333  0.1795 -1.0203
 8457SOL     OW37006   1.047   3.120   9.310  0.3873 -0.0837 -0.1415
 8457SOL    HW137007   1.027   3.213   9.306 -1.3616 -0.4803 -0.8873
 8457SOL    HW237008   1.021   3.094   9.222 -2.2754  1.0860  0.2748
 8458SOL     OW37009   3.048   1.071   5.158  0.2968  0.0795  0.3553
 8458SOL    HW137010   3.080   1.161   5.160  1.0229 -0.2132  1.5802
 8458SOL    HW237011   3.017   1.074   5.067  0.7269 -2.3966  0.1297
 8459SOL     OW37012   0.636   1.706   9.710  0.1949 -0.2903 -0.9186
 8459SOL    HW137013   0.557   1.702   9.656 -0.1027 -1.5161 -0.3748
 8459SOL    HW237014   0.697   1.718   9.637  0.1262  1.9269 -0.6060
 8460SOL     OW37015   3.661   2.220   2.256  0.1381 -0.2304 -0.0180
 8460SOL    HW137016   3.712   2.192   2.179  0.0203 -1.5443  0.3729
 8460SOL    HW237017   3.727   2.264   2.309  0.6743  0.6800 -1.4418
 8461SOL     OW37018   2.973   0.635   7.353 -0.4157 -0.0252 -0.9836
 8461SOL    HW137019   2.962   0.592   7.268 -0.1275  1.5237 -1.7979
 8461SOL    HW237020   2.923   0.717   7.345  0.6218  0.6510 -0.4937
 8462SOL     OW37021   3.214   2.858   7.410  0.0876 -0.0044  0.2622
 8462SOL    HW137022   3.239   2.939   7.454 -0.3746  0.6723 -0.7347
 8462SOL    HW237023   3.275   2.849   7.336 -3.2830  0.2645 -2.5499
 8463SOL     OW37024   3.226   0.022   3.257 -0.0731  0.1488  0.1102
 8463SOL    HW137025   3.174   0.083   3.205  0.8125 -2.3339 -3.6440
 8463SOL    HW237026   3.269   0.085   3.315 -2.0501  0.2241  1.4657
 8464SOL     OW37027   2.178   0.454   8.936 -0.2527  0.0375  0.2343
 8464SOL    HW137028   2.115   0.444   8.865 -0.5196  3.1675  0.0477
 8464SOL    HW237029   2.262   0.429   8.897 -0.7178 -1.3630  0.1166
 8465SOL     OW37030   3.863   3.317   2.811  0.5689 -0.0233  0.2182
 8465SOL    HW137031   3.805   3.261   2.760  0.9697 -0.9186  0.7442
 8465SOL    HW237032   3.859   3.267   2.892 -1.4129  1.7029  1.1983
 8466SOL     OW37033   1.719   3.987   4.987 -0.5095 -0.1700  0.7044
 8466SOL    HW137034   1.638   3.945   5.014  0.4701 -2.1160  0.6514
 8466SOL    HW237035   1.780   3.952   5.052 -0.0607  1.1004  0.9574
 8467SOL     OW37036   0.700   3.554   4.125 -0.3761  0.4980 -0.2989
 8467SOL    HW137037   0.732   3.469   4.154  0.7090  0.0236 -2.8527
 8467SOL    HW237038   0.610   3.558   4.158 -0.0877  2.7904  0.2180
 8468SOL     OW37039   0.345   3.005   8.589 -0.1973  0.2875 -0.5928
 8468SOL    HW137040   0.380   2.933   8.642  0.3072  0.5224 -0.6050
 8468SOL    HW237041   0.315   3.071   8.652 -2.1183  0.0627 -1.3027
 8469SOL     OW37042   1.376   4.335  16.376  0.0175 -0.1407 -0.1150
 8469SOL    HW137043   1.360   4.423  16.411 -0.4518 -0.9544  1.7710
 8469SOL    HW237044   1.411   4.306  16.460  0.2660 -0.7037 -0.4141
 8470SOL     OW37045   2.316   0.392   0.562 -0.7139 -0.1476 -0.3172
 8470SOL    HW137046   2.308   0.429   0.650 -1.8365  0.5743 -0.7309
 8470SOL    HW237047   2.372   0.314   0.569 -0.1972  0.2252 -0.2629
 8471SOL     OW37048   3.127   1.019   4.003  0.2084  0.3361 -0.1823
 8471SOL    HW137049   3.112   0.927   4.028  2.4611 -0.0347 -0.1415
 8471SOL    HW237050   3.175   1.051   4.080  1.9620  2.4956 -2.1878
 8472SOL     OW37051   0.917   4.709   4.588  0.7713 -0.0901 -0.6980
 8472SOL    HW137052   0.852   0.023   4.636  1.0031  0.2725 -0.7659
 8472SOL    HW237053   0.958   4.643   4.643  0.0224 -0.6783 -0.8500
 8473SOL     OW37054   3.805   2.391  10.101  0.1844 -0.5207 -0.3279
 8473SOL    HW137055   3.754   2.375  10.180 -0.5997  0.0136 -0.7303
 8473SOL    HW237056   3.893   2.384  10.138 -0.3130 -0.7961  0.7862
 8474SOL     OW37057   4.691   3.869  12.052 -0.1294 -0.3307 -0.6552
 8474SOL    HW137058   4.652   3.783  12.064 -0.3845  0.0172  0.9064
 8474SOL    HW237059   0.037   3.852  12.096  1.1259  1.3558 -2.3203
 8475SOL     OW37060   0.856   2.318  15.367  0.2260 -0.5337 -0.0377
 8475SOL    HW137061   0.949   2.296  15.369  0.2504 -0.2746  1.8271
 8475SOL    HW237062   0.858   2.402  15.321 -2.0028 -1.5604 -1.9730
 8476SOL     OW37063   2.160   3.777  16.909 -0.5192 -0.5666  0.3322
 8476SOL    HW137064   2.072   3.807  16.933 -0.9412 -1.4804 -0.0676
 8476SOL    HW237065   2.151   3.682  16.915  1.7829 -0.6878  1.7729
 8477SOL     OW37066   0.861   3.516   6.353 -0.3363  0.3189  0.2395
 8477SOL    HW137067   0.945   3.477   6.378  0.0066  1.1129  0.3421
 8477SOL    HW237068   0.853   3.476   6.266 -0.9888  1.9761 -0.4591
 8478SOL     OW37069   2.707   2.656   4.641 -0.1409 -0.1915 -0.2326
 8478SOL    HW137070   2.799   2.633   4.628  0.2157  1.5276 -0.7320
 8478SOL    HW237071   2.693   2.732   4.585 -2.8151  0.3659  1.2265
 8479SOL     OW37072   2.011   1.233   6.923  0.4089  0.2292 -0.6273
 8479SOL    HW137073   1.953   1.307   6.907  2.3156  1.7866 -0.3230
 8479SOL    HW237074   2.026   1.252   7.015  0.4478 -0.9125 -0.4033
 8480SOL     OW37075   0.580   1.951   7.963  0.0251  0.2459 -0.3620
 8480SOL    HW137076   0.598   1.864   7.999 -2.2176  0.3125  0.9415
 8480SOL    HW237077   0.631   1.946   7.882 -1.0676 -0.3802 -1.0214
 8481SOL     OW37078   2.039   0.822   4.309  0.5488 -0.5029  0.0573
 8481SOL    HW137079   2.059   0.901   4.358 -0.3118 -0.0679 -0.2830
 8481SOL    HW237080   2.011   0.760   4.376  0.0740 -0.1425  0.1977
 8482SOL     OW37081   0.006   0.531   3.897  0.1409 -0.0617  0.6380
 8482SOL    HW137082   0.021   0.553   3.805 -1.0132  0.1589  0.5095
 8482SOL    HW237083   4.651   0.554   3.903  0.4899  1.3687  0.5182
 8483SOL     OW37084   2.689   2.267   5.113  0.0338  0.8414  0.0195
 8483SOL    HW137085   2.731   2.235   5.034  1.6544 -1.8123  1.9552
 8483SOL    HW237086   2.740   2.222   5.180  0.4825 -0.2497 -1.0654
 8484SOL     OW37087   3.169   3.614  15.032  0.1473 -0.3271 -0.4876
 8484SOL    HW137088   3.194   3.560  15.107  0.8841 -0.5824 -0.9246
 8484SOL    HW237089   3.243   3.674  15.027  0.9865 -1.1357  2.1417
 8485SOL     OW37090   3.335   0.505   3.091  0.2452 -0.5199  0.3411
 8485SOL    HW137091   3.335   0.530   2.999  1.8115 -2.1481 -0.0842
 8485SOL    HW237092   3.426   0.476   3.099  1.0271  1.4562 -1.5041
 8486SOL     OW37093   0.772   2.128   8.273 -0.1232  0.1520 -0.2312
 8486SOL    HW137094   0.787   2.059   8.208  0.4485  0.7910 -0.7816
 8486SOL    HW237095   0.723   2.081   8.341  1.1825 -1.3224 -0.3041
 8487SOL     OW37096   2.122   3.466   8.584 -0.3010 -0.0900  0.1188
 8487SOL    HW137097   2.078   3.396   8.535  1.5106  0.2350 -1.9733
 8487SOL    HW237098   2.207   3.422   8.593 -0.4827 -0.5379 -0.3368
 8488SOL     OW37099   1.924   1.672  17.593  0.1452  0.5705 -0.5972
 8488SOL    HW137100   1.920   1.767  17.584  0.3933  0.6151 -0.2272
 8488SOL    HW237101   1.970   1.669  17.677  0.5573 -1.2323 -0.8919
 8489SOL     OW37102   1.218   3.924   7.649 -0.3234 -0.1450 -0.2906
 8489SOL    HW137103   1.301   3.971   7.656 -0.7397  0.5198  0.1901
 8489SOL    HW237104   1.180   3.964   7.571 -0.3920 -1.7517 -1.0782
 8490SOL     OW37105   2.951   1.416   6.337  0.0356 -0.1005 -0.0999
 8490SOL    HW137106   3.015   1.359   6.293 -1.1007 -0.5682 -1.1342
 8490SOL    HW237107   2.940   1.368   6.419 -1.4580 -0.2961 -0.4242
 8491SOL     OW37108   2.632   2.408   8.290  0.0720  0.3053 -0.5758
 8491SOL    HW137109   2.656   2.415   8.382  1.4896  0.1288 -0.9347
 8491SOL    HW237110   2.536   2.403   8.294  0.1489 -0.1639  0.6237
 8492SOL     OW37111   0.429   1.920   8.863  0.4125 -0.4146  0.2340
 8492SOL    HW137112   0.419   1.825   8.867  0.9951 -0.4829 -0.0070
 8492SOL    HW237113   0.356   1.952   8.809 -1.2605 -3.2451  0.8204
 8493SOL     OW37114   2.947   0.477   8.640  0.5017 -0.2769 -0.6049
 8493SOL    HW137115   2.988   0.437   8.563  0.8114  0.9716 -1.0748
 8493SOL    HW237116   2.881   0.410   8.661 -0.7654  1.2886  0.3567
 8494SOL     OW37117   4.583   4.399   2.368 -0.2726  0.0845 -0.2863
 8494SOL    HW137118   4.495   4.430   2.387 -0.5462 -0.5891 -0.4458
 8494SOL    HW237119   4.638   4.477   2.361 -1.5912  0.9173 -1.2844
 8495SOL     OW37120   1.766   1.777   2.995 -0.3947  0.3325 -0.0463
 8495SOL    HW137121   1.795   1.717   3.063 -2.3565 -0.0897  0.4129
 8495SOL    HW237122   1.842   1.765   2.938  0.4863 -1.1198  1.4747
 8496SOL     OW37123   1.676   1.828   8.724  0.3678 -0.2377 -0.2747
 8496SOL    HW137124   1.591   1.850   8.684 -1.8773 -0.9851  4.1052
 8496SOL    HW237125   1.738   1.824   8.652  0.4971 -0.1050 -0.1713
 8497SOL     OW37126   2.833   1.151  12.912  0.2101 -0.5101 -0.1136
 8497SOL    HW137127   2.816   1.096  12.836 -0.6287  1.0181 -1.0190
 8497SOL    HW237128   2.797   1.100  12.986  1.4461 -0.2919  0.6428
 8498SOL     OW37129   2.124   1.508   8.606  0.5745  0.0136  0.0108
 8498SOL    HW137130   2.158   1.583   8.653  0.3008 -0.8074  1.5030
 8498SOL    HW237131   2.033   1.511   8.635  0.0283  0.9523 -1.7792
 8499SOL     OW37132   1.415   3.625   2.429  0.2445  0.1130 -0.0420
 8499SOL    HW137133   1.493   3.636   2.375  0.6100  0.4214  0.5447
 8499SOL    HW237134   1.412   3.706   2.481 -2.1518  0.4938 -0.7957
 8500SOL     OW37135   0.298   0.037   5.994 -0.5716 -0.2609  0.3568
 8500SOL    HW137136   0.276   0.008   6.082  1.3791  0.3744  1.0477
 8500SOL    HW237137   0.330   4.692   5.957 -1.0918 -0.6566  0.7872
 8501SOL     OW37138   0.081   0.182   7.489 -0.0709  0.6053  0.4912
 8501SOL    HW137139   0.154   0.131   7.454 -1.1642 -0.1061 -0.7558
 8501SOL    HW237140   0.111   0.173   7.579 -0.2405 -0.0149  0.4889
 8502SOL     OW37141   0.292   3.373   2.485  0.0071 -0.1709 -0.0120
 8502SOL    HW137142   0.214   3.375   2.540  1.0967  0.5209  1.5025
 8502SOL    HW237143   0.270   3.444   2.425  0.0717  0.0579  0.2370
 8503SOL     OW37144   3.710   3.723   3.525 -0.5193 -0.0146  0.1278
 8503SOL    HW137145   3.735   3.750   3.437 -0.2651 -1.6508 -0.3130
 8503SOL    HW237146   3.635   3.670   3.500 -0.0836 -0.0686 -1.0469
 8504SOL     OW37147   3.783   1.193   8.574  0.2000 -0.1253  0.5572
 8504SOL    HW137148   3.696   1.223   8.600 -0.6991 -2.2230 -0.0632
 8504SOL    HW237149   3.823   1.182   8.661  0.8715  0.9239  0.3770
 8505SOL     OW37150   1.487   1.886   1.492  0.3641  0.8492 -0.2768
 8505SOL    HW137151   1.478   1.807   1.546 -1.6783  3.2264  2.8596
 8505SOL    HW237152   1.540   1.857   1.418  0.0155  1.8848 -0.9226
 8506SOL     OW37153   2.546   0.274   8.242  0.4982 -1.1586 -0.1269
 8506SOL    HW137154   2.453   0.259   8.258  0.6029 -1.3344  0.3276
 8506SOL    HW237155   2.577   0.189   8.208  0.5692 -1.3467  0.4025
 8507SOL     OW37156   1.020   0.011   9.135 -0.3128 -0.0297  0.1711
 8507SOL    HW137157   1.008   0.014   9.230 -0.6003  1.0270  0.1085
 8507SOL    HW237158   1.050   0.099   9.111  1.7791 -1.1074 -1.2268
 8508SOL     OW37159   0.973   2.796   1.014  0.2957 -0.0091 -0.4862
 8508SOL    HW137160   0.912   2.867   0.996  0.8500  1.4487  3.3341
 8508SOL    HW237161   0.922   2.739   1.072 -0.9706  1.1691 -0.4320
 8509SOL     OW37162   4.450   2.917   6.305 -0.1569  0.2280  0.2083
 8509SOL    HW137163   4.387   2.880   6.367  1.0073 -1.1984  0.5223
 8509SOL    HW237164   4.471   2.999   6.351  0.8724 -1.2839  2.4316
 8510SOL     OW37165   3.743   4.442   9.571 -0.1393  0.0288 -0.5656
 8510SOL    HW137166   3.704   4.485   9.647 -3.6309 -2.0035 -1.2556
 8510SOL    HW237167   3.678   4.374   9.559  1.6156 -1.7150 -0.2025
 8511SOL     OW37168   2.514   1.525   4.758 -0.2842 -0.2219  0.2855
 8511SOL    HW137169   2.516   1.430   4.751 -1.1416 -0.1181 -1.3589
 8511SOL    HW237170   2.452   1.559   4.693 -1.5425 -0.8374  1.1575
 8512SOL     OW37171   2.797   2.758   1.555 -0.1105 -0.1953  0.0704
 8512SOL    HW137172   2.801   2.853   1.558 -0.3407 -0.2051  0.8222
 8512SOL    HW237173   2.805   2.738   1.649  2.2194 -0.2041 -0.1340
 8513SOL     OW37174   1.695   3.710   3.255  0.0937 -0.4148  0.6041
 8513SOL    HW137175   1.725   3.636   3.308 -0.9510 -0.5237  1.0291
 8513SOL    HW237176   1.677   3.662   3.174  5.5205 -0.6614 -0.4566
 8514SOL     OW37177   1.431   0.804   7.249  0.4104  0.5047  0.0538
 8514SOL    HW137178   1.523   0.777   7.250  0.7379  1.6668  0.2235
 8514SOL    HW237179   1.430   0.888   7.205 -1.0181  0.9279  0.9016
 8515SOL     OW37180   4.036   2.028   6.553  1.0327 -0.3927 -0.0914
 8515SOL    HW137181   3.988   1.954   6.592  0.9430 -0.7695 -0.9096
 8515SOL    HW237182   3.966   2.073   6.506  0.7222 -1.2014 -0.4053
 8516SOL     OW37183   2.229   4.123  17.742  0.6616  0.3040 -0.4447
 8516SOL    HW137184   2.278   4.204  17.730  2.1471 -0.7270 -1.4681
 8516SOL    HW237185   2.290   4.062   0.038 -2.0137 -0.4201  2.2784
 8517SOL     OW37186   2.302   2.674   7.727 -0.3988 -0.0409 -0.1865
 8517SOL    HW137187   2.252   2.642   7.802 -0.5281  0.7950  0.0843
 8517SOL    HW237188   2.239   2.656   7.657 -1.3868  3.5918 -0.2210
 8518SOL     OW37189   4.719   2.898  10.812  0.4764 -0.0875 -0.1654
 8518SOL    HW137190   0.055   2.957  10.832 -0.5852  0.8704  0.8806
 8518SOL    HW237191   0.023   2.833  10.755  1.6417 -0.6373  1.3227
 8519SOL     OW37192   3.404   1.365   1.958  0.2956 -0.0259 -0.3130
 8519SOL    HW137193   3.372   1.424   1.890  2.4365  1.8827  0.3407
 8519SOL    HW237194   3.495   1.392   1.970 -0.7544  3.9059 -1.3070
 8520SOL     OW37195   4.316   4.516   2.453  0.3701 -0.2431 -0.2746
 8520SOL    HW137196   4.286   4.468   2.376  1.8600 -1.1089 -0.3171
 8520SOL    HW237197   4.255   4.491   2.522  1.5489 -0.6171  0.6255
 8521SOL     OW37198   3.223   3.483  10.324 -0.5592 -0.5910 -0.0342
 8521SOL    HW137199   3.245   3.502  10.415 -0.2081  1.4001 -0.5234
 8521SOL    HW237200   3.215   3.388  10.320 -2.7913 -0.2946 -2.3340
 8522SOL     OW37201   1.812   2.023   7.484 -0.0579 -1.0094  0.7794
 8522SOL    HW137202   1.745   2.089   7.467  2.9494  1.4999 -1.2118
 8522SOL    HW237203   1.879   2.038   7.418 -0.0754 -0.2331  0.9413
 8523SOL     OW37204   0.556   4.045   7.703  0.2518  0.1070 -0.0299
 8523SOL    HW137205   0.553   4.011   7.793  1.6689 -0.0864 -0.0619
 8523SOL    HW237206   0.639   4.093   7.701  0.0989  0.3001 -2.0061
 8524SOL     OW37207   1.933   1.807   9.744  0.0651 -0.0795  0.3887
 8524SOL    HW137208   1.980   1.888   9.762  0.1015 -0.5702  2.5747
 8524SOL    HW237209   1.984   1.732   9.775  0.8471  1.2542  2.3391
 8525SOL     OW37210   1.288   4.235  15.658 -0.5675 -0.4635  0.0885
 8525SOL    HW137211   1.312   4.276  15.741 -2.8650 -1.5869  1.3048
 8525SOL    HW237212   1.334   4.151  15.662 -1.7266 -1.0500  0.9767
 8526SOL     OW37213   1.208   0.808   3.754 -0.5146 -0.3416 -0.0615
 8526SOL    HW137214   1.116   0.801   3.726 -0.5064 -0.9172  0.0625
 8526SOL    HW237215   1.192   0.829   3.846  2.4970  1.8538 -0.0523
 8527SOL     OW37216   4.174   4.169   5.421  0.1940  0.5195 -0.1792
 8527SOL    HW137217   4.114   4.095   5.428  1.3968 -0.4394  0.0773
 8527SOL    HW237218   4.191   4.186   5.514  0.1428 -1.2335  0.1451
 8528SOL     OW37219   4.065   2.037   2.888 -0.6641 -0.1053 -0.0830
 8528SOL    HW137220   4.153   2.000   2.889 -1.1163 -1.1558  0.6770
 8528SOL    HW237221   4.035   2.009   2.975 -0.2747  1.3434  0.5111
 8529SOL     OW37222   1.456   2.492   0.802 -0.0513  0.0066 -0.6381
 8529SOL    HW137223   1.533   2.448   0.767 -0.3703  0.1865 -1.5610
 8529SOL    HW237224   1.495   2.516   0.886 -0.7410 -1.8736  0.2248
 8530SOL     OW37225   1.014   1.485   1.582  0.2799 -0.2000  0.1676
 8530SOL    HW137226   1.005   1.570   1.540  1.4126  0.2254  0.7588
 8530SOL    HW237227   1.076   1.444   1.521  0.6218 -1.1040  1.1152
 8531SOL     OW37228   0.957   2.816   6.569  0.2341 -0.1271  0.0003
 8531SOL    HW137229   1.023   2.855   6.512 -0.4763 -1.4436 -1.7090
 8531SOL    HW237230   1.008   2.766   6.632  0.6590  0.4182  0.0860
 8532SOL     OW37231   1.380   1.019   8.176  0.3826  0.1585 -0.3464
 8532SOL    HW137232   1.333   1.083   8.122 -0.5829 -1.6921 -1.7108
 8532SOL    HW237233   1.426   0.973   8.105  2.0908  3.3991 -1.3293
 8533SOL     OW37234   3.870   2.975   2.578  0.1930  0.1430  0.6992
 8533SOL    HW137235   3.911   3.062   2.574  0.1236  0.2419  1.8867
 8533SOL    HW237236   3.942   2.929   2.534 -0.6187 -0.1286 -0.3188
 8534SOL     OW37237   3.635   3.128   3.617 -0.2079 -0.3957  0.2524
 8534SOL    HW137238   3.706   3.076   3.580  0.0540  0.1528 -0.0107
 8534SOL    HW237239   3.606   3.071   3.689 -2.0160 -3.5317 -2.9447
 8535SOL     OW37240   0.239   2.911  12.013 -0.1027  0.4455  0.0538
 8535SOL    HW137241   0.160   2.946  11.972 -0.7541 -1.6145 -0.4535
 8535SOL    HW237242   0.293   2.888  11.937  0.2049  1.4957 -0.0521
 8536SOL     OW37243   2.410   0.778  13.682 -0.0358 -0.2427  0.6665
 8536SOL    HW137244   2.444   0.859  13.645 -2.3119  1.1431  1.5700
 8536SOL    HW237245   2.379   0.737  13.601  1.1094 -0.5032  0.3602
 8537SOL     OW37246   2.666   0.109   1.225  0.0719 -0.0336  0.0476
 8537SOL    HW137247   2.585   0.150   1.194  0.0710  0.4465  0.6745
 8537SOL    HW237248   2.719   0.188   1.226  0.7170 -0.4760  1.8340
 8538SOL     OW37249   1.129   1.021   6.817 -1.0600  0.6388 -0.2861
 8538SOL    HW137250   1.155   1.010   6.726 -1.7911 -0.7380 -0.3259
 8538SOL    HW237251   1.146   1.113   6.835  0.4031 -0.0459  1.7014
 8539SOL     OW37252   4.616   3.606   3.425  0.2833  0.4418  0.4041
 8539SOL    HW137253   4.531   3.594   3.467  0.9960 -1.5509  1.3302
 8539SOL    HW237254   4.675   3.587   3.499 -0.6946 -0.8620  0.8498
 8540SOL     OW37255   1.319   2.037   4.363  0.4696  0.4555 -0.5563
 8540SOL    HW137256   1.286   1.953   4.332  0.1406  0.1799  0.5452
 8540SOL    HW237257   1.278   2.046   4.449 -2.4440  0.6715 -1.9598
 8541SOL     OW37258   0.137   1.895   0.609  0.0855 -0.5124  0.6456
 8541SOL    HW137259   0.111   1.805   0.589  0.4199  0.1000 -2.4988
 8541SOL    HW237260   0.111   1.899   0.701 -4.2790 -0.4539 -0.5505
 8542SOL     OW37261   0.931   0.772   7.954 -0.1277  0.3054  0.0088
 8542SOL    HW137262   0.954   0.796   7.864 -0.3860  2.2183  0.4583
 8542SOL    HW237263   0.994   0.820   8.007  0.0522  0.0614  0.0111
 8543SOL     OW37264   2.509   1.971   9.098  0.1599 -0.0977  0.1530
 8543SOL    HW137265   2.590   1.941   9.138  0.6555  1.2707  0.1933
 8543SOL    HW237266   2.529   2.065   9.091  1.5410 -0.3160  1.1450
 8544SOL     OW37267   3.637   1.981   6.408  0.1164  0.0682 -0.2363
 8544SOL    HW137268   3.659   2.071   6.432 -1.0443  0.4082 -0.4604
 8544SOL    HW237269   3.557   1.968   6.459 -1.4465 -0.9653 -2.9839
 8545SOL     OW37270   1.813   1.165  12.134  0.2840  0.3426 -0.5630
 8545SOL    HW137271   1.849   1.079  12.152 -0.2759  0.5087  1.3461
 8545SOL    HW237272   1.791   1.158  12.041 -1.4963  0.1747 -0.1320
 8546SOL     OW37273   1.317   0.653   5.936  0.0017  0.0267  0.1821
 8546SOL    HW137274   1.382   0.683   5.872 -0.6513 -0.4903 -0.7270
 8546SOL    HW237275   1.350   0.690   6.018  1.4837  0.3567 -0.5679
 8547SOL     OW37276   2.459   3.032   2.146 -0.5357 -0.4633  0.8004
 8547SOL    HW137277   2.551   3.022   2.167 -0.3057  0.1950  0.1456
 8547SOL    HW237278   2.425   2.953   2.186  2.2383 -1.1490  1.7762
 8548SOL     OW37279   3.880   1.666  15.450  0.1118  0.1041 -0.2854
 8548SOL    HW137280   3.820   1.674  15.375  0.5469  0.6932 -0.5699
 8548SOL    HW237281   3.893   1.758  15.476  0.8102 -0.4097  1.1896
 8549SOL     OW37282   1.823   2.369  15.095 -0.1637 -0.2717  0.1791
 8549SOL    HW137283   1.875   2.299  15.133  1.1313 -0.2569 -1.5265
 8549SOL    HW237284   1.881   2.396  15.023 -0.6559 -0.7115 -0.3787
 8550SOL     OW37285   1.692   0.729  12.519 -0.0352 -0.3823 -0.0799
 8550SOL    HW137286   1.605   0.707  12.485 -0.5487 -0.0986  1.0605
 8550SOL    HW237287   1.743   0.652  12.495 -0.7587 -0.2158 -2.1750
 8551SOL     OW37288   2.140   3.611   7.679  0.3267 -0.1460  0.1048
 8551SOL    HW137289   2.143   3.558   7.599  0.7289 -0.9864  0.6780
 8551SOL    HW237290   2.226   3.651   7.687 -0.8535  2.2252  1.1330
 8552SOL     OW37291   2.235   1.321   2.073 -0.1534  0.1114 -0.1234
 8552SOL    HW137292   2.203   1.361   1.993 -1.3882 -3.2139 -1.2691
 8552SOL    HW237293   2.162   1.353   2.126 -0.3452  1.8427 -1.4361
 8553SOL     OW37294   1.517   3.290   2.996 -0.7826 -0.2474  0.4329
 8553SOL    HW137295   1.456   3.300   2.923  1.4809 -1.5015 -1.6548
 8553SOL    HW237296   1.598   3.273   2.947 -1.5535  0.4549 -1.0836
 8554SOL     OW37297   1.313   3.725  17.576  0.2828 -0.0944 -0.5320
 8554SOL    HW137298   1.232   3.675  17.584 -0.4034  1.4166  2.1809
 8554SOL    HW237299   1.368   3.703  17.651  2.1548 -0.5877 -2.0565
 8555SOL     OW37300   4.080   0.936   9.294  0.3109  0.4975  0.1719
 8555SOL    HW137301   4.026   0.995   9.242 -0.5979 -1.2150 -0.8108
 8555SOL    HW237302   4.011   0.914   9.355  0.0743 -0.5252 -0.4639
 8556SOL     OW37303   1.606   1.708   4.315  0.5097 -0.5882  0.1640
 8556SOL    HW137304   1.695   1.730   4.287 -0.4862  3.4805  0.1313
 8556SOL    HW237305   1.564   1.773   4.259 -1.2148 -1.4028  0.5284
 8557SOL     OW37306   3.059   0.766   1.059 -0.3566  0.2637  0.1356
 8557SOL    HW137307   3.091   0.843   1.106  1.4661  0.5432 -1.5689
 8557SOL    HW237308   3.143   0.739   1.021 -0.0607  2.1035 -0.5244
 8558SOL     OW37309   1.482   2.443   3.674 -0.3050  0.2662  0.0537
 8558SOL    HW137310   1.507   2.399   3.755 -0.1783  0.7119  0.2566
 8558SOL    HW237311   1.484   2.367   3.614 -0.8636 -1.0111  1.6508
 8559SOL     OW37312   3.648   1.268  11.726 -0.3613  0.1053 -0.7833
 8559SOL    HW137313   3.637   1.175  11.749  1.9426 -0.1683 -0.7971
 8559SOL    HW237314   3.557   1.297  11.736 -1.0393 -1.8004 -1.3729
 8560SOL     OW37315   1.816   4.145   8.221 -0.5878 -0.5862 -0.0864
 8560SOL    HW137316   1.888   4.157   8.284 -0.1357  0.3817 -0.7900
 8560SOL    HW237317   1.745   4.189   8.266  0.1152 -0.2919  0.7383
 8561SOL     OW37318   2.059   0.976   6.842 -0.3760  0.3702  0.5200
 8561SOL    HW137319   2.034   1.066   6.859 -1.2866  0.1401  0.4102
 8561SOL    HW237320   2.041   0.964   6.748 -1.3003  0.3366  0.7036
 8562SOL     OW37321   2.869   0.790   7.045 -0.1972 -0.2652 -0.2401
 8562SOL    HW137322   2.923   0.713   7.031  0.6028  0.3229 -0.3932
 8562SOL    HW237323   2.837   0.801   6.956  0.1590  2.4936 -0.0430
 8563SOL     OW37324   4.262   0.346   6.410  0.2719 -0.3203 -0.1138
 8563SOL    HW137325   4.218   0.325   6.492  1.6489  0.0260  0.7102
 8563SOL    HW237326   4.298   0.434   6.415 -0.7611  0.0880  0.1719
 8564SOL     OW37327   1.655   2.961   3.124 -0.3884  0.0526 -0.2341
 8564SOL    HW137328   1.652   3.006   3.039 -0.8203  1.5381  0.5537
 8564SOL    HW237329   1.588   3.004   3.177 -0.0732  2.6558 -1.9655
 8565SOL     OW37330   4.175   1.208   1.925 -0.1328  0.4396 -0.2303
 8565SOL    HW137331   4.165   1.118   1.959  0.8398  0.1718 -0.6446
 8565SOL    HW237332   4.124   1.264   1.983 -0.2080 -0.2424  0.3655
 8566SOL     OW37333   3.602   3.219   3.050  0.4848 -0.7659  0.1503
 8566SOL    HW137334   3.544   3.189   2.980  1.6350 -1.2642 -0.5782
 8566SOL    HW237335   3.606   3.141   3.107 -0.0990 -0.7780  0.1769
 8567SOL     OW37336   4.520   4.380   5.608  0.5305 -0.1333  0.7498
 8567SOL    HW137337   4.444   4.431   5.581  1.6041  0.6877 -0.7653
 8567SOL    HW237338   4.534   4.427   5.689 -2.7985  0.1984  1.1077
 8568SOL     OW37339   1.230   2.841   2.443 -0.6486  0.1312  0.9716
 8568SOL    HW137340   1.161   2.779   2.464 -0.6754 -0.0181  0.4334
 8568SOL    HW237341   1.304   2.780   2.446  1.7996  3.0841  0.0300
 8569SOL     OW37342   3.926   3.894   3.066  0.0439 -0.1759 -0.1531
 8569SOL    HW137343   4.003   3.837   3.070  0.7645  1.0120  2.9292
 8569SOL    HW237344   3.880   3.875   3.148 -0.0386  0.5471 -0.0316
 8570SOL     OW37345   3.976   4.451   5.781  0.6155  0.1399  0.1912
 8570SOL    HW137346   3.999   4.446   5.689  1.3546 -0.6953  0.4155
 8570SOL    HW237347   4.050   4.401   5.817 -0.2065 -1.2386 -0.0156
 8571SOL     OW37348   4.041   3.670   6.360  0.3147 -0.2356  0.0320
 8571SOL    HW137349   4.002   3.741   6.310 -0.8868  0.7951  2.4333
 8571SOL    HW237350   4.136   3.681   6.353  0.1938  1.1307  0.6697
 8572SOL     OW37351   3.928   4.609  11.479  0.7268  0.2413 -0.5674
 8572SOL    HW137352   3.936   4.549  11.553 -0.6873 -0.1775 -0.7530
 8572SOL    HW237353   3.838   4.640  11.487  0.1341 -0.7200 -3.5167
 8573SOL     OW37354   2.083   2.184   5.527 -0.0537 -0.1219 -1.0916
 8573SOL    HW137355   2.019   2.115   5.543 -1.5648  2.0450  2.2355
 8573SOL    HW237356   2.168   2.144   5.506 -0.5876 -0.4230 -2.7013
 8574SOL     OW37357   3.332   1.775   9.854  0.2501  0.1055  0.7152
 8574SOL    HW137358   3.384   1.854   9.864  0.8598  0.0285 -1.8836
 8574SOL    HW237359   3.395   1.711   9.888 -0.0542 -0.0167  1.0472
 8575SOL     OW37360   1.165   4.239   7.728  0.2724 -0.2580  0.1464
 8575SOL    HW137361   1.230   4.212   7.664  0.0060 -1.5097  0.4106
 8575SOL    HW237362   1.201   4.203   7.809  0.7527 -0.0138  0.0439
 8576SOL     OW37363   1.208   0.842  16.284 -0.2889 -0.3104  0.1773
 8576SOL    HW137364   1.191   0.748  16.293 -1.1475 -0.0663  1.1704
 8576SOL    HW237365   1.294   0.850  16.325  0.0150 -0.7459 -0.3845
 8577SOL     OW37366   3.459   1.743   2.211  0.1904  0.4187  0.1451
 8577SOL    HW137367   3.393   1.812   2.199 -1.1099 -0.8503  0.0952
 8577SOL    HW237368   3.524   1.763   2.145 -0.5615 -1.1326 -1.0435
 8578SOL     OW37369   2.642   1.002   0.422 -0.3921  0.5419  0.3346
 8578SOL    HW137370   2.558   1.024   0.464 -0.4752 -0.5893  0.7747
 8578SOL    HW237371   2.610   0.927   0.372 -0.0795  0.6785 -0.0689
 8579SOL     OW37372   3.853   4.060   0.362  0.1823 -0.2593 -0.2913
 8579SOL    HW137373   3.803   3.979   0.370 -1.2370  0.6568  0.2231
 8579SOL    HW237374   3.889   4.044   0.275  0.4031  1.1443 -0.4564
 8580SOL     OW37375   0.277   1.297   2.864 -0.1820 -0.2283  0.4952
 8580SOL    HW137376   0.229   1.365   2.818  1.5628  0.2306 -0.6763
 8580SOL    HW237377   0.229   1.287   2.947 -1.5896  4.8155  0.2502
 8581SOL     OW37378   0.499   2.314   7.281  0.5816 -0.4217 -0.3077
 8581SOL    HW137379   0.496   2.405   7.311 -2.1142 -0.3059 -0.9276
 8581SOL    HW237380   0.561   2.288   7.349  0.0524 -2.2738 -0.5323
 8582SOL     OW37381   4.519   2.987   4.446  0.2622  0.1056  0.0508
 8582SOL    HW137382   4.503   3.042   4.523  1.4734 -0.2372  0.5421
 8582SOL    HW237383   4.430   2.959   4.424  0.5280 -0.9951  0.4097
 8583SOL     OW37384   2.026   1.595   3.539  0.8778 -0.3345 -0.1734
 8583SOL    HW137385   2.053   1.686   3.544  1.2576 -0.3627 -1.7281
 8583SOL    HW237386   1.931   1.605   3.526  0.9719 -0.6934 -1.1175
 8584SOL     OW37387   2.576   1.900  15.433  0.0044 -0.1578 -0.0629
 8584SOL    HW137388   2.667   1.871  15.420 -0.2320 -1.0262  0.1904
 8584SOL    HW237389   2.565   1.908  15.527  1.0089  0.1199  0.0322
 8585SOL     OW37390   4.143   2.861   3.442 -0.5271  0.2832  0.0368
 8585SOL    HW137391   4.114   2.770   3.450 -0.1620  0.2445  0.9067
 8585SOL    HW237392   4.152   2.894   3.531 -0.2492 -0.2656  0.2047
 8586SOL     OW37393   2.484   1.026  13.556  0.7440 -0.0193 -0.5952
 8586SOL    HW137394   2.540   0.985  13.491  0.3213  1.2822 -1.7838
 8586SOL    HW237395   2.543   1.093  13.593  0.9004 -1.7581  2.3249
 8587SOL     OW37396   2.499   1.983   7.870  0.1457 -0.3469  0.1758
 8587SOL    HW137397   2.462   2.025   7.948  1.7900  0.7129  0.3961
 8587SOL    HW237398   2.513   2.062   7.818  1.6771  0.5493  1.9005
 8588SOL     OW37399   2.656   3.423   7.359  0.0620  0.0225 -0.6256
 8588SOL    HW137400   2.660   3.329   7.343 -0.2847 -0.3698  1.5820
 8588SOL    HW237401   2.588   3.438   7.425 -1.1706 -0.9457 -1.6807
 8589SOL     OW37402   2.542   2.951   5.663 -0.5538  0.2455  0.0582
 8589SOL    HW137403   2.450   2.974   5.650 -0.9771 -0.4225  1.9330
 8589SOL    HW237404   2.546   2.940   5.758  0.9104  0.2969  0.0131
 8590SOL     OW37405   1.066   1.255   5.629 -0.2375  0.0947  0.5367
 8590SOL    HW137406   1.009   1.323   5.593  0.1450 -0.1154 -0.4458
 8590SOL    HW237407   1.148   1.304   5.637 -1.0482  1.3116  1.5226
 8591SOL     OW37408   2.107   2.023   2.375 -0.3667  0.6623 -0.4488
 8591SOL    HW137409   2.137   2.081   2.305  0.7678 -0.7489 -1.1169
 8591SOL    HW237410   2.016   2.003   2.350  0.2348 -1.8123 -0.6641
 8592SOL     OW37411   1.687   3.810   1.150 -0.4931 -0.2791  0.0241
 8592SOL    HW137412   1.672   3.756   1.227  2.0431  2.9914  2.7776
 8592SOL    HW237413   1.675   3.895   1.191  1.5800 -0.1967  0.4514
 8593SOL     OW37414   0.585   4.342   7.363 -0.0842 -0.1152 -0.2987
 8593SOL    HW137415   0.564   4.331   7.270 -1.9275  1.9249 -0.1342
 8593SOL    HW237416   0.508   4.303   7.404  1.2982 -0.3810  2.0510
 8594SOL     OW37417   0.108   3.130  14.188 -0.2268  0.7542  0.5929
 8594SOL    HW137418   0.145   3.137  14.276 -1.0781 -1.2675  1.1122
 8594SOL    HW237419   0.101   3.035  14.178 -1.1461  1.0403 -1.4869
 8595SOL     OW37420   0.918   0.758  16.481 -0.2183 -0.0563  0.1610
 8595SOL    HW137421   0.925   0.852  16.499  0.5829  0.0233 -0.6069
 8595SOL    HW237422   0.972   0.755  16.402  0.9481  0.0642  0.9539
 8596SOL     OW37423   1.892   3.322   4.620 -0.5265  0.3188  0.8602
 8596SOL    HW137424   1.974   3.372   4.620 -0.5618  0.3696  1.4296
 8596SOL    HW237425   1.894   3.295   4.712  3.8126 -1.9036  0.1431
 8597SOL     OW37426   2.370   1.643   7.430 -0.3804 -0.7380 -0.6085
 8597SOL    HW137427   2.419   1.612   7.506  1.6915  0.2395 -1.5507
 8597SOL    HW237428   2.418   1.720   7.400  1.0610 -1.8101 -1.0712
 8598SOL     OW37429   3.695   0.077   5.882 -0.0245  0.1139 -0.2247
 8598SOL    HW137430   3.709   0.056   5.790  1.5236  0.1197  0.0084
 8598SOL    HW237431   3.638   0.005   5.910 -0.7096  1.2485  1.2817
 8599SOL     OW37432   2.948   0.536  17.389 -0.2736 -0.0273 -0.0437
 8599SOL    HW137433   2.910   0.526  17.476 -1.5848 -0.9983 -0.7332
 8599SOL    HW237434   2.874   0.578  17.345 -0.5706 -2.0312 -1.4496
 8600SOL     OW37435   4.680   0.896  11.279  0.4668 -0.0262 -0.0634
 8600SOL    HW137436   4.725   0.829  11.331 -0.7759 -2.5471 -2.2288
 8600SOL    HW237437   0.017   0.921  11.224 -0.1336 -1.1120 -1.3658
 8601SOL     OW37438   3.755   1.171   9.985  0.4561 -0.6629 -0.0109
 8601SOL    HW137439   3.812   1.146  10.057 -0.6241 -0.7048  0.8222
 8601SOL    HW237440   3.671   1.179  10.031 -0.0132 -2.2957 -0.5579
 8602SOL     OW37441   2.659   4.572   8.535  0.3620 -0.2547  0.2259
 8602SOL    HW137442   2.662   4.668   8.536 -0.7453 -0.1959 -1.3081
 8602SOL    HW237443   2.632   4.546   8.623  0.3005  1.4613  0.7103
 8603SOL     OW37444   1.803   2.747   4.567 -0.2981  0.4881  0.4086
 8603SOL    HW137445   1.817   2.772   4.476 -1.2806 -0.9437 -0.1256
 8603SOL    HW237446   1.766   2.832   4.589 -1.6471 -0.4333  1.6927
 8604SOL     OW37447   3.968   3.434   9.795  0.2379  0.4053 -0.0891
 8604SOL    HW137448   3.989   3.404   9.884 -0.8832 -0.0498  0.0272
 8604SOL    HW237449   4.057   3.428   9.760  1.4208 -1.1165  3.1760
 8605SOL     OW37450   1.662   4.675   3.517  0.0708  0.1475  0.5001
 8605SOL    HW137451   1.701   0.026   3.524  0.1356  0.2413 -1.0815
 8605SOL    HW237452   1.728   4.610   3.540 -0.3855 -0.5543 -0.1791
 8606SOL     OW37453   4.088   3.584   3.711 -0.0773  0.0913  0.0288
 8606SOL    HW137454   4.103   3.509   3.770 -0.5390 -0.1876 -0.2075
 8606SOL    HW237455   4.029   3.540   3.650  2.8506  0.9336 -3.3863
 8607SOL     OW37456   1.620   1.717   7.578 -0.1595  0.6624 -0.0137
 8607SOL    HW137457   1.670   1.635   7.571 -0.9205  0.1141  0.9071
 8607SOL    HW237458   1.685   1.767   7.529 -0.6248 -0.4536 -1.7927
 8608SOL     OW37459   3.099   3.476   4.743 -0.1466 -0.3968  0.5730
 8608SOL    HW137460   3.174   3.445   4.693 -1.9416  1.6513 -3.3806
 8608SOL    HW237461   3.136   3.525   4.816 -0.6243 -0.1631  0.6633
 8609SOL     OW37462   1.942   3.057   2.121 -0.4004 -0.1983 -0.2973
 8609SOL    HW137463   1.902   3.140   2.145  0.0645  0.7863 -2.9878
 8609SOL    HW237464   2.029   3.084   2.092  0.5033 -1.8483  0.8298
 8610SOL     OW37465   3.394   3.071   4.198 -0.2852 -0.5269  0.5830
 8610SOL    HW137466   3.472   3.119   4.226  0.4685  0.0309 -2.5616
 8610SOL    HW237467   3.328   3.097   4.262  0.3136  0.4331  0.8043
 8611SOL     OW37468   2.247   2.224  13.433 -0.0441  0.0104  0.5078
 8611SOL    HW137469   2.210   2.290  13.492  1.9387  3.0123 -1.6180
 8611SOL    HW237470   2.329   2.210  13.480  1.0556 -3.5796 -2.5201
 8612SOL     OW37471   0.297   4.097  10.061  0.5090 -0.1219  0.1840
 8612SOL    HW137472   0.276   4.185  10.030  0.3290 -0.2826 -0.1561
 8612SOL    HW237473   0.229   4.047  10.015  1.3203 -0.2644 -0.8610
 8613SOL     OW37474   1.256   4.418   4.813  0.1207  0.0264  0.7359
 8613SOL    HW137475   1.240   4.352   4.746  0.6175 -0.4348  1.0722
 8613SOL    HW237476   1.320   4.470   4.764  1.1120 -2.5339 -0.6645
 8614SOL     OW37477   4.365   4.079   7.347  0.5080  0.2276  0.3852
 8614SOL    HW137478   4.307   4.060   7.273  1.4497 -1.4117  0.0772
 8614SOL    HW237479   4.405   3.993   7.362  1.1955  0.8127  1.8309
 8615SOL     OW37480   4.293   2.549  14.636  0.0511  0.0002  0.0456
 8615SOL    HW137481   4.257   2.536  14.549  0.1566  1.9902 -0.3083
 8615SOL    HW237482   4.318   2.458  14.650  1.9359  0.6659  1.1141
 8616SOL     OW37483   4.573   1.511  10.995 -0.1171 -0.1497 -0.3655
 8616SOL    HW137484   4.518   1.562  10.936 -1.0336 -2.2441 -1.3337
 8616SOL    HW237485   4.520   1.452  11.049  0.0233 -0.0962 -0.1698
 8617SOL     OW37486   4.064   0.235   7.861  0.5642  0.1629  0.3671
 8617SOL    HW137487   4.110   0.298   7.806  0.3703  0.8517  0.9968
 8617SOL    HW237488   4.113   0.234   7.943  0.6299 -1.7591  0.3162
 8618SOL     OW37489   3.355   2.514  14.950  0.0695 -0.8668 -0.4361
 8618SOL    HW137490   3.437   2.465  14.949  0.0671 -0.8523 -1.0877
 8618SOL    HW237491   3.383   2.592  14.999  0.6196  0.5204 -2.9739
 8619SOL     OW37492   4.376   3.530   4.360  0.6065  0.2988 -0.6929
 8619SOL    HW137493   4.305   3.580   4.401  2.4472  0.0194  2.9132
 8619SOL    HW237494   4.379   3.580   4.279 -0.2699 -1.4096 -1.7865
 8620SOL     OW37495   4.229   0.619   7.984 -0.7474  0.0039 -0.3088
 8620SOL    HW137496   4.243   0.701   7.937  1.9450  0.2094  0.7987
 8620SOL    HW237497   4.249   0.646   8.074 -0.9884 -1.1843  0.0997
 8621SOL     OW37498   4.613   0.687   2.052  0.0990 -0.4912 -0.5449
 8621SOL    HW137499   4.661   0.627   1.995 -0.8496 -1.9532  0.1934
 8621SOL    HW237500   4.533   0.690   2.000 -0.0368  1.6170 -0.2280
 8622SOL     OW37501   2.396   2.944  16.338 -0.2475 -0.2072  0.4572
 8622SOL    HW137502   2.343   2.951  16.418 -1.0193  0.9563 -0.1519
 8622SOL    HW237503   2.339   2.995  16.281  0.0664  0.6536  0.9067
 8623SOL     OW37504   3.644   0.422   7.372  0.6688 -0.3901  0.2965
 8623SOL    HW137505   3.681   0.508   7.389 -1.3442  0.5561 -0.0241
 8623SOL    HW237506   3.666   0.398   7.282  1.1718  2.1950 -0.2591
 8624SOL     OW37507   2.724   3.939   8.458  0.2791 -0.4763  0.0136
 8624SOL    HW137508   2.713   3.991   8.538  1.4724  1.1901 -0.9049
 8624SOL    HW237509   2.818   3.925   8.464  0.4859  2.2666  3.1378
 8625SOL     OW37510   1.066   0.689   8.816  0.1286 -0.7748  0.1575
 8625SOL    HW137511   1.146   0.717   8.772 -1.4810  1.8665 -1.0732
 8625SOL    HW237512   1.025   0.644   8.742  1.2844 -1.2335 -0.2119
 8626SOL     OW37513   0.208   0.994   9.776 -0.1235  0.1214  0.5669
 8626SOL    HW137514   0.172   1.012   9.689 -1.8260 -1.1873  0.9947
 8626SOL    HW237515   0.299   1.024   9.773 -0.3166  0.6606  0.1363
 8627SOL     OW37516   2.705   1.325  10.222 -0.2187  0.4057  0.3852
 8627SOL    HW137517   2.742   1.370  10.298 -0.8391  1.5476  0.0110
 8627SOL    HW237518   2.622   1.295  10.259  0.9084 -1.1595  1.6364
 8628SOL     OW37519   4.044   2.366  10.183  0.1229 -0.1004  1.0920
 8628SOL    HW137520   4.086   2.280  10.185 -0.9979 -0.7355 -3.1021
 8628SOL    HW237521   4.111   2.419  10.140 -1.5510  1.8104  0.8688
 8629SOL     OW37522   0.888   0.297  17.388 -0.1956  0.0053  0.0871
 8629SOL    HW137523   0.975   0.287  17.426  0.9239  1.7669 -2.0366
 8629SOL    HW237524   0.896   0.233  17.317  1.1953  1.6711 -1.2593
 8630SOL     OW37525   3.812   4.057   2.515  0.2539  0.2039  0.1699
 8630SOL    HW137526   3.855   4.142   2.520 -0.4823  0.7217 -2.5644
 8630SOL    HW237527   3.726   4.090   2.542 -0.5345 -0.6943 -1.2451
 8631SOL     OW37528   1.166   4.103   3.721 -0.2712 -0.0452  0.1359
 8631SOL    HW137529   1.120   4.093   3.638 -0.3974  0.9803  0.0867
 8631SOL    HW237530   1.113   4.173   3.759 -2.5586 -1.9735  0.4769
 8632SOL     OW37531   0.067   4.657  17.182  0.0910 -0.3708 -0.5469
 8632SOL    HW137532   0.079   4.568  17.149 -0.4093 -0.7005  0.1638
 8632SOL    HW237533   4.714   4.644  17.212  0.3201 -1.7582 -0.4361
 8633SOL     OW37534   1.705   3.907   4.327  0.2804  0.4390 -0.3165
 8633SOL    HW137535   1.685   3.956   4.407 -0.6203  0.0370 -0.2960
 8633SOL    HW237536   1.755   3.974   4.280  2.2461 -0.7448  0.0870
 8634SOL     OW37537   3.758   1.644   0.133 -0.6969  0.3197 -0.3185
 8634SOL    HW137538   3.723   1.725   0.096 -2.8620 -0.8984 -0.9684
 8634SOL    HW237539   3.699   1.629   0.207  0.5967  0.5000  0.7281
 8635SOL     OW37540   1.184   1.805   4.334  0.1729  0.4588  0.2564
 8635SOL    HW137541   1.236   1.744   4.281 -2.6533  0.1051 -2.0746
 8635SOL    HW237542   1.105   1.802   4.281 -0.4598 -0.7961  1.2484
 8636SOL     OW37543   4.722   0.926   2.025 -0.5386 -0.3279 -0.4698
 8636SOL    HW137544   4.664   0.991   2.065 -1.0909 -1.3974  0.4522
 8636SOL    HW237545   4.663   0.851   2.027 -0.1280 -0.6610 -0.8330
 8637SOL     OW37546   1.757   2.817  10.826  0.0992 -0.5215  0.7308
 8637SOL    HW137547   1.782   2.758  10.897  1.2380 -1.3301 -0.3332
 8637SOL    HW237548   1.809   2.890  10.857 -0.5032 -1.1588  3.2058
 8638SOL     OW37549   2.753   3.690  17.399 -0.7624 -0.1070  0.2028
 8638SOL    HW137550   2.797   3.772  17.376 -0.5981 -0.5832 -1.2100
 8638SOL    HW237551   2.664   3.704  17.366  0.0568  1.8637 -1.1723
 8639SOL     OW37552   4.735   1.744   9.900 -0.2073 -0.5156 -0.1800
 8639SOL    HW137553   0.039   1.727   9.816 -1.5301 -1.2717 -0.6867
 8639SOL    HW237554   4.719   1.651   9.915 -0.6166 -0.5114 -0.5813
 8640SOL     OW37555   3.175   0.464   3.307  0.5741 -0.1323  0.4518
 8640SOL    HW137556   3.098   0.445   3.254 -0.7673  0.6168  2.1390
 8640SOL    HW237557   3.240   0.463   3.237  0.7656 -0.1357  0.6289
 8641SOL     OW37558   0.505   2.934   9.020  0.1460  0.4876 -0.3487
 8641SOL    HW137559   0.434   2.983   9.062 -0.4786 -2.1799  1.6888
 8641SOL    HW237560   0.531   2.884   9.098  1.2754  0.4576 -0.7544
 8642SOL     OW37561   0.069   0.857   5.888 -0.6417 -0.1855 -0.2071
 8642SOL    HW137562   4.712   0.860   5.868 -0.9129  1.2874  1.2674
 8642SOL    HW237563   0.090   0.766   5.870 -0.5514 -0.2033 -0.0131
 8643SOL     OW37564   1.799   3.560   9.321  0.1582  0.1105 -0.0118
 8643SOL    HW137565   1.799   3.607   9.237  3.4836 -2.5915 -1.5764
 8643SOL    HW237566   1.893   3.549   9.338  0.4851  1.9709 -0.5835
 8644SOL     OW37567   4.212   0.087   2.182 -0.3118 -0.4180 -0.3203
 8644SOL    HW137568   4.175   0.163   2.226  0.0939 -0.9193  0.8895
 8644SOL    HW237569   4.130   0.040   2.167 -0.6680 -0.0754  0.5412
 8645SOL     OW37570   3.265   1.950   2.271  0.1181  0.2290  0.5006
 8645SOL    HW137571   3.222   1.916   2.193 -0.7193 -1.1040  1.5653
 8645SOL    HW237572   3.218   2.034   2.274  3.0997  1.9635 -1.0145
 8646SOL     OW37573   4.460   0.367   8.171 -0.1343  0.1799  0.1913
 8646SOL    HW137574   4.529   0.352   8.235 -1.4792 -1.6270  1.1975
 8646SOL    HW237575   4.396   0.414   8.223 -0.7764  0.1581 -0.5808
 8647SOL     OW37576   1.197   3.006  10.406  0.5173  0.4316 -0.4264
 8647SOL    HW137577   1.209   3.064  10.331  1.8283  1.3381  0.4975
 8647SOL    HW237578   1.102   3.003  10.392  0.0524  3.9518  1.9788
 8648SOL     OW37579   2.276   2.578  17.119  0.0288 -0.0795  0.0997
 8648SOL    HW137580   2.258   2.672  17.124  1.2903  0.0953  1.3836
 8648SOL    HW237581   2.298   2.572  17.212  2.8610 -3.3345 -0.7762
 8649SOL     OW37582   0.464   0.111   4.583 -0.6688  0.1027 -0.5088
 8649SOL    HW137583   0.444   0.076   4.496  1.3186 -2.2032 -0.0438
 8649SOL    HW237584   0.376   0.101   4.622 -0.7803  2.3184 -0.2101
 8650SOL     OW37585   4.353   4.519   7.774 -0.0107 -0.0417  0.0237
 8650SOL    HW137586   4.424   4.578   7.747  0.4366 -0.2835  0.6473
 8650SOL    HW237587   4.318   4.507   7.686  2.7704  0.6829 -1.1999
 8651SOL     OW37588   4.347   2.908   7.923  0.3254  0.1330  0.3372
 8651SOL    HW137589   4.431   2.862   7.925 -1.0737 -2.5801 -2.6952
 8651SOL    HW237590   4.314   2.873   7.840 -1.1559  0.3855  0.8240
 8652SOL     OW37591   4.045   2.762   9.322 -0.3541 -0.2886 -0.3280
 8652SOL    HW137592   4.002   2.841   9.290  0.8826  0.6634  0.3250
 8652SOL    HW237593   4.050   2.792   9.413 -0.6684  0.5662 -0.5931
 8653SOL     OW37594   4.633   1.153   3.825 -0.2613 -0.2082  0.3042
 8653SOL    HW137595   4.546   1.170   3.862  0.4588  0.9743  1.4344
 8653SOL    HW237596   4.673   1.117   3.904 -1.1989 -0.0624  0.8481
 8654SOL     OW37597   0.145   4.718   3.827 -0.0260  0.0195 -0.1322
 8654SOL    HW137598   0.166   4.633   3.789  1.7396 -0.4678  1.8941
 8654SOL    HW237599   0.228   0.026   3.811  0.5256  0.0957  2.9203
 8655SOL     OW37600   1.901   2.698   7.866 -0.0985  0.3157 -0.6007
 8655SOL    HW137601   1.948   2.743   7.796  1.8529 -1.3427 -0.3611
 8655SOL    HW237602   1.942   2.750   7.934  0.2872 -0.9842  0.1492
 8656SOL     OW37603   1.774   0.585  10.931 -0.1881 -0.4725 -0.0392
 8656SOL    HW137604   1.852   0.610  10.981  1.7540 -1.0584 -2.7549
 8656SOL    HW237605   1.802   0.511  10.876 -1.7188  0.5726 -2.1861
 8657SOL     OW37606   0.504   2.640   2.462  0.1769 -0.4181 -0.1485
 8657SOL    HW137607   0.434   2.575   2.454  0.2064 -0.4328 -0.2851
 8657SOL    HW237608   0.552   2.618   2.542 -0.8889 -0.9414  0.3550
 8658SOL     OW37609   4.696   0.249   2.288 -0.1192  0.2923  0.2183
 8658SOL    HW137610   4.676   0.295   2.370 -0.7022  2.0764 -0.9325
 8658SOL    HW237611   4.626   0.184   2.294 -1.6005  1.8188 -0.2998
 8659SOL     OW37612   1.293   1.176  10.249  0.5345  0.2883  0.2250
 8659SOL    HW137613   1.255   1.243  10.193 -1.1325  2.6311  4.0973
 8659SOL    HW237614   1.223   1.173  10.315  1.2818  3.7334  1.2063
 8660SOL     OW37615   1.086   4.584   7.419  0.3009  0.3179  0.3124
 8660SOL    HW137616   1.081   4.595   7.514 -0.1240 -3.1072  0.6732
 8660SOL    HW237617   1.155   4.650   7.406 -0.3405  1.4774  2.7290
 8661SOL     OW37618   1.529   4.283  15.148 -0.8820  0.1100  0.1722
 8661SOL    HW137619   1.592   4.217  15.117 -0.9750 -1.0024  2.3281
 8661SOL    HW237620   1.560   4.361  15.102 -2.2584  0.9324  0.6478
 8662SOL     OW37621   0.340   1.182  11.788 -0.0582 -0.1460  0.0434
 8662SOL    HW137622   0.247   1.202  11.795 -0.1205 -0.7161  0.8921
 8662SOL    HW237623   0.368   1.164  11.878 -3.4686  0.2387  1.2038
 8663SOL     OW37624   2.624   2.986   4.815 -0.2940  0.5626 -0.1163
 8663SOL    HW137625   2.593   3.004   4.726 -1.0468  0.8109  0.1984
 8663SOL    HW237626   2.594   2.898   4.838  0.9377  0.4711  1.1306
 8664SOL     OW37627   3.377   1.485   3.121  0.2811 -0.2954 -0.5177
 8664SOL    HW137628   3.396   1.553   3.186  1.1216 -0.5208 -0.5378
 8664SOL    HW237629   3.291   1.448   3.143 -0.8210  2.2564 -0.3896
 8665SOL     OW37630   2.883   3.956   1.746  0.0153  0.3262 -0.0264
 8665SOL    HW137631   2.872   4.051   1.737 -2.0877 -0.0246 -1.4362
 8665SOL    HW237632   2.899   3.949   1.840  0.8776 -1.1076 -0.2861
 8666SOL     OW37633   0.528   3.439   3.546  0.6287  0.0878  0.0191
 8666SOL    HW137634   0.581   3.431   3.467 -0.7303  0.8660 -0.9757
 8666SOL    HW237635   0.473   3.361   3.546  0.6612  0.0660 -0.5532
 8667SOL     OW37636   3.632   1.985  11.982  0.3271 -0.7293 -0.2555
 8667SOL    HW137637   3.707   1.958  12.034  0.9389  0.1733 -0.6673
 8667SOL    HW237638   3.563   1.926  12.014  0.3703 -0.3000  0.6231
 8668SOL     OW37639   2.880   4.321   4.610  0.3709 -0.2558  0.9597
 8668SOL    HW137640   2.907   4.391   4.550 -2.0197  0.9524  1.2681
 8668SOL    HW237641   2.921   4.249   4.563 -0.0818  0.1092  0.0200
 8669SOL     OW37642   2.587   1.541   8.095  0.8029  0.0126  0.1839
 8669SOL    HW137643   2.548   1.628   8.091  0.9232  0.0750  0.3485
 8669SOL    HW237644   2.575   1.517   8.187  1.0205  3.2704  1.0691
 8670SOL     OW37645   1.170   0.880  15.999 -0.1966  0.1985  0.1304
 8670SOL    HW137646   1.169   0.872  16.094  0.8401  0.0291  0.1254
 8670SOL    HW237647   1.228   0.955  15.991 -0.5353  0.4954  0.4779
 8671SOL     OW37648   0.539   1.593   1.591  0.0693  0.6853  0.2871
 8671SOL    HW137649   0.505   1.515   1.636  1.4245  0.3459  0.7109
 8671SOL    HW237650   0.549   1.559   1.502 -0.7700  2.0699 -0.3365
 8672SOL     OW37651   0.462   4.351   6.294  0.0928 -0.4555 -0.3391
 8672SOL    HW137652   0.382   4.341   6.346  1.2562 -3.6638  0.8136
 8672SOL    HW237653   0.495   4.262   6.284  0.4684 -0.3434 -0.0676
 8673SOL     OW37654   4.345   1.267   3.768 -1.0525 -0.1339 -0.6986
 8673SOL    HW137655   4.319   1.245   3.858 -1.2234  0.2488 -0.6575
 8673SOL    HW237656   4.293   1.204   3.717 -3.0893  0.4076  0.7057
 8674SOL     OW37657   0.170   1.157   7.250 -0.0340  0.6502 -0.2245
 8674SOL    HW137658   0.250   1.122   7.287 -0.0397  0.5348 -0.3201
 8674SOL    HW237659   0.186   1.143   7.156  0.6579 -1.8038  0.2723
 8675SOL     OW37660   1.143   3.326   1.980  0.0243  0.6760 -0.5031
 8675SOL    HW137661   1.181   3.319   2.068 -1.6623  1.1508  0.2697
 8675SOL    HW237662   1.151   3.237   1.946 -1.8796 -0.1285  1.1708
 8676SOL     OW37663   1.905   2.646   6.580 -0.0572  0.2461  0.3671
 8676SOL    HW137664   1.964   2.712   6.544  1.8731 -1.1408  1.0364
 8676SOL    HW237665   1.965   2.605   6.642  0.9693 -0.6460 -1.2069
 8677SOL     OW37666   1.651   0.916  10.091  0.4077  0.4894 -0.5309
 8677SOL    HW137667   1.710   0.992  10.090  0.2063  0.6626  0.1474
 8677SOL    HW237668   1.565   0.953  10.072 -0.4699 -1.1071  0.2836
 8678SOL     OW37669   1.036   2.241   2.342  0.2746 -0.0327  0.6875
 8678SOL    HW137670   1.058   2.192   2.263 -0.5564 -1.5527  1.4008
 8678SOL    HW237671   1.021   2.330   2.310  3.2246  0.2758  0.1528
 8679SOL     OW37672   1.203   1.363   6.587 -0.4017 -0.5519 -0.6540
 8679SOL    HW137673   1.117   1.398   6.609  0.1491  1.4855 -1.7333
 8679SOL    HW237674   1.223   1.404   6.502 -1.4331 -0.9304 -1.0747
 8680SOL     OW37675   3.792   3.649  11.175 -0.6709  0.5677 -0.2874
 8680SOL    HW137676   3.758   3.569  11.214  2.7064 -0.8079 -0.1698
 8680SOL    HW237677   3.872   3.663  11.225 -1.0400  0.4843  0.3141
 8681SOL     OW37678   4.288   4.376   7.387  0.0669 -0.0980 -0.3917
 8681SOL    HW137679   4.295   4.291   7.430  3.1843 -0.6775 -2.0542
 8681SOL    HW237680   4.377   4.407   7.400  0.4933 -1.1114 -0.9343
 8682SOL     OW37681   2.283   3.570   1.977 -0.3669  1.1109  0.0770
 8682SOL    HW137682   2.321   3.649   1.939 -1.8536  2.2068  0.8603
 8682SOL    HW237683   2.334   3.559   2.058  0.8403  2.5489 -0.4955
 8683SOL     OW37684   1.210   4.505   2.902  0.0515 -0.4078  0.1909
 8683SOL    HW137685   1.298   4.474   2.884  0.6221  1.0053  0.4962
 8683SOL    HW237686   1.214   4.506   2.998  2.0511 -0.2729  0.1150
 8684SOL     OW37687   2.786   0.938  10.245 -0.1602 -0.2183  0.2693
 8684SOL    HW137688   2.814   0.896  10.163 -1.2010  0.9264 -0.6553
 8684SOL    HW237689   2.854   0.905  10.304  0.8037 -1.9170 -1.7665
 8685SOL     OW37690   2.347   3.909  15.118  0.0543  0.1349  0.2770
 8685SOL    HW137691   2.378   3.998  15.101  1.0205  0.1270  1.9986
 8685SOL    HW237692   2.411   3.900  15.189  1.4395  0.1429 -0.9709
 8686SOL     OW37693   4.297   2.243   2.984  0.0578 -0.3549 -0.2249
 8686SOL    HW137694   4.265   2.301   2.915 -0.7093 -1.5909 -0.9209
 8686SOL    HW237695   4.365   2.295   3.027  0.5083 -0.6115 -0.6235
 8687SOL     OW37696   1.188   3.973   4.884  0.4310 -0.5608  0.4715
 8687SOL    HW137697   1.235   3.907   4.935  2.1156 -0.3314 -0.7727
 8687SOL    HW237698   1.255   4.011   4.826 -0.8597  2.5839  1.0253
 8688SOL     OW37699   4.685   2.920   7.423 -0.4525 -0.1873 -0.2855
 8688SOL    HW137700   0.035   2.881   7.413 -0.2348  0.5072 -1.0397
 8688SOL    HW237701   4.705   2.990   7.361  0.3309 -1.2862 -1.2628
 8689SOL     OW37702   4.665   3.235   5.022  0.8259 -0.0892  0.1614
 8689SOL    HW137703   4.666   3.228   5.117  0.4165 -0.7817  0.1119
 8689SOL    HW237704   4.571   3.223   5.006  1.0156  1.1990 -1.8819
 8690SOL     OW37705   3.996   3.721   3.376  0.7350  0.6809  0.4494
 8690SOL    HW137706   3.944   3.647   3.344 -0.0534  1.1430  0.6591
 8690SOL    HW237707   4.045   3.742   3.297 -0.2967  0.3869 -0.2695
 8691SOL     OW37708   4.008   0.016  17.185  0.1699  0.0779 -0.0799
 8691SOL    HW137709   4.020   0.100  17.230 -0.6536  0.5663 -0.7747
 8691SOL    HW237710   3.919   4.725  17.202  0.5496 -0.3000  1.2582
 8692SOL     OW37711   0.478   1.202   4.774 -0.1959  0.1966 -0.4197
 8692SOL    HW137712   0.571   1.210   4.755  0.4949 -0.1296  2.7811
 8692SOL    HW237713   0.479   1.241   4.861 -0.3910  0.7642 -0.6774
 8693SOL     OW37714   1.060   4.697   9.398  0.1544 -0.2768  0.0144
 8693SOL    HW137715   1.056   4.618   9.452  2.9122  0.2341  0.9609
 8693SOL    HW237716   1.127   0.007   9.446 -0.1955 -0.4672  0.6852
 8694SOL     OW37717   0.521   1.827  15.855  0.1738 -0.1267  0.0707
 8694SOL    HW137718   0.525   1.904  15.798  0.6042  0.0261  0.3008
 8694SOL    HW237719   0.604   1.843  15.901  0.7509  1.1178 -1.4090
 8695SOL     OW37720   2.910   0.666   1.909  0.6092  0.3718  0.3307
 8695SOL    HW137721   2.886   0.589   1.961  0.2812  0.7815  0.7833
 8695SOL    HW237722   2.826   0.693   1.872 -0.1873 -2.9454 -0.3283
 8696SOL     OW37723   4.495   3.171   1.297 -0.2479  0.0340 -0.4688
 8696SOL    HW137724   4.533   3.106   1.237  2.1882 -1.0260  2.2381
 8696SOL    HW237725   4.493   3.250   1.243  2.1220  1.0113  0.8919
 8697SOL     OW37726   4.189   3.043  13.484  0.1884  0.0343  0.8339
 8697SOL    HW137727   4.135   3.122  13.474 -1.6922 -1.1821  1.4271
 8697SOL    HW237728   4.272   3.071  13.444 -0.8896 -0.7396 -1.9093
 8698SOL     OW37729   2.458   0.128   3.192  0.4354  0.6627 -0.1041
 8698SOL    HW137730   2.499   0.199   3.241  1.9600 -1.6439  1.9891
 8698SOL    HW237731   2.498   0.138   3.105  3.4884 -1.0130  1.1140
 8699SOL     OW37732   4.113   0.588  16.332  0.3296  0.4544  0.3596
 8699SOL    HW137733   4.161   0.547  16.404  1.0106  1.3770  0.4408
 8699SOL    HW237734   4.117   0.675  16.372  1.2041 -0.1269  1.5490
 8700SOL     OW37735   3.148   1.190   7.387  0.1215  0.4528 -0.1829
 8700SOL    HW137736   3.214   1.222   7.324 -0.1925 -1.0609 -1.2835
 8700SOL    HW237737   3.143   1.098   7.361 -0.1755  1.0936 -2.3817
 8701SOL     OW37738   4.075   4.033   4.205 -0.0438  0.2388  0.4123
 8701SOL    HW137739   4.169   4.013   4.210 -0.1396  0.0218  1.4437
 8701SOL    HW237740   4.080   4.109   4.147 -1.0527  2.2552  2.9674
 8702SOL     OW37741   0.424   1.781  11.284  0.4860 -0.3071 -0.6647
 8702SOL    HW137742   0.430   1.712  11.350  1.1400  1.3217  0.9903
 8702SOL    HW237743   0.396   1.858  11.333  0.9195 -1.3850  1.2780
 8703SOL     OW37744   0.362   3.145  15.059  0.1805  0.8880 -0.1251
 8703SOL    HW137745   0.298   3.107  15.119  0.7465 -0.1100 -0.1644
 8703SOL    HW237746   0.442   3.123  15.106  0.5147  0.5613 -0.8528
 8704SOL     OW37747   0.625   1.920   3.927  0.9050  0.0131 -0.4048
 8704SOL    HW137748   0.666   1.947   4.009 -0.1569  1.0584 -0.2193
 8704SOL    HW237749   0.672   1.840   3.904 -0.5491 -1.2023  0.9432
 8705SOL     OW37750   3.258   2.324   4.301  0.2854 -0.3560  0.4877
 8705SOL    HW137751   3.173   2.355   4.269  0.6551  0.3622  0.1932
 8705SOL    HW237752   3.214   2.268   4.364 -0.9118 -0.5747 -0.5282
 8706SOL     OW37753   2.685   2.267   8.610  0.0838  0.1315  0.0027
 8706SOL    HW137754   2.772   2.306   8.616  0.9330 -1.8040  0.2222
 8706SOL    HW237755   2.671   2.253   8.704 -0.1406  1.1559  0.1257
 8707SOL     OW37756   2.236   0.658   7.189  0.5740 -0.2585  0.5429
 8707SOL    HW137757   2.207   0.742   7.156 -2.2288 -1.1681  0.6763
 8707SOL    HW237758   2.280   0.688   7.268 -1.0593  2.0162  0.5775
 8708SOL     OW37759   4.433   1.461   0.898  0.2293  0.6392  0.1730
 8708SOL    HW137760   4.358   1.468   0.957 -1.2890 -0.4038 -1.6239
 8708SOL    HW237761   4.413   1.516   0.823  0.6596 -1.1454 -1.2624
 8709SOL     OW37762   4.709   0.227   3.857  0.1161  0.3870  0.7099
 8709SOL    HW137763   0.008   0.309   3.888  0.8151 -0.4560  2.1061
 8709SOL    HW237764   0.029   0.156   3.888  0.1266 -0.0860 -0.3779
 8710SOL     OW37765   2.356   3.935   2.574 -0.6279 -0.4212 -0.0958
 8710SOL    HW137766   2.279   3.916   2.521 -1.3946  1.3014  0.3851
 8710SOL    HW237767   2.355   3.861   2.635  0.5181 -1.1543 -0.9772
 8711SOL     OW37768   2.775   2.514   8.092 -0.1293  0.5354  0.6854
 8711SOL    HW137769   2.719   2.470   8.156  1.5964  0.3299  2.0603
 8711SOL    HW237770   2.728   2.596   8.080  0.1088  0.5634 -0.0423
 8712SOL     OW37771   3.638   3.693   5.495  0.2480 -0.2850  0.4008
 8712SOL    HW137772   3.708   3.714   5.433 -0.6279 -0.3062 -0.5810
 8712SOL    HW237773   3.563   3.677   5.439  2.2723 -1.6916 -1.9232
 8713SOL     OW37774   1.867   4.453   6.743  0.4388  0.4307 -0.5861
 8713SOL    HW137775   1.867   4.396   6.820  1.1315 -2.1630 -2.5246
 8713SOL    HW237776   1.810   4.397   6.690 -0.4862 -0.7983  1.6893
 8714SOL     OW37777   0.645   0.247   6.037 -0.2301 -0.1702 -0.1872
 8714SOL    HW137778   0.676   0.204   6.117  1.1098 -2.9450 -2.1924
 8714SOL    HW237779   0.656   0.336   6.069 -0.1767 -1.3743  3.0987
 8715SOL     OW37780   1.139   1.194   8.864 -0.2667 -0.0585  0.5642
 8715SOL    HW137781   1.160   1.112   8.908 -3.1433  0.0256  2.0955
 8715SOL    HW237782   1.069   1.165   8.806  1.5775 -0.5556 -1.4309
 8716SOL     OW37783   1.840   1.250   2.916 -0.2841  0.1107 -0.5238
 8716SOL    HW137784   1.893   1.251   2.996 -1.2211 -1.4681  0.1252
 8716SOL    HW237785   1.901   1.200   2.860  1.4813  0.3509  1.1936
 8717SOL     OW37786   0.637   3.614  12.067  0.7616  0.1047 -0.2604
 8717SOL    HW137787   0.650   3.533  12.117 -0.7049  0.9377  1.4763
 8717SOL    HW237788   0.585   3.667  12.127  1.7130 -0.6193  1.2271
 8718SOL     OW37789   2.262   2.238  12.817 -0.1637 -0.1297 -0.6541
 8718SOL    HW137790   2.214   2.161  12.849  0.0302  0.0566  0.1033
 8718SOL    HW237791   2.190   2.300  12.824  2.4850  2.8709 -0.1038
 8719SOL     OW37792   0.302   1.638   5.637 -0.6022  0.3876  0.8216
 8719SOL    HW137793   0.323   1.655   5.729 -0.3505 -2.2285  1.2594
 8719SOL    HW237794   0.217   1.681   5.634 -0.4811  0.5673 -0.1980
 8720SOL     OW37795   3.477   3.749   2.786  0.5387 -0.2267  0.1135
 8720SOL    HW137796   3.515   3.774   2.703 -0.7939 -2.3983 -1.1438
 8720SOL    HW237797   3.542   3.684   2.813 -0.5850 -0.5844  2.0365
 8721SOL     OW37798   4.424   4.038   5.342 -0.2317 -0.1884  0.1500
 8721SOL    HW137799   4.341   4.070   5.376 -0.4661 -0.9082  0.2587
 8721SOL    HW237800   4.411   3.945   5.319  1.2504 -0.4021  0.1996
 8722SOL     OW37801   0.421   1.215   9.800  0.1990  0.2592  0.1483
 8722SOL    HW137802   0.515   1.227   9.788 -0.1014  0.9185 -1.4562
 8722SOL    HW237803   0.417   1.148   9.869 -2.9272  0.8489  0.5557
 8723SOL     OW37804   4.239   3.441  16.147  0.4213 -0.4663 -0.2847
 8723SOL    HW137805   4.179   3.514  16.163 -0.8619 -0.9720 -2.8919
 8723SOL    HW237806   4.202   3.397  16.071  1.4069  1.6349 -1.9495
 8724SOL     OW37807   1.958   2.068   7.230  0.0712 -0.0422 -0.3192
 8724SOL    HW137808   1.926   2.155   7.206  0.6069  0.0340 -0.7603
 8724SOL    HW237809   2.051   2.076   7.211 -0.1126  0.3150 -1.0432
 8725SOL     OW37810   4.053   2.690  14.656 -0.0403 -0.2673  0.1766
 8725SOL    HW137811   4.049   2.626  14.585 -2.3552 -1.2375  1.1657
 8725SOL    HW237812   4.147   2.688  14.675  0.4552  2.1135 -2.0445
 8726SOL     OW37813   1.890   3.878   2.830  0.4410 -0.8991 -0.1776
 8726SOL    HW137814   1.884   3.885   2.735  0.6126  0.3719 -0.0842
 8726SOL    HW237815   1.863   3.964   2.861  0.8050 -0.9861  0.3794
 8727SOL     OW37816   1.028   0.344   3.035 -0.7393  0.2620  0.3845
 8727SOL    HW137817   0.991   0.352   2.947  1.8803 -1.2779 -0.8449
 8727SOL    HW237818   1.077   0.264   3.014 -2.0012  0.1396 -2.1221
 8728SOL     OW37819   0.214   0.031   4.628  0.1083 -0.3031  0.1384
 8728SOL    HW137820   0.149   4.698   4.626  1.2837 -1.3783 -0.0398
 8728SOL    HW237821   0.168   0.104   4.669 -0.2547  0.6040 -1.8817
 8729SOL     OW37822   2.256   3.169   7.522  0.8710 -0.1038 -0.2268
 8729SOL    HW137823   2.241   3.120   7.441 -1.0581 -0.9540  0.6557
 8729SOL    HW237824   2.175   3.216   7.538  1.2167  1.7858 -4.1796
 8730SOL     OW37825   4.589   2.921   5.103  0.2915  0.0449  0.2325
 8730SOL    HW137826   4.582   2.827   5.083  0.4853 -0.1258  0.9610
 8730SOL    HW237827   4.579   2.965   5.019  0.6974  3.1108  1.7769
 8731SOL     OW37828   0.724   1.117   8.700  0.6435 -0.3082 -0.2826
 8731SOL    HW137829   0.755   1.028   8.716  1.8896  0.5466  2.2108
 8731SOL    HW237830   0.803   1.158   8.666  2.8684 -1.5656  3.3606
 8732SOL     OW37831   4.680   3.348   9.717  0.1111  0.0917  0.3681
 8732SOL    HW137832   4.601   3.326   9.667 -0.2374  0.3707  0.7908
 8732SOL    HW237833   4.631   3.376   9.794 -1.5923  1.5301 -1.2385
 8733SOL     OW37834   3.205   3.821   5.600 -0.4054 -0.4212  0.0457
 8733SOL    HW137835   3.281   3.875   5.579 -0.3529  1.0228  4.0483
 8733SOL    HW237836   3.186   3.785   5.513 -0.3365 -2.5186  0.9033
 8734SOL     OW37837   2.170   2.314  10.487  0.2471  0.0894 -0.3617
 8734SOL    HW137838   2.101   2.376  10.512  0.9932  0.7501  0.0708
 8734SOL    HW237839   2.217   2.303  10.570 -0.1804 -1.9510 -0.3806
 8735SOL     OW37840   2.851   1.980  12.372 -0.4858  0.1969  0.6664
 8735SOL    HW137841   2.853   2.074  12.354 -1.2113 -0.2350 -1.7240
 8735SOL    HW237842   2.864   1.936  12.288 -0.4294 -0.8257  1.2112
 8736SOL     OW37843   0.479   3.181   6.821  0.1456 -0.4127 -0.1922
 8736SOL    HW137844   0.532   3.120   6.769 -0.0124 -0.2118 -0.5870
 8736SOL    HW237845   0.532   3.188   6.901 -0.2173 -0.3150  0.0413
 8737SOL     OW37846   4.559   3.432  13.193 -0.2225  0.0331 -0.3268
 8737SOL    HW137847   4.477   3.417  13.241  0.0293  0.0632  0.1096
 8737SOL    HW237848   4.532   3.451  13.103 -0.2471  0.2625 -0.2690
 8738SOL     OW37849   2.911   0.894   7.286 -0.0236  0.2413  0.3887
 8738SOL    HW137850   2.835   0.950   7.301 -0.6798 -0.1113 -1.7104
 8738SOL    HW237851   2.899   0.871   7.194 -0.0174  1.7025  0.0234
 8739SOL     OW37852   4.514   0.609  12.201  0.1900 -0.5250 -0.2518
 8739SOL    HW137853   4.468   0.638  12.122 -1.1364 -2.0286 -0.0360
 8739SOL    HW237854   4.485   0.685  12.252  0.9543  1.7350 -3.1357
 8740SOL     OW37855   3.932   2.300   7.870  0.2832  0.1701  0.2980
 8740SOL    HW137856   3.880   2.376   7.899  1.1796  0.6932  0.5191
 8740SOL    HW237857   4.009   2.348   7.839 -1.4886  2.3361 -0.7661
 8741SOL     OW37858   3.399   1.359   5.829  0.9506  0.4638  0.6269
 8741SOL    HW137859   3.320   1.358   5.883 -0.0438 -2.2375 -0.8760
 8741SOL    HW237860   3.361   1.359   5.742 -0.4435  0.5326  1.2339
 8742SOL     OW37861   1.080   4.281   9.226  0.4139  0.5426 -0.0038
 8742SOL    HW137862   1.037   4.343   9.167 -0.3303  0.4851  0.4637
 8742SOL    HW237863   1.172   4.304   9.224  0.4623  0.2420 -1.3808
 8743SOL     OW37864   4.452   2.365  13.785  0.4486 -0.2676 -0.2260
 8743SOL    HW137865   4.429   2.453  13.811  1.4573 -0.7218  2.1513
 8743SOL    HW237866   4.475   2.320  13.866  0.3001 -1.7831 -1.0170
 8744SOL     OW37867   3.246   2.904   8.496  0.2256  0.8873  0.6313
 8744SOL    HW137868   3.260   2.974   8.559 -0.5335  2.9162 -1.4456
 8744SOL    HW237869   3.207   2.829   8.542 -0.5239 -1.0287 -3.1430
 8745SOL     OW37870   2.461   4.400   7.627 -0.4203  0.8209  0.0593
 8745SOL    HW137871   2.488   4.317   7.588 -0.9063  0.3990  0.6162
 8745SOL    HW237872   2.434   4.446   7.547  1.3958  0.6206 -0.6740
 8746SOL     OW37873   4.683   3.106   8.525 -0.1682  0.1822  0.0747
 8746SOL    HW137874   4.724   3.103   8.611  2.0485  0.5711 -0.9515
 8746SOL    HW237875   4.599   3.068   8.551 -0.2787 -0.2460 -0.8980
 8747SOL     OW37876   3.770   1.984   7.314  0.0550 -0.5427 -0.3068
 8747SOL    HW137877   3.698   1.972   7.253  0.9467  1.0620 -1.6664
 8747SOL    HW237878   3.763   1.897   7.354  0.2515  0.1562  1.2610
 8748SOL     OW37879   3.450   3.256   5.185 -0.3753  0.3618 -0.0589
 8748SOL    HW137880   3.438   3.164   5.159  2.1291 -0.4206  1.5173
 8748SOL    HW237881   3.535   3.258   5.230  0.1267 -0.9636 -0.9152
 8749SOL     OW37882   3.255   1.329   8.696 -0.6186 -0.1241 -0.4153
 8749SOL    HW137883   3.246   1.311   8.602 -0.7691 -0.7584 -0.2786
 8749SOL    HW237884   3.314   1.261   8.727  1.0235  0.4524 -2.2287
 8750SOL     OW37885   0.287   0.332   4.220  0.2589 -0.1197  0.1681
 8750SOL    HW137886   0.308   0.239   4.222 -0.5818 -0.3463 -1.8940
 8750SOL    HW237887   0.368   0.366   4.182 -1.2465  2.7416 -0.4542
 8751SOL     OW37888   4.671   3.092   7.733  0.3461 -0.0749  0.4721
 8751SOL    HW137889   0.023   3.059   7.741 -0.4009 -1.2581  3.6562
 8751SOL    HW237890   4.661   3.091   7.637  1.8271  0.1924  0.3185
 8752SOL     OW37891   4.108   4.537  10.064 -0.1557 -0.2002  0.3834
 8752SOL    HW137892   4.038   4.587  10.022  0.0527 -0.1275  0.1261
 8752SOL    HW237893   4.159   4.541   9.983 -1.1456 -3.3143 -0.4029
 8753SOL     OW37894   3.281   4.639   8.477 -0.9030  0.2896  0.4756
 8753SOL    HW137895   3.271   4.693   8.555  0.0768  0.5943  0.3981
 8753SOL    HW237896   3.234   4.562   8.508  0.7405 -1.5270 -1.4569
 8754SOL     OW37897   2.435   1.640   0.724  0.4641 -0.3589  0.3858
 8754SOL    HW137898   2.415   1.729   0.694  0.6715  0.0598  1.5096
 8754SOL    HW237899   2.354   1.593   0.703  0.1740  0.1769  0.2982
 8755SOL     OW37900   3.036   0.936   3.463 -0.0751 -0.1127 -0.4549
 8755SOL    HW137901   3.128   0.962   3.468  0.2887 -1.3703 -0.4979
 8755SOL    HW237902   3.013   0.928   3.556 -0.6055 -2.4214 -0.7927
 8756SOL     OW37903   0.792   3.255  13.409 -0.2286 -0.4040 -0.0657
 8756SOL    HW137904   0.710   3.285  13.448  0.2739  0.9598 -0.0306
 8756SOL    HW237905   0.850   3.307  13.466  0.3621 -0.2527 -0.8129
 8757SOL     OW37906   3.073   2.257   3.539  0.0704  0.1615 -0.3394
 8757SOL    HW137907   3.060   2.170   3.502 -0.2917  0.3205 -0.5821
 8757SOL    HW237908   2.990   2.304   3.550  0.5110  0.9372 -0.3028
 8758SOL     OW37909   1.058   1.867   3.419  0.3069  0.1856 -0.2073
 8758SOL    HW137910   1.119   1.940   3.422 -0.0764  0.4914  0.1617
 8758SOL    HW237911   1.083   1.818   3.497 -1.5158 -0.9822 -0.3399
 8759SOL     OW37912   2.952   0.016  15.420  0.0428 -0.8448 -0.0096
 8759SOL    HW137913   3.012   0.057  15.482 -0.4340 -0.9293  0.5057
 8759SOL    HW237914   3.012   4.703  15.365  1.3903  1.6054 -0.7940
 8760SOL     OW37915   3.599   1.837   3.089  0.2897  0.6923  0.3008
 8760SOL    HW137916   3.580   1.930   3.100  0.4658  0.5639  1.6550
 8760SOL    HW237917   3.684   1.838   3.046  1.3631 -0.1049  2.3861
 8761SOL     OW37918   4.643   1.512   9.224  0.0386 -0.1715  0.4005
 8761SOL    HW137919   4.556   1.519   9.264  0.1977  1.7950  0.3915
 8761SOL    HW237920   4.687   1.525   9.308 -0.1360  2.1169  0.1415
 8762SOL     OW37921   1.453   4.077   7.276 -0.5253  0.2405 -0.2991
 8762SOL    HW137922   1.542   4.109   7.287 -0.3865  0.5272 -2.1939
 8762SOL    HW237923   1.455   4.061   7.182 -2.9623  3.4635 -0.8917
 8763SOL     OW37924   2.666   1.953  13.855 -0.0822 -0.7960 -0.3820
 8763SOL    HW137925   2.698   1.899  13.927  0.6973 -0.6695 -0.6353
 8763SOL    HW237926   2.572   1.953  13.876  0.3780 -2.2400  1.6425
 8764SOL     OW37927   1.312   3.445   5.146 -0.3555 -0.3166  0.1352
 8764SOL    HW137928   1.234   3.496   5.164  0.3615  0.5171  0.8857
 8764SOL    HW237929   1.322   3.473   5.055  0.3281  3.2786  1.3437
 8765SOL     OW37930   2.263   1.316   0.901 -0.3999 -0.4420 -0.2263
 8765SOL    HW137931   2.199   1.252   0.933 -0.2584 -0.0700  0.7795
 8765SOL    HW237932   2.274   1.376   0.975 -0.6172 -0.6024 -0.0656
 8766SOL     OW37933   0.738   1.527   6.534 -0.2652  0.0222 -0.2878
 8766SOL    HW137934   0.745   1.568   6.448 -2.9752  1.1459  0.0405
 8766SOL    HW237935   0.821   1.550   6.577 -0.7675 -0.9464  1.2292
 8767SOL     OW37936   2.498   2.871  11.734 -0.5812 -0.2532 -0.3393
 8767SOL    HW137937   2.403   2.879  11.727 -0.4960 -0.0668 -1.3238
 8767SOL    HW237938   2.513   2.890  11.827 -0.5408  0.9479 -0.5911
 8768SOL     OW37939   2.069   2.682   4.134  0.6879 -0.1986 -0.0761
 8768SOL    HW137940   2.113   2.644   4.058 -0.7063 -2.7264  0.3951
 8768SOL    HW237941   2.061   2.774   4.105  0.1034  0.1565  1.2269
 8769SOL     OW37942   1.494   4.435   6.792 -0.0062  0.2315 -0.7195
 8769SOL    HW137943   1.517   4.371   6.725 -1.8594  1.0380 -2.1364
 8769SOL    HW237944   1.422   4.403   6.846 -0.9357  1.2818 -1.3291
 8770SOL     OW37945   0.671   0.778  12.857  0.4891 -0.2189  0.1435
 8770SOL    HW137946   0.644   0.694  12.819  0.9674 -0.4900  0.4060
 8770SOL    HW237947   0.744   0.796  12.798  1.7882 -2.6015  1.0361
 8771SOL     OW37948   4.678   2.393   7.075  0.3847 -0.3957 -0.3347
 8771SOL    HW137949   4.641   2.306   7.091 -0.1793 -0.5060 -2.2188
 8771SOL    HW237950   4.608   2.445   7.114 -0.8941 -1.7160 -0.8412
 8772SOL     OW37951   0.699   2.571  12.633 -0.2031 -0.7516  0.1937
 8772SOL    HW137952   0.606   2.554  12.620 -0.4752  1.8880 -1.2928
 8772SOL    HW237953   0.712   2.571  12.728 -0.6027 -0.7725  0.2477
 8773SOL     OW37954   2.152   2.366  13.669 -0.2926  0.6583  0.3239
 8773SOL    HW137955   2.058   2.357  13.681 -0.3419 -0.6978 -1.1420
 8773SOL    HW237956   2.186   2.300  13.729 -0.9349 -0.7678 -0.8928
 8774SOL     OW37957   2.633   2.534   6.988  0.5095 -0.0210  0.6117
 8774SOL    HW137958   2.724   2.510   6.974  0.0087 -0.7154 -1.5205
 8774SOL    HW237959   2.628   2.626   6.962 -1.5714 -0.9860 -2.3815
 8775SOL     OW37960   1.921   2.332   3.721 -0.4114 -0.1292  0.1766
 8775SOL    HW137961   1.986   2.350   3.654  0.0211 -0.9903  0.3641
 8775SOL    HW237962   1.903   2.424   3.739  1.4823  0.4890 -1.1389
 8776SOL     OW37963   2.239   2.787   7.093 -0.0812 -0.0667 -0.2389
 8776SOL    HW137964   2.249   2.692   7.100 -2.3953 -0.2737  0.4894
 8776SOL    HW237965   2.300   2.818   7.160  0.8214 -1.4376 -0.4465
 8777SOL     OW37966   4.224   0.960   4.788 -0.2887  0.0616 -0.6735
 8777SOL    HW137967   4.207   0.871   4.755 -0.2071 -0.1252 -0.2182
 8777SOL    HW237968   4.318   0.962   4.770 -0.2654  0.0701 -0.5524
 8778SOL     OW37969   0.520   4.343   6.825 -0.0892  0.4349  0.0401
 8778SOL    HW137970   0.512   4.293   6.906 -1.3979  0.3619 -0.1307
 8778SOL    HW237971   0.541   4.278   6.758  0.6575 -0.9314  1.5935
 8779SOL     OW37972   0.176   0.681  14.017 -0.1211  0.5141 -1.0142
 8779SOL    HW137973   0.210   0.760  14.058  0.1832  0.7996 -1.8280
 8779SOL    HW237974   0.186   0.706  13.926 -0.1335  1.5492 -0.7273
 8780SOL     OW37975   2.049   4.544  11.848  0.1822 -0.6351  0.4160
 8780SOL    HW137976   2.046   4.545  11.752  1.6360 -1.9572  0.3567
 8780SOL    HW237977   2.144   4.534  11.853  0.3432  1.4663  1.2719
 8781SOL     OW37978   3.655   4.136   8.314 -0.0849  0.6430  0.1399
 8781SOL    HW137979   3.671   4.103   8.226  0.6406 -2.2113  1.3340
 8781SOL    HW237980   3.595   4.208   8.296 -0.3813  0.4031  0.1499
 8782SOL     OW37981   0.228   0.036   7.017  0.1576  0.1967  0.1605
 8782SOL    HW137982   0.168   0.106   6.992  0.6516  1.0605  1.3937
 8782SOL    HW237983   0.242   0.073   7.104 -1.6321  0.8547  0.1692
 8783SOL     OW37984   1.398   4.105   6.990 -0.5358  0.1480  0.7723
 8783SOL    HW137985   1.385   4.012   6.974 -3.1884  0.8952 -1.6272
 8783SOL    HW237986   1.306   4.129   7.005  0.1455  2.0838  1.8121
 8784SOL     OW37987   3.108   1.422   3.193 -0.1984  0.1297  0.5484
 8784SOL    HW137988   3.027   1.427   3.142  0.5078  0.5614 -0.5236
 8784SOL    HW237989   3.063   1.429   3.278 -3.0361 -1.5279 -0.8311
 8785SOL     OW37990   4.165   4.673  16.961 -0.2080  0.1476 -0.0819
 8785SOL    HW137991   4.100   4.699  16.896 -0.4041  0.2909  0.1728
 8785SOL    HW237992   4.110   4.687  17.038  1.6017  2.3115  0.8242
 8786SOL     OW37993   0.904   3.871   2.761 -0.2693  0.2717  0.0561
 8786SOL    HW137994   0.915   3.797   2.701 -1.2708 -1.3929  1.9350
 8786SOL    HW237995   0.971   3.862   2.829  0.4533  1.5812 -0.4891
 8787SOL     OW37996   2.121   4.208   6.401 -0.3179  0.0786 -0.2571
 8787SOL    HW137997   2.187   4.144   6.428 -1.5892 -1.1056  0.0253
 8787SOL    HW237998   2.040   4.160   6.416  0.2595 -0.8148  0.0181
 8788SOL     OW37999   1.027   1.238   5.079  0.6969 -0.1534 -0.3343
 8788SOL    HW138000   0.978   1.156   5.081 -0.7376  0.7214  0.2113
 8788SOL    HW238001   0.982   1.298   5.019  0.4205 -1.0483 -1.0279
 8789SOL     OW38002   4.671   1.834  16.572 -0.1041 -0.2831 -0.7246
 8789SOL    HW138003   4.724   1.884  16.634  1.9128 -0.5597 -2.2293
 8789SOL    HW238004   0.001   1.769  16.553 -0.4241 -0.5371 -0.9798
 8790SOL     OW38005   0.647   1.559   7.754 -0.1570 -0.3490  0.4617
 8790SOL    HW138006   0.714   1.527   7.813  2.1674  2.8615 -0.4136
 8790SOL    HW238007   0.667   1.652   7.765 -0.2673 -0.4965  1.8583
 8791SOL     OW38008   0.691   0.536   9.019  0.1982  0.3342  0.5222
 8791SOL    HW138009   0.611   0.512   9.066 -0.3907  1.0014 -0.1543
 8791SOL    HW238010   0.755   0.536   9.091 -0.0489  0.1192  0.7419
 8792SOL     OW38011   4.115   4.252  12.703  0.2848 -0.0135  0.4700
 8792SOL    HW138012   4.141   4.269  12.793 -1.3598 -1.1271  1.1633
 8792SOL    HW238013   4.191   4.297  12.666 -0.0012  0.3652  0.3466
 8793SOL     OW38014   4.694   1.280  16.226 -0.0344  0.6724  0.3928
 8793SOL    HW138015   4.722   1.298  16.136 -0.1225  1.7486  0.5816
 8793SOL    HW238016   4.715   1.362  16.270  1.7944 -0.1129  0.9690
 8794SOL     OW38017   4.200   1.156   4.983 -0.3721  0.4272  0.4034
 8794SOL    HW138018   4.142   1.209   4.928 -3.2860 -0.1119  2.9708
 8794SOL    HW238019   4.210   1.078   4.929 -1.5115  0.4284  0.1859
 8795SOL     OW38020   2.158   0.945  12.591 -0.1115 -0.2653  0.1312
 8795SOL    HW138021   2.167   0.851  12.608  1.7118 -0.2503 -0.7099
 8795SOL    HW238022   2.121   0.945  12.503  1.2556 -0.4525 -0.4435
 8796SOL     OW38023   4.233   2.296  15.336 -0.3078  0.2879 -0.1918
 8796SOL    HW138024   4.142   2.319  15.355 -0.7199  1.3570 -3.4030
 8796SOL    HW238025   4.279   2.282  15.419 -0.6277  0.4986  0.0205
 8797SOL     OW38026   2.716   0.655  15.898 -0.1002 -0.3028 -0.1771
 8797SOL    HW138027   2.801   0.660  15.941  0.5079  1.0469 -1.5489
 8797SOL    HW238028   2.730   0.570  15.857 -2.9490 -1.6470  1.6025
 8798SOL     OW38029   0.712   1.228   9.236 -0.5150 -0.0204  0.5156
 8798SOL    HW138030   0.773   1.262   9.171  0.2870 -1.3202  0.5781
 8798SOL    HW238031   0.731   1.281   9.313 -0.5647  1.0975 -0.2484
 8799SOL     OW38032   0.872   2.319  14.696 -0.2719  0.4188  0.5640
 8799SOL    HW138033   0.966   2.327  14.680 -0.4466  0.3860 -0.4751
 8799SOL    HW238034   0.847   2.407  14.669 -3.1323 -0.3490  0.7935
 8800SOL     OW38035   4.116   1.789   8.461  0.6715 -0.3100  0.7256
 8800SOL    HW138036   4.138   1.834   8.543 -1.2924  0.8164  0.6378
 8800SOL    HW238037   4.087   1.703   8.492  1.4323 -1.3776 -1.5799
 8801SOL     OW38038   2.822   3.806  12.944  0.1864  0.0001 -0.4091
 8801SOL    HW138039   2.865   3.857  13.012  1.5621 -2.2789  0.4273
 8801SOL    HW238040   2.861   3.719  12.953 -2.7605 -1.3111 -0.4873
 8802SOL     OW38041   2.887   2.131   4.307 -0.1652 -0.1452  0.1282
 8802SOL    HW138042   2.827   2.057   4.310  0.7377 -0.8037  1.8490
 8802SOL    HW238043   2.874   2.147   4.214  0.4268  0.6088  0.1725
 8803SOL     OW38044   0.425   1.493   6.467 -0.1681  0.4641 -0.9591
 8803SOL    HW138045   0.398   1.405   6.440  1.3574 -0.1399 -0.5110
 8803SOL    HW238046   0.519   1.480   6.478 -0.1008  1.5076 -0.2456
 8804SOL     OW38047   3.387   0.096   1.138 -0.1493 -0.0900 -0.1665
 8804SOL    HW138048   3.369   0.178   1.185 -1.7270 -0.1834 -0.5877
 8804SOL    HW238049   3.336   0.099   1.057  1.1296  1.6919 -0.9098
 8805SOL     OW38050   0.095   4.699   0.834  0.3866  0.0632  0.2189
 8805SOL    HW138051   0.036   0.035   0.851  1.0085  0.3268  1.2162
 8805SOL    HW238052   0.157   4.701   0.906  2.0884 -1.5196 -1.1886
 8806SOL     OW38053   0.370   0.988  16.697  0.5187  0.4031  0.0254
 8806SOL    HW138054   0.355   0.988  16.603 -1.1792  0.1621  0.2887
 8806SOL    HW238055   0.283   0.962  16.728  1.1175 -1.8823 -0.2428
 8807SOL     OW38056   1.077   1.754   9.113 -0.3857 -0.2969  0.3004
 8807SOL    HW138057   1.135   1.752   9.037  1.1861 -1.5686  1.5293
 8807SOL    HW238058   1.005   1.716   9.063 -0.5585  1.8084 -1.0733
 8808SOL     OW38059   3.330   4.728   3.864  0.2888 -0.0127 -0.5099
 8808SOL    HW138060   3.328   0.072   3.814  0.7697  1.4003  1.7795
 8808SOL    HW238061   3.390   4.680   3.806  0.7236  0.1859 -0.2275
 8809SOL     OW38062   2.517   3.555   7.029  0.0699  0.5359  0.9178
 8809SOL    HW138063   2.443   3.616   7.017  0.7022  0.6707 -2.2894
 8809SOL    HW238064   2.532   3.522   6.941 -1.6950  1.1007  0.4073
 8810SOL     OW38065   2.012   4.106  14.294  0.1944  0.4136  0.4905
 8810SOL    HW138066   1.986   4.183  14.346  1.8189  0.5279  1.1278
 8810SOL    HW238067   2.040   4.139  14.209  0.6257 -0.4597  0.2942
 8811SOL     OW38068   3.082   0.750   4.703 -0.2118 -0.2518  0.2514
 8811SOL    HW138069   3.072   0.658   4.726 -0.9083  0.4538  2.7510
 8811SOL    HW238070   3.175   0.769   4.711 -0.5411  1.3024  0.4758
 8812SOL     OW38071   0.766   4.450  14.857  0.6360 -0.3675 -0.2179
 8812SOL    HW138072   0.830   4.457  14.928  0.2212  2.9774 -0.1585
 8812SOL    HW238073   0.688   4.441  14.911  0.5437 -0.6337 -0.3960
 8813SOL     OW38074   2.915   0.927   8.394 -0.2955 -0.2494  0.0581
 8813SOL    HW138075   2.861   0.853   8.366  1.1160 -1.9622  1.8531
 8813SOL    HW238076   2.856   1.002   8.388  0.0885  0.0991  0.6154
 8814SOL     OW38077   1.652   1.314   9.481 -0.0385 -0.2646 -0.1955
 8814SOL    HW138078   1.652   1.252   9.408  0.8803  0.3649 -0.7277
 8814SOL    HW238079   1.623   1.392   9.434 -3.2415 -0.4314  1.4940
 8815SOL     OW38080   0.932   2.042   4.962  0.1884  0.5420  0.1485
 8815SOL    HW138081   0.964   2.091   5.038 -0.4696 -0.1052  0.8389
 8815SOL    HW238082   0.917   1.954   4.997 -2.7017  0.2389 -1.8432
 8816SOL     OW38083   0.859   2.449   4.470 -0.4643 -0.1796 -0.3938
 8816SOL    HW138084   0.890   2.375   4.417  0.6130 -0.6789  0.9077
 8816SOL    HW238085   0.925   2.514   4.446 -1.7413  1.3258  0.2400
 8817SOL     OW38086   1.453   2.985   9.940 -0.2708 -0.6268 -0.0679
 8817SOL    HW138087   1.474   2.953  10.027 -1.9535 -0.4307  0.4088
 8817SOL    HW238088   1.534   2.996   9.891 -0.0110  1.1472  0.7861
 8818SOL     OW38089   0.676   2.988   2.786  0.0838  0.1325  0.0722
 8818SOL    HW138090   0.622   3.024   2.857  1.3895  0.1654  1.0562
 8818SOL    HW238091   0.701   3.064   2.733 -0.8024  0.1327 -0.3429
 8819SOL     OW38092   1.199   3.913   1.290  0.0647 -0.6500  0.3261
 8819SOL    HW138093   1.256   3.906   1.367  0.6334  2.2013  0.1712
 8819SOL    HW238094   1.222   4.005   1.276  2.1709 -1.2903 -0.3357
 8820SOL     OW38095   0.222   4.048   2.137 -0.4059  0.3468  0.0261
 8820SOL    HW138096   0.227   4.137   2.172  0.8975 -0.5639  2.1157
 8820SOL    HW238097   0.130   4.024   2.147 -0.5323  2.1419  3.2636
 8821SOL     OW38098   4.365   0.724  10.697  0.3423 -0.0852  0.1509
 8821SOL    HW138099   4.375   0.712  10.603 -0.7399  1.5572 -0.1718
 8821SOL    HW238100   4.424   0.796  10.720  1.3186 -0.0442 -2.4276
 8822SOL     OW38101   0.170   2.390   5.420 -0.6713  0.6674  0.5230
 8822SOL    HW138102   0.087   2.437   5.430 -0.5314  1.2519 -1.1718
 8822SOL    HW238103   0.204   2.434   5.343  0.4710 -0.8880  0.1305
 8823SOL     OW38104   2.495   2.900   3.521 -0.1076 -0.0045  0.3191
 8823SOL    HW138105   2.516   2.956   3.596  1.9075 -0.8879  0.4200
 8823SOL    HW238106   2.435   2.838   3.563 -2.3720  2.9648  1.4069
 8824SOL     OW38107   0.722   3.232   2.673  0.1794 -0.2525 -0.6985
 8824SOL    HW138108   0.779   3.302   2.704  1.8465 -1.4408 -1.0265
 8824SOL    HW238109   0.675   3.281   2.606 -1.7929 -1.8163 -0.4671
 8825SOL     OW38110   4.520   2.003   7.858  0.1138 -0.6660  0.5259
 8825SOL    HW138111   4.426   2.012   7.841  0.1434 -1.4091 -0.0001
 8825SOL    HW238112   4.520   1.944   7.933  0.5538 -0.6917  0.5090
 8826SOL     OW38113   0.841   4.233   7.438 -0.5466  0.3891 -0.0339
 8826SOL    HW138114   0.846   4.199   7.528  2.6415  2.2259  0.4802
 8826SOL    HW238115   0.767   4.291   7.453 -3.3129 -3.9125  3.2728
 8827SOL     OW38116   0.455   0.260   1.262 -0.0714  0.0415 -0.0814
 8827SOL    HW138117   0.381   0.219   1.307  0.7458  0.3405  1.5336
 8827SOL    HW238118   0.510   0.304   1.327  0.3460 -0.5325 -0.0421
 8828SOL     OW38119   2.841   1.700   1.232 -0.3657 -0.0508  0.0797
 8828SOL    HW138120   2.861   1.662   1.317 -0.8959  0.0878  0.2674
 8828SOL    HW238121   2.931   1.715   1.201 -1.4477  2.5943 -1.7794
 8829SOL     OW38122   3.706   4.092   3.739  0.3108  0.4266 -0.2617
 8829SOL    HW138123   3.698   3.999   3.758 -3.0037  0.9536  0.9733
 8829SOL    HW238124   3.698   4.089   3.643 -2.5863  0.3903 -0.0293
 8830SOL     OW38125   0.199   0.239   5.008  0.2743 -0.2594 -0.4822
 8830SOL    HW138126   0.202   0.189   5.089 -0.0350  0.7632  0.1592
 8830SOL    HW238127   0.149   0.314   5.041  1.8745  0.2826  0.7086
 8831SOL     OW38128   0.746   1.286   4.758  0.1543 -0.4454  0.1548
 8831SOL    HW138129   0.840   1.292   4.776  0.1715 -0.3781  0.0438
 8831SOL    HW238130   0.716   1.358   4.813  0.2266  1.4391 -2.2659
 8832SOL     OW38131   3.178   2.813   6.163  0.3952  0.2503 -0.2217
 8832SOL    HW138132   3.156   2.802   6.256  1.2260 -2.4264 -0.3507
 8832SOL    HW238133   3.155   2.904   6.146  1.3971  0.5599  0.0825
 8833SOL     OW38134   1.833   3.711   7.237  0.0249  0.3100 -0.4558
 8833SOL    HW138135   1.786   3.634   7.205  0.4336 -0.6870  1.3868
 8833SOL    HW238136   1.814   3.775   7.168  1.5705 -0.6411 -1.7532
 8834SOL     OW38137   3.794   3.657   7.470  0.1978 -0.3516  0.1081
 8834SOL    HW138138   3.805   3.722   7.401 -0.3917 -0.4804 -0.1113
 8834SOL    HW238139   3.869   3.675   7.526  0.7229  1.3955 -1.1726
 8835SOL     OW38140   3.895   1.851   8.298 -0.2481  0.8842  0.0709
 8835SOL    HW138141   3.932   1.809   8.375  2.2125  0.8863 -1.1018
 8835SOL    HW238142   3.859   1.930   8.339  0.9599  0.0474  2.7657
 8836SOL     OW38143   0.635   2.845   5.885 -0.2557  0.5455  0.2138
 8836SOL    HW138144   0.598   2.861   5.798 -0.0637 -1.7552 -0.2801
 8836SOL    HW238145   0.704   2.781   5.868 -0.5895  0.1179  0.4695
 8837SOL     OW38146   1.201   2.518   7.574 -0.2171  0.3235  0.2226
 8837SOL    HW138147   1.182   2.538   7.666 -0.8055 -1.3712  0.4598
 8837SOL    HW238148   1.170   2.595   7.526  0.9858  0.4681 -0.3410
 8838SOL     OW38149   1.712   3.911  12.866 -0.2813 -0.2808 -0.4527
 8838SOL    HW138150   1.631   3.945  12.904  0.0818 -0.7786  0.7646
 8838SOL    HW238151   1.718   3.955  12.781 -2.7091 -0.7687 -0.8787
 8839SOL     OW38152   1.068   3.858   5.888 -0.4421  0.5495 -0.1172
 8839SOL    HW138153   1.101   3.891   5.972 -1.1348 -0.7158  0.6566
 8839SOL    HW238154   1.150   3.819   5.857 -1.9148  0.5598 -3.9634
 8840SOL     OW38155   4.642   3.080   3.246  0.2504  0.3409  0.2197
 8840SOL    HW138156   4.557   3.080   3.290  0.3820  1.9469  0.4835
 8840SOL    HW238157   4.631   3.082   3.151 -1.3913 -0.4244  0.3958
 8841SOL     OW38158   2.485   4.482   3.591 -0.3348 -0.2622 -0.1329
 8841SOL    HW138159   2.578   4.497   3.577 -0.6226  0.3428 -1.3518
 8841SOL    HW238160   2.453   4.522   3.510 -0.9434 -2.6376 -1.0602
 8842SOL     OW38161   3.501   2.316   7.664 -0.5465 -0.1808 -0.2513
 8842SOL    HW138162   3.482   2.227   7.635  1.3531 -0.2638 -1.2471
 8842SOL    HW238163   3.414   2.329   7.704  0.1137 -1.0881  1.4930
 8843SOL     OW38164   4.122   1.444   3.751 -0.3090  0.4037 -0.3620
 8843SOL    HW138165   4.137   1.538   3.752  2.1500 -0.0304  2.6905
 8843SOL    HW238166   4.205   1.403   3.774  0.0030  0.7201 -0.9302
 8844SOL     OW38167   3.376   2.411  13.348 -0.5347  0.2362  0.0685
 8844SOL    HW138168   3.295   2.405  13.297 -0.1887 -0.8647 -0.3547
 8844SOL    HW238169   3.339   2.398  13.436 -2.6750  0.9410 -0.7176
 8845SOL     OW38170   0.319   1.304   2.233  0.2234 -0.3599 -0.3771
 8845SOL    HW138171   0.298   1.214   2.209 -1.3949 -0.1383  0.2305
 8845SOL    HW238172   0.374   1.323   2.157  2.8703 -1.0759  1.3416
 8846SOL     OW38173   2.773   2.374  10.643 -0.0987  0.0189 -0.2826
 8846SOL    HW138174   2.765   2.447  10.703 -0.3698  0.0843 -0.3993
 8846SOL    HW238175   2.772   2.303  10.708  0.1775  0.8405  0.6099
 8847SOL     OW38176   1.675   0.649   7.243  0.3957  0.5241 -0.4259
 8847SOL    HW138177   1.657   0.653   7.149 -0.8364  1.6466 -0.1240
 8847SOL    HW238178   1.764   0.613   7.246 -0.7643 -2.4694 -1.3014
 8848SOL     OW38179   1.163   0.437   8.887  0.0242 -0.4930 -0.3478
 8848SOL    HW138180   1.147   0.530   8.872 -1.6595 -0.4954  1.5191
 8848SOL    HW238181   1.204   0.404   8.807 -0.9146 -0.4899 -0.8319
 8849SOL     OW38182   4.395   1.456   6.446  0.2297  0.5509 -0.9416
 8849SOL    HW138183   4.454   1.525   6.474  1.3843 -1.1735  0.9112
 8849SOL    HW238184   4.357   1.499   6.370  0.7340  1.9697 -0.3935
 8850SOL     OW38185   4.428   2.331   5.278  0.1612 -0.7071 -0.0592
 8850SOL    HW138186   4.410   2.421   5.305 -1.1956 -0.3577 -2.1898
 8850SOL    HW238187   4.421   2.289   5.364  0.5339  1.1808  0.9037
 8851SOL     OW38188   1.117   1.446   8.993 -0.7203  0.1557 -0.5763
 8851SOL    HW138189   1.105   1.372   8.934  2.2759  1.9310 -3.4662
 8851SOL    HW238190   1.093   1.513   8.928  0.5259 -0.6265 -1.8561
 8852SOL     OW38191   0.531   2.574   4.281 -0.1899 -0.7255 -0.4578
 8852SOL    HW138192   0.437   2.590   4.269 -0.2772 -0.2845  0.7769
 8852SOL    HW238193   0.535   2.539   4.370 -0.1754  0.4916  0.0216
 8853SOL     OW38194   3.404   3.926   7.559 -0.3746  1.2718  0.3715
 8853SOL    HW138195   3.410   3.877   7.641  1.9321  2.1035  0.6853
 8853SOL    HW238196   3.493   3.954   7.539 -1.0030  1.6399 -1.8405
 8854SOL     OW38197   2.592   2.190   7.182 -0.5342  0.0280 -0.9498
 8854SOL    HW138198   2.639   2.156   7.106  1.7181  1.1306 -0.0614
 8854SOL    HW238199   2.516   2.137   7.159  0.9044 -2.0104 -0.9960
 8855SOL     OW38200   4.022   0.250   5.914 -0.3352  0.4465 -0.1198
 8855SOL    HW138201   3.980   0.264   5.829  1.4835 -1.2410 -1.2973
 8855SOL    HW238202   4.109   0.279   5.887 -0.7561 -0.1071 -2.1006
 8856SOL     OW38203   1.115   1.928  15.559  0.0742 -0.2449 -0.1279
 8856SOL    HW138204   1.175   1.861  15.590 -0.0577  0.2837  1.2759
 8856SOL    HW238205   1.032   1.918  15.606  0.6939 -0.7517  0.8383
 8857SOL     OW38206   3.007   2.974  11.638  0.1669 -0.2265 -0.9256
 8857SOL    HW138207   3.102   2.982  11.645  0.2799 -1.5416 -0.9816
 8857SOL    HW238208   3.000   2.948  11.546  0.3245  0.9716 -1.2758
 8858SOL     OW38209   4.031   4.281   7.546  0.2194 -0.0896 -0.2109
 8858SOL    HW138210   4.033   4.310   7.637 -0.8641  3.4905 -1.3140
 8858SOL    HW238211   3.964   4.344   7.518  0.2661  0.3811  0.7316
 8859SOL     OW38212   0.238   3.435   9.699 -0.2606 -0.3202 -0.5892
 8859SOL    HW138213   0.296   3.360   9.689  2.2427  1.1995  2.5659
 8859SOL    HW238214   0.155   3.411   9.657  0.0129  1.6416 -2.2754
 8860SOL     OW38215   4.570   3.931   8.606  0.2030 -0.0131 -0.0241
 8860SOL    HW138216   4.614   4.011   8.636 -0.5845  0.4515 -0.1202
 8860SOL    HW238217   4.566   3.880   8.687 -1.1221 -0.9503 -0.6787
 8861SOL     OW38218   2.119   0.094   4.539  0.0913 -1.0548 -0.4793
 8861SOL    HW138219   2.210   0.083   4.513 -0.1851 -2.3000 -0.9142
 8861SOL    HW238220   2.076   0.091   4.453 -0.1879  0.8830 -0.4038
 8862SOL     OW38221   3.412   3.564   5.721  0.2143 -0.1432  0.8699
 8862SOL    HW138222   3.437   3.521   5.639 -2.3042  0.7074 -0.3516
 8862SOL    HW238223   3.480   3.630   5.731  0.0298  0.2160 -0.2012
 8863SOL     OW38224   3.781   3.165   7.704 -0.2473  0.3637  0.1896
 8863SOL    HW138225   3.848   3.151   7.637  0.0073 -2.1226  0.9706
 8863SOL    HW238226   3.814   3.113   7.777  0.9441  1.8378  0.7121
 8864SOL     OW38227   1.582   2.047   6.848 -0.7060 -0.3799 -0.3278
 8864SOL    HW138228   1.666   2.087   6.825  0.2836 -0.7458  2.5771
 8864SOL    HW238229   1.545   2.121   6.896  0.6747 -0.3766  0.7524
 8865SOL     OW38230   1.517   0.177   8.257 -0.0011  0.4872  0.9388
 8865SOL    HW138231   1.441   0.206   8.207 -0.6039 -2.1059  0.3130
 8865SOL    HW238232   1.466   0.113   8.307 -1.8123  1.2540  0.0851
 8866SOL     OW38233   3.141   1.852   2.503 -0.2644 -0.0678  0.4363
 8866SOL    HW138234   3.196   1.878   2.430 -0.4027  2.4991  1.2665
 8866SOL    HW238235   3.179   1.897   2.578 -0.1173 -1.3920  1.1548
 8867SOL     OW38236   2.542   1.876   6.843  0.0273 -0.4408 -0.4430
 8867SOL    HW138237   2.525   1.887   6.749 -1.3871  0.3653 -0.0859
 8867SOL    HW238238   2.504   1.789   6.852  0.2888 -0.4674  0.3686
 8868SOL     OW38239   2.667   0.022   1.483  0.3194 -0.5829  0.0126
 8868SOL    HW138240   2.659   0.056   1.394  0.4067 -1.2735 -0.2601
 8868SOL    HW238241   2.598   0.080   1.514 -0.0417 -0.9669 -0.0741
 8869SOL     OW38242   4.702   2.383  13.551 -0.6293 -0.0557  0.1803
 8869SOL    HW138243   4.667   2.316  13.609 -0.5432 -0.9811 -0.8339
 8869SOL    HW238244   4.728   2.450  13.615  1.1594 -1.0446  0.4916
 8870SOL     OW38245   2.170   3.379  12.326  0.3039  0.3539  0.5376
 8870SOL    HW138246   2.153   3.430  12.405  0.8468 -0.1736  0.9981
 8870SOL    HW238247   2.083   3.342  12.309  0.9666  0.3048 -2.8612
 8871SOL     OW38248   2.068   4.639   9.032  0.5403  0.2340 -0.3377
 8871SOL    HW138249   1.975   4.653   9.015  0.5275 -1.7659 -1.9212
 8871SOL    HW238250   2.052   4.545   9.030 -3.3237  0.8451  1.1308
 8872SOL     OW38251   4.194   1.567  16.666  0.1051  0.3279 -0.1095
 8872SOL    HW138252   4.278   1.609  16.645  0.3120 -0.0609 -0.0504
 8872SOL    HW238253   4.187   1.492  16.608  1.2777 -0.8302  1.2516
 8873SOL     OW38254   3.604   0.837   7.339 -0.1489 -0.4499 -0.7607
 8873SOL    HW138255   3.664   0.827   7.412 -2.0223 -2.7281  0.4617
 8873SOL    HW238256   3.667   0.849   7.268  0.6991  0.4891  0.1561
 8874SOL     OW38257   3.847   4.491   4.337  0.6310  0.3394  0.1202
 8874SOL    HW138258   3.752   4.501   4.347  0.1380 -1.2270 -2.9768
 8874SOL    HW238259   3.849   4.484   4.242  0.7514  1.2414  0.0539
 8875SOL     OW38260   1.873   4.129   6.502  0.0692  0.1977  1.1380
 8875SOL    HW138261   1.842   4.068   6.435 -2.6625 -1.0411  3.5216
 8875SOL    HW238262   1.792   4.175   6.523 -1.1679 -1.0402 -1.0118
 8876SOL     OW38263   4.685   0.178   6.163  0.0177 -0.0339 -0.0133
 8876SOL    HW138264   4.632   0.257   6.153 -0.6798 -0.4953  0.0675
 8876SOL    HW238265   4.714   0.158   6.074  0.2207 -1.9178  0.4880
 8877SOL     OW38266   4.394   3.491   7.091 -0.0200  0.0800 -0.9210
 8877SOL    HW138267   4.425   3.537   7.169 -1.8037 -2.1977  1.1137
 8877SOL    HW238268   4.470   3.506   7.034  0.0611 -0.2829 -0.9075
 8878SOL     OW38269   0.899   1.013   5.041  0.8882 -0.3458  0.1791
 8878SOL    HW138270   0.937   0.961   4.970 -0.5862 -1.8282  0.4619
 8878SOL    HW238271   0.808   0.984   5.031  1.0104 -0.4849 -0.5302
 8879SOL     OW38272   0.507   2.228   5.542  0.2717  0.3587 -0.0828
 8879SOL    HW138273   0.516   2.323   5.529  0.7237  0.5838  1.8727
 8879SOL    HW238274   0.428   2.222   5.597  0.3804  2.0040  0.2592
 8880SOL     OW38275   3.342   0.851   4.369  0.3119 -0.4833 -0.4038
 8880SOL    HW138276   3.397   0.776   4.391 -0.4311 -0.3718  1.8261
 8880SOL    HW238277   3.399   0.925   4.348 -0.8703  0.6175  0.2229
 8881SOL     OW38278   2.628   0.134   2.941 -0.4949 -0.2206  0.0856
 8881SOL    HW138279   2.595   0.082   2.868  0.5270  0.5588 -0.9260
 8881SOL    HW238280   2.607   0.220   2.905  1.4122  0.4072  0.4620
 8882SOL     OW38281   3.227   1.095   7.973 -0.2285 -0.2111 -0.5693
 8882SOL    HW138282   3.135   1.111   7.952 -0.3809 -0.3232  0.0010
 8882SOL    HW238283   3.271   1.116   7.891  2.9302 -0.9208  0.9400
 8883SOL     OW38284   4.564   0.257   4.217 -0.1830 -0.3032 -0.4388
 8883SOL    HW138285   4.627   0.193   4.185  0.7696 -0.2522  1.3322
 8883SOL    HW238286   4.489   0.229   4.165 -0.5780  2.0279 -1.1250
 8884SOL     OW38287   1.398   3.648   3.282 -0.2910  0.2405 -0.1532
 8884SOL    HW138288   1.491   3.638   3.265 -0.8412 -0.3841 -2.8047
 8884SOL    HW238289   1.398   3.683   3.371 -0.1670 -4.0715  1.5464
 8885SOL     OW38290   0.239   2.247   2.851  0.6348 -0.4929 -0.4278
 8885SOL    HW138291   0.185   2.311   2.898 -0.5599 -0.7862 -1.4031
 8885SOL    HW238292   0.328   2.282   2.849  0.4834  0.0259  2.1453
 8886SOL     OW38293   2.774   0.474   7.134  0.7049  0.5320  0.3731
 8886SOL    HW138294   2.849   0.458   7.076  2.5631 -0.6245  3.1386
 8886SOL    HW238295   2.761   0.388   7.173 -2.5338  1.3108  0.9982
 8887SOL     OW38296   1.185   3.197   5.213  0.6964  0.5122  0.1048
 8887SOL    HW138297   1.232   3.278   5.194  0.7834  0.3683 -0.2949
 8887SOL    HW238298   1.111   3.199   5.152  0.4533  0.1082  0.3762
 8888SOL     OW38299   1.568   2.953  14.320  0.0124  0.6544  0.0969
 8888SOL    HW138300   1.619   3.014  14.373  2.7060  1.8579 -3.8357
 8888SOL    HW238301   1.633   2.909  14.265  0.3422 -2.7816  3.1717
 8889SOL     OW38302   4.624   1.966   4.264 -0.2465  0.4841 -0.1679
 8889SOL    HW138303   4.688   2.005   4.205  1.5659 -2.2424  0.0264
 8889SOL    HW238304   4.676   1.948   4.343  0.8648 -0.2337 -1.0685
 8890SOL     OW38305   1.937   3.483   5.377  0.4794  0.0954 -0.4900
 8890SOL    HW138306   1.984   3.452   5.455  1.8723  0.5123 -1.1709
 8890SOL    HW238307   1.887   3.552   5.420 -1.5840 -2.3797  1.0768
 8891SOL     OW38308   1.087   2.393   3.672 -0.1787 -0.0102  0.0542
 8891SOL    HW138309   1.040   2.318   3.708 -0.9887  0.5813  0.2168
 8891SOL    HW238310   1.151   2.350   3.614  0.1066 -0.1591  0.4792
 8892SOL     OW38311   0.737   3.272   8.881  0.3399  0.5844  0.1796
 8892SOL    HW138312   0.646   3.255   8.857  0.1130  0.8885  0.8182
 8892SOL    HW238313   0.720   3.317   8.963 -0.7690  1.1477 -0.3624
 8893SOL     OW38314   3.696   3.638   9.356 -0.2161  0.1006  0.6835
 8893SOL    HW138315   3.751   3.706   9.395 -0.4805  0.3485  0.6230
 8893SOL    HW238316   3.634   3.682   9.298  0.6580  1.3380  0.6740
 8894SOL     OW38317   2.218   4.729   5.324  0.0733  0.5737  0.4780
 8894SOL    HW138318   2.195   4.639   5.303 -2.4049  1.4787 -0.7499
 8894SOL    HW238319   2.135   0.021   5.362  0.0961 -0.0990  1.0475
 8895SOL     OW38320   3.308   1.760  14.869  0.2272 -0.3403  0.0234
 8895SOL    HW138321   3.378   1.754  14.803 -0.6728 -0.0373 -0.9562
 8895SOL    HW238322   3.358   1.777  14.949  0.0125  0.1267  0.0584
 8896SOL     OW38323   0.927   3.184   2.344 -0.0312  0.3040 -0.1117
 8896SOL    HW138324   0.919   3.172   2.249  0.1651  1.4699 -0.2736
 8896SOL    HW238325   0.839   3.212   2.368 -0.3889 -2.5129  1.7520
 8897SOL     OW38326   2.454   4.385   4.186 -0.1213  0.7088 -0.1550
 8897SOL    HW138327   2.420   4.303   4.149  0.7878 -0.0040  0.5789
 8897SOL    HW238328   2.534   4.359   4.232 -1.7174 -0.2042  2.0940
 8898SOL     OW38329   0.384   3.414   8.541  0.2608 -0.0518  0.2155
 8898SOL    HW138330   0.468   3.451   8.568  0.0206  1.0328 -0.5350
 8898SOL    HW238331   0.339   3.493   8.514 -0.3182 -0.5755 -0.3638
 8899SOL     OW38332   0.157   3.181   6.531  0.5103  0.3714  0.2896
 8899SOL    HW138333   0.177   3.230   6.451  3.3401 -2.7522 -0.8798
 8899SOL    HW238334   0.242   3.183   6.574  0.5994 -1.0232  0.1689
 8900SOL     OW38335   0.254   3.881   2.898 -0.2247 -0.0797 -0.3881
 8900SOL    HW138336   0.241   3.902   2.990 -1.6251  0.2977 -0.6573
 8900SOL    HW238337   0.171   3.907   2.858 -0.6984 -1.3386 -0.2380
 8901SOL     OW38338   3.312   2.897   1.879 -0.3858 -0.0493  0.0059
 8901SOL    HW138339   3.322   2.988   1.853  0.7826 -0.1324  0.1503
 8901SOL    HW238340   3.322   2.852   1.795 -2.6630 -1.3673  0.4564
 8902SOL     OW38341   0.833   4.240   4.443 -0.4100 -0.3806  0.0390
 8902SOL    HW138342   0.779   4.186   4.501 -1.5268 -0.9700 -1.5506
 8902SOL    HW238343   0.788   4.235   4.358 -1.8890  0.2542  0.7767
 8903SOL     OW38344   3.365   0.395  16.243 -0.2314  0.0628  0.7367
 8903SOL    HW138345   3.361   0.471  16.185 -0.1993  0.6298  1.4849
 8903SOL    HW238346   3.434   0.421  16.304 -1.4909  0.7486  1.8496
 8904SOL     OW38347   1.499   4.627   3.326  0.3988  0.3550 -0.0340
 8904SOL    HW138348   1.572   4.615   3.386 -0.6434 -1.2472  0.9060
 8904SOL    HW238349   1.444   4.680   3.384  1.1524  0.8590  0.2185
 8905SOL     OW38350   3.806   0.859   0.051 -0.0594  0.0227  0.1628
 8905SOL    HW138351   3.743   0.815  17.741  1.3114 -0.5345 -0.9111
 8905SOL    HW238352   3.751   0.850   0.129  0.8249  1.3481  0.9357
 8906SOL     OW38353   2.297   1.910  12.630  0.1969 -0.0554  0.0750
 8906SOL    HW138354   2.349   1.833  12.606 -0.2302 -1.0907  2.4737
 8906SOL    HW238355   2.218   1.896  12.578  1.2128  0.4406 -1.6114
 8907SOL     OW38356   2.726   3.172   6.684  0.1655 -0.1530 -1.0487
 8907SOL    HW138357   2.756   3.082   6.695  1.8281  0.0791 -3.6292
 8907SOL    HW238358   2.805   3.226   6.681  1.5371 -2.1805 -0.9870
 8908SOL     OW38359   4.067   1.067   8.477 -0.6389 -0.7797 -0.6800
 8908SOL    HW138360   4.076   0.975   8.502 -0.7968  0.0257  2.3217
 8908SOL    HW238361   3.978   1.090   8.507  0.7490  2.9420  0.5965
 8909SOL     OW38362   1.920   1.120   5.560 -0.2122 -0.1334 -0.3903
 8909SOL    HW138363   2.000   1.146   5.604  0.8987 -2.3508 -1.0828
 8909SOL    HW238364   1.857   1.115   5.632  1.6258 -0.6015  1.1757
 8910SOL     OW38365   3.453   2.825   2.463  0.3135 -0.0606 -0.3827
 8910SOL    HW138366   3.460   2.900   2.522 -0.5480 -0.6458  0.4631
 8910SOL    HW238367   3.490   2.850   2.378  1.3962 -1.5334 -0.3679
 8911SOL     OW38368   1.814   0.066   7.507 -1.0489 -0.3857  0.0188
 8911SOL    HW138369   1.807   4.708   7.502  0.4935 -0.6180  2.3523
 8911SOL    HW238370   1.900   0.067   7.550 -0.5473  0.1588 -1.0147
 8912SOL     OW38371   0.256   0.483   1.435  0.0201  0.5332  0.3057
 8912SOL    HW138372   0.345   0.447   1.437  0.8404  2.5965  1.2376
 8912SOL    HW238373   0.283   0.543   1.505  0.1161  0.6693  0.1545
 8913SOL     OW38374   2.816   2.340   1.388 -0.3646 -0.3405 -0.2996
 8913SOL    HW138375   2.740   2.389   1.357  0.6026  1.8307  0.7446
 8913SOL    HW238376   2.843   2.290   1.310 -0.1441 -0.6853 -0.0037
 8914SOL     OW38377   0.941   1.399   6.697  0.3595 -0.1552  0.3979
 8914SOL    HW138378   0.856   1.400   6.743 -0.3567  1.2386 -0.9911
 8914SOL    HW238379   0.954   1.306   6.719  0.1108 -0.7612 -2.1099
 8915SOL     OW38380   2.730   4.343   7.084 -0.0552  0.4758 -0.4002
 8915SOL    HW138381   2.794   4.344   7.012 -1.3656  0.9317 -1.5584
 8915SOL    HW238382   2.724   4.436   7.102 -2.5540  0.5406 -1.5008
 8916SOL     OW38383   1.773   0.661  12.833  0.1373 -0.4772 -0.8250
 8916SOL    HW138384   1.753   0.620  12.750 -0.0333 -1.0939 -0.4792
 8916SOL    HW238385   1.867   0.639  12.835  0.0516 -0.6352  1.4382
 8917SOL     OW38386   1.165   1.170  12.797 -0.1296  0.1760  0.0467
 8917SOL    HW138387   1.223   1.211  12.732  1.6724  0.4384  1.8272
 8917SOL    HW238388   1.150   1.240  12.860 -1.1490  0.7383 -0.8311
 8918SOL     OW38389   1.888   1.825  17.348 -0.1113 -0.3770 -0.2412
 8918SOL    HW138390   1.955   1.861  17.291  0.9474 -0.0945  1.1829
 8918SOL    HW238391   1.895   1.887  17.421  1.3402 -1.3570  0.4604
 8919SOL     OW38392   4.373   4.143   9.164 -0.3289  0.2793 -0.6965
 8919SOL    HW138393   4.411   4.229   9.148 -0.9184  0.6980  0.1610
 8919SOL    HW238394   4.413   4.091   9.095  1.6272  1.7985 -0.7086
 8920SOL     OW38395   3.020   3.881   2.981  0.0528  0.4549 -0.1999
 8920SOL    HW138396   3.087   3.840   2.926 -1.3281  0.4087 -1.8824
 8920SOL    HW238397   2.963   3.909   2.909 -1.3691 -3.6554 -0.7188
 8921SOL     OW38398   3.734   3.545   5.193  0.0983 -0.3584 -0.1390
 8921SOL    HW138399   3.732   3.462   5.146 -0.1950 -0.6700  0.4336
 8921SOL    HW238400   3.746   3.606   5.120 -1.7263  0.7133  0.4694
 8922SOL     OW38401   4.718   0.518  12.396  0.0635  0.4846  0.1483
 8922SOL    HW138402   4.647   0.516  12.333 -0.4046 -0.5333  0.7223
 8922SOL    HW238403   4.689   0.593  12.448 -0.3641 -0.5839  1.4491
 8923SOL     OW38404   4.204   1.662  15.791  0.1122 -0.2962  0.6399
 8923SOL    HW138405   4.250   1.601  15.734  0.2856  0.8901 -0.4939
 8923SOL    HW238406   4.146   1.599  15.833 -1.1350  0.0490 -0.5595
 8924SOL     OW38407   1.209   2.255   4.210 -0.3040 -0.0241 -0.1692
 8924SOL    HW138408   1.241   2.194   4.277  0.8236 -1.0230 -1.6090
 8924SOL    HW238409   1.114   2.254   4.217 -0.3066  2.9540  0.1316
 8925SOL     OW38410   0.584   0.105   3.067 -0.3909  0.6318 -0.4908
 8925SOL    HW138411   0.567   0.013   3.046 -0.2707  0.6380 -0.6179
 8925SOL    HW238412   0.585   0.153   2.984  1.6172  1.5051  0.0388
 8926SOL     OW38413   3.476   3.874   3.606 -0.0297  0.1421 -0.0734
 8926SOL    HW138414   3.555   3.821   3.591  0.4707  1.2319 -1.2568
 8926SOL    HW238415   3.414   3.846   3.540  0.2976 -0.1052 -0.2758
 8927SOL     OW38416   4.588   4.681   6.308 -0.2337 -0.4257  0.3168
 8927SOL    HW138417   4.631   0.023   6.277  0.3223 -1.1101 -0.6470
 8927SOL    HW238418   4.648   4.653   6.377 -3.0395 -0.8288  2.5939
 8928SOL     OW38419   2.065   2.337   8.798  0.2089  0.0872 -0.0282
 8928SOL    HW138420   1.986   2.314   8.749 -0.2701  0.8310  0.3971
 8928SOL    HW238421   2.028   2.335   8.887  1.2765  2.2180  0.4446
 8929SOL     OW38422   3.835   2.095  14.961  0.2693 -0.4418 -0.0140
 8929SOL    HW138423   3.875   2.161  15.018  0.5746  0.5130 -1.3508
 8929SOL    HW238424   3.902   2.092  14.893 -0.1458 -0.1948 -0.4283
 8930SOL     OW38425   4.260   3.325  11.229 -1.4863  0.4998 -0.3209
 8930SOL    HW138426   4.319   3.396  11.254 -0.5148  0.1730 -1.7058
 8930SOL    HW238427   4.317   3.258  11.193  0.3451  1.3696  0.9679
 8931SOL     OW38428   3.410   1.624   7.200 -0.1770 -0.6382 -0.3806
 8931SOL    HW138429   3.347   1.620   7.272  1.5879 -3.1369  1.0294
 8931SOL    HW238430   3.376   1.565   7.133 -1.8399  1.6217 -1.4908
 8932SOL     OW38431   0.947   4.621  16.303 -0.0431  0.5329  0.0322
 8932SOL    HW138432   0.942   4.698  16.245 -0.8257 -0.1898 -0.8469
 8932SOL    HW238433   1.034   4.585  16.285 -0.6921  0.3905 -2.7697
 8933SOL     OW38434   0.373   4.004   1.814 -0.1016  0.6231  0.8813
 8933SOL    HW138435   0.351   4.096   1.830 -0.2126  0.5802  0.9774
 8933SOL    HW238436   0.302   3.978   1.755  0.0481  1.4963  0.3168
 8934SOL     OW38437   3.738   0.167  14.768  0.3807 -0.2035 -0.4831
 8934SOL    HW138438   3.817   0.118  14.744  1.3410  2.0075 -1.8254
 8934SOL    HW238439   3.707   0.128  14.849  1.4464 -0.3073 -0.1321
 8935SOL     OW38440   1.901   3.058   3.290  0.0085 -0.3187  0.2730
 8935SOL    HW138441   1.836   3.043   3.358 -1.4989  0.1914 -1.0426
 8935SOL    HW238442   1.843   3.038   3.217  1.2420  0.1069 -0.8328
 8936SOL     OW38443   4.220   2.178   6.090  0.3016 -0.3851  0.3717
 8936SOL    HW138444   4.197   2.089   6.064  2.1374 -0.6990 -0.1739
 8936SOL    HW238445   4.290   2.162   6.154  0.4548  0.9575  0.5422
 8937SOL     OW38446   4.575   1.062   4.125 -0.0595 -0.0336  0.1322
 8937SOL    HW138447   4.536   1.146   4.147 -0.0188 -0.0234  0.1647
 8937SOL    HW238448   4.636   1.044   4.196  1.0981 -0.4004 -0.9449
 8938SOL     OW38449   2.756   0.732  14.981 -0.1004 -0.1473 -0.0369
 8938SOL    HW138450   2.699   0.807  14.969  0.0239 -0.1889 -0.9054
 8938SOL    HW238451   2.787   0.719  14.891  0.8388  0.1467  0.2474
 8939SOL     OW38452   1.318   3.459  10.447 -0.0665  0.1125  0.0402
 8939SOL    HW138453   1.299   3.452  10.353  0.1203  0.0078  0.0091
 8939SOL    HW238454   1.394   3.517  10.446  1.4883 -1.9170 -0.8904
 8940SOL     OW38455   1.836   3.889   4.732  0.3288  0.3279 -0.4975
 8940SOL    HW138456   1.793   3.921   4.811  0.0965 -2.7202  0.6343
 8940SOL    HW238457   1.786   3.935   4.665  3.5429  2.2796 -1.5506
 8941SOL     OW38458   0.351   1.040   6.225  0.0680 -0.6189 -0.1175
 8941SOL    HW138459   0.446   1.049   6.233 -0.0109 -1.3501  1.5528
 8941SOL    HW238460   0.354   0.954   6.182  0.4996 -1.1979  1.0825
 8942SOL     OW38461   0.852   0.916  13.140 -0.2312  0.0409  0.3969
 8942SOL    HW138462   0.893   0.958  13.064  0.6776 -1.4196  0.1010
 8942SOL    HW238463   0.879   0.825  13.146  0.1265  0.2113  1.3331
 8943SOL     OW38464   0.363   1.748   9.612 -0.0550  0.4652  0.0695
 8943SOL    HW138465   0.358   1.820   9.674  0.4934  0.1634  0.4655
 8943SOL    HW238466   0.350   1.785   9.525 -1.1913  1.6411  0.7447
 8944SOL     OW38467   0.705   3.971   2.598  0.2404  0.0861  0.3559
 8944SOL    HW138468   0.743   4.045   2.550  0.1302 -0.5649 -0.7303
 8944SOL    HW238469   0.778   3.952   2.657  0.8261 -1.1625 -0.7771
 8945SOL     OW38470   1.900   4.415   3.635  0.0616 -0.2986  0.0414
 8945SOL    HW138471   1.855   4.440   3.716 -0.5093 -0.0005 -0.3695
 8945SOL    HW238472   1.932   4.502   3.613  0.4882 -0.2107  1.0058
 8946SOL     OW38473   4.311   0.662   4.161  0.5167 -0.2078  0.3086
 8946SOL    HW138474   4.277   0.720   4.093 -0.4487 -0.1412  0.8514
 8946SOL    HW238475   4.384   0.626   4.111  0.2963 -0.9523  0.5165
 8947SOL     OW38476   4.636   0.704  12.598 -0.2139 -0.3542 -0.1967
 8947SOL    HW138477   4.561   0.687  12.654  1.0912 -2.4916  0.8717
 8947SOL    HW238478   4.707   0.713  12.661  0.2769  1.7812 -1.0409
 8948SOL     OW38479   3.666   1.857   4.644  0.0090 -0.6196  0.3812
 8948SOL    HW138480   3.631   1.773   4.675 -1.6258  0.0595  0.3711
 8948SOL    HW238481   3.670   1.918   4.717  0.3251 -0.6773  0.4107
 8949SOL     OW38482   2.851   2.739   2.109  0.7179 -0.4898 -0.3386
 8949SOL    HW138483   2.897   2.820   2.087 -1.4083  0.9077  0.3724
 8949SOL    HW238484   2.801   2.764   2.186  2.1972 -1.9025  1.0649
 8950SOL     OW38485   0.251   0.819   6.097 -0.4661  0.2718  0.1446
 8950SOL    HW138486   0.270   0.733   6.059  3.0099  1.1405 -0.0751
 8950SOL    HW238487   0.165   0.834   6.058  0.4195  0.0605 -1.8934
 8951SOL     OW38488   3.236   0.193  17.079 -0.1404 -0.0747 -0.0441
 8951SOL    HW138489   3.293   0.152  17.015 -1.2283  0.5548 -1.4073
 8951SOL    HW238490   3.234   0.282  17.044  2.2238 -0.1761 -0.3768
 8952SOL     OW38491   3.723   4.271   0.247  0.4311  0.3266 -0.0683
 8952SOL    HW138492   3.777   4.203   0.288  1.0865  0.6867 -0.3231
 8952SOL    HW238493   3.671   4.226   0.180  1.1807  0.3573 -0.6736
 8953SOL     OW38494   3.696   4.569  12.448 -0.2552  0.6486  0.1251
 8953SOL    HW138495   3.672   4.618  12.369 -0.6480 -1.9668 -1.3621
 8953SOL    HW238496   3.642   4.490  12.448  0.9953 -0.2038 -0.8378
 8954SOL     OW38497   0.424   0.516   2.485 -0.0139 -0.2433 -0.0091
 8954SOL    HW138498   0.367   0.488   2.556  0.8527 -2.7162 -0.2641
 8954SOL    HW238499   0.465   0.436   2.450 -1.5760 -1.1743  0.3006
 8955SOL     OW38500   3.071   3.281   3.856  0.4716  0.5101  0.1647
 8955SOL    HW138501   3.125   3.203   3.870 -0.2752 -0.2165 -1.0303
 8955SOL    HW238502   2.992   3.267   3.907  2.4342  2.3878  3.7485
 8956SOL     OW38503   4.592   2.648   3.547 -0.0603  0.3867 -0.2825
 8956SOL    HW138504   4.543   2.588   3.603 -0.3456 -0.0747 -1.0369
 8956SOL    HW238505   4.622   2.712   3.612 -0.1265 -0.9062  1.0057
 8957SOL     OW38506   2.023   4.471   5.934  0.1972 -0.1832  0.0773
 8957SOL    HW138507   2.029   4.453   6.028  0.5064  0.9937  0.2747
 8957SOL    HW238508   2.114   4.484   5.906  0.6532  1.2603  2.2432
 8958SOL     OW38509   2.665   2.741  16.643 -0.6525 -0.1634 -0.2638
 8958SOL    HW138510   2.587   2.714  16.595 -0.4072  0.6710 -1.1364
 8958SOL    HW238511   2.637   2.814  16.699  1.3747  0.2006  0.2848
 8959SOL     OW38512   4.094   0.825   1.123 -0.3083  0.0453  0.0552
 8959SOL    HW138513   4.128   0.781   1.045 -0.9856 -1.3077  0.5435
 8959SOL    HW238514   4.010   0.863   1.096  0.5026  0.8179 -1.4424
 8960SOL     OW38515   4.385   2.121  13.147 -0.8052 -0.0999 -0.0977
 8960SOL    HW138516   4.342   2.036  13.159  0.0835 -0.5954 -0.4238
 8960SOL    HW238517   4.367   2.160  13.232 -0.5308 -0.4369  0.1124
 8961SOL     OW38518   4.037   0.746  13.747 -0.0065 -0.2554  0.3482
 8961SOL    HW138519   4.057   0.839  13.740 -0.9238 -0.0977 -0.1246
 8961SOL    HW238520   3.946   0.755  13.719  0.1382 -2.5863 -0.9106
 8962SOL     OW38521   2.657   0.266   6.577 -0.1871 -0.0526 -0.1318
 8962SOL    HW138522   2.572   0.296   6.544 -0.8594 -1.6262  0.1663
 8962SOL    HW238523   2.676   0.331   6.644 -1.0397  1.0491 -0.9577
 8963SOL     OW38524   1.340   0.731   3.535 -0.3561  0.0491 -0.4016
 8963SOL    HW138525   1.296   0.755   3.616 -0.8548  3.6526 -1.7019
 8963SOL    HW238526   1.298   0.793   3.475  0.7933  0.7279 -0.5050
 8964SOL     OW38527   2.565   0.997   4.461  0.2456 -0.1622  0.0632
 8964SOL    HW138528   2.480   0.965   4.490  0.4756  0.1127  1.0635
 8964SOL    HW238529   2.624   0.926   4.488 -1.0417 -1.2371  0.0129
 8965SOL     OW38530   2.374   3.240   0.911 -0.6508 -0.6803 -0.1523
 8965SOL    HW138531   2.348   3.321   0.869  0.1968  0.9739  2.4856
 8965SOL    HW238532   2.345   3.181   0.842 -2.7895 -0.4205  0.5268
 8966SOL     OW38533   1.337   0.001   5.079 -0.0536  0.1470  0.3612
 8966SOL    HW138534   1.261   4.684   5.102 -0.6534  1.9091  2.4832
 8966SOL    HW238535   1.314   0.092   5.097 -1.9354 -0.0570 -1.0992
 8967SOL     OW38536   0.878   0.546   0.679 -0.7433 -0.1805 -0.1453
 8967SOL    HW138537   0.834   0.537   0.764 -1.1491 -0.3969 -0.3789
 8967SOL    HW238538   0.812   0.505   0.622  0.0369 -4.8248  2.3268
 8968SOL     OW38539   3.085   3.123   6.849 -0.2412  0.2286 -0.1126
 8968SOL    HW138540   3.170   3.164   6.829  1.6860 -3.1515  1.0679
 8968SOL    HW238541   3.031   3.187   6.895  1.5905  1.2183  0.6759
 8969SOL     OW38542   0.745   1.137   7.885 -0.7937 -0.1183 -0.3272
 8969SOL    HW138543   0.839   1.131   7.871 -0.7705  1.5137 -0.7869
 8969SOL    HW238544   0.725   1.119   7.792  1.0603  1.1643 -0.9591
 8970SOL     OW38545   3.106   2.450   6.760  0.6778  0.0692  0.0937
 8970SOL    HW138546   3.082   2.500   6.682  1.4782  0.4732  0.0981
 8970SOL    HW238547   3.148   2.371   6.727  1.7274  0.0298  1.5513
 8971SOL     OW38548   0.093   1.824   6.036 -0.6209  0.1953  0.6073
 8971SOL    HW138549   0.038   1.767   5.982  2.5704 -0.0123 -2.4332
 8971SOL    HW238550   0.073   1.906   5.991  1.5496 -0.4131 -1.4521
 8972SOL     OW38551   0.460   3.178   9.232 -0.0321 -0.0271 -0.0212
 8972SOL    HW138552   0.395   3.111   9.250 -0.9772  0.8173 -0.2495
 8972SOL    HW238553   0.414   3.249   9.187  1.9363  1.5430  0.4177
 8973SOL     OW38554   2.187   0.562   6.414 -0.0862 -0.4009 -0.8049
 8973SOL    HW138555   2.097   0.567   6.382 -0.8400  0.9082  1.4765
 8973SOL    HW238556   2.168   0.605   6.498 -0.6047  0.9137 -1.5868
 8974SOL     OW38557   4.204   4.127   2.343  0.1587  0.8406  0.0778
 8974SOL    HW138558   4.200   4.220   2.322 -2.7161  0.3434 -1.5183
 8974SOL    HW238559   4.291   4.112   2.381  0.6530 -1.4609 -2.0043
 8975SOL     OW38560   4.439   2.480   7.850  0.1083 -0.5819  0.1913
 8975SOL    HW138561   4.444   2.398   7.898 -0.1140  0.0243  1.2523
 8975SOL    HW238562   4.345   2.500   7.852  0.4860  1.4143 -1.3041
 8976SOL     OW38563   3.394   3.444  16.874  0.5444  0.5616  0.1937
 8976SOL    HW138564   3.463   3.485  16.823 -0.8436  1.0334 -1.3316
 8976SOL    HW238565   3.439   3.383  16.932  0.4091 -0.1168 -0.4223
 8977SOL     OW38566   4.429   4.429  12.994  0.3190 -0.3361  0.3766
 8977SOL    HW138567   4.353   4.383  12.958  1.2365 -0.6172 -1.1889
 8977SOL    HW238568   4.483   4.358  13.029  2.2894  2.0769  2.2412
 8978SOL     OW38569   1.144   0.311  12.616  0.1155 -0.3190 -0.4894
 8978SOL    HW138570   1.178   0.299  12.705 -1.5182  0.8820  0.3031
 8978SOL    HW238571   1.169   0.229  12.575 -0.6754  0.2851 -2.1726
 8979SOL     OW38572   3.520   1.514   7.664  0.0887  0.0988  0.1258
 8979SOL    HW138573   3.443   1.570   7.672 -2.0339 -2.4118 -2.5578
 8979SOL    HW238574   3.590   1.575   7.642 -1.4552  1.3021 -1.4865
 8980SOL     OW38575   0.970   4.152   1.473 -0.2995  0.1856  0.3880
 8980SOL    HW138576   0.950   4.067   1.434  1.9599 -0.2812  0.2390
 8980SOL    HW238577   1.044   4.125   1.527  0.1268  0.3719 -0.1048
 8981SOL     OW38578   0.910   3.538   5.983  0.1799  0.2605  0.0696
 8981SOL    HW138579   0.887   3.516   5.893 -0.9538 -2.6662  1.0815
 8981SOL    HW238580   0.899   3.452   6.024 -0.6143  0.8054  0.9964
 8982SOL     OW38581   1.095   0.179   2.062 -0.1027 -0.4456  0.4962
 8982SOL    HW138582   1.069   0.091   2.034 -0.0547 -0.4700  0.5276
 8982SOL    HW238583   1.151   0.159   2.137  1.1335 -2.3939 -0.9168
 8983SOL     OW38584   2.795   1.991  11.517  0.2387 -0.2385 -0.0685
 8983SOL    HW138585   2.856   2.046  11.565  0.2122 -0.9372  0.7757
 8983SOL    HW238586   2.848   1.980  11.439 -0.3141  2.6151 -0.8455
 8984SOL     OW38587   4.414   2.958   6.890 -0.6031 -0.5692  0.1602
 8984SOL    HW138588   4.434   2.954   6.984 -3.0280 -0.9334  0.6849
 8984SOL    HW238589   4.385   2.867   6.876  2.4012 -1.2141 -1.8851
 8985SOL     OW38590   3.112   4.019   0.615 -0.1046 -0.3064 -0.2341
 8985SOL    HW138591   3.128   3.970   0.534  0.7512 -1.0877  0.4062
 8985SOL    HW238592   3.117   4.106   0.575  0.9329 -0.4792 -0.4812
 8986SOL     OW38593   4.169   3.264   5.798 -0.7111 -0.1833 -0.2534
 8986SOL    HW138594   4.144   3.172   5.791  2.1575 -1.0505  0.7574
 8986SOL    HW238595   4.256   3.252   5.837 -2.1155 -1.5363  2.5130
 8987SOL     OW38596   2.292   1.171   3.133  0.4267 -0.5696 -0.1934
 8987SOL    HW138597   2.388   1.181   3.134  0.4249 -0.7865  2.5722
 8987SOL    HW238598   2.286   1.079   3.109  0.4138 -0.6037 -0.0613
 8988SOL     OW38599   0.584   1.111  13.065 -0.2042  0.2319 -0.4209
 8988SOL    HW138600   0.648   1.159  13.012 -0.1378 -1.7358 -2.0932
 8988SOL    HW238601   0.605   1.145  13.152  2.5578 -1.9616 -0.2419
 8989SOL     OW38602   3.254   1.641   4.921 -0.4790 -0.1310 -0.0916
 8989SOL    HW138603   3.328   1.616   4.866  0.6620  0.3393  1.2201
 8989SOL    HW238604   3.178   1.590   4.891  0.4794 -1.9383  0.5607
 8990SOL     OW38605   1.648   2.359   0.637  0.0764 -0.6952 -0.0320
 8990SOL    HW138606   1.739   2.333   0.648  0.0764  0.4536  2.6115
 8990SOL    HW238607   1.616   2.283   0.589  0.0343  0.0900 -1.2487
 8991SOL     OW38608   0.783   1.690  10.636 -0.9501  0.1917 -0.2530
 8991SOL    HW138609   0.811   1.750  10.705  1.0040 -0.2457 -0.6659
 8991SOL    HW238610   0.769   1.612  10.689 -1.4129  0.2033 -0.3521
 8992SOL     OW38611   1.008   0.946  15.478  0.1379 -0.1115 -0.3523
 8992SOL    HW138612   1.059   0.964  15.557 -1.9123  0.9299  0.7329
 8992SOL    HW238613   0.923   0.932  15.520  0.2161 -1.1346 -0.5367
 8993SOL     OW38614   0.804   4.117  15.882  0.2007  0.3102  0.2646
 8993SOL    HW138615   0.767   4.086  15.800 -1.3619 -0.0755  1.1197
 8993SOL    HW238616   0.892   4.080  15.893  0.3913  0.1028 -1.9682
 8994SOL     OW38617   1.573   3.690   7.857 -0.1316 -0.2787  0.2890
 8994SOL    HW138618   1.563   3.705   7.951  0.4287 -1.9582  0.6249
 8994SOL    HW238619   1.533   3.772   7.828  0.2312  0.2528  1.2859
 8995SOL     OW38620   3.710   3.080   2.767  0.5412 -0.2723  0.0246
 8995SOL    HW138621   3.625   3.037   2.759  0.1917  0.2204  1.0615
 8995SOL    HW238622   3.764   3.022   2.713 -1.5703 -1.6221 -0.6309
 8996SOL     OW38623   0.123   4.241   7.581 -0.1645  0.4175  0.0518
 8996SOL    HW138624   0.036   4.202   7.572 -0.1320  0.1379  0.9492
 8996SOL    HW238625   0.169   4.164   7.614 -1.5117 -0.5794 -0.4178
 8997SOL     OW38626   3.646   0.360  16.707 -0.4073 -0.0913 -0.3813
 8997SOL    HW138627   3.712   0.297  16.677  0.0937  0.3680 -0.2512
 8997SOL    HW238628   3.676   0.381  16.796 -0.6096 -0.7070 -0.1681
 8998SOL     OW38629   2.844   4.539   1.523  0.0139  0.0145 -0.5192
 8998SOL    HW138630   2.781   4.495   1.466  0.3296 -0.9173 -0.1482
 8998SOL    HW238631   2.822   4.632   1.516  1.7602  0.4581  0.0520
 8999SOL     OW38632   3.325   4.279   8.034  0.5802 -0.2072 -0.0432
 8999SOL    HW138633   3.235   4.307   8.014  0.4832 -0.3722  0.1616
 8999SOL    HW238634   3.379   4.344   7.989 -0.6572 -0.3661 -1.7313
 9000SOL     OW38635   1.979   3.706   4.307  0.1971 -0.4619 -0.4044
 9000SOL    HW138636   1.889   3.681   4.286  0.1282 -0.2739 -0.3299
 9000SOL    HW238637   1.980   3.662   4.392 -1.6456 -0.0455 -0.1732
 9001SOL     OW38638   4.589   1.054   7.939 -0.2983  0.4598  0.3776
 9001SOL    HW138639   4.680   1.042   7.965 -0.1049  0.7385 -0.1836
 9001SOL    HW238640   4.569   0.961   7.938 -2.1566  0.9282 -3.5693
 9002SOL     OW38641   0.918   3.049  12.706 -0.1061  0.2999 -0.5798
 9002SOL    HW138642   0.837   3.000  12.691 -1.0357  0.9524  2.3381
 9002SOL    HW238643   0.926   3.079  12.616  0.8901  0.2657 -0.5056
 9003SOL     OW38644   0.604   3.820   4.588  0.2169 -0.0194 -0.0714
 9003SOL    HW138645   0.527   3.848   4.637  0.5350  1.4637 -0.4146
 9003SOL    HW238646   0.632   3.752   4.650 -0.8763 -0.2227  0.1890
 9004SOL     OW38647   4.244   2.806   3.787  0.4472 -0.3481 -0.1659
 9004SOL    HW138648   4.255   2.843   3.874 -2.9074 -0.6054  0.3708
 9004SOL    HW238649   4.258   2.716   3.815  0.0991  0.3737  2.3222
 9005SOL     OW38650   3.007   2.255   9.379 -0.1469 -0.2039  0.0129
 9005SOL    HW138651   2.932   2.255   9.319 -0.3389  2.0473  0.2358
 9005SOL    HW238652   3.006   2.168   9.418 -0.2772  0.1982  0.9047
 9006SOL     OW38653   3.978   3.471  10.074 -0.3044 -0.4250  0.1753
 9006SOL    HW138654   3.888   3.499  10.094 -0.4401  1.7345 -3.5756
 9006SOL    HW238655   3.981   3.378  10.098 -0.3176 -1.0587 -2.2320
 9007SOL     OW38656   1.327   0.081   9.115 -0.6173 -0.1507  0.6244
 9007SOL    HW138657   1.390   0.095   9.185 -0.7685 -1.6950  1.0767
 9007SOL    HW238658   1.263   0.150   9.131 -0.7350  0.0185 -0.5723
 9008SOL     OW38659   3.059   0.958   3.740  0.7345 -0.2716 -0.1183
 9008SOL    HW138660   3.116   0.949   3.816 -1.3645 -1.4151  1.3528
 9008SOL    HW238661   2.971   0.942   3.776  1.3421 -1.9597  0.5974
 9009SOL     OW38662   1.435   0.277  11.347 -0.2283  0.1758 -0.1809
 9009SOL    HW138663   1.384   0.229  11.412  0.1843  1.8682  1.4016
 9009SOL    HW238664   1.404   0.367  11.365  0.2110  0.0698  1.1374
 9010SOL     OW38665   3.806   4.074   7.777  0.8811 -0.0284  0.0033
 9010SOL    HW138666   3.894   4.108   7.789  0.4018  1.2496 -0.0466
 9010SOL    HW238667   3.809   3.998   7.836  1.2065  0.0250  0.0537
 9011SOL     OW38668   2.663   0.466   6.816 -0.1195 -0.0474  0.1622
 9011SOL    HW138669   2.683   0.445   6.907  1.8847 -0.2440 -0.3254
 9011SOL    HW238670   2.568   0.461   6.814 -0.1876  2.0162 -2.0330
 9012SOL     OW38671   2.908   2.094   5.732  0.2716 -0.0433 -0.7165
 9012SOL    HW138672   2.997   2.130   5.729  0.5091 -0.6659 -1.1019
 9012SOL    HW238673   2.860   2.177   5.729 -1.2427 -0.8963  0.1490
 9013SOL     OW38674   4.667   2.184   8.147  0.0518  0.4024  0.4222
 9013SOL    HW138675   0.008   2.214   8.192  0.2738 -0.0859  0.3577
 9013SOL    HW238676   4.609   2.247   8.191  0.0382 -0.3098  1.4150
 9014SOL     OW38677   1.786   4.404  10.648  0.9060  0.2484  0.0748
 9014SOL    HW138678   1.774   4.478  10.707 -0.6697  0.5896 -0.6802
 9014SOL    HW238679   1.879   4.385  10.660  1.3875  2.0094 -0.9076
 9015SOL     OW38680   2.137   1.225   5.669  0.1674  0.2663  0.0848
 9015SOL    HW138681   2.118   1.228   5.762  1.2506 -1.7104  0.3634
 9015SOL    HW238682   2.175   1.312   5.658  0.5912 -0.1455 -1.7271
 9016SOL     OW38683   2.573   0.989  12.278  0.3018  0.1869 -0.8601
 9016SOL    HW138684   2.569   0.913  12.220  4.6329 -0.6359 -0.1113
 9016SOL    HW238685   2.668   0.995  12.291  0.0239  1.7702  0.3940
 9017SOL     OW38686   0.278   4.321  14.311  0.0275  0.8947  0.3735
 9017SOL    HW138687   0.366   4.358  14.317  0.0448  1.4487 -3.2312
 9017SOL    HW238688   0.234   4.406  14.302 -0.1011  1.2529  4.6342
 9018SOL     OW38689   4.273   2.683  10.976 -0.7577 -0.1621  1.0692
 9018SOL    HW138690   4.265   2.710  11.067  2.9656 -0.9721  1.6454
 9018SOL    HW238691   4.307   2.765  10.941 -1.1465 -1.1127 -1.5691
 9019SOL     OW38692   0.112   4.021   8.462 -0.4307  0.0019 -0.1005
 9019SOL    HW138693   0.035   4.058   8.419 -1.0915 -0.4304  0.6993
 9019SOL    HW238694   0.079   4.048   8.548 -1.4310 -1.2614 -0.0766
 9020SOL     OW38695   0.192   4.186   2.902 -0.3123 -0.1312 -0.0170
 9020SOL    HW138696   0.097   4.188   2.889 -0.5772 -1.2341  1.6552
 9020SOL    HW238697   0.201   4.120   2.971 -2.0392 -0.4814 -0.1229
 9021SOL     OW38698   3.278   4.547   6.717  0.4288 -0.2988 -0.0973
 9021SOL    HW138699   3.257   4.454   6.711 -0.1555 -0.2806  1.5526
 9021SOL    HW238700   3.327   4.558   6.636  3.7447  3.3836  2.3892
 9022SOL     OW38701   3.633   2.244   7.220  0.0379  0.4936  0.0405
 9022SOL    HW138702   3.668   2.219   7.134  0.3540 -2.8826  1.1464
 9022SOL    HW238703   3.624   2.160   7.265  0.2270 -0.3908 -1.5527
 9023SOL     OW38704   2.685   2.332  17.196 -0.1448 -0.1942  0.0908
 9023SOL    HW138705   2.600   2.359  17.161 -0.7652 -0.8656  1.0719
 9023SOL    HW238706   2.719   2.270  17.130 -2.1249 -0.5200 -0.6285
 9024SOL     OW38707   3.941   3.285   3.324 -0.2165 -0.5210 -0.3821
 9024SOL    HW138708   3.888   3.211   3.354  0.7668 -1.0474  0.0571
 9024SOL    HW238709   4.027   3.252   3.350 -0.3143  0.2516  0.9005
 9025SOL     OW38710   1.481   3.548   6.552  0.5566 -0.2513 -0.0561
 9025SOL    HW138711   1.435   3.487   6.494 -1.0039  1.0706 -0.1985
 9025SOL    HW238712   1.552   3.496   6.590  1.6955  0.4170 -1.2665
 9026SOL     OW38713   1.889   1.004  14.352  0.0745 -0.1862 -0.5456
 9026SOL    HW138714   1.929   1.045  14.275 -2.2959  0.9299 -1.1875
 9026SOL    HW238715   1.821   0.951  14.310  1.9175 -1.9308 -1.3390
 9027SOL     OW38716   3.541   3.120   8.226 -0.6467 -0.5394  0.3063
 9027SOL    HW138717   3.467   3.170   8.191  0.8611  1.6513  0.2876
 9027SOL    HW238718   3.529   3.149   8.317 -2.2367 -0.2718  0.0126
 9028SOL     OW38719   1.670   2.589   0.525 -0.0531  0.0024 -0.2681
 9028SOL    HW138720   1.646   2.497   0.540 -0.7299  0.2163 -0.0228
 9028SOL    HW238721   1.692   2.590   0.432  2.2126  1.1911  0.2958
 9029SOL     OW38722   3.684   2.123   4.251 -0.4240  0.1349 -0.2047
 9029SOL    HW138723   3.656   2.036   4.281 -0.0690  0.6007  1.4975
 9029SOL    HW238724   3.726   2.169   4.324 -0.7071  2.6367 -1.6363
 9030SOL     OW38725   0.542   3.805  16.789  1.0478  0.4789  0.0081
 9030SOL    HW138726   0.545   3.828  16.882  1.3228 -0.8275  0.3164
 9030SOL    HW238727   0.446   3.806  16.785  1.0648 -3.7762 -0.7037
 9031SOL     OW38728   3.129   0.911  17.083  0.2447  0.0900  0.0522
 9031SOL    HW138729   3.122   0.866  17.168  2.0825  0.9667  0.6571
 9031SOL    HW238730   3.220   0.939  17.084  0.8382 -1.8446 -1.1448
 9032SOL     OW38731   1.512   1.189   6.252 -0.0002  0.3430 -0.0206
 9032SOL    HW138732   1.523   1.283   6.270  1.5439 -0.4676  3.1505
 9032SOL    HW238733   1.571   1.189   6.177  0.1180  2.4682  0.0738
 9033SOL     OW38734   4.735   0.462   8.907 -0.2549  0.1283 -0.3593
 9033SOL    HW138735   0.086   0.495   8.887 -1.7355  3.7083 -0.9140
 9033SOL    HW238736   4.693   0.536   8.950  0.9666 -0.0164  1.0759
 9034SOL     OW38737   1.124   2.663   3.194 -0.2639 -0.4287  0.5134
 9034SOL    HW138738   1.033   2.670   3.163 -0.5817  1.4827  1.8723
 9034SOL    HW238739   1.134   2.568   3.191 -1.4432 -0.5528  0.2291
 9035SOL     OW38740   3.520   1.583   2.419 -0.1243 -0.3513 -0.0422
 9035SOL    HW138741   3.444   1.527   2.402 -1.5311  1.9489 -1.2603
 9035SOL    HW238742   3.500   1.657   2.362 -0.7319  0.8937  1.7817
 9036SOL     OW38743   3.540   4.055  16.608  0.1976 -0.1622 -0.5641
 9036SOL    HW138744   3.591   4.114  16.553 -0.0985 -0.7886 -1.5130
 9036SOL    HW238745   3.607   4.002  16.650  2.2090  1.4553 -1.7519
 9037SOL     OW38746   3.150   4.601   5.735 -0.1258  0.1906  0.7167
 9037SOL    HW138747   3.168   4.642   5.820 -0.4832  2.3034 -0.2189
 9037SOL    HW238748   3.121   4.674   5.681 -0.4446  0.6544  1.5089
 9038SOL     OW38749   1.347   0.534  16.612  0.2881  0.4532  0.2068
 9038SOL    HW138750   1.373   0.538  16.704  0.3455  1.7089  0.1317
 9038SOL    HW238751   1.255   0.515  16.626  0.0253  1.5704 -0.0049
 9039SOL     OW38752   2.686   0.516   6.284  0.5313 -0.3495  0.1520
 9039SOL    HW138753   2.725   0.599   6.313  0.8365 -0.2557 -0.5258
 9039SOL    HW238754   2.596   0.520   6.317  0.4195 -1.1814 -0.0513
 9040SOL     OW38755   3.780   1.590   2.110 -0.0816  0.0143 -0.5585
 9040SOL    HW138756   3.794   1.599   2.204  0.4080  2.0435 -0.8298
 9040SOL    HW238757   3.716   1.519   2.113 -0.3604  0.2997  0.2285
 9041SOL     OW38758   4.454   1.703   9.470 -0.0900  0.0567 -0.2997
 9041SOL    HW138759   4.372   1.672   9.432 -0.2086 -0.5301  0.4390
 9041SOL    HW238760   4.461   1.788   9.425 -0.3589 -0.4863 -1.3732
 9042SOL     OW38761   1.987   0.765   4.045  0.5942  0.4261  0.6978
 9042SOL    HW138762   2.017   0.802   4.128  1.8240 -1.2593  1.0108
 9042SOL    HW238763   2.047   0.805   3.982  0.0730  2.1189  1.2968
 9043SOL     OW38764   3.682   2.391  16.534  0.0298 -0.5320  0.0718
 9043SOL    HW138765   3.718   2.442  16.462 -3.6468 -1.2677 -2.2712
 9043SOL    HW238766   3.601   2.355  16.499  1.0369 -0.8979 -1.8508
 9044SOL     OW38767   4.035   0.060  12.943  0.0915 -0.5001  0.2208
 9044SOL    HW138768   4.104   0.091  13.001 -0.2191  0.9814 -0.1948
 9044SOL    HW238769   3.954   0.101  12.973  1.0816  0.6600  1.2970
 9045SOL     OW38770   1.456   4.424   3.181 -0.1907 -0.0908 -0.1325
 9045SOL    HW138771   1.481   4.509   3.216 -1.7108  1.0669 -1.8657
 9045SOL    HW238772   1.472   4.369   3.258  2.3894 -1.3561 -1.5872
 9046SOL     OW38773   2.857   4.571   0.762 -0.1422 -0.0113 -0.0854
 9046SOL    HW138774   2.836   4.658   0.729  0.1097 -0.8930 -2.5329
 9046SOL    HW238775   2.953   4.572   0.764 -0.1105  0.1849 -2.9443
 9047SOL     OW38776   0.638   2.323   7.502  0.0950  0.6220 -0.0941
 9047SOL    HW138777   0.588   2.401   7.528 -2.1139 -0.9405  0.3523
 9047SOL    HW238778   0.728   2.351   7.518 -0.3121  0.0628  3.0182
 9048SOL     OW38779   0.175   0.467  15.467  0.5036  0.2753  0.2029
 9048SOL    HW138780   0.155   0.520  15.543  2.6175  2.3992 -0.7182
 9048SOL    HW238781   0.144   0.381  15.496  0.5866  1.1812  2.9345
 9049SOL     OW38782   0.793   1.501   4.915 -0.2962 -0.3897 -0.5571
 9049SOL    HW138783   0.871   1.503   4.971 -1.4546  1.3869  0.9998
 9049SOL    HW238784   0.808   1.571   4.852 -0.7429 -0.1089 -0.3457
 9050SOL     OW38785   0.037   2.663   5.871 -0.1895 -0.0998  0.0583
 9050SOL    HW138786   0.077   2.717   5.939  0.8856 -2.3422  1.1997
 9050SOL    HW238787   0.049   2.708   5.787  0.9472  1.3216  0.9870
 9051SOL     OW38788   1.423   1.361   8.192  0.5613 -0.4912  0.0624
 9051SOL    HW138789   1.460   1.432   8.140  1.0808 -0.1367  0.9073
 9051SOL    HW238790   1.376   1.310   8.126 -0.5609 -0.6241  0.9740
 9052SOL     OW38791   0.454   0.639  15.418  0.3494  0.2635  0.3822
 9052SOL    HW138792   0.373   0.618  15.465  0.5677  0.7732  0.9830
 9052SOL    HW238793   0.468   0.550  15.384  1.6353  2.1094 -3.8587
 9053SOL     OW38794   2.844   2.808   5.680  0.9805 -0.2257 -0.5811
 9053SOL    HW138795   2.840   2.715   5.702 -0.7697 -0.5089 -2.1520
 9053SOL    HW238796   2.800   2.814   5.595 -0.7476 -0.7107  0.2962
 9054SOL     OW38797   1.970   3.638   1.467 -0.7143  0.2746 -0.0190
 9054SOL    HW138798   2.061   3.667   1.476 -0.6842 -0.2190  1.2937
 9054SOL    HW238799   1.983   3.578   1.393  0.6111 -0.7295  1.0216
 9055SOL     OW38800   0.423   1.933  12.901  0.2408  0.4285 -0.0695
 9055SOL    HW138801   0.328   1.940  12.891 -0.4378 -3.7401  3.6294
 9055SOL    HW238802   0.434   1.942  12.995 -0.9329  1.3177 -0.0238
 9056SOL     OW38803   1.391   2.121   6.223  0.1088  0.0953  0.3478
 9056SOL    HW138804   1.371   2.028   6.229 -1.4996  0.3318 -1.2330
 9056SOL    HW238805   1.306   2.160   6.202 -0.0445 -1.2658 -1.5471
 9057SOL     OW38806   1.250   3.020   8.452 -0.4491  0.2149  0.0383
 9057SOL    HW138807   1.192   2.945   8.439 -1.2240  0.8201 -0.0273
 9057SOL    HW238808   1.280   3.039   8.363 -0.3707  0.7142  0.1679
 9058SOL     OW38809   0.109   3.012   4.164  0.3683  0.2599 -0.3646
 9058SOL    HW138810   0.143   3.019   4.254  2.0433  3.4367 -1.2202
 9058SOL    HW238811   0.029   3.064   4.173 -0.2544 -0.5306 -1.3226
 9059SOL     OW38812   1.695   1.516   1.329 -0.1768 -0.6276  0.0404
 9059SOL    HW138813   1.655   1.601   1.312 -1.6964 -1.0017  1.6518
 9059SOL    HW238814   1.753   1.548   1.398 -0.8816 -0.9892  0.8010
 9060SOL     OW38815   2.566   0.356   2.797  0.4535  0.0209  0.1074
 9060SOL    HW138816   2.489   0.330   2.748 -0.7403 -1.6580  2.9376
 9060SOL    HW238817   2.521   0.407   2.864  0.8679  0.0590  0.3552
 9061SOL     OW38818   3.318   4.712  17.524 -0.0944 -0.5574 -0.3732
 9061SOL    HW138819   3.289   4.656  17.597 -0.8877 -0.1737 -0.3900
 9061SOL    HW238820   3.337   0.045  17.586  0.2444  0.5029 -1.6825
 9062SOL     OW38821   4.452   1.169  10.847 -0.2424 -0.4884  0.0033
 9062SOL    HW138822   4.415   1.136  10.929 -2.9032 -2.3922 -1.9769
 9062SOL    HW238823   4.531   1.218  10.869 -0.5663  0.8437 -1.8056
 9063SOL     OW38824   2.256   3.088   3.601 -0.1782 -0.3894 -0.1552
 9063SOL    HW138825   2.208   3.083   3.518 -1.9724 -1.3429  0.9422
 9063SOL    HW238826   2.226   3.175   3.626  2.5269  0.2804  0.6873
 9064SOL     OW38827   3.529   3.916   5.863  0.0467  0.3577  0.2044
 9064SOL    HW138828   3.617   3.879   5.868 -0.0258  0.0987 -0.3931
 9064SOL    HW238829   3.486   3.860   5.928 -0.2079  1.6614  1.1470
 9065SOL     OW38830   3.951   2.079   5.485  0.1415 -0.7246 -0.8784
 9065SOL    HW138831   3.926   2.001   5.535 -2.7617  0.7108 -0.0908
 9065SOL    HW238832   3.965   2.133   5.563 -0.1238  0.5103 -1.6970
 9066SOL     OW38833   0.580   2.291   3.429  0.6187  0.0005  0.3711
 9066SOL    HW138834   0.629   2.212   3.452  0.7022 -0.3743 -1.1292
 9066SOL    HW238835   0.541   2.311   3.514 -0.6241 -1.3567  0.1335
 9067SOL     OW38836   0.306   3.589   5.866  0.2051 -0.1032 -0.2664
 9067SOL    HW138837   0.309   3.626   5.954  4.8289 -1.5465  0.1756
 9067SOL    HW238838   0.221   3.626   5.842  0.8100  0.6677 -1.2569
 9068SOL     OW38839   1.290   1.377   7.033  0.2658  0.0702  0.5491
 9068SOL    HW138840   1.197   1.357   7.029  0.0130  0.9692  1.8959
 9068SOL    HW238841   1.313   1.345   6.946  2.9325  0.9152  0.9289
 9069SOL     OW38842   2.500   1.060   7.554  0.2464 -0.5637 -0.1385
 9069SOL    HW138843   2.530   1.044   7.644  0.4683 -1.3288 -0.3539
 9069SOL    HW238844   2.542   1.142   7.527 -1.6277  0.0518 -1.1198
 9070SOL     OW38845   3.845   0.822  15.608 -0.3182 -0.0586 -0.0311
 9070SOL    HW138846   3.845   0.889  15.676  2.1119 -0.6150  0.4804
 9070SOL    HW238847   3.888   0.748  15.650  0.9304 -0.0063 -1.2262
 9071SOL     OW38848   2.917   4.157   9.120  0.4302 -0.0570  0.2454
 9071SOL    HW138849   3.001   4.200   9.136 -0.1780  1.8075 -1.6895
 9071SOL    HW238850   2.911   4.145   9.025 -0.7829 -0.1882  0.3459
 9072SOL     OW38851   0.057   1.959   6.590  0.1853 -0.2319 -0.5200
 9072SOL    HW138852   0.150   1.941   6.605 -0.1656 -0.2863  1.6429
 9072SOL    HW238853   0.045   2.015   6.513  3.6171 -1.9419 -2.2867
 9073SOL     OW38854   1.856   2.988  13.826 -0.7215  0.0665 -0.0944
 9073SOL    HW138855   1.825   2.950  13.908  0.5355 -0.4799  0.1165
 9073SOL    HW238856   1.795   2.962  13.756 -0.4011 -2.0595  0.4456
 9074SOL     OW38857   2.688   4.465  13.925 -0.7176  0.2664 -0.2391
 9074SOL    HW138858   2.783   4.471  13.923 -0.8610  2.3664 -0.5589
 9074SOL    HW238859   2.667   4.376  13.955  0.2961  0.3767  0.7759
 9075SOL     OW38860   3.270   0.601   6.277 -0.4645 -0.0336  0.0636
 9075SOL    HW138861   3.335   0.670   6.262 -0.2608 -0.2281  0.0550
 9075SOL    HW238862   3.270   0.606   6.373  0.5830  0.4374  0.0438
 9076SOL     OW38863   3.859   0.683   4.025 -0.1668 -0.1293 -0.3130
 9076SOL    HW138864   3.888   0.607   4.074  1.5033 -0.4322 -1.7704
 9076SOL    HW238865   3.921   0.749   4.056 -0.8213 -0.3475  1.4265
 9077SOL     OW38866   4.642   0.290  11.547  0.8295  0.0893  0.2321
 9077SOL    HW138867   4.711   0.357  11.554 -0.4839  1.5618 -0.7800
 9077SOL    HW238868   4.616   0.278  11.639  0.3277 -0.3192  0.0311
 9078SOL     OW38869   4.312   1.603   5.617 -0.6551 -0.0638 -0.4533
 9078SOL    HW138870   4.333   1.694   5.639 -0.2137 -0.7314  1.8656
 9078SOL    HW238871   4.363   1.595   5.537  1.4914  1.8146  0.7378
 9079SOL     OW38872   1.206   4.238   6.639 -0.0340 -0.1225  0.6719
 9079SOL    HW138873   1.175   4.201   6.722  2.9264 -1.7090  1.0789
 9079SOL    HW238874   1.152   4.317   6.641  0.6267  0.3510 -0.4722
 9080SOL     OW38875   1.676   4.180   2.046 -0.4188  0.5401 -0.2208
 9080SOL    HW138876   1.730   4.163   1.968 -0.2957  0.7934 -0.1900
 9080SOL    HW238877   1.649   4.271   2.040 -0.7472  0.6526  3.2444
 9081SOL     OW38878   1.373   0.740  17.358  0.2177  0.7813 -0.7774
 9081SOL    HW138879   1.413   0.712  17.441 -1.0907 -1.1251 -0.7959
 9081SOL    HW238880   1.388   0.834  17.363 -0.9394  0.9990 -1.5314
 9082SOL     OW38881   3.171   2.606   4.186  0.5420 -0.2788 -0.7953
 9082SOL    HW138882   3.242   2.640   4.239  0.7965  1.5694 -2.3260
 9082SOL    HW238883   3.219   2.609   4.104  0.0408  1.1380 -1.0376
 9083SOL     OW38884   0.093   4.186  15.597 -0.4047 -0.6157 -0.4635
 9083SOL    HW138885   0.037   4.111  15.617 -0.4406 -1.3252 -3.2138
 9083SOL    HW238886   0.054   4.247  15.659  3.1106 -0.7098  1.8750
 9084SOL     OW38887   0.877   3.225   8.247 -0.1384  0.6672 -0.1650
 9084SOL    HW138888   0.878   3.152   8.185 -1.1252  0.7330 -0.2508
 9084SOL    HW238889   0.793   3.269   8.236 -0.6812  0.2364  2.2142
 9085SOL     OW38890   4.540   0.093   5.757 -0.1373  0.1689  0.4585
 9085SOL    HW138891   4.486   0.043   5.818  0.0838  0.1364  0.6277
 9085SOL    HW238892   4.618   0.117   5.808 -0.5069  0.5858  0.8260
 9086SOL     OW38893   4.209   4.639  11.611  0.5719 -0.0261  0.1799
 9086SOL    HW138894   4.138   4.703  11.623  1.0168  0.9989 -2.5921
 9086SOL    HW238895   4.268   4.696  11.562  2.8032  0.1311  3.0711
 9087SOL     OW38896   1.619   1.840   5.926 -0.0266 -0.4983  0.0695
 9087SOL    HW138897   1.562   1.846   5.849  0.4549 -0.0946 -0.2595
 9087SOL    HW238898   1.601   1.756   5.968 -0.8873 -0.1088  0.4743
 9088SOL     OW38899   3.533   1.248   8.162  0.1555  0.3867  0.2444
 9088SOL    HW138900   3.510   1.341   8.157  1.0976  0.5696 -0.6145
 9088SOL    HW238901   3.510   1.211   8.077 -1.6151 -1.7861  1.6615
 9089SOL     OW38902   0.537   1.975   6.069 -0.2604 -0.1567  0.1191
 9089SOL    HW138903   0.597   2.000   6.139 -0.3685 -1.3857  0.6555
 9089SOL    HW238904   0.537   2.049   6.009  2.3203 -0.2807 -0.0263
 9090SOL     OW38905   3.841   0.528  13.096 -0.0021  0.0842 -0.0118
 9090SOL    HW138906   3.844   0.501  13.188 -0.2836 -2.4257 -0.7532
 9090SOL    HW238907   3.822   0.453  13.041  0.8690 -1.6127  1.9867
 9091SOL     OW38908   2.029   1.110   9.176  0.3631  0.1087  0.3514
 9091SOL    HW138909   2.107   1.099   9.122  0.1547 -0.6839  0.2121
 9091SOL    HW238910   2.028   1.034   9.235  1.1322 -0.9265 -0.9892
 9092SOL     OW38911   3.440   0.145   1.952 -0.1866 -0.1457 -0.1764
 9092SOL    HW138912   3.472   0.169   1.865  0.8869  1.4354  0.6671
 9092SOL    HW238913   3.349   0.172   1.937 -0.5521  0.4974  3.1238
 9093SOL     OW38914   0.540   4.578   1.165  0.4652  0.1180  0.0241
 9093SOL    HW138915   0.546   4.600   1.072  0.2443  0.9075  0.1978
 9093SOL    HW238916   0.571   4.488   1.175  1.4594  0.2503 -1.7611
 9094SOL     OW38917   3.932   3.993   9.210  0.1073  0.2041 -0.5636
 9094SOL    HW138918   3.906   4.078   9.246 -0.1217 -0.0440 -0.1413
 9094SOL    HW238919   3.992   3.966   9.280 -0.0738  2.3300  0.4087
 9095SOL     OW38920   3.472   3.359   8.752 -0.2420  0.4890  0.2916
 9095SOL    HW138921   3.515   3.296   8.809 -3.0741  0.4122  2.3284
 9095SOL    HW238922   3.383   3.364   8.787 -0.8168 -1.3093 -0.9119
 9096SOL     OW38923   3.960   2.466   4.243  0.1622  0.0205 -0.0169
 9096SOL    HW138924   3.912   2.526   4.300 -0.9737  0.3041 -1.2679
 9096SOL    HW238925   4.044   2.510   4.255  0.8253 -0.8863 -1.4164
 9097SOL     OW38926   3.981   1.477   7.616  0.1132 -0.1236 -0.4989
 9097SOL    HW138927   4.005   1.411   7.682 -0.9413  0.0848  0.1040
 9097SOL    HW238928   4.066   1.504   7.581 -0.1927 -0.8553 -1.7972
 9098SOL     OW38929   3.986   4.687  16.777 -0.7293  0.1941 -0.3998
 9098SOL    HW138930   4.003   0.011  16.706 -0.8265  2.0321  1.1483
 9098SOL    HW238931   3.904   4.719  16.816 -0.3458  1.5542 -0.7265
 9099SOL     OW38932   0.436   1.061   4.083 -0.4706 -0.3186 -0.1699
 9099SOL    HW138933   0.456   1.154   4.077  1.0613 -0.6077  0.3503
 9099SOL    HW238934   0.494   1.041   4.156  0.3356 -0.8024 -0.9464
 9100SOL     OW38935   1.204   2.488  11.894  0.1416 -0.2294 -0.3170
 9100SOL    HW138936   1.154   2.514  11.971 -0.3941  0.0003 -0.7488
 9100SOL    HW238937   1.245   2.572  11.874  1.4438 -1.5504 -3.2727
 9101SOL     OW38938   0.582   2.242   6.815 -0.3800  0.0670 -0.6360
 9101SOL    HW138939   0.639   2.215   6.887  0.9425  0.2752 -1.5959
 9101SOL    HW238940   0.499   2.260   6.859  0.0746 -1.1016  0.6685
 9102SOL     OW38941   3.229   3.231   4.370 -0.2479  0.0468  0.0172
 9102SOL    HW138942   3.230   3.307   4.312 -2.4363 -0.2222 -0.3588
 9102SOL    HW238943   3.238   3.273   4.455 -3.7815  2.3479 -0.7585
 9103SOL     OW38944   2.842   3.848   5.933  0.1451 -0.2408 -0.5108
 9103SOL    HW138945   2.858   3.758   5.905 -1.6077  0.8435 -4.9654
 9103SOL    HW238946   2.896   3.863   6.011  0.6314 -2.1475 -0.4849
 9104SOL     OW38947   1.066   2.145   8.081  0.1893  0.4100 -0.5902
 9104SOL    HW138948   1.034   2.183   8.163  1.5114 -1.0700  0.6036
 9104SOL    HW238949   1.070   2.225   8.027  0.2282  0.6027 -0.2997
 9105SOL     OW38950   1.446   1.268   4.406  0.2550  0.1389 -0.2317
 9105SOL    HW138951   1.462   1.175   4.390  2.4074  0.0602  2.5177
 9105SOL    HW238952   1.475   1.284   4.496 -1.0586  0.8654  0.0695
 9106SOL     OW38953   1.301   0.255   4.128  0.2000  0.6481  0.2442
 9106SOL    HW138954   1.356   0.303   4.067  1.3232 -1.2333 -0.2307
 9106SOL    HW238955   1.368   0.198   4.165  1.0175  1.3405 -0.1724
 9107SOL     OW38956   0.387   3.764   3.325  0.1849 -0.5334  0.7565
 9107SOL    HW138957   0.327   3.830   3.290  1.0129 -1.1473 -1.8649
 9107SOL    HW238958   0.441   3.814   3.386  1.2482  0.9556 -1.3936
 9108SOL     OW38959   3.088   3.967   0.033  0.5427 -0.2837 -0.2791
 9108SOL    HW138960   3.010   4.021   0.040  0.6212  0.1788 -2.9639
 9108SOL    HW238961   3.071   3.887   0.083  1.3040  0.2076  0.7646
 9109SOL     OW38962   2.452   1.989   2.434 -0.0261 -0.2569 -0.1891
 9109SOL    HW138963   2.420   1.919   2.491 -0.2630 -0.1812 -0.2298
 9109SOL    HW238964   2.516   1.953   2.373  0.0907 -0.3770  0.0052
 9110SOL     OW38965   3.520   0.442   2.540 -0.1019 -0.3566 -0.0313
 9110SOL    HW138966   3.433   0.433   2.580 -1.1386 -0.5016 -2.2784
 9110SOL    HW238967   3.513   0.524   2.490  0.5389 -1.4425 -1.9360
 9111SOL     OW38968   2.542   2.503   9.523  0.4678 -0.3065 -0.3577
 9111SOL    HW138969   2.609   2.444   9.558  0.1112  0.2506  1.2426
 9111SOL    HW238970   2.504   2.441   9.460 -1.0924  0.1292  0.1564
 9112SOL     OW38971   0.280   3.881   4.339  0.1121 -0.2428  0.4341
 9112SOL    HW138972   0.282   3.892   4.434  1.8324 -1.7295  0.5668
 9112SOL    HW238973   0.369   3.848   4.325 -0.1819 -0.5440 -0.7556
 9113SOL     OW38974   1.584   0.249  15.830  0.7144 -0.3252 -0.7119
 9113SOL    HW138975   1.555   0.337  15.804  1.7710 -0.8280 -3.5500
 9113SOL    HW238976   1.677   0.266  15.844  0.4377  1.5144 -1.1475
 9114SOL     OW38977   1.409   3.887  12.493 -0.3398  0.2268 -0.1514
 9114SOL    HW138978   1.394   3.912  12.585  0.3463 -0.5641  0.1661
 9114SOL    HW238979   1.493   3.842  12.491 -0.3862  0.0586  2.0866
 9115SOL     OW38980   0.977   0.316  15.987  0.7495  0.1716  0.1237
 9115SOL    HW138981   0.998   0.407  15.964  1.6017  0.6397  2.8168
 9115SOL    HW238982   0.883   0.331  15.981  1.1050  2.4308  0.0327
 9116SOL     OW38983   1.331   4.279  14.950 -0.4446  0.0292 -0.0902
 9116SOL    HW138984   1.414   4.308  14.913  0.7856  1.3403  3.7643
 9116SOL    HW238985   1.361   4.263  15.039  0.1983 -2.8370 -0.8128
 9117SOL     OW38986   0.547   1.393  13.042 -0.0277  0.3249  0.0406
 9117SOL    HW138987   0.497   1.340  12.980 -1.5733 -0.9796  2.3922
 9117SOL    HW238988   0.517   1.479  13.015  1.0821  0.8788  0.5849
 9118SOL     OW38989   0.744   1.351   8.883  0.6913 -0.0791 -0.3846
 9118SOL    HW138990   0.695   1.275   8.852  0.9963 -0.7412  0.7619
 9118SOL    HW238991   0.765   1.406   8.807 -0.7189  0.9519 -0.0336
 9119SOL     OW38992   2.892   2.357   6.495  0.2527 -0.3078 -0.5404
 9119SOL    HW138993   2.950   2.433   6.483 -0.0999 -0.1497 -1.2982
 9119SOL    HW238994   2.810   2.377   6.450 -0.2878 -0.3960  0.4134
 9120SOL     OW38995   0.455   4.112   7.015  0.1109  0.0538  0.3488
 9120SOL    HW138996   0.445   4.066   7.098  0.3246  0.2412  0.4769
 9120SOL    HW238997   0.406   4.052   6.958 -0.5902  2.1605 -1.2499
 9121SOL     OW38998   3.228   0.828   5.955  0.2286 -1.1805  0.0065
 9121SOL    HW138999   3.139   0.794   5.965 -0.3986  0.1000 -1.1349
 9121SOL    HW239000   3.280   0.753   5.925  2.5867  0.5671 -0.2489
 9122SOL     OW39001   1.110   3.435   9.982 -0.7886  0.1674 -0.4558
 9122SOL    HW139002   1.043   3.402   9.923  0.0178 -2.1051 -0.1030
 9122SOL    HW239003   1.178   3.470   9.925  0.4328 -3.2204 -1.1099
 9123SOL     OW39004   1.675   2.576   8.979 -0.0565 -0.3215  0.1070
 9123SOL    HW139005   1.760   2.561   8.938 -2.3495 -3.2652 -3.5041
 9123SOL    HW239006   1.619   2.601   8.906 -0.7182  0.3450  0.8476
 9124SOL     OW39007   1.058   4.088   8.904  0.1390  0.0288  0.7274
 9124SOL    HW139008   0.973   4.062   8.939  0.2712 -1.4707 -0.0413
 9124SOL    HW239009   1.031   4.095   8.812  0.9338  1.1204  0.5728
 9125SOL     OW39010   4.375   4.134   8.416  0.4754  0.5970 -0.3242
 9125SOL    HW139011   4.327   4.073   8.361 -1.8617  1.4731  0.7685
 9125SOL    HW239012   4.315   4.200   8.451 -0.4214 -0.7912  0.7381
 9126SOL     OW39013   1.071   2.557   0.580  0.0734 -0.3027 -0.1918
 9126SOL    HW139014   1.139   2.615   0.545 -1.1373 -1.0922 -3.8516
 9126SOL    HW239015   1.064   2.595   0.667  3.5081 -2.8717  1.2072
 9127SOL     OW39016   1.032   0.827  10.024 -0.0971 -0.0036  0.2246
 9127SOL    HW139017   1.107   0.768  10.027  0.9077  1.3882  1.8534
 9127SOL    HW239018   0.989   0.785  10.098  0.0469  0.7878  0.7517
 9128SOL     OW39019   4.493   3.144  15.688  0.1618  0.1660  0.3537
 9128SOL    HW139020   4.414   3.095  15.714 -0.2123 -0.3203 -1.6571
 9128SOL    HW239021   4.520   3.095  15.610 -1.1488  3.6620 -2.2842
 9129SOL     OW39022   1.620   0.901  12.746  0.1670  0.6675  0.0823
 9129SOL    HW139023   1.636   0.842  12.672 -2.7215  0.5246 -0.4163
 9129SOL    HW239024   1.579   0.849  12.815  1.3109  0.4525  0.6001
 9130SOL     OW39025   3.795   4.083   4.194  0.0498 -0.1243 -0.1202
 9130SOL    HW139026   3.890   4.082   4.204  0.1001 -2.5396 -0.9636
 9130SOL    HW239027   3.775   4.171   4.228 -0.2596 -0.2259 -0.0393
 9131SOL     OW39028   2.079   1.216  12.151 -0.8494  0.3235  0.1459
 9131SOL    HW139029   2.109   1.275  12.220  0.6607  0.4848 -0.6223
 9131SOL    HW239030   1.986   1.216  12.170 -0.9521 -0.9876 -0.3676
 9132SOL     OW39031   1.702   4.519   9.166 -0.0317 -0.1750 -0.1348
 9132SOL    HW139032   1.619   4.524   9.119  0.8963  4.3797 -1.2326
 9132SOL    HW239033   1.738   4.607   9.170 -2.2077  0.6790  0.5925
 9133SOL     OW39034   0.023   1.728   8.056 -0.2438  0.7810  0.3873
 9133SOL    HW139035   4.690   1.791   8.075  0.1540  1.2021  0.4491
 9133SOL    HW239036   4.724   1.681   7.981 -0.6522 -0.5024  1.3973
 9134SOL     OW39037   3.187   4.142   3.770  0.1520 -0.0817  0.2213
 9134SOL    HW139038   3.220   4.055   3.791 -0.5185 -1.3959 -4.2668
 9134SOL    HW239039   3.223   4.157   3.683 -0.2773  0.3650  0.1179
 9135SOL     OW39040   0.951   2.716   4.462  0.2565 -0.1116  0.2834
 9135SOL    HW139041   0.882   2.771   4.424 -0.4262  0.0552  1.7653
 9135SOL    HW239042   1.026   2.776   4.464  0.0681  0.1105  0.6620
 9136SOL     OW39043   2.707   1.431   2.697 -0.1092  0.4225 -0.3186
 9136SOL    HW139044   2.709   1.517   2.655 -1.9771  1.2825  1.3443
 9136SOL    HW239045   2.776   1.375   2.660  0.2416  0.5401  0.1517
 9137SOL     OW39046   3.120   3.388   8.111  0.1178  0.6984 -0.2490
 9137SOL    HW139047   3.192   3.402   8.174  0.9987 -1.5469 -0.7487
 9137SOL    HW239048   3.098   3.297   8.132  1.0475  0.7102  0.8512
 9138SOL     OW39049   1.995   2.588   1.563 -0.0925 -0.1753 -0.0395
 9138SOL    HW139050   2.022   2.678   1.547 -0.2728  0.0925  1.2049
 9138SOL    HW239051   2.070   2.543   1.526  2.2927  0.6571  3.8426
 9139SOL     OW39052   1.408   3.968   1.515 -0.4307 -0.2132 -0.0076
 9139SOL    HW139053   1.498   3.993   1.537  0.0770 -1.2410 -0.8663
 9139SOL    HW239054   1.420   3.873   1.503  2.1491  0.1730 -0.4656
 9140SOL     OW39055   0.239   1.384   8.660  0.0356  0.1417  0.2062
 9140SOL    HW139056   0.281   1.376   8.574  0.5925 -1.6682  0.6361
 9140SOL    HW239057   0.146   1.399   8.640  0.1703  0.6822 -0.0096
 9141SOL     OW39058   0.281   4.689   1.035  0.3548 -0.0170  0.2157
 9141SOL    HW139059   0.314   4.708   1.123  1.5445 -1.7676  0.1573
 9141SOL    HW239060   0.360   4.683   0.982  1.7874  1.5930  2.1643
 9142SOL     OW39061   1.337   1.565   0.877  0.4832  0.1169  0.2264
 9142SOL    HW139062   1.418   1.584   0.924  0.7454  1.2184 -0.6632
 9142SOL    HW239063   1.297   1.651   0.859  2.1224  0.7719 -0.2534
 9143SOL     OW39064   0.314   1.947   9.811 -0.0623  0.0439 -0.3072
 9143SOL    HW139065   0.379   1.971   9.877 -0.9228 -1.2042  1.0019
 9143SOL    HW239066   0.228   1.972   9.847  0.5159  1.0094  0.3943
 9144SOL     OW39067   1.793   4.597   3.883  0.7229  0.5658 -0.7025
 9144SOL    HW139068   1.790   4.662   3.953  1.1802  0.8704 -0.9739
 9144SOL    HW239069   1.833   4.521   3.927  1.3889  1.0580 -0.4620
 9145SOL     OW39070   0.559   0.263   3.938 -0.2089  0.4873  0.2022
 9145SOL    HW139071   0.614   0.202   3.988 -0.7457  0.6388  0.9770
 9145SOL    HW239072   0.487   0.214   3.900  0.2660 -0.5964  0.7132
 9146SOL     OW39073   1.124   4.402  12.678  0.4240 -0.5104 -0.2093
 9146SOL    HW139074   1.058   4.450  12.628  0.3156 -1.5982 -1.1003
 9146SOL    HW239075   1.198   4.405  12.618 -0.1534 -1.6262 -0.9652
 9147SOL     OW39076   1.375   3.339  16.380  0.2293  0.2973 -0.2203
 9147SOL    HW139077   1.377   3.356  16.474  0.8806  0.8871 -0.3376
 9147SOL    HW239078   1.435   3.266  16.362 -0.8054 -1.3110  3.0113
 9148SOL     OW39079   4.094   4.479   3.927  0.1700  0.9238  0.2682
 9148SOL    HW139080   4.064   4.519   3.846 -0.6682  1.7457  0.9916
 9148SOL    HW239081   4.169   4.424   3.903  0.1238 -0.3452  3.0645
 9149SOL     OW39082   4.162   1.085   3.293 -0.6617  0.0368  0.7252
 9149SOL    HW139083   4.163   1.094   3.198 -1.2236  0.0155  0.7139
 9149SOL    HW239084   4.079   1.039   3.307  0.4266 -1.7861  1.1848
 9150SOL     OW39085   3.868   4.574   9.130 -0.2261 -0.3949  0.1640
 9150SOL    HW139086   3.921   4.622   9.066 -0.7927 -1.3485 -1.0204
 9150SOL    HW239087   3.810   4.515   9.082  0.1083 -2.7427  2.6788
 9151SOL     OW39088   2.974   3.009  15.986  0.7177 -0.3535  0.2924
 9151SOL    HW139089   3.026   2.936  15.953  0.1655 -0.2533 -0.7864
 9151SOL    HW239090   2.943   2.978  16.071  0.4908 -0.7039  0.0790
 9152SOL     OW39091   0.270   2.757   6.864  0.2858  0.6721 -0.1901
 9152SOL    HW139092   0.325   2.681   6.847 -0.4956 -0.1821  1.1257
 9152SOL    HW239093   0.178   2.730   6.859 -0.2556  2.8384 -2.0213
 9153SOL     OW39094   2.688   0.576  10.685 -0.4048 -0.4588  0.1881
 9153SOL    HW139095   2.720   0.641  10.749  1.7530 -1.0648 -0.2696
 9153SOL    HW239096   2.652   0.503  10.736 -0.7517 -0.6502 -0.3387
 9154SOL     OW39097   4.138   0.714   1.757  0.7212 -0.3267  0.2626
 9154SOL    HW139098   4.122   0.808   1.754 -0.0767 -0.4365  0.9714
 9154SOL    HW239099   4.077   0.699   1.829  0.8648 -1.3993  0.1607
 9155SOL     OW39100   1.684   0.249   2.283  0.0361  0.6847 -0.1384
 9155SOL    HW139101   1.689   0.194   2.362 -2.5192  1.1480  0.3483
 9155SOL    HW239102   1.710   0.334   2.319 -1.4128  0.5183  1.2919
 9156SOL     OW39103   2.435   4.649   5.435  0.0316 -0.0730  0.0428
 9156SOL    HW139104   2.385   4.597   5.497 -1.4133 -0.8397 -1.7936
 9156SOL    HW239105   2.365   4.691   5.385  0.5189 -1.6974 -2.0087
 9157SOL     OW39106   3.859   1.307  17.680  0.0804  0.3881 -0.2992
 9157SOL    HW139107   3.765   1.289  17.679  0.6730 -2.6773 -1.4605
 9157SOL    HW239108   3.855   1.400  17.661 -0.6611  0.3042 -0.5357
 9158SOL     OW39109   0.470   4.217  12.912  0.3932  0.4915  0.3717
 9158SOL    HW139110   0.412   4.253  12.979  0.5104  0.6195  0.4040
 9158SOL    HW239111   0.411   4.151  12.875  1.4801 -0.1600 -0.1990
 9159SOL     OW39112   3.765   3.257   9.122 -0.6335  0.3562  0.1820
 9159SOL    HW139113   3.722   3.229   9.203  0.9441  1.0741  1.2761
 9159SOL    HW239114   3.818   3.182   9.095 -0.0372  1.1083 -0.7647
 9160SOL     OW39115   1.696   1.130   0.481  0.7005 -0.9379  0.2780
 9160SOL    HW139116   1.624   1.190   0.502  2.3553  1.3714 -0.5629
 9160SOL    HW239117   1.691   1.062   0.548 -0.3433  1.8496  3.0725
 9161SOL     OW39118   3.385   3.784  14.995  0.3067 -0.5003  0.6905
 9161SOL    HW139119   3.415   3.869  14.964  0.3889 -1.8191 -2.8324
 9161SOL    HW239120   3.412   3.782  15.087  0.7507 -0.7279  0.5540
 9162SOL     OW39121   0.802   0.024  15.618 -0.5889  0.4000 -0.3283
 9162SOL    HW139122   0.736   4.735  15.554  0.0857 -2.2924  0.0716
 9162SOL    HW239123   0.843   4.680  15.649  0.4366  0.4102 -1.6638
 9163SOL     OW39124   1.193   0.684   8.375  0.3002 -0.0477 -0.3775
 9163SOL    HW139125   1.226   0.715   8.290 -1.0967 -1.6606 -1.5019
 9163SOL    HW239126   1.225   0.594   8.370 -0.9446 -0.4413 -1.5528
 9164SOL     OW39127   3.566   2.455   7.908  0.5678  0.1473 -0.1834
 9164SOL    HW139128   3.645   2.509   7.899  0.3991  0.1069 -1.8448
 9164SOL    HW239129   3.582   2.390   7.840 -1.5098 -1.0780  0.5235
 9165SOL     OW39130   1.019   2.311   1.892 -0.2189  0.1526 -0.1195
 9165SOL    HW139131   1.015   2.285   1.800 -0.9047  0.4517 -0.1781
 9165SOL    HW239132   1.035   2.405   1.898  1.0240 -0.1477  1.2162
 9166SOL     OW39133   0.168   3.560   9.037  0.8311  0.0216 -0.5093
 9166SOL    HW139134   0.093   3.515   9.077  0.5340 -0.6463 -1.8220
 9166SOL    HW239135   0.131   3.647   9.020  0.0072 -0.3350 -0.5649
 9167SOL     OW39136   2.909   3.773   7.929  0.0505  0.5538 -0.3924
 9167SOL    HW139137   2.899   3.678   7.936  2.8220  0.0962 -2.8606
 9167SOL    HW239138   2.986   3.803   7.978  1.0371  1.4939 -2.5447
 9168SOL     OW39139   2.767   0.821   4.766 -0.3092 -0.4926  0.0104
 9168SOL    HW139140   2.817   0.750   4.807  0.4609  0.0861  0.0692
 9168SOL    HW239141   2.702   0.846   4.832  0.3151 -0.7299  0.7114
 9169SOL     OW39142   0.921   3.613   3.571  0.8013 -0.1234 -0.5506
 9169SOL    HW139143   0.850   3.633   3.632 -0.7912 -1.6229 -1.8865
 9169SOL    HW239144   0.997   3.600   3.627 -0.3887 -1.3281  0.7877
 9170SOL     OW39145   4.561   3.467   5.407 -0.3232 -0.4459 -0.6116
 9170SOL    HW139146   4.643   3.476   5.455 -1.8920 -2.4202  2.5201
 9170SOL    HW239147   4.512   3.404   5.460  1.1358 -0.4733  0.7216
 9171SOL     OW39148   4.595   3.925   7.205  0.0335 -0.1005 -0.4683
 9171SOL    HW139149   4.528   3.922   7.138  0.2884 -1.1416 -0.6812
 9171SOL    HW239150   4.675   3.905   7.157  0.1158  2.4231 -1.3555
 9172SOL     OW39151   3.511   3.689   7.149 -0.2082  0.2757  0.1499
 9172SOL    HW139152   3.557   3.772   7.152  1.8043 -0.8169 -0.4977
 9172SOL    HW239153   3.429   3.716   7.191 -1.1611 -0.2911 -1.3185
 9173SOL     OW39154   3.238   0.465   3.577  0.4827  0.7714  0.5494
 9173SOL    HW139155   3.207   0.479   3.488 -1.6169  2.7895  1.6095
 9173SOL    HW239156   3.170   0.511   3.626 -0.5442  0.6368 -0.7650
 9174SOL     OW39157   1.364   4.292   5.590 -0.2997 -0.4734 -0.0839
 9174SOL    HW139158   1.282   4.324   5.627 -0.0515  0.6923 -0.5447
 9174SOL    HW239159   1.426   4.293   5.663  1.7361 -0.6620 -1.7855
 9175SOL     OW39160   4.734   0.571  12.961  0.3471  0.1042 -0.3924
 9175SOL    HW139161   0.089   0.550  12.944 -0.4913 -3.2045 -0.9059
 9175SOL    HW239162   4.704   0.487  12.997  0.1369  0.7978  1.0630
 9176SOL     OW39163   3.512   0.159  13.582  0.0148  0.1781 -0.1940
 9176SOL    HW139164   3.486   0.251  13.575  0.6947  0.2999 -1.1495
 9176SOL    HW239165   3.424   0.123  13.583 -1.3051  3.4259  0.0346
 9177SOL     OW39166   0.005   4.565  12.948  0.7309 -0.1401 -0.0507
 9177SOL    HW139167   0.082   4.582  13.002 -1.2323  0.6689  2.5223
 9177SOL    HW239168   4.690   4.646  12.953  0.6131 -0.2255  0.0995
 9178SOL     OW39169   4.684   0.629   7.505  0.0845  0.0488 -0.2970
 9178SOL    HW139170   4.725   0.623   7.591  0.1435 -0.4698 -0.3638
 9178SOL    HW239171   0.014   0.582   7.456  2.0260  0.8411  1.5899
 9179SOL     OW39172   2.098   2.854   6.605  0.2400 -0.2178  0.2023
 9179SOL    HW139173   2.099   2.942   6.567  2.9540 -0.6440 -0.7670
 9179SOL    HW239174   2.129   2.882   6.691  0.9238  3.6147 -1.2840
 9180SOL     OW39175   1.486   4.622   4.181 -0.1617  0.3183  0.4248
 9180SOL    HW139176   1.420   4.644   4.115 -0.3178  1.3572  0.9316
 9180SOL    HW239177   1.521   4.535   4.162  0.2776  1.5169 -4.3023
 9181SOL     OW39178   0.721   3.138   4.485 -0.0873 -0.6386  0.5096
 9181SOL    HW139179   0.654   3.191   4.527 -0.3907  0.0935 -0.8870
 9181SOL    HW239180   0.795   3.198   4.492 -0.2971 -0.5814  2.0630
 9182SOL     OW39181   0.315   3.737   2.603  0.1054  0.0818  0.7194
 9182SOL    HW139182   0.290   3.797   2.532  0.3369  2.5811  2.7336
 9182SOL    HW239183   0.238   3.738   2.659 -0.9529  0.4453 -0.7259
 9183SOL     OW39184   2.415   3.251  12.224  0.2490 -0.3850  0.5911
 9183SOL    HW139185   2.325   3.237  12.254 -0.6108  0.0610 -1.7767
 9183SOL    HW239186   2.453   3.293  12.302 -0.5760 -1.5101  1.5951
 9184SOL     OW39187   4.460   0.569  17.713 -0.0887 -0.2796  0.3246
 9184SOL    HW139188   4.413   0.487  17.728 -1.0851  0.6091  2.1354
 9184SOL    HW239189   4.542   0.540  17.674  0.7531  0.2900  1.6404
 9185SOL     OW39190   1.543   2.694   4.869  0.5895  0.3536 -0.0229
 9185SOL    HW139191   1.581   2.608   4.885  2.5492  1.5716  1.9354
 9185SOL    HW239192   1.510   2.674   4.782 -1.5042 -0.1124  0.9002
 9186SOL     OW39193   1.432   1.579   2.425 -0.2583 -0.5466  0.4116
 9186SOL    HW139194   1.408   1.599   2.334 -3.1060 -0.4465  1.1679
 9186SOL    HW239195   1.527   1.592   2.423 -0.3149 -0.3674 -1.1792
 9187SOL     OW39196   0.162   0.851   7.146  0.2361  0.1032  0.2439
 9187SOL    HW139197   0.181   0.934   7.102  1.3173 -0.4672 -0.3648
 9187SOL    HW239198   0.236   0.825   7.201 -1.6093 -0.4091  2.4403
 9188SOL     OW39199   2.866   0.038   2.515  0.4136  0.4894  1.0024
 9188SOL    HW139200   2.793   0.089   2.551 -0.5165 -1.6760  2.1857
 9188SOL    HW239201   2.855   0.052   2.421 -2.0171 -2.7608  0.7993
 9189SOL     OW39202   0.424   0.955  17.234 -0.4470 -0.3227  0.2473
 9189SOL    HW139203   0.503   0.954  17.180 -0.0849 -1.4032  0.8082
 9189SOL    HW239204   0.459   0.979  17.320 -0.7685 -1.0142  0.5700
 9190SOL     OW39205   4.166   2.544   7.874 -0.1816 -0.5368 -0.3245
 9190SOL    HW139206   4.107   2.525   7.801  0.1669  0.4696 -0.8719
 9190SOL    HW239207   4.118   2.618   7.909  0.5277  0.2367 -0.9649
 9191SOL     OW39208   2.950   2.346   4.451 -0.1398 -0.2446 -0.3367
 9191SOL    HW139209   2.902   2.405   4.393  0.3419  0.2829 -0.2061
 9191SOL    HW239210   2.935   2.260   4.412 -0.7258 -0.1233 -0.3733
 9192SOL     OW39211   2.494   1.199  10.317 -0.1270 -0.1323  0.0928
 9192SOL    HW139212   2.474   1.190  10.410 -1.3413  0.3973 -0.1119
 9192SOL    HW239213   2.433   1.141  10.272 -3.3448  2.5524  0.9956
 9193SOL     OW39214   3.854   1.647   6.864 -0.1229 -0.5336  0.6035
 9193SOL    HW139215   3.759   1.643   6.854 -0.1766  0.3228  0.8289
 9193SOL    HW239216   3.871   1.691   6.947  2.8020  2.2592 -1.4990
 9194SOL     OW39217   1.644   4.551   8.747 -0.0400  0.3778 -0.5482
 9194SOL    HW139218   1.566   4.604   8.764  0.4833  0.6401  1.0409
 9194SOL    HW239219   1.609   4.462   8.744  3.3689 -0.9564 -0.9585
 9195SOL     OW39220   2.514   2.305  16.862  0.3873  0.0615 -0.3662
 9195SOL    HW139221   2.483   2.370  16.799  0.8012  0.0918 -0.5380
 9195SOL    HW239222   2.605   2.328  16.879 -0.4692  0.3995  3.8309
 9196SOL     OW39223   3.545   0.994   0.283  0.4718  0.2889 -0.1758
 9196SOL    HW139224   3.472   1.045   0.318  0.2401 -1.3415  1.7322
 9196SOL    HW239225   3.588   1.060   0.229 -0.2076  2.1087  1.5119
 9197SOL     OW39226   1.339   2.141   4.669  0.5768  0.4397  0.0649
 9197SOL    HW139227   1.421   2.114   4.627  1.9808  0.0219  3.0904
 9197SOL    HW239228   1.305   2.052   4.683  0.3545  0.5005 -0.0809
 9198SOL     OW39229   3.376   1.620   6.196 -0.4273 -0.8239  0.0923
 9198SOL    HW139230   3.298   1.674   6.199  0.4290  0.5811 -2.5013
 9198SOL    HW239231   3.338   1.546   6.148 -0.3902 -1.2644  0.7526
 9199SOL     OW39232   0.119   1.734  14.167  0.0471  0.2779 -0.7100
 9199SOL    HW139233   0.164   1.792  14.228  1.0562  0.9997 -2.1541
 9199SOL    HW239234   0.140   1.649  14.205 -2.5138 -0.2230 -0.3925
 9200SOL     OW39235   0.458   2.232   5.072  0.5651 -0.8621  0.5040
 9200SOL    HW139236   0.423   2.144   5.078 -1.5339 -0.1687 -1.6761
 9200SOL    HW239237   0.547   2.223   5.036  0.6512  0.4017  0.4081
 9201SOL     OW39238   1.015   1.583  13.475 -0.3260 -0.2911 -0.0349
 9201SOL    HW139239   1.089   1.643  13.487 -0.5641  0.2142 -1.1231
 9201SOL    HW239240   1.020   1.538  13.560 -1.3353  1.0242  0.7129
 9202SOL     OW39241   1.992   4.045  15.483  0.2290 -0.4153 -0.2833
 9202SOL    HW139242   2.052   4.032  15.409 -0.5003 -1.2456 -0.7217
 9202SOL    HW239243   1.920   4.097  15.446 -0.2231 -0.6668  0.2462
 9203SOL     OW39244   2.679   4.601  12.884  0.7850 -0.3420  0.0056
 9203SOL    HW139245   2.707   4.511  12.869 -1.1276 -0.7343 -1.2822
 9203SOL    HW239246   2.727   4.638  12.958 -1.7910  0.4582  1.2928
 9204SOL     OW39247   0.491   0.238  12.086 -0.6719  0.3095 -0.0487
 9204SOL    HW139248   0.509   0.232  12.179 -2.0575 -0.4161  0.1815
 9204SOL    HW239249   0.421   0.304  12.087  1.5147  2.5877  2.1480
 9205SOL     OW39250   0.089   3.292   1.876 -0.0040  0.3441 -0.5470
 9205SOL    HW139251   0.018   3.249   1.830  0.6535 -1.1499 -0.1470
 9205SOL    HW239252   0.057   3.382   1.869 -0.9881  0.1307  1.3755
 9206SOL     OW39253   3.492   0.725  14.382 -0.8082 -0.2010  0.0571
 9206SOL    HW139254   3.580   0.741  14.348 -0.3982 -1.4217  0.5482
 9206SOL    HW239255   3.501   0.642  14.429 -0.7579 -0.3450 -0.2035
 9207SOL     OW39256   0.604   1.740   8.441  0.5055 -0.4020  0.4103
 9207SOL    HW139257   0.546   1.702   8.376 -2.0143  0.4926  2.1597
 9207SOL    HW239258   0.673   1.776   8.385 -0.7603 -0.9311 -1.4795
 9208SOL     OW39259   0.457   4.449  16.217 -0.0350 -0.4179 -0.4647
 9208SOL    HW139260   0.528   4.512  16.232  0.1435 -1.0070  1.2654
 9208SOL    HW239261   0.388   4.511  16.194 -0.0342  0.1858  1.0982
 9209SOL     OW39262   4.562   0.787   1.676 -0.3451  0.1528  0.3566
 9209SOL    HW139263   4.578   0.707   1.626  0.0945 -0.6323  1.7399
 9209SOL    HW239264   4.494   0.748   1.732 -2.7474  3.4784 -0.2383
 9210SOL     OW39265   4.683   0.162   0.921 -0.0921 -0.3356 -0.7643
 9210SOL    HW139266   4.593   0.175   0.949  0.0439 -0.1794 -0.3954
 9210SOL    HW239267   4.725   0.198   0.999  2.5053 -3.3711 -0.7833
 9211SOL     OW39268   1.169   4.112   3.058  0.1952  0.3750 -0.3324
 9211SOL    HW139269   1.198   4.175   2.991 -0.6630 -0.5063 -1.5336
 9211SOL    HW239270   1.252   4.096   3.103 -1.1063 -0.9689  1.6023
 9212SOL     OW39271   0.018   0.278   1.410 -0.5354  0.3354  0.4256
 9212SOL    HW139272   0.099   0.229   1.422 -0.8062  0.1679  1.5589
 9212SOL    HW239273   0.007   0.338   1.483  0.7935 -0.2339  1.0874
 9213SOL     OW39274   4.148   2.990  14.757 -0.0320  0.3630  0.2726
 9213SOL    HW139275   4.131   3.079  14.727 -0.3014  0.3196  0.2991
 9213SOL    HW239276   4.149   2.941  14.676 -1.4167  0.2942  0.2945
 9214SOL     OW39277   1.033   2.906   6.248 -0.5049  0.0913  0.1931
 9214SOL    HW139278   1.034   2.957   6.167  0.3733 -0.3016 -0.0424
 9214SOL    HW239279   0.939   2.886   6.245 -0.6995  0.8640  1.1112
 9215SOL     OW39280   0.379   2.328   3.999 -0.4206 -0.0444  0.2883
 9215SOL    HW139281   0.345   2.358   4.084 -0.2749 -0.3919  0.4655
 9215SOL    HW239282   0.329   2.386   3.941 -2.2292 -2.6853 -0.8184
 9216SOL     OW39283   3.945   1.452  10.085  0.7704 -0.5673 -0.0861
 9216SOL    HW139284   3.859   1.431  10.120  0.4360  0.3952 -0.3239
 9216SOL    HW239285   4.004   1.436  10.159 -2.0403 -1.3538  1.9848
 9217SOL     OW39286   1.692   0.816  16.422 -0.1818  0.1097 -0.1470
 9217SOL    HW139287   1.735   0.860  16.495 -1.1641  0.0943  0.4290
 9217SOL    HW239288   1.601   0.832  16.445 -0.8096  0.3716 -2.8255
 9218SOL     OW39289   1.542   3.841   4.061 -0.1045 -0.4658  0.4405
 9218SOL    HW139290   1.624   3.870   4.101  0.5634  0.2057 -1.4690
 9218SOL    HW239291   1.485   3.834   4.138  0.3071  0.6627  0.8494
 9219SOL     OW39292   2.070   1.814   3.198  0.0359  0.3824  0.9710
 9219SOL    HW139293   2.078   1.833   3.292  0.8813  2.2369  0.5341
 9219SOL    HW239294   2.115   1.884   3.152  0.1570  0.0264  0.5553
 9220SOL     OW39295   3.033   2.054  14.202 -0.2626  0.0651  0.1072
 9220SOL    HW139296   3.119   2.045  14.244  0.7224  0.0814 -1.8505
 9220SOL    HW239297   3.058   2.060  14.109  1.7969  4.9701  0.9432
 9221SOL     OW39298   3.367   2.356   1.573  0.5143  0.4325 -0.0805
 9221SOL    HW139299   3.437   2.348   1.508  1.0344 -1.7989  0.7527
 9221SOL    HW239300   3.305   2.290   1.542  0.5128  1.7935 -3.0202
 9222SOL     OW39301   0.708   2.453   2.320 -0.5985 -0.3168 -0.8714
 9222SOL    HW139302   0.693   2.547   2.331 -0.5124 -0.3563 -0.4290
 9222SOL    HW239303   0.751   2.452   2.235  0.7804  1.5948 -0.1959
 9223SOL     OW39304   2.691   3.347  10.692  0.5742  0.2008 -0.3649
 9223SOL    HW139305   2.748   3.365  10.766  0.5399 -1.7367  0.1303
 9223SOL    HW239306   2.726   3.268  10.651  2.5715  0.7446  0.3198
 9224SOL     OW39307   0.195   1.192  11.362 -0.8120  0.9458 -0.0315
 9224SOL    HW139308   0.214   1.284  11.342  0.2050  1.1459  1.9159
 9224SOL    HW239309   0.259   1.174  11.430  0.1096 -0.8483 -1.3706
 9225SOL     OW39310   0.090   1.917  12.678  0.1969  0.0106 -0.8482
 9225SOL    HW139311   0.050   1.969  12.748 -1.4968 -0.0209 -1.7931
 9225SOL    HW239312   0.174   1.959  12.662  0.3860 -1.2231 -3.1120
 9226SOL     OW39313   2.615   2.856   2.841  0.1713  0.5150 -0.5292
 9226SOL    HW139314   2.625   2.784   2.904  1.9046 -0.0613 -1.4748
 9226SOL    HW239315   2.526   2.884   2.864 -0.4587 -0.9803 -1.1878
 9227SOL     OW39316   3.579   0.191   0.376  0.1981 -0.0358  0.2074
 9227SOL    HW139317   3.507   0.208   0.315 -0.3429  0.2554  0.9265
 9227SOL    HW239318   3.536   0.204   0.461 -1.7159  0.5990 -0.8469
 9228SOL     OW39319   0.441   3.248   9.648 -0.1596  0.1972 -0.1799
 9228SOL    HW139320   0.506   3.232   9.716 -0.0984 -1.4639 -0.6221
 9228SOL    HW239321   0.490   3.297   9.582 -1.3426  0.4915 -0.8426
 9229SOL     OW39322   3.809   2.869   5.457  0.6288 -0.6244  0.5890
 9229SOL    HW139323   3.727   2.906   5.422  0.9269 -1.4693 -0.9874
 9229SOL    HW239324   3.794   2.775   5.447 -0.3568 -0.5792  1.6348
 9230SOL     OW39325   1.335   1.271   6.788  0.0256  0.2885  0.3456
 9230SOL    HW139326   1.422   1.251   6.755 -0.7403  0.1019 -1.5963
 9230SOL    HW239327   1.293   1.311   6.712  0.5402 -0.0834 -0.1307
 9231SOL     OW39328   3.936   3.585   9.571 -0.5280  0.0366 -0.1156
 9231SOL    HW139329   3.947   3.526   9.646  2.6641  1.5397  0.5898
 9231SOL    HW239330   3.998   3.655   9.592  0.1779 -0.2851 -1.1371
 9232SOL     OW39331   1.748   0.983   0.701  0.6087 -0.2350  0.3035
 9232SOL    HW139332   1.718   0.895   0.678 -1.5952  0.5477  0.2054
 9232SOL    HW239333   1.789   0.972   0.787  2.6510 -0.4668 -0.7080
 9233SOL     OW39334   2.285   3.216   4.849  0.0954  0.5663  0.4590
 9233SOL    HW139335   2.324   3.130   4.833  3.5749  2.5807 -1.8262
 9233SOL    HW239336   2.347   3.271   4.802  0.2588  0.0542  0.0656
 9234SOL     OW39337   1.345   4.667   8.107  0.4775 -0.3289 -0.3385
 9234SOL    HW139338   1.341   0.009   8.162  0.1263  0.2759 -1.2390
 9234SOL    HW239339   1.400   4.616   8.166  0.3101  2.1012  1.9301
 9235SOL     OW39340   3.473   2.865   4.909 -0.7465  0.0437  0.0777
 9235SOL    HW139341   3.436   2.776   4.909 -2.0344  0.5814 -1.8391
 9235SOL    HW239342   3.466   2.896   4.999  0.6980 -0.1494  0.2554
 9236SOL     OW39343   2.001   4.357   6.203  0.6289 -0.1995  0.4943
 9236SOL    HW139344   1.990   4.269   6.168 -0.7243  0.7992 -1.6068
 9236SOL    HW239345   2.073   4.345   6.265  0.6704  2.9992  1.0771
 9237SOL     OW39346   2.691   0.100  15.504  0.2650 -0.3701 -0.5949
 9237SOL    HW139347   2.741   0.132  15.580  0.7792  1.2171 -1.5998
 9237SOL    HW239348   2.756   0.098  15.434 -0.5636  0.0262 -1.3601
 9238SOL     OW39349   0.726   1.981   4.187  0.3171  0.0776 -0.2813
 9238SOL    HW139350   0.766   1.994   4.272  0.2740  0.7505 -0.3616
 9238SOL    HW239351   0.635   1.994   4.213  0.4705 -1.6502  1.1027
 9239SOL     OW39352   0.489   2.482  12.060 -0.2586 -0.2420 -0.2191
 9239SOL    HW139353   0.439   2.433  12.126 -0.5072 -1.6905 -1.4862
 9239SOL    HW239354   0.521   2.411  12.004 -0.2817 -0.7365  0.3848
 9240SOL     OW39355   3.348   1.922  13.748 -0.4130 -0.3195 -0.0865
 9240SOL    HW139356   3.326   1.988  13.682 -1.4288 -1.1127 -0.5427
 9240SOL    HW239357   3.414   1.887  13.688 -1.3436 -0.4490 -1.0427
 9241SOL     OW39358   1.679   2.996   3.435  0.8289  0.2532  0.1176
 9241SOL    HW139359   1.619   2.984   3.509  0.6434 -0.5809 -0.1652
 9241SOL    HW239360   1.630   3.047   3.371  0.9823 -1.7547 -1.5871
 9242SOL     OW39361   4.567   2.266   7.915  0.4119  0.2849  0.9458
 9242SOL    HW139362   4.500   2.200   7.895  0.5066  0.6906 -0.7107
 9242SOL    HW239363   4.613   2.222   7.986  3.1660  1.7500  0.0514
 9243SOL     OW39364   1.276   4.671   3.994 -0.2612  0.0894 -0.3354
 9243SOL    HW139365   1.227   0.011   3.966  0.4361  0.9378  0.7941
 9243SOL    HW239366   1.308   4.633   3.912 -3.3316 -1.9691 -0.5848
 9244SOL     OW39367   0.668   3.906   7.051  0.1630 -0.0687 -0.0692
 9244SOL    HW139368   0.619   3.933   7.129  1.4521 -0.9380  1.0249
 9244SOL    HW239369   0.751   3.872   7.083 -0.9803  0.1711  3.2131
 9245SOL     OW39370   1.330   2.508   8.879  0.2251 -0.2642 -0.4677
 9245SOL    HW139371   1.328   2.494   8.974 -2.9216 -0.1446 -0.5336
 9245SOL    HW239372   1.302   2.419   8.858 -1.9261  0.0007  1.2835
 9246SOL     OW39373   0.697   2.210   1.523 -0.3056  0.2486 -0.0003
 9246SOL    HW139374   0.678   2.127   1.479  0.5902 -0.0844  0.2249
 9246SOL    HW239375   0.765   2.246   1.467 -1.5248 -1.5219 -2.6069
 9247SOL     OW39376   4.534   3.126   9.497 -0.0982  0.0341 -0.2285
 9247SOL    HW139377   4.529   3.109   9.591 -0.9013  0.0891 -0.2570
 9247SOL    HW239378   4.555   3.038   9.465  0.3127  0.2142 -0.4553
 9248SOL     OW39379   0.059   4.016   3.725 -0.5805 -0.3795 -0.3496
 9248SOL    HW139380   4.705   4.040   3.712 -1.4981 -1.7804  3.4681
 9248SOL    HW239381   0.053   3.999   3.819  0.1202  1.4935  0.0369
 9249SOL     OW39382   0.918   2.157  12.949 -0.0859  0.7670  0.1262
 9249SOL    HW139383   0.957   2.073  12.976  0.4856  1.7686  2.3637
 9249SOL    HW239384   0.989   2.213  12.979 -0.5147  1.5880 -0.4080
 9250SOL     OW39385   4.084   3.374   5.245 -0.5759  0.0716 -0.2333
 9250SOL    HW139386   4.171   3.413   5.234 -0.1999 -0.9728 -0.8757
 9250SOL    HW239387   4.096   3.293   5.197  0.4976  0.2600 -0.2894
 9251SOL     OW39388   4.197   3.136   7.647  0.1017  0.6580 -0.0830
 9251SOL    HW139389   4.264   3.069   7.634  1.3306  2.1874 -1.6027
 9251SOL    HW239390   4.165   3.112   7.734 -0.6027  0.5350 -0.3744
 9252SOL     OW39391   2.068   2.343   2.975 -0.2394  0.3744  0.0585
 9252SOL    HW139392   2.008   2.319   2.905  1.8407 -3.2605 -0.5037
 9252SOL    HW239393   2.149   2.353   2.924 -0.0128 -1.3969  0.0784
 9253SOL     OW39394   0.193   2.464   7.889 -0.0753 -0.3780 -0.8139
 9253SOL    HW139395   0.191   2.382   7.939 -0.4793 -1.5378 -2.7364
 9253SOL    HW239396   0.103   2.474   7.858  0.1530 -0.1524 -1.3900
 9254SOL     OW39397   1.850   4.114  12.406 -0.2670  0.2190 -0.4782
 9254SOL    HW139398   1.835   4.207  12.387 -0.7296 -0.1366 -1.8397
 9254SOL    HW239399   1.928   4.097  12.354  0.2743 -2.2921  1.1588
 9255SOL     OW39400   2.741   2.148   4.606 -0.0103  0.2006 -0.3054
 9255SOL    HW139401   2.820   2.197   4.587  0.0700  1.5337  3.5400
 9255SOL    HW239402   2.699   2.117   4.525  0.0450 -3.1833  0.9503
 9256SOL     OW39403   3.269   2.418  11.054 -0.6934  0.2964  0.3103
 9256SOL    HW139404   3.293   2.487  11.116  0.3736  0.7281 -0.5905
 9256SOL    HW239405   3.336   2.438  10.989 -1.0902  1.8057  0.3618
 9257SOL     OW39406   1.803   0.985  15.020 -1.0412 -0.2033 -0.1714
 9257SOL    HW139407   1.891   1.007  14.991 -0.7236  0.7832  1.4947
 9257SOL    HW239408   1.752   0.978  14.940 -0.7010  0.7984 -0.4684
 9258SOL     OW39409   4.465   2.870   2.726 -0.4771 -0.1801  0.2476
 9258SOL    HW139410   4.490   2.961   2.710  1.9094 -0.8320  0.2908
 9258SOL    HW239411   4.497   2.859   2.816 -2.1031  1.2799  1.0104
 9259SOL     OW39412   4.191   3.776  15.168  0.4615  0.1544  0.4077
 9259SOL    HW139413   4.241   3.784  15.249 -0.0598 -0.9862  0.8365
 9259SOL    HW239414   4.122   3.720  15.204  1.7815 -0.0931  2.5039
 9260SOL     OW39415   4.029   1.043   7.184  0.3844  0.2212 -0.0963
 9260SOL    HW139416   3.963   1.059   7.252  0.9603  0.3718  0.4306
 9260SOL    HW239417   3.989   1.077   7.104 -1.8539  0.2116  1.0169
 9261SOL     OW39418   3.301   2.010   3.005 -0.1438 -0.8536  0.2960
 9261SOL    HW139419   3.385   2.034   2.968 -0.4708 -1.2269 -0.6984
 9261SOL    HW239420   3.300   1.914   3.014 -1.7853 -0.8466  0.1959
 9262SOL     OW39421   1.449   1.123   8.410 -1.0069  0.1758 -0.2369
 9262SOL    HW139422   1.409   1.093   8.329 -0.3549  2.6923 -1.4865
 9262SOL    HW239423   1.529   1.163   8.377 -0.4143  1.5061  2.7724
 9263SOL     OW39424   3.362   0.644  17.038  0.3034  0.5053  0.4338
 9263SOL    HW139425   3.454   0.625  17.054 -0.5670 -3.4546  0.7050
 9263SOL    HW239426   3.343   0.689  17.121  1.3574 -0.0912  1.0013
 9264SOL     OW39427   4.504   2.811   5.585  0.4326  0.3410 -0.2613
 9264SOL    HW139428   4.413   2.821   5.614  0.9552 -0.4939  1.6726
 9264SOL    HW239429   4.527   2.731   5.633  1.0100  1.1023  0.7463
 9265SOL     OW39430   2.268   2.395   5.716 -0.4774 -0.4453  0.3378
 9265SOL    HW139431   2.330   2.378   5.645 -0.0449 -1.0225  0.8579
 9265SOL    HW239432   2.234   2.307   5.732  0.4759 -0.7259  0.7595
 9266SOL     OW39433   2.939   0.981   3.213  0.3482  0.0776  0.2267
 9266SOL    HW139434   2.978   0.991   3.299 -0.6690 -0.2810  0.7268
 9266SOL    HW239435   2.962   0.892   3.188  1.3637  0.3204  0.2938
 9267SOL     OW39436   3.442   1.836  10.541  0.2619 -0.1184 -0.1599
 9267SOL    HW139437   3.510   1.769  10.549 -0.6552 -1.0408 -0.1525
 9267SOL    HW239438   3.483   1.912  10.499  0.1983  0.1658  0.2997
 9268SOL     OW39439   2.005   3.492  15.915  0.2959 -0.6512 -0.0066
 9268SOL    HW139440   1.937   3.430  15.891 -0.8829  2.1973 -4.0052
 9268SOL    HW239441   2.064   3.488  15.840  0.8565  0.4022  0.3706
 9269SOL     OW39442   3.782   0.577  15.264 -0.1716 -0.1870 -0.1828
 9269SOL    HW139443   3.827   0.496  15.242  1.9649  0.8375  0.4891
 9269SOL    HW239444   3.774   0.606  15.173  1.4997  0.1835 -0.2041
 9270SOL     OW39445   3.144   0.606  14.934  0.2309 -0.4991  0.0740
 9270SOL    HW139446   3.098   0.606  14.851 -0.6378 -0.6410  0.5517
 9270SOL    HW239447   3.182   0.694  14.934  0.4498 -0.5953 -0.0342
 9271SOL     OW39448   2.896   2.100   8.288  0.7399 -0.3020 -0.4445
 9271SOL    HW139449   2.825   2.053   8.247  0.6023  0.2554 -0.8437
 9271SOL    HW239450   2.889   2.067   8.378  2.9797  0.7279  0.1184
 9272SOL     OW39451   3.459   3.427   1.366 -0.1452  0.2187 -0.3542
 9272SOL    HW139452   3.401   3.498   1.338 -2.5429 -2.4823 -2.3049
 9272SOL    HW239453   3.545   3.465   1.353 -1.1209  1.5143 -3.0480
 9273SOL     OW39454   1.065   3.005   2.943 -0.1827 -0.5829  0.5047
 9273SOL    HW139455   1.099   2.926   2.984 -0.1230 -0.2480  1.1181
 9273SOL    HW239456   0.984   3.021   2.992  0.8409  0.5327  1.8324
 9274SOL     OW39457   0.504   3.350   5.586 -0.0331 -0.7576  0.1541
 9274SOL    HW139458   0.493   3.381   5.496  0.9698  1.1068  0.6599
 9274SOL    HW239459   0.534   3.429   5.631 -1.0426  1.6420 -3.4376
 9275SOL     OW39460   0.138   1.542   2.791  0.2065  0.0427 -0.1531
 9275SOL    HW139461   0.052   1.500   2.795 -0.3309  1.1376 -0.0990
 9275SOL    HW239462   0.122   1.616   2.733 -2.8756 -0.2887  0.2811
 9276SOL     OW39463   1.027   2.067   5.207 -0.2962 -0.0224 -0.4111
 9276SOL    HW139464   1.038   2.144   5.264  0.7978 -0.8093  0.4423
 9276SOL    HW239465   1.095   2.008   5.240  0.3694  0.0875 -1.5755
 9277SOL     OW39466   4.033   0.842   6.273  0.1718  0.6953  0.1617
 9277SOL    HW139467   4.078   0.867   6.354  3.8868  0.6380 -1.9136
 9277SOL    HW239468   3.944   0.871   6.294 -0.0779  0.6334 -0.8098
 9278SOL     OW39469   3.105   1.254  12.870  0.7793  0.0985  0.5679
 9278SOL    HW139470   3.165   1.199  12.819  1.2946  1.8089 -0.6641
 9278SOL    HW239471   3.019   1.212  12.859  0.6349  0.4344  0.4358
 9279SOL     OW39472   2.733   3.723   4.075 -0.0512  0.9681  0.2101
 9279SOL    HW139473   2.798   3.787   4.046  0.2609 -0.2562 -1.7680
 9279SOL    HW239474   2.756   3.715   4.167  1.7649 -1.3017 -0.4734
 9280SOL     OW39475   2.015   1.406   2.246 -0.5929  0.3460 -0.3874
 9280SOL    HW139476   1.960   1.350   2.300  0.1760  1.7438  1.8478
 9280SOL    HW239477   1.963   1.483   2.225  0.4236  0.7010 -1.6422
 9281SOL     OW39478   1.289   2.990  14.843  0.4517 -0.2538 -0.1509
 9281SOL    HW139479   1.216   2.936  14.872  1.0440 -1.5138 -1.0045
 9281SOL    HW239480   1.245   3.064  14.801  1.1338  0.4722  0.4141
 9282SOL     OW39481   3.822   4.505  11.870 -0.7403  0.0542 -0.5715
 9282SOL    HW139482   3.734   4.539  11.889 -0.9916 -0.7845 -0.2682
 9282SOL    HW239483   3.856   4.470  11.951  0.9622  0.9157 -0.9221
 9283SOL     OW39484   1.932   1.311  10.522 -0.0886  0.0188 -0.1226
 9283SOL    HW139485   2.010   1.266  10.555  0.6441  0.8021 -0.7627
 9283SOL    HW239486   1.950   1.405  10.532 -2.2202  0.2824  1.0061
 9284SOL     OW39487   0.364   3.280   3.781 -0.3964 -0.4022  0.3611
 9284SOL    HW139488   0.322   3.196   3.764 -1.5745 -0.2112  2.3974
 9284SOL    HW239489   0.458   3.259   3.781 -0.3308 -0.1103  0.6425
 9285SOL     OW39490   0.608   2.255   0.449 -0.5918  0.3905  0.1939
 9285SOL    HW139491   0.652   2.257   0.534  1.4525  0.8267 -0.8805
 9285SOL    HW239492   0.534   2.312   0.467  0.3637  1.0540  2.0179
 9286SOL     OW39493   1.286   3.236   1.439 -0.5911 -0.4900 -0.1433
 9286SOL    HW139494   1.237   3.298   1.494  1.5852  0.7740  0.3523
 9286SOL    HW239495   1.357   3.214   1.499 -0.6397 -3.0805 -1.0382
 9287SOL     OW39496   0.388   1.526  13.396 -0.3251 -1.2047  0.0831
 9287SOL    HW139497   0.428   1.578  13.466 -1.9728  2.1422 -1.4337
 9287SOL    HW239498   0.403   1.586  13.323 -0.6179  1.3999  2.1345
 9288SOL     OW39499   2.458   2.516   4.544  0.2219 -0.2448  0.4181
 9288SOL    HW139500   2.469   2.583   4.476  0.9262  0.6601  1.4235
 9288SOL    HW239501   2.548   2.511   4.578  1.0712 -1.1240 -1.9456
 9289SOL     OW39502   3.685   1.312   2.013 -0.1959 -0.5301 -0.1598
 9289SOL    HW139503   3.654   1.223   2.030  0.7190 -0.7430  0.3733
 9289SOL    HW239504   3.734   1.301   1.931  2.4570  1.7017  1.1409
 9290SOL     OW39505   2.819   1.727   8.150 -0.7902  0.0911  0.0704
 9290SOL    HW139506   2.739   1.677   8.135 -0.4423 -0.6032  0.5434
 9290SOL    HW239507   2.870   1.675   8.212 -0.8085  1.1329  0.9570
 9291SOL     OW39508   3.677   0.330   8.261  0.4324 -0.2979  0.0896
 9291SOL    HW139509   3.595   0.281   8.254 -0.7403  1.9411 -1.7755
 9291SOL    HW239510   3.733   0.274   8.207  0.6703 -0.0741  0.1068
 9292SOL     OW39511   2.237   2.643   9.470 -0.2916 -0.5839 -0.1414
 9292SOL    HW139512   2.153   2.665   9.429  1.2011  2.5296 -1.5621
 9292SOL    HW239513   2.279   2.717   9.426  0.2779 -0.8377 -0.0271
 9293SOL     OW39514   0.940   2.970   5.391 -0.2449 -0.0497  0.1362
 9293SOL    HW139515   0.880   2.969   5.316 -0.2629  0.6760  0.1457
 9293SOL    HW239516   0.893   2.906   5.445 -0.1067 -0.3024 -0.0409
 9294SOL     OW39517   2.215   0.090  11.932 -0.0077 -0.2022 -0.1200
 9294SOL    HW139518   2.190   0.113  11.842 -0.1781 -2.4816 -0.6517
 9294SOL    HW239519   2.297   0.045  11.910  1.0281  2.3537 -1.5130
 9295SOL     OW39520   0.876   0.481   3.983 -0.3523  0.1218 -0.2956
 9295SOL    HW139521   0.844   0.441   3.902  0.0529 -1.0714  0.1381
 9295SOL    HW239522   0.931   0.412   4.020  0.9729  0.5772 -1.4083
 9296SOL     OW39523   3.840   0.498   0.197 -0.0688 -0.3331  0.2384
 9296SOL    HW139524   3.774   0.528   0.260  0.1160  2.2983 -0.8033
 9296SOL    HW239525   3.792   0.509   0.115 -1.9656  0.1186  1.3901
 9297SOL     OW39526   1.516   0.796  16.021 -0.0581 -0.5030  0.5785
 9297SOL    HW139527   1.512   0.877  16.072 -1.3880  0.3074 -0.8135
 9297SOL    HW239528   1.462   0.726  16.057 -2.8860  0.8492 -1.0012
 9298SOL     OW39529   3.844   1.651   1.152  0.3631  0.3295 -0.1015
 9298SOL    HW139530   3.823   1.733   1.197  0.2984  2.3858 -3.8602
 9298SOL    HW239531   3.874   1.597   1.224  2.2268  0.4494 -0.7814
 9299SOL     OW39532   3.819   0.408   2.968  0.2229 -0.2587  0.0927
 9299SOL    HW139533   3.893   0.350   2.989  2.3569  2.5169  0.3737
 9299SOL    HW239534   3.795   0.374   2.882  0.1965 -0.5216  0.2020
 9300SOL     OW39535   0.470   2.349   8.191  0.1288 -0.4077  0.2098
 9300SOL    HW139536   0.381   2.324   8.219  0.0710  1.1133  1.3590
 9300SOL    HW239537   0.518   2.326   8.271 -0.6166 -3.3095 -0.1490
 9301SOL     OW39538   1.563   4.380   0.822  0.4018  0.0213  0.2028
 9301SOL    HW139539   1.510   4.399   0.899  0.0021  1.6386 -0.4690
 9301SOL    HW239540   1.545   4.465   0.781 -0.4968 -0.7629 -1.0226
 9302SOL     OW39541   1.110   1.563  14.354 -0.3448 -0.7719  0.0864
 9302SOL    HW139542   1.114   1.577  14.449 -0.9356  0.3389 -0.0575
 9302SOL    HW239543   1.038   1.625  14.345  1.1662  1.0376  0.5046
 9303SOL     OW39544   1.664   3.834   6.758  0.0964  0.4461  0.1964
 9303SOL    HW139545   1.660   3.817   6.664  0.5228  0.1020  0.2420
 9303SOL    HW239546   1.637   3.750   6.794 -0.7883  0.5404 -0.2380
 9304SOL     OW39547   0.679   0.575   6.180 -0.3968  0.0340 -0.3291
 9304SOL    HW139548   0.605   0.568   6.120 -0.0730  2.4916 -1.0170
 9304SOL    HW239549   0.628   0.616   6.250 -1.4214 -2.0919  0.1494
 9305SOL     OW39550   3.774   3.773   5.045 -0.1424 -0.5076 -0.0725
 9305SOL    HW139551   3.794   3.811   5.131  1.1329  1.2942 -1.1603
 9305SOL    HW239552   3.702   3.830   5.017  0.5759  0.5454  0.2342
 9306SOL     OW39553   1.034   4.651   7.165 -0.4740  0.6291 -0.0431
 9306SOL    HW139554   0.939   4.640   7.164 -0.5558  1.3759  0.0571
 9306SOL    HW239555   1.049   4.626   7.256 -0.0204 -0.1638 -0.3321
 9307SOL     OW39556   3.564   4.547   5.365 -0.3099 -0.2635  0.1274
 9307SOL    HW139557   3.637   4.603   5.390 -1.6200  1.3691  0.2868
 9307SOL    HW239558   3.503   4.552   5.439 -0.5461 -2.1044  0.0703
 9308SOL     OW39559   4.337   1.555   4.462  0.2678 -0.1630 -0.1921
 9308SOL    HW139560   4.256   1.592   4.498 -0.5332  0.0503 -2.1814
 9308SOL    HW239561   4.367   1.629   4.409  0.6978  0.4297  0.8962
 9309SOL     OW39562   4.129   1.088  16.568  0.5593 -0.2831  0.1889
 9309SOL    HW139563   4.034   1.075  16.567  0.6430 -0.7007 -2.0591
 9309SOL    HW239564   4.140   1.182  16.582 -1.7807 -0.0156  0.2411
 9310SOL     OW39565   0.146   2.210   3.809  0.2954 -0.5904 -0.1756
 9310SOL    HW139566   0.215   2.208   3.876 -0.0469 -0.6469  0.1802
 9310SOL    HW239567   0.084   2.255   3.867 -0.2063 -2.6657  0.9128
 9311SOL     OW39568   0.817   1.812   6.047 -0.5583  0.1876  0.1616
 9311SOL    HW139569   0.739   1.773   6.006  0.2483 -0.1323 -1.0697
 9311SOL    HW239570   0.791   1.903   6.061 -0.6609  0.1216  0.4091
 9312SOL     OW39571   3.798   3.945  12.468 -0.1911  0.0085 -0.2255
 9312SOL    HW139572   3.831   4.035  12.460 -2.5776  0.6162 -2.8056
 9312SOL    HW239573   3.717   3.961  12.421 -1.1270 -1.9044  0.7527
 9313SOL     OW39574   0.160   1.611  17.443  0.7465  0.3650  0.1650
 9313SOL    HW139575   0.164   1.538  17.504  0.6561 -2.0240 -2.6679
 9313SOL    HW239576   0.149   1.569  17.357 -1.6292 -1.3071  1.2844
 9314SOL     OW39577   3.414   1.015   7.456  0.1136  0.0216  0.1859
 9314SOL    HW139578   3.330   0.982   7.427  1.3824 -2.5933 -0.5186
 9314SOL    HW239579   3.477   0.949   7.427 -0.2747  0.5016 -1.7412
 9315SOL     OW39580   2.127   1.650  15.250  0.2628 -0.1261  0.4026
 9315SOL    HW139581   2.052   1.707  15.231  0.6700  0.6099  0.9713
 9315SOL    HW239582   2.117   1.575  15.191 -0.2340 -0.0749  0.4157
 9316SOL     OW39583   1.966   2.916   6.361 -0.4002  0.0433  0.7153
 9316SOL    HW139584   2.056   2.897   6.387 -1.3806 -3.7336  1.2882
 9316SOL    HW239585   1.972   2.910   6.266  0.3238  3.5639  0.5156
 9317SOL     OW39586   1.955   1.091   6.615  0.2560  0.3423  0.2802
 9317SOL    HW139587   1.878   1.133   6.655  0.5161 -1.0530  2.2662
 9317SOL    HW239588   1.918   1.018   6.565  1.7506 -0.4011  0.2599
 9318SOL     OW39589   1.501   1.734   1.233  0.2756  0.4428  0.1554
 9318SOL    HW139590   1.478   1.816   1.188 -1.0502 -0.2067 -0.3384
 9318SOL    HW239591   1.431   1.738   1.298  0.8361 -0.0605  0.7780
 9319SOL     OW39592   2.853   1.023   4.417 -0.3546  0.1981  0.1122
 9319SOL    HW139593   2.851   0.930   4.440 -0.0496  0.5174  1.4215
 9319SOL    HW239594   2.780   1.058   4.468 -1.9931 -0.7348 -1.5880
 9320SOL     OW39595   1.587   3.470   1.128  0.4058  0.3697  0.1243
 9320SOL    HW139596   1.553   3.534   1.066 -1.0780  1.8375  2.4615
 9320SOL    HW239597   1.506   3.421   1.143  0.6074  0.0663  0.2309
 9321SOL     OW39598   3.742   3.370   9.519 -0.4404 -0.2098  0.0039
 9321SOL    HW139599   3.755   3.464   9.513 -0.6703 -0.1038  1.1216
 9321SOL    HW239600   3.826   3.329   9.497 -0.2698  0.2185 -0.1248
 9322SOL     OW39601   1.226   4.225  13.856  0.5025 -0.4762  0.1026
 9322SOL    HW139602   1.303   4.215  13.912 -1.3136 -0.2596  2.6280
 9322SOL    HW239603   1.164   4.163  13.895 -1.5193  2.4222  1.4611
 9323SOL     OW39604   1.851   2.579   1.950 -0.6412  0.0683  0.2004
 9323SOL    HW139605   1.861   2.637   2.025 -1.3192 -0.3252  0.6003
 9323SOL    HW239606   1.789   2.630   1.898  0.2511  2.5538  1.6322
 9324SOL     OW39607   0.310   3.845   6.232 -0.1534  0.3285 -0.6012
 9324SOL    HW139608   0.391   3.801   6.256 -0.0933  0.7714 -0.0064
 9324SOL    HW239609   0.249   3.783   6.192 -0.4551  1.1658 -1.4643
 9325SOL     OW39610   1.511   4.206  12.649  0.5621 -0.7176  0.2526
 9325SOL    HW139611   1.568   4.137  12.615  0.6781  0.9440 -2.9433
 9325SOL    HW239612   1.567   4.280  12.673 -0.7620  0.5116 -0.3765
 9326SOL     OW39613   0.880   0.131  17.170 -0.1663  0.1281 -0.1462
 9326SOL    HW139614   0.785   0.126  17.181 -0.1946 -0.5385 -0.7251
 9326SOL    HW239615   0.902   0.040  17.147  0.1810  0.0923  0.3192
 9327SOL     OW39616   3.873   1.854   3.537  0.4894 -0.0218  0.1290
 9327SOL    HW139617   3.867   1.923   3.471  0.3805 -2.2186 -2.1670
 9327SOL    HW239618   3.852   1.770   3.495 -1.9386  0.5565  0.1659
 9328SOL     OW39619   2.841   4.305   6.526 -0.6362  0.3530 -0.4466
 9328SOL    HW139620   2.874   4.357   6.599 -2.1799 -1.6014  1.6318
 9328SOL    HW239621   2.769   4.359   6.493 -0.4468  1.9006  1.6848
 9329SOL     OW39622   1.878   3.238   8.991  0.0338 -0.0096  0.4754
 9329SOL    HW139623   1.859   3.162   8.937 -0.2825 -0.6708  1.5152
 9329SOL    HW239624   1.799   3.288   8.969 -0.6071 -1.5334 -0.6736
 9330SOL     OW39625   4.718   3.826   1.790 -0.5399  0.3447 -0.1034
 9330SOL    HW139626   4.641   3.872   1.756 -1.0856 -0.5718 -0.1087
 9330SOL    HW239627   4.718   3.861   1.879 -1.0849  1.8431 -0.6844
 9331SOL     OW39628   2.871   0.382  13.528 -0.7607  0.2062  0.3949
 9331SOL    HW139629   2.889   0.366  13.435  2.0774  1.8614  0.6633
 9331SOL    HW239630   2.861   0.476  13.538 -2.8146 -0.0215  0.4738
 9332SOL     OW39631   2.694   2.382   2.262  0.3606 -0.4990  0.0691
 9332SOL    HW139632   2.752   2.331   2.206  0.4313 -0.5883  0.2257
 9332SOL    HW239633   2.758   2.434   2.311 -0.8770  0.4744  0.6545
 9333SOL     OW39634   1.406   1.018  10.053 -0.2684  0.3250  0.1692
 9333SOL    HW139635   1.412   1.100  10.003 -0.0798 -0.4440 -1.0499
 9333SOL    HW239636   1.390   1.055  10.140  1.8636  1.4287  0.1032
 9334SOL     OW39637   0.970   1.891  16.661 -0.3757  0.5645 -0.5122
 9334SOL    HW139638   1.041   1.878  16.598  0.6425  1.1745  0.5172
 9334SOL    HW239639   0.971   1.806  16.704 -0.5856  0.2196 -1.1824
 9335SOL     OW39640   3.687   1.213   0.198 -0.4343 -0.2438  0.8906
 9335SOL    HW139641   3.745   1.253   0.133 -3.5163 -0.5646 -2.0631
 9335SOL    HW239642   3.749   1.202   0.270 -1.1730 -0.2827  1.5085
 9336SOL     OW39643   3.281   0.735   7.157  0.4416 -0.4800  0.4067
 9336SOL    HW139644   3.304   0.663   7.217  0.7371 -0.5787  0.1747
 9336SOL    HW239645   3.304   0.683   7.080 -0.7975  2.4076 -1.8543
 9337SOL     OW39646   4.345   0.122  11.480  0.4466 -0.3022 -0.1309
 9337SOL    HW139647   4.340   0.202  11.428 -1.5505 -0.0939  0.3967
 9337SOL    HW239648   4.304   0.053  11.427  2.4314 -1.9060  0.4179
 9338SOL     OW39649   1.427   1.867   7.027  0.1829 -0.7539 -0.7235
 9338SOL    HW139650   1.344   1.915   7.024 -0.1276 -1.2356  0.1939
 9338SOL    HW239651   1.488   1.935   6.999 -0.9833  0.8690  0.6571
 9339SOL     OW39652   2.341   2.477   3.450  0.1804  0.6939 -0.5460
 9339SOL    HW139653   2.328   2.496   3.357 -1.9787 -1.1367 -0.6046
 9339SOL    HW239654   2.382   2.393   3.432 -0.2994  0.1805  0.7498
 9340SOL     OW39655   3.890   1.872  13.692  0.2718  0.5218 -0.2762
 9340SOL    HW139656   3.979   1.905  13.685 -0.2933  1.9317 -0.6689
 9340SOL    HW239657   3.839   1.949  13.669 -0.9173 -0.2295 -0.1639
 9341SOL     OW39658   1.978   0.548   8.747  0.0179 -0.1508  0.1888
 9341SOL    HW139659   1.942   0.628   8.785 -2.5205 -0.4671 -1.5509
 9341SOL    HW239660   1.988   0.575   8.656  2.0704 -0.1190  0.4118
 9342SOL     OW39661   3.922   3.041  13.013 -0.2715 -0.1458 -0.2961
 9342SOL    HW139662   4.015   3.043  12.990  0.2318 -1.7933  1.6250
 9342SOL    HW239663   3.882   2.996  12.939 -0.9330  0.5092 -0.3347
 9343SOL     OW39664   1.409   1.446   3.752 -0.4263 -0.3983 -0.0860
 9343SOL    HW139665   1.457   1.446   3.670 -1.8733  0.4450 -0.9320
 9343SOL    HW239666   1.459   1.478   3.827  0.2435 -0.2802 -0.5799
 9344SOL     OW39667   1.646   3.924   8.180  0.2644  0.2553  1.0291
 9344SOL    HW139668   1.674   3.908   8.270 -1.5185 -0.4399  1.4667
 9344SOL    HW239669   1.728   3.967   8.155  0.6228 -2.4107 -2.4344
 9345SOL     OW39670   1.083   0.521  16.639  0.3619 -0.6239 -0.2982
 9345SOL    HW139671   1.060   0.613  16.651 -2.3359 -1.3004 -0.4093
 9345SOL    HW239672   1.025   0.488  16.571 -0.9098  0.6271  0.1773
 9346SOL     OW39673   2.411   3.254   0.344  0.0379  0.1549 -0.0005
 9346SOL    HW139674   2.370   3.181   0.298  1.6032 -1.1657  0.6783
 9346SOL    HW239675   2.410   3.319   0.273 -0.3725  0.6790  0.4843
 9347SOL     OW39676   1.277   1.012  11.029  0.6353  0.3739  0.5380
 9347SOL    HW139677   1.213   1.037  10.962  1.2218 -0.5343 -0.3689
 9347SOL    HW239678   1.296   0.928  10.987  2.9929  1.9087 -1.4868
 9348SOL     OW39679   3.671   3.910   3.271  0.2499 -0.1434 -0.0853
 9348SOL    HW139680   3.615   3.833   3.263 -2.3729  1.7463  0.0769
 9348SOL    HW239681   3.640   3.956   3.193 -0.2265 -2.0799 -1.0502
 9349SOL     OW39682   0.601   4.328   3.345 -0.6883  0.0741 -0.7364
 9349SOL    HW139683   0.666   4.389   3.310 -0.6170  0.0081 -0.7202
 9349SOL    HW239684   0.613   4.321   3.440 -0.2035  0.8292 -0.7389
 9350SOL     OW39685   4.706   3.996   2.888 -0.3206 -0.0531  0.4040
 9350SOL    HW139686   4.631   4.049   2.859  0.5657  1.0482  0.1118
 9350SOL    HW239687   4.680   3.966   2.975  0.6918  2.6085  1.6197
 9351SOL     OW39688   4.659   2.245   9.819 -0.1016 -0.0875  0.2785
 9351SOL    HW139689   4.694   2.158   9.802 -1.4658 -0.0674 -2.6313
 9351SOL    HW239690   4.680   2.242   9.913  0.6090 -1.2387  0.0763
 9352SOL     OW39691   3.014   3.289  10.119 -0.0442 -0.4897  0.1377
 9352SOL    HW139692   2.945   3.299  10.185  0.3975  0.0444  0.5125
 9352SOL    HW239693   3.079   3.247  10.174  0.9256  2.3136  1.0901
 9353SOL     OW39694   4.043   1.143   5.852  0.1079 -0.2358  0.0058
 9353SOL    HW139695   4.074   1.137   5.762  0.4605 -0.8636  0.1673
 9353SOL    HW239696   4.086   1.069   5.896 -2.3480 -1.5403  0.1873
 9354SOL     OW39697   3.042   2.456   7.410  0.0745 -0.0770  0.3397
 9354SOL    HW139698   2.968   2.491   7.360  0.5746  0.6037  0.0683
 9354SOL    HW239699   3.027   2.362   7.415 -0.1987  0.0850  2.5422
 9355SOL     OW39700   0.174   1.418   1.909  0.3525 -0.9472 -0.4720
 9355SOL    HW139701   0.186   1.332   1.869 -2.4684 -2.6218  2.2778
 9355SOL    HW239702   0.259   1.461   1.911  0.4715 -1.1956 -0.2221
 9356SOL     OW39703   1.970   2.187   8.077 -0.0994 -0.7272  0.3981
 9356SOL    HW139704   1.964   2.096   8.103 -1.5036 -1.2909 -1.8493
 9356SOL    HW239705   2.064   2.188   8.056 -0.1125 -0.3829  0.3469
 9357SOL     OW39706   0.319   0.037   4.234  0.0917 -0.0237  0.1523
 9357SOL    HW139707   0.293   4.683   4.232  1.2977 -0.4208  1.8738
 9357SOL    HW239708   0.406   0.020   4.271  0.2078 -0.6593 -0.4172
 9358SOL     OW39709   4.506   2.676   9.089  0.2039 -0.4567 -0.3833
 9358SOL    HW139710   4.450   2.612   9.043  0.5392 -1.4759  0.6346
 9358SOL    HW239711   4.554   2.624   9.153  1.2632 -1.5951 -2.0839
 9359SOL     OW39712   2.828   0.333   5.167  0.0835 -0.6280 -0.2222
 9359SOL    HW139713   2.787   0.419   5.160  0.6103 -0.3476  0.1620
 9359SOL    HW239714   2.835   0.305   5.076  0.0265  1.2393 -0.7927
 9360SOL     OW39715   1.017   2.015  11.248 -0.1885  0.1223 -0.5945
 9360SOL    HW139716   0.935   2.040  11.204 -1.0610  1.0771  1.5812
 9360SOL    HW239717   0.988   2.007  11.339  2.0796 -0.2986  0.0807
 9361SOL     OW39718   0.373   2.167  13.319 -0.0941  0.3828  0.2067
 9361SOL    HW139719   0.401   2.228  13.251  1.1488 -1.5210 -0.9921
 9361SOL    HW239720   0.300   2.216  13.358  1.0049  1.6155  0.7190
 9362SOL     OW39721   3.488   0.696  11.942  0.2180 -0.2752  0.3427
 9362SOL    HW139722   3.581   0.676  11.949  0.1568 -0.9967 -0.8673
 9362SOL    HW239723   3.448   0.611  11.923  0.3246 -0.5692  1.4640
 9363SOL     OW39724   1.845   2.602  13.632 -0.4205  0.2146 -0.6294
 9363SOL    HW139725   1.885   2.606  13.545  0.4836  0.9568 -0.1779
 9363SOL    HW239726   1.807   2.514  13.633  0.2860 -0.1005 -1.2186
 9364SOL     OW39727   1.395   3.174   1.911  0.0095 -0.4133  0.0911
 9364SOL    HW139728   1.424   3.087   1.939  0.9349  0.0589  0.6054
 9364SOL    HW239729   1.403   3.225   1.991 -1.4631  0.2957 -0.2179
 9365SOL     OW39730   4.385   2.351  13.498  0.6830  0.2324 -0.2064
 9365SOL    HW139731   4.434   2.356  13.579 -0.2993 -0.0672  0.4095
 9365SOL    HW239732   4.320   2.418  13.516  1.0067  0.8776 -1.4359
 9366SOL     OW39733   2.889   1.161   7.596  0.2861  0.3524  0.4239
 9366SOL    HW139734   2.881   1.176   7.502 -0.7756 -0.5426  0.3689
 9366SOL    HW239735   2.893   1.065   7.605 -2.0037  0.2510  0.2874
 9367SOL     OW39736   1.530   3.040   2.541  0.2197  0.3971  0.1002
 9367SOL    HW139737   1.468   3.083   2.482 -1.0318 -2.5730 -0.7314
 9367SOL    HW239738   1.472   3.017   2.614  0.9396 -1.3915  0.0976
 9368SOL     OW39739   0.579   0.925  11.158 -0.0603  0.0897  0.0288
 9368SOL    HW139740   0.563   0.872  11.079  0.3208 -0.3864  0.2700
 9368SOL    HW239741   0.568   1.011  11.116 -2.6765 -0.5094 -0.4980
 9369SOL     OW39742   4.263   1.604   9.251  0.1374  0.6129 -0.4433
 9369SOL    HW139743   4.301   1.516   9.256 -0.3581  0.5620  2.4077
 9369SOL    HW239744   4.242   1.592   9.158 -0.6725 -2.3862  0.1024
 9370SOL     OW39745   2.397   2.019   7.061 -0.1008  0.7844  0.0452
 9370SOL    HW139746   2.336   1.953   7.028 -0.3776 -0.1788  2.4625
 9370SOL    HW239747   2.470   2.012   7.000 -1.8691 -0.5168 -1.8900
 9371SOL     OW39748   0.566   0.064   9.105 -0.5822  1.0480 -0.5501
 9371SOL    HW139749   0.523   4.720   9.132 -2.8793  1.0337 -4.2080
 9371SOL    HW239750   0.496   0.127   9.124 -0.9123  0.6982 -0.6238
 9372SOL     OW39751   2.988   1.733   7.256  0.1386  0.1359 -0.3184
 9372SOL    HW139752   3.081   1.739   7.279 -0.5346  2.0286  1.9384
 9372SOL    HW239753   2.970   1.819   7.219 -1.7404  1.3443  3.3612
 9373SOL     OW39754   2.308   4.702   8.385  0.2796 -0.4002 -0.5752
 9373SOL    HW139755   2.325   0.041   8.329  2.1140 -0.6154 -0.3002
 9373SOL    HW239756   2.274   4.640   8.321 -1.1207 -0.4172  0.1732
 9374SOL     OW39757   1.437   3.729   3.526  0.0410 -0.7139 -0.6160
 9374SOL    HW139758   1.438   3.820   3.555  0.9560  0.0882 -3.2029
 9374SOL    HW239759   1.431   3.682   3.609  1.4682 -1.7292 -1.0908
 9375SOL     OW39760   0.387   0.639   3.730  0.0771 -0.0323  0.7380
 9375SOL    HW139761   0.459   0.581   3.753 -0.0847  0.2632  1.9503
 9375SOL    HW239762   0.402   0.693   3.807  1.6174  1.8683 -0.9104
 9376SOL     OW39763   0.804   0.581   4.556  0.2376  0.1992 -0.5692
 9376SOL    HW139764   0.807   0.665   4.510 -2.6701  0.3869 -0.4385
 9376SOL    HW239765   0.819   0.518   4.486  1.8743 -0.7464  0.6430
 9377SOL     OW39766   3.078   1.478  14.703 -0.0437 -0.2117 -0.3723
 9377SOL    HW139767   3.140   1.438  14.763  0.5388  1.1576 -0.0544
 9377SOL    HW239768   2.994   1.459  14.745  0.1946 -1.7223 -0.6033
 9378SOL     OW39769   0.070   1.655  11.103  0.4012 -0.2685  0.2208
 9378SOL    HW139770   4.721   1.635  11.066  1.0088  0.4760 -1.6328
 9378SOL    HW239771   0.059   1.615  11.189 -1.5234  0.4852  0.3283
 9379SOL     OW39772   1.753   1.188   3.919 -0.0692 -0.9533 -0.1567
 9379SOL    HW139773   1.696   1.131   3.970  1.0734 -0.3691  1.7710
 9379SOL    HW239774   1.725   1.174   3.828  0.7071  0.7687 -0.6605
 9380SOL     OW39775   2.820   0.982   2.171  0.2488  0.3355 -0.4845
 9380SOL    HW139776   2.757   0.915   2.198 -0.8630  0.9379 -1.5981
 9380SOL    HW239777   2.906   0.939   2.174 -1.2269 -2.8151 -2.5563
 9381SOL     OW39778   3.680   4.719   5.108  0.3163  0.5154  0.3042
 9381SOL    HW139779   3.751   4.719   5.043  0.1487 -0.2815  0.1194
 9381SOL    HW239780   3.732   4.712   5.188 -0.4210 -1.7715  0.5946
 9382SOL     OW39781   0.329   4.133   0.383  0.0457  0.2047  0.5524
 9382SOL    HW139782   0.256   4.089   0.427 -0.8726  1.4594  0.2686
 9382SOL    HW239783   0.356   4.198   0.447  1.9034  0.6976 -0.7417
 9383SOL     OW39784   3.543   2.953   8.719  0.3837  0.0315 -0.2679
 9383SOL    HW139785   3.518   2.908   8.638 -0.4533  0.4574 -0.2448
 9383SOL    HW239786   3.607   2.897   8.764  2.0124  1.3673 -0.9361
 9384SOL     OW39787   1.609   0.750   4.432 -0.3872 -0.0424 -0.0311
 9384SOL    HW139788   1.699   0.728   4.408 -1.3516 -0.0730 -3.5374
 9384SOL    HW239789   1.554   0.692   4.379 -0.6346 -0.1088  0.2936
 9385SOL     OW39790   1.748   3.512   6.217  0.1356  0.3410  0.3404
 9385SOL    HW139791   1.763   3.423   6.248  0.6951  0.9628  1.8293
 9385SOL    HW239792   1.817   3.548   6.272  3.9542 -1.9424 -2.9615
 9386SOL     OW39793   3.596   2.021   0.216  0.0567 -0.5057  0.3506
 9386SOL    HW139794   3.623   1.956   0.151 -0.8901 -0.2075 -0.3419
 9386SOL    HW239795   3.532   2.070   0.163 -1.2505 -0.3930  2.0361
 9387SOL     OW39796   4.715   2.267   7.648  0.0306  0.0980  0.2288
 9387SOL    HW139797   4.683   2.281   7.737 -0.5683 -0.1442  0.0527
 9387SOL    HW239798   0.071   2.283   7.662  0.6414 -1.5241 -1.9509
 9388SOL     OW39799   2.733   0.296  14.255 -0.3051 -0.2012  0.3189
 9388SOL    HW139800   2.686   0.230  14.307 -1.8419  0.0698 -0.7328
 9388SOL    HW239801   2.662   0.328  14.199 -0.1800  1.1537  0.9549
 9389SOL     OW39802   1.242   0.202  15.611 -0.0224 -0.1815  0.5365
 9389SOL    HW139803   1.298   0.125  15.610 -1.3633 -1.1544  2.0732
 9389SOL    HW239804   1.313   0.267  15.616 -0.7047  0.6405 -0.4321
 9390SOL     OW39805   3.653   4.536  17.436  0.1165  0.4087  0.0989
 9390SOL    HW139806   3.668   4.523  17.530 -2.8910  0.0273  0.5156
 9390SOL    HW239807   3.558   4.534  17.432  0.0356  0.6007  2.0667
 9391SOL     OW39808   2.726   4.479   2.914 -0.4138 -0.0809  0.1865
 9391SOL    HW139809   2.755   4.551   2.859  0.1605  0.7138  1.5439
 9391SOL    HW239810   2.690   4.519   2.993  1.2223  0.5555  0.5953
 9392SOL     OW39811   2.649   1.875   8.846 -0.2938 -0.3389  0.2292
 9392SOL    HW139812   2.732   1.886   8.892  0.1372  0.5772 -0.7830
 9392SOL    HW239813   2.679   1.794   8.804  0.1211 -0.4993  0.8339
 9393SOL     OW39814   2.688   2.099   6.943 -0.3074  0.0004 -0.1619
 9393SOL    HW139815   2.655   2.013   6.917 -2.7999  1.3135 -1.3031
 9393SOL    HW239816   2.695   2.142   6.857 -0.2908 -1.2350 -0.7693
 9394SOL     OW39817   2.602   1.196   0.988 -0.9088 -0.0883  0.3909
 9394SOL    HW139818   2.642   1.249   0.919  2.1790  0.0560  2.2764
 9394SOL    HW239819   2.519   1.173   0.946 -0.7709 -0.7557  0.4848
 9395SOL     OW39820   3.771   0.240   2.378  0.9210  0.1914  0.5419
 9395SOL    HW139821   3.702   0.237   2.312  1.8573 -0.8169 -0.3891
 9395SOL    HW239822   3.845   0.274   2.327 -0.5913  2.5923 -0.0631
 9396SOL     OW39823   2.285   1.053   3.676  0.6599 -0.5344  0.3164
 9396SOL    HW139824   2.199   1.062   3.718 -0.0108 -0.6488 -1.0350
 9396SOL    HW239825   2.278   1.105   3.596  0.4472 -0.1480  0.5866
 9397SOL     OW39826   1.067   3.770  10.446 -0.9432  0.1737 -0.0701
 9397SOL    HW139827   1.113   3.758  10.363  0.9625  3.1921  0.5512
 9397SOL    HW239828   1.009   3.694  10.450  0.0313 -0.5815 -0.4597
 9398SOL     OW39829   1.250   0.780   4.565 -0.4603  0.3867 -0.5708
 9398SOL    HW139830   1.203   0.744   4.640  0.8737 -0.9867 -0.3775
 9398SOL    HW239831   1.303   0.849   4.604 -1.8421  2.0311 -1.6194
 9399SOL     OW39832   1.878   3.720   9.107  0.0428  0.1407  0.2009
 9399SOL    HW139833   1.927   3.736   9.027 -0.9217 -2.2202 -0.8520
 9399SOL    HW239834   1.941   3.735   9.178  0.5755 -3.0100  0.4305
 9400SOL     OW39835   3.959   4.187   3.069  0.3916 -0.7039 -0.6089
 9400SOL    HW139836   3.942   4.095   3.049 -2.9994 -0.8444  2.9554
 9400SOL    HW239837   3.930   4.227   2.988 -1.7377 -1.0242  0.0107
 9401SOL     OW39838   0.461   1.285   0.050 -0.2352  0.2614 -0.0939
 9401SOL    HW139839   0.407   1.291  17.718 -0.8819  1.3255  0.4249
 9401SOL    HW239840   0.547   1.269   0.012 -0.1870  0.4503 -0.0636
 9402SOL     OW39841   2.568   2.684   8.071  0.0457 -0.7103  0.0721
 9402SOL    HW139842   2.576   2.769   8.114  4.2737 -1.0523 -0.0068
 9402SOL    HW239843   2.493   2.641   8.112  0.2974 -0.1901  1.0881
 9403SOL     OW39844   4.239   4.468  14.914  0.2253 -0.4133 -0.0836
 9403SOL    HW139845   4.221   4.465  15.008  1.6667 -0.5020  0.2017
 9403SOL    HW239846   4.150   4.468  14.879  0.8334  1.8971 -1.6254
 9404SOL     OW39847   0.987   1.665   0.809  0.1265  0.2574  0.1918
 9404SOL    HW139848   0.908   1.692   0.855  0.9142  0.4480  1.4350
 9404SOL    HW239849   0.958   1.700   0.725  1.8788  0.3363 -0.3780
 9405SOL     OW39850   1.947   0.009   1.990  0.0348  0.3071 -0.4695
 9405SOL    HW139851   2.042   0.012   1.998  0.2506  0.0497 -2.8697
 9405SOL    HW239852   1.918   0.070   2.057 -0.4822 -0.6577  0.1708
 9406SOL     OW39853   1.583   0.712   9.445  0.2555 -0.2757  0.1726
 9406SOL    HW139854   1.569   0.798   9.407  0.8003 -0.9578 -1.5643
 9406SOL    HW239855   1.614   0.732   9.533  0.5973  1.3291 -0.3147
 9407SOL     OW39856   2.477   3.302   2.070 -0.4839  0.4495  0.1694
 9407SOL    HW139857   2.473   3.206   2.066  1.1685  0.3649  0.4663
 9407SOL    HW239858   2.444   3.309   2.159 -1.0106 -1.8386  0.1584
 9408SOL     OW39859   2.216   2.515   1.414  0.1131 -0.4987 -0.2202
 9408SOL    HW139860   2.248   2.461   1.487 -1.6518 -1.2459  0.0090
 9408SOL    HW239861   2.294   2.566   1.394 -0.3937  0.6360  0.7080
 9409SOL     OW39862   1.664   4.000   1.565  0.4580 -0.0025 -1.0146
 9409SOL    HW139863   1.737   4.055   1.535  0.4676  0.9113  0.6995
 9409SOL    HW239864   1.677   3.923   1.510 -0.5145  0.5228 -1.9843
 9410SOL     OW39865   0.306   3.503   7.380 -0.1558 -0.6470  0.6301
 9410SOL    HW139866   0.304   3.458   7.296 -1.2430 -1.3483  1.0290
 9410SOL    HW239867   0.368   3.446   7.425 -0.4478 -1.8350 -0.4632
 9411SOL     OW39868   0.160   2.790   8.773  0.1705  0.1758 -0.6451
 9411SOL    HW139869   0.065   2.806   8.769  0.1835  0.6669  1.4339
 9411SOL    HW239870   0.175   2.831   8.858  0.9430 -0.2951 -0.5591
 9412SOL     OW39871   4.346   3.268  11.597  0.7344 -0.2877 -0.5952
 9412SOL    HW139872   4.332   3.215  11.675  0.1779  1.4866  0.5187
 9412SOL    HW239873   4.272   3.250  11.539 -2.1092  2.1457  2.2887
 9413SOL     OW39874   0.697   2.394   0.658  0.4487 -0.3493 -0.0496
 9413SOL    HW139875   0.697   2.340   0.737 -2.5339 -0.9367 -0.4343
 9413SOL    HW239876   0.604   2.409   0.639  0.0446 -2.1411  0.4936
 9414SOL     OW39877   0.558   3.399  11.830  0.1139  0.1291 -0.0846
 9414SOL    HW139878   0.542   3.346  11.752 -1.2707  0.2877  0.0858
 9414SOL    HW239879   0.635   3.452  11.808 -1.0429  1.7898 -0.1162
 9415SOL     OW39880   4.189   4.136  15.391 -0.2175  0.0474  0.5285
 9415SOL    HW139881   4.114   4.178  15.349  0.3093 -0.9575 -1.4320
 9415SOL    HW239882   4.145   4.084  15.458 -0.2587 -1.5663 -0.7266
 9416SOL     OW39883   2.297   2.108   4.581 -0.4989  0.1372  0.7680
 9416SOL    HW139884   2.272   2.195   4.551 -1.4862 -0.5028 -0.2809
 9416SOL    HW239885   2.218   2.077   4.625 -1.5164  1.4713 -0.1195
 9417SOL     OW39886   4.665   4.426   5.905  0.0520 -0.3748  0.1353
 9417SOL    HW139887   4.627   4.477   5.977  0.0058 -0.2288  0.0070
 9417SOL    HW239888   4.710   4.366   5.964  1.7382 -0.3526 -1.1601
 9418SOL     OW39889   2.469   2.046   6.047  0.5415 -0.2180  0.2006
 9418SOL    HW139890   2.379   2.061   6.075  0.5972  1.0152 -0.3043
 9418SOL    HW239891   2.512   2.090   6.120  1.4456 -0.1464 -0.3715
 9419SOL     OW39892   2.556   3.345   4.689  0.1756 -0.4376 -0.3173
 9419SOL    HW139893   2.626   3.291   4.652  0.5372 -0.2414  0.0812
 9419SOL    HW239894   2.535   3.383   4.604 -0.7117  1.5417  0.8015
 9420SOL     OW39895   0.383   1.011   5.543  0.7240 -0.5832  0.2772
 9420SOL    HW139896   0.443   0.970   5.480  0.8305 -0.2095  0.1403
 9420SOL    HW239897   0.441   1.067   5.594  1.3021 -1.1974  0.3029
 9421SOL     OW39898   1.443   3.920  17.477  0.7237  0.0674 -0.0041
 9421SOL    HW139899   1.376   3.969  17.429 -1.0621  0.2008  2.5849
 9421SOL    HW239900   1.396   3.854  17.527 -0.0050  1.0703  0.6511
 9422SOL     OW39901   4.427   3.690   3.021  0.0127  0.1612 -0.1700
 9422SOL    HW139902   4.487   3.628   3.063  2.2700  2.3343 -0.2326
 9422SOL    HW239903   4.450   3.768   3.072  0.3332 -0.4212  0.5743
 9423SOL     OW39904   0.354   3.197  11.806  0.4353 -0.2059 -0.3079
 9423SOL    HW139905   0.376   3.104  11.796  2.2972  0.1616  0.4946
 9423SOL    HW239906   0.437   3.242  11.818 -0.1254  0.7946 -0.1804
 9424SOL     OW39907   1.629   4.025  10.389  0.1244 -0.1744 -0.0670
 9424SOL    HW139908   1.565   3.971  10.434  1.0672  0.5748  2.1480
 9424SOL    HW239909   1.592   4.021  10.301 -0.2523 -0.1515  0.0924
 9425SOL     OW39910   4.544   1.397   1.189 -0.3730  0.1146  0.0618
 9425SOL    HW139911   4.455   1.365   1.173 -0.1552  0.1530 -1.2729
 9425SOL    HW239912   4.584   1.321   1.229  1.7142 -0.3370 -2.8786
 9426SOL     OW39913   4.620   0.358   8.426 -0.1482 -0.1329 -0.4988
 9426SOL    HW139914   4.578   0.357   8.513  2.4754  0.3460  0.7644
 9426SOL    HW239915   4.683   0.290   8.449 -2.4480 -2.3149 -0.6964
 9427SOL     OW39916   3.299   2.271   8.910  0.0142 -0.5191 -0.3333
 9427SOL    HW139917   3.343   2.271   8.995  0.8573  0.1426 -0.7768
 9427SOL    HW239918   3.356   2.205   8.869  0.4345 -0.0660 -0.4814
 9428SOL     OW39919   2.302   2.472   9.664 -0.1825 -0.1178  0.0399
 9428SOL    HW139920   2.263   2.527   9.596  0.6297 -0.8716 -1.0246
 9428SOL    HW239921   2.394   2.473   9.640 -0.3943 -4.0120 -0.9075
 9429SOL     OW39922   1.053   4.130  16.708 -0.0920 -0.1564  0.4568
 9429SOL    HW139923   1.139   4.173  16.710 -0.3632  0.5439 -2.1057
 9429SOL    HW239924   1.055   4.078  16.788 -0.3646 -1.9916 -0.7520
 9430SOL     OW39925   2.047   0.919   5.813  0.2144 -0.6840  0.1472
 9430SOL    HW139926   2.110   0.972   5.765 -1.0882  0.5309 -0.2249
 9430SOL    HW239927   2.107   0.859   5.858 -0.1911  0.3378  2.0604
 9431SOL     OW39928   3.526   0.896   3.377 -0.1328 -0.1844 -0.2273
 9431SOL    HW139929   3.535   0.820   3.319  2.1191  1.2259 -1.7029
 9431SOL    HW239930   3.541   0.857   3.463 -0.5703 -1.2881 -0.6497
 9432SOL     OW39931   1.721   0.892   9.228 -0.0077 -0.5544  0.1033
 9432SOL    HW139932   1.746   0.979   9.196 -0.9319  0.0054  0.8942
 9432SOL    HW239933   1.806   0.865   9.263 -0.3905  0.5033  1.8386
 9433SOL     OW39934   0.952   1.212   8.599  0.2968  0.1197 -0.2466
 9433SOL    HW139935   0.988   1.295   8.628  1.7738 -1.7698  3.2248
 9433SOL    HW239936   0.976   1.209   8.506 -1.1823  1.7440 -0.6706
 9434SOL     OW39937   1.785   0.941   5.750 -0.2117  0.1326  0.4058
 9434SOL    HW139938   1.805   0.932   5.657  0.7328 -0.4464  0.6633
 9434SOL    HW239939   1.871   0.922   5.788 -0.3764 -0.5026  0.4451
 9435SOL     OW39940   4.065   0.110   6.511  0.5077  0.0716 -0.0535
 9435SOL    HW139941   4.073   0.180   6.575 -0.6762  0.3467 -0.2077
 9435SOL    HW239942   4.146   0.059   6.518  0.3983 -0.0921  0.0295
 9436SOL     OW39943   1.031   0.282   4.080 -0.3269 -0.2723 -0.0991
 9436SOL    HW139944   1.080   0.314   4.155 -0.7248 -1.9294  0.8806
 9436SOL    HW239945   1.087   0.225   4.029  0.0290  1.6605 -1.8461
 9437SOL     OW39946   1.352   2.870  12.780 -0.2583 -0.3666  0.6779
 9437SOL    HW139947   1.258   2.867  12.797 -0.2595 -1.1395  0.5704
 9437SOL    HW239948   1.362   2.779  12.751  0.2800 -0.5480  1.4022
 9438SOL     OW39949   1.158   2.838   9.357 -0.0620  0.1092  0.7938
 9438SOL    HW139950   1.238   2.887   9.339 -0.5887  0.4082 -0.7782
 9438SOL    HW239951   1.105   2.869   9.283  0.5866 -2.4480 -0.7559
 9439SOL     OW39952   1.091   2.361  16.914  0.0932  0.0259 -0.1372
 9439SOL    HW139953   1.153   2.351  16.842 -0.4333 -1.0779 -0.4467
 9439SOL    HW239954   1.009   2.340  16.869  0.2225 -1.1025  0.1535
 9440SOL     OW39955   2.740   0.750   0.140  0.1485  0.0743  0.2942
 9440SOL    HW139956   2.687   0.721   0.065  0.3683 -0.0119  0.1726
 9440SOL    HW239957   2.778   0.833   0.111  1.4114 -0.9167 -0.8909
 9441SOL     OW39958   4.483   0.243   2.719  0.3053 -0.1124  0.2504
 9441SOL    HW139959   4.440   0.323   2.748  1.5838  0.4046  0.7604
 9441SOL    HW239960   4.540   0.281   2.652 -0.4582  1.0322  0.2603
 9442SOL     OW39961   3.537   2.329   5.346 -0.2897 -0.0126  0.5381
 9442SOL    HW139962   3.598   2.258   5.326  0.2702  0.8161 -0.7096
 9442SOL    HW239963   3.555   2.362   5.434 -0.2280  0.8368  0.2121
 9443SOL     OW39964   0.159   3.741   7.427  0.0750  0.0978  0.1482
 9443SOL    HW139965   0.186   3.653   7.400 -0.4997  0.3947 -1.3965
 9443SOL    HW239966   0.065   3.755   7.416 -0.0161 -0.6904 -0.0094
 9444SOL     OW39967   0.757   0.670  16.695 -0.2587  0.2816  0.3854
 9444SOL    HW139968   0.677   0.644  16.648  0.4218 -0.8306 -0.1483
 9444SOL    HW239969   0.819   0.681  16.623 -1.3820 -0.3099 -0.6735
 9445SOL     OW39970   3.755   2.980  16.986  0.6627  0.1902  0.4023
 9445SOL    HW139971   3.823   3.038  16.950  0.4780 -0.0925 -0.4078
 9445SOL    HW239972   3.765   2.897  16.938 -0.6081 -0.3433  1.0542
 9446SOL     OW39973   4.674   3.393   2.926  0.3715  0.0296  0.3234
 9446SOL    HW139974   4.727   3.470   2.905 -2.2625  1.8112  0.1529
 9446SOL    HW239975   4.641   3.422   3.011 -3.2961  0.8224 -1.3934
 9447SOL     OW39976   0.992   3.377   3.048 -0.0686  0.5204 -0.5067
 9447SOL    HW139977   0.939   3.394   3.126  1.1276 -0.4155  0.5040
 9447SOL    HW239978   1.083   3.396   3.069 -0.1812 -0.0017  0.4479
 9448SOL     OW39979   1.573   4.189   7.737 -0.0779  0.4832 -0.2869
 9448SOL    HW139980   1.573   4.225   7.826 -1.7287  0.6113 -0.3322
 9448SOL    HW239981   1.587   4.270   7.689  0.8544 -0.1675 -1.0905
 9449SOL     OW39982   1.265   0.099   9.486 -0.0313 -0.3524  0.2437
 9449SOL    HW139983   1.325   0.033   9.522  0.5862  0.5661  0.9318
 9449SOL    HW239984   1.240   0.160   9.556  1.1956  1.3852 -0.8168
 9450SOL     OW39985   1.259   4.194  16.178  0.1871 -0.1538  0.0482
 9450SOL    HW139986   1.310   4.233  16.249 -1.6829  2.4876 -0.0380
 9450SOL    HW239987   1.196   4.150  16.236  0.0037  1.6402  1.2428
 9451SOL     OW39988   4.415   3.146   6.683 -0.0397  0.1751  0.3929
 9451SOL    HW139989   4.490   3.089   6.669  0.1988  0.5507  0.1540
 9451SOL    HW239990   4.387   3.110   6.767  1.0644 -1.0441  0.2452
 9452SOL     OW39991   0.880   3.189  12.929  0.2487 -0.5587  0.0800
 9452SOL    HW139992   0.893   3.160  12.839  0.0904 -2.4585  0.6700
 9452SOL    HW239993   0.847   3.277  12.911  1.8971 -0.0185 -0.3816
 9453SOL     OW39994   2.847   0.456   9.557 -0.3315 -0.5142 -0.0868
 9453SOL    HW139995   2.786   0.384   9.547 -1.2860  0.3156 -0.2159
 9453SOL    HW239996   2.939   0.428   9.559 -0.4779 -1.0037 -0.3369
 9454SOL     OW39997   3.456   3.466  17.521 -0.8629 -0.5946 -0.1720
 9454SOL    HW139998   3.457   3.474  17.426  0.7420  1.8919  0.0440
 9454SOL    HW239999   3.506   3.386  17.534 -0.4524 -0.0336  1.8045
 9455SOL     OW40000   3.372   2.908   7.137 -0.4008 -0.0966 -0.3714
 9455SOL    HW140001   3.397   2.900   7.046  1.0832  2.5938 -0.1993
 9455SOL    HW240002   3.317   2.986   7.146 -2.7208 -1.7201 -0.6099
 9456SOL     OW40003   1.831   1.131  14.600  0.5115  0.4388  0.1149
 9456SOL    HW140004   1.830   1.101  14.509  0.7671 -0.2769  0.3456
 9456SOL    HW240005   1.925   1.146  14.606  1.0175 -2.4612 -0.7461
 9457SOL     OW40006   4.436   1.880  17.406 -0.1829 -0.1463 -0.0673
 9457SOL    HW140007   4.507   1.827  17.442  0.0517 -0.6302 -1.2259
 9457SOL    HW240008   4.481   1.909  17.326 -1.3971  1.7357 -0.0824
 9458SOL     OW40009   4.288   3.147   2.481 -0.0561 -0.7437 -0.4561
 9458SOL    HW140010   4.247   3.116   2.400  0.3464 -0.0911 -0.9096
 9458SOL    HW240011   4.209   3.170   2.530 -0.4769  0.3721 -1.6815
 9459SOL     OW40012   1.386   0.088   5.496  0.1642 -0.1456  0.1307
 9459SOL    HW140013   1.409   0.023   5.431 -1.8941  0.4070 -1.1468
 9459SOL    HW240014   1.327   0.042   5.556  0.8912 -2.1391 -0.7059
 9460SOL     OW40015   2.171   3.763   6.614  0.2310 -0.4239  0.1797
 9460SOL    HW140016   2.100   3.720   6.662 -1.0317 -0.8624 -2.0604
 9460SOL    HW240017   2.140   3.853   6.623 -1.9526 -1.2709  1.0383
 9461SOL     OW40018   2.327   1.842  14.448  0.0130 -0.1464 -0.1990
 9461SOL    HW140019   2.236   1.869  14.460  0.3403  0.9175 -0.0747
 9461SOL    HW240020   2.363   1.801  14.526 -0.4963  4.3427  2.4039
 9462SOL     OW40021   2.654   1.783   5.636  0.8600 -0.4054 -0.2755
 9462SOL    HW140022   2.647   1.829   5.720  1.0910 -2.2074  0.7166
 9462SOL    HW240023   2.559   1.777   5.621  0.9356 -0.7252 -0.6269
 9463SOL     OW40024   0.841   0.613  16.212  0.0811  0.2477  0.3009
 9463SOL    HW140025   0.799   0.531  16.184 -2.2187  1.5295 -0.0125
 9463SOL    HW240026   0.890   0.645  16.136 -0.5607 -1.4218 -0.8223
 9464SOL     OW40027   1.644   4.486   1.960  0.2140  0.4216  0.3641
 9464SOL    HW140028   1.553   4.460   1.941  0.1582  0.9257 -0.0718
 9464SOL    HW240029   1.677   4.471   1.871  2.9177 -3.0592  1.9730
 9465SOL     OW40030   0.297   4.574  16.536 -0.3316 -0.3283 -0.1202
 9465SOL    HW140031   0.283   4.594  16.443 -0.2063 -2.7076 -0.6384
 9465SOL    HW240032   0.386   4.602  16.556 -0.3103 -1.7708  1.7276
 9466SOL     OW40033   2.168   3.262   2.225  0.3539 -0.2387  0.2289
 9466SOL    HW140034   2.251   3.295   2.259  0.6665  0.1945 -0.9399
 9466SOL    HW240035   2.136   3.206   2.296  1.8375  0.8291  1.7454
 9467SOL     OW40036   2.129   3.948   4.740 -0.4383  0.1056  0.4104
 9467SOL    HW140037   2.103   3.998   4.817 -1.2090  0.2942  0.0309
 9467SOL    HW240038   2.088   3.867   4.769  0.4691 -0.4481  0.1596
 9468SOL     OW40039   2.757   1.324   9.292  0.3008 -0.4859 -0.0457
 9468SOL    HW140040   2.813   1.354   9.364 -1.9270 -1.2380  2.0044
 9468SOL    HW240041   2.784   1.378   9.218 -1.7719  0.4032 -0.1394
 9469SOL     OW40042   0.510   1.266   3.600 -0.4729 -0.8127  0.1268
 9469SOL    HW140043   0.518   1.332   3.531  2.3592  0.0013  1.2624
 9469SOL    HW240044   0.469   1.322   3.666 -0.8930 -3.1355  1.8519
 9470SOL     OW40045   4.052   1.899  15.786  0.0383 -0.0278  0.5862
 9470SOL    HW140046   4.126   1.958  15.769  1.0112 -1.1474  0.9279
 9470SOL    HW240047   4.094   1.813  15.784  0.1492  0.1019 -2.1769
 9471SOL     OW40048   2.175   0.710   1.045 -0.3838 -0.6289 -0.3503
 9471SOL    HW140049   2.110   0.643   1.068 -1.6774  0.5022 -0.7237
 9471SOL    HW240050   2.166   0.775   1.114  0.7270  0.9925 -1.7444
 9472SOL     OW40051   4.123   2.090   4.598 -0.2976 -0.4424  0.0117
 9472SOL    HW140052   4.161   2.063   4.515 -3.6950 -1.1718 -1.3227
 9472SOL    HW240053   4.190   2.054   4.656 -2.0707 -1.0115  1.7127
 9473SOL     OW40054   4.716   1.128  11.537  0.3666  0.2929  0.0575
 9473SOL    HW140055   4.712   1.051  11.480  0.8279 -0.8812  1.5861
 9473SOL    HW240056   0.015   1.191  11.476 -0.1596  0.2895 -0.2632
 9474SOL     OW40057   1.558   1.538   8.527  0.6247  0.1777 -0.0362
 9474SOL    HW140058   1.466   1.518   8.509  0.6135 -2.7248  3.2783
 9474SOL    HW240059   1.600   1.452   8.524 -0.9488 -0.6011 -0.0218
 9475SOL     OW40060   0.453   0.978   8.859 -0.2150 -0.3957  0.2465
 9475SOL    HW140061   0.383   0.914   8.873  1.2724 -1.8977  0.8271
 9475SOL    HW240062   0.483   0.991   8.949  0.7206  3.6676 -0.6611
 9476SOL     OW40063   3.633   2.803  15.228  0.7136  0.4352 -0.2465
 9476SOL    HW140064   3.552   2.833  15.269  1.3920  0.3354  1.2001
 9476SOL    HW240065   3.615   2.824  15.137  0.9076  1.4363 -0.0564
 9477SOL     OW40066   3.933   0.199   8.309  0.4274 -0.9933 -0.9607
 9477SOL    HW140067   3.861   0.172   8.366 -1.0607  0.5689 -2.1125
 9477SOL    HW240068   4.007   0.148   8.342  1.5344  0.3565 -1.3690
 9478SOL     OW40069   3.937   3.312   0.424 -0.8574  0.1264 -0.4709
 9478SOL    HW140070   3.935   3.298   0.329  0.5511 -0.6006 -0.4017
 9478SOL    HW240071   4.021   3.271   0.444 -0.8550 -0.4511 -1.6635
 9479SOL     OW40072   3.490   1.811   6.976 -0.9877  0.4236  0.2654
 9479SOL    HW140073   3.457   1.770   7.056  0.6287  0.9210  1.1828
 9479SOL    HW240074   3.547   1.880   7.008  0.6131 -1.4937  1.5620
 9480SOL     OW40075   1.873   4.583  10.842 -0.4023  0.1086  0.1256
 9480SOL    HW140076   1.845   4.672  10.818  2.0909  0.5411 -1.1686
 9480SOL    HW240077   1.911   4.592  10.929 -1.6242 -1.6341  0.8475
 9481SOL     OW40078   0.440   3.187   6.483  0.0452  0.1785  0.2655
 9481SOL    HW140079   0.483   3.141   6.411  2.2567  3.1241 -0.2795
 9481SOL    HW240080   0.496   3.264   6.477  1.7094 -1.0977 -0.5883
 9482SOL     OW40081   3.828   0.200   7.192  0.0568 -0.6718  0.6343
 9482SOL    HW140082   3.872   0.115   7.193  0.4056 -0.5002 -0.0330
 9482SOL    HW240083   3.887   0.243   7.253 -1.5662 -0.7926  2.2793
 9483SOL     OW40084   3.154   0.037  16.628  0.0340 -0.0477  0.4901
 9483SOL    HW140085   3.117   0.061  16.544 -0.9495 -1.6121  0.4659
 9483SOL    HW240086   3.210   4.699  16.609  1.0210  1.0784 -1.0076
 9484SOL     OW40087   4.641   2.621   4.502 -0.1359 -0.1567  0.0329
 9484SOL    HW140088   4.645   2.530   4.532 -0.3897  0.5597  2.1812
 9484SOL    HW240089   4.723   2.666   4.520 -0.7173 -0.1871  2.6394
 9485SOL     OW40090   1.845   0.352  15.830  0.3172 -0.0916 -0.3256
 9485SOL    HW140091   1.910   0.319  15.768 -1.5281 -1.9156 -1.2887
 9485SOL    HW240092   1.824   0.437  15.791  1.6957  0.2641 -0.3212
 9486SOL     OW40093   1.425   1.637   1.591 -0.8635 -0.2509  0.0377
 9486SOL    HW140094   1.405   1.544   1.595 -0.4487 -0.2954  0.9858
 9486SOL    HW240095   1.363   1.674   1.529 -1.5019 -1.2487  0.0849
 9487SOL     OW40096   0.522   1.857   1.921  0.4086 -0.2870 -0.4085
 9487SOL    HW140097   0.543   1.950   1.916 -2.2830  0.3945  1.3595
 9487SOL    HW240098   0.499   1.851   2.014 -1.4559  2.9308 -0.6801
 9488SOL     OW40099   3.179   3.492   8.760 -0.2512 -0.5274  0.0564
 9488SOL    HW140100   3.244   3.562   8.758 -0.4512 -0.2961  1.8379
 9488SOL    HW240101   3.126   3.520   8.835  1.0967  1.2698  0.3285
 9489SOL     OW40102   1.062   3.504  15.416 -0.8069  0.3225 -0.2536
 9489SOL    HW140103   1.072   3.595  15.442 -0.0951 -0.8603  3.5487
 9489SOL    HW240104   0.971   3.499  15.386 -0.9722  0.5252  0.2268
 9490SOL     OW40105   3.366   3.054   5.485  0.1824  0.2650  0.3503
 9490SOL    HW140106   3.308   3.116   5.530 -0.6126  0.7717 -1.3811
 9490SOL    HW240107   3.299   3.016   5.428 -0.0284 -2.1124  2.1846
 9491SOL     OW40108   3.858   1.760   7.942 -0.1693 -0.2596  0.2421
 9491SOL    HW140109   3.897   1.712   7.869  0.1428 -0.4007  0.5007
 9491SOL    HW240110   3.925   1.825   7.962 -1.6064  0.5707  2.4236
 9492SOL     OW40111   3.196   1.130  16.020 -0.4193  0.2950  0.4794
 9492SOL    HW140112   3.136   1.114  16.093 -2.7003 -1.1789 -1.6994
 9492SOL    HW240113   3.264   1.186  16.058 -0.0034 -0.5578  0.9965
 9493SOL     OW40114   2.331   1.652  16.928  0.0870 -0.3362  0.1207
 9493SOL    HW140115   2.388   1.685  16.859 -0.4723  0.6963  0.1565
 9493SOL    HW240116   2.260   1.707  16.897  0.1735 -0.1122  0.3191
 9494SOL     OW40117   3.540   3.258   5.737 -0.1636 -0.2946  0.4321
 9494SOL    HW140118   3.472   3.191   5.745  0.2955 -0.8548 -0.3244
 9494SOL    HW240119   3.506   3.296   5.656 -2.0533  0.5750  1.6548
 9495SOL     OW40120   2.093   4.533   2.205 -0.0676  0.6736 -0.1561
 9495SOL    HW140121   2.145   4.588   2.263  1.5863 -0.4845 -0.5403
 9495SOL    HW240122   2.005   4.569   2.209 -0.4023 -0.1508  0.0244
 9496SOL     OW40123   1.953   1.614   2.821 -0.4261 -0.1934  0.0870
 9496SOL    HW140124   2.004   1.546   2.865 -2.8642 -1.8586  0.2990
 9496SOL    HW240125   1.883   1.557   2.790  1.2138 -0.6684 -2.7344
 9497SOL     OW40126   1.640   4.197   4.785  0.2487 -0.4154 -0.2438
 9497SOL    HW140127   1.635   4.276   4.838 -1.7209  0.8109 -2.2689
 9497SOL    HW240128   1.714   4.156   4.829  1.6386 -0.5086 -2.6353
 9498SOL     OW40129   2.574   3.482  12.765  0.0335  0.3756  0.6968
 9498SOL    HW140130   2.494   3.492  12.714  1.2555  0.1992 -1.2729
 9498SOL    HW240131   2.582   3.573  12.792 -1.6858 -0.0823  2.7997
 9499SOL     OW40132   2.384   2.825   3.955  0.0124  0.2852 -0.3755
 9499SOL    HW140133   2.309   2.829   3.895 -0.1082 -0.5491 -0.2814
 9499SOL    HW240134   2.339   2.854   4.035  0.4804 -1.2266  0.4297
 9500SOL     OW40135   1.090   0.762  14.716 -0.0688 -0.6576 -0.0462
 9500SOL    HW140136   1.075   0.791  14.626 -0.7416 -0.3570  0.1646
 9500SOL    HW240137   1.170   0.812  14.733  0.1684 -0.2694 -2.3175
 9501SOL     OW40138   1.378   3.322  16.669 -0.1843 -0.0033  0.0943
 9501SOL    HW140139   1.294   3.358  16.638  0.4436 -0.2177 -1.8581
 9501SOL    HW240140   1.394   3.369  16.750 -0.1056 -3.5282  2.0907
 9502SOL     OW40141   3.143   4.154   1.982  0.1896 -0.0995  0.3033
 9502SOL    HW140142   3.214   4.189   2.035  1.7493 -0.4781 -1.5747
 9502SOL    HW240143   3.173   4.074   1.938 -4.4680 -1.9602  0.4852
 9503SOL     OW40144   4.334   4.510   5.394 -0.0589 -0.0393 -0.0342
 9503SOL    HW140145   4.419   4.541   5.363 -0.1026  2.1450  2.0472
 9503SOL    HW240146   4.328   4.567   5.471  1.6627  1.1349 -0.7506
 9504SOL     OW40147   3.546   3.929   8.805 -0.1552  0.7057  0.0253
 9504SOL    HW140148   3.622   3.987   8.815 -0.5795  0.9445  1.7362
 9504SOL    HW240149   3.592   3.846   8.816  2.6138  2.3228  0.8427
 9505SOL     OW40150   0.867   4.406   1.296  0.2484  0.1551 -0.2047
 9505SOL    HW140151   0.853   4.318   1.330 -0.2739  0.2511 -0.1640
 9505SOL    HW240152   0.812   4.458   1.355  1.1911  0.1252  0.7019
 9506SOL     OW40153   3.881   0.169   4.043 -0.3936 -0.0866  0.0284
 9506SOL    HW140154   3.914   0.124   4.121  0.0240 -1.7725 -1.1255
 9506SOL    HW240155   3.933   0.137   3.970 -0.1536 -2.8547  1.4091
 9507SOL     OW40156   4.137   3.159   5.116 -0.0411  0.5588  0.1200
 9507SOL    HW140157   4.188   3.088   5.154  3.1021  1.4590 -2.4168
 9507SOL    HW240158   4.065   3.117   5.070  0.2693  1.9200 -1.6353
 9508SOL     OW40159   3.035   0.598   3.711  0.2666 -0.3698  0.4210
 9508SOL    HW140160   2.976   0.637   3.776 -1.3585  0.4317 -1.5108
 9508SOL    HW240161   3.113   0.593   3.765  0.7316  2.4173 -0.0043
 9509SOL     OW40162   4.251   2.948   4.025 -0.1379 -0.0429  0.9534
 9509SOL    HW140163   4.282   3.034   3.998 -0.9504  0.1067  0.4834
 9509SOL    HW240164   4.201   2.958   4.106 -2.1806  0.3398 -0.3510
 9510SOL     OW40165   2.719   0.105   5.240 -0.3598 -0.1670  0.0049
 9510SOL    HW140166   2.632   0.127   5.206 -0.9971 -0.0475  1.6702
 9510SOL    HW240167   2.768   0.184   5.221  0.3519 -0.5673  0.1847
 9511SOL     OW40168   1.942   1.862   6.808  0.1274  0.0480 -0.2337
 9511SOL    HW140169   1.886   1.839   6.882  0.1278 -1.6791 -0.7697
 9511SOL    HW240170   1.886   1.831   6.735 -0.8604  1.3501 -0.0277
 9512SOL     OW40171   2.501   4.528   6.702 -0.0340 -0.3962 -0.5726
 9512SOL    HW140172   2.583   4.556   6.742  0.3336 -2.2504 -0.0080
 9512SOL    HW240173   2.448   4.600   6.737  0.1057 -1.2889  1.5410
 9513SOL     OW40174   2.700   0.474   3.998  0.2764  0.0061  0.5745
 9513SOL    HW140175   2.696   0.553   3.944 -1.3778  0.1369  0.8891
 9513SOL    HW240176   2.607   0.455   4.000 -0.3156  2.7541 -0.4856
 9514SOL     OW40177   1.303   0.464   8.451  0.2029  0.2166  0.5096
 9514SOL    HW140178   1.264   0.392   8.500 -2.6971  1.0168 -0.6192
 9514SOL    HW240179   1.369   0.489   8.516 -0.7647 -0.4357  1.7339
 9515SOL     OW40180   4.235   3.181   9.630 -0.1028  0.5980  0.0511
 9515SOL    HW140181   4.314   3.180   9.683  0.1257  0.2218 -0.2924
 9515SOL    HW240182   4.264   3.173   9.539 -0.3741  0.8060 -0.0535
 9516SOL     OW40183   2.176   0.586   3.717 -0.4794  0.7999 -0.5419
 9516SOL    HW140184   2.156   0.565   3.808 -2.3834  2.0424 -0.6690
 9516SOL    HW240185   2.267   0.613   3.726 -0.6431  1.1078  0.2312
 9517SOL     OW40186   1.587   3.193   4.884 -0.1225 -0.2363  0.4981
 9517SOL    HW140187   1.642   3.122   4.916  2.3441  0.6621 -1.7872
 9517SOL    HW240188   1.530   3.133   4.835 -0.0171  0.9856 -1.1443
 9518SOL     OW40189   0.268   3.444  14.991 -0.5332 -0.3961  0.0560
 9518SOL    HW140190   0.334   3.383  14.960  0.1372  0.0292  0.6312
 9518SOL    HW240191   0.298   3.463  15.080  0.4742  1.6951 -0.7340
 9519SOL     OW40192   3.585   1.594   6.884  0.1792  0.7015 -0.3662
 9519SOL    HW140193   3.544   1.675   6.915 -0.7731 -0.4523  1.4066
 9519SOL    HW240194   3.545   1.529   6.942 -0.4695  0.4565 -1.0936
 9520SOL     OW40195   1.358   1.058   0.835 -0.1331 -0.2987  0.2061
 9520SOL    HW140196   1.421   1.055   0.763 -1.2793  1.4314 -0.8761
 9520SOL    HW240197   1.393   1.136   0.878  1.6895 -1.5720  1.0276
 9521SOL     OW40198   1.435   3.788   5.430 -0.1146 -0.9027  0.0432
 9521SOL    HW140199   1.364   3.852   5.427  0.9931  0.4379  2.6734
 9521SOL    HW240200   1.501   3.840   5.385 -0.8865  0.2158  0.1939
 9522SOL     OW40201   1.963   0.490   8.413 -0.4871  0.1918 -0.4189
 9522SOL    HW140202   2.043   0.448   8.446 -1.7692 -0.4592  1.8730
 9522SOL    HW240203   1.899   0.424   8.439 -1.2272  1.0531 -0.0539
 9523SOL     OW40204   1.175   1.570   6.765  0.5281 -1.2342  0.3546
 9523SOL    HW140205   1.105   1.504   6.764 -0.9962  0.4067 -0.1559
 9523SOL    HW240206   1.135   1.628   6.701 -1.3779 -1.6170  1.1793
 9524SOL     OW40207   1.749   0.231   5.045  0.3881 -0.9216 -0.2771
 9524SOL    HW140208   1.711   0.318   5.060  2.1363 -0.7849  3.4464
 9524SOL    HW240209   1.742   0.202   5.136 -0.0551 -1.1760 -0.3915
 9525SOL     OW40210   2.624   2.043   3.342  0.1368  0.1390 -0.2287
 9525SOL    HW140211   2.650   2.060   3.251 -0.1443 -0.6631 -0.4601
 9525SOL    HW240212   2.699   1.994   3.376  0.0068 -0.8093 -1.2917
 9526SOL     OW40213   2.061   1.387   9.222  0.0983 -1.4559 -0.0791
 9526SOL    HW140214   2.046   1.395   9.128 -2.9275  1.0397  0.6234
 9526SOL    HW240215   2.075   1.292   9.216 -0.4825 -1.6152  0.9839
 9527SOL     OW40216   0.508   0.539   9.580  0.0520  0.0595  0.2426
 9527SOL    HW140217   0.461   0.469   9.534 -2.4395  1.2092  1.0696
 9527SOL    HW240218   0.598   0.507   9.582  0.1147  0.2128 -0.1223
 9528SOL     OW40219   3.718   4.195  13.884  0.3222 -0.4578 -0.2275
 9528SOL    HW140220   3.673   4.115  13.857  1.3626 -0.5666 -1.6649
 9528SOL    HW240221   3.722   4.245  13.803 -0.2996  1.4036  0.8829
 9529SOL     OW40222   0.844   0.030   3.245 -0.3092 -0.0564  0.1382
 9529SOL    HW140223   0.929   0.015   3.205  0.4379  0.4535  1.5721
 9529SOL    HW240224   0.825   0.118   3.213 -3.0988  0.3551  2.9179
 9530SOL     OW40225   1.182   2.816   3.412  0.6092  0.0777  0.6311
 9530SOL    HW140226   1.177   2.755   3.337  0.2295  0.7123  0.1438
 9530SOL    HW240227   1.139   2.758   3.476  1.9549 -1.4189  0.1688
 9531SOL     OW40228   3.901   2.002   8.655  0.2495 -0.1464  0.7079
 9531SOL    HW140229   3.984   1.956   8.642 -0.3961 -1.1672  0.2044
 9531SOL    HW240230   3.911   2.025   8.748  0.6625 -1.4647  0.9945
 9532SOL     OW40231   4.385   1.260   5.861 -0.2439 -0.4128  0.6323
 9532SOL    HW140232   4.472   1.283   5.827 -1.0122 -0.7247 -1.5451
 9532SOL    HW240233   4.347   1.348   5.860 -1.0498 -0.7705  0.3785
 9533SOL     OW40234   4.616   4.196  10.870 -0.1397 -0.4014  0.4742
 9533SOL    HW140235   4.568   4.166  10.793  2.3058  1.1647 -1.6657
 9533SOL    HW240236   4.547   4.228  10.927  1.4746  2.6232  0.7245
 9534SOL     OW40237   1.430   0.910   6.920 -1.2990  0.4557 -0.0626
 9534SOL    HW140238   1.387   0.972   6.861 -0.4085 -0.0603 -1.2559
 9534SOL    HW240239   1.427   0.965   6.998 -1.3271 -0.4520  0.5701
 9535SOL     OW40240   3.982   1.237   4.162  0.0975 -0.1558  1.0150
 9535SOL    HW140241   3.941   1.225   4.248  1.3683 -1.2883  1.4636
 9535SOL    HW240242   3.907   1.260   4.107  0.3665 -1.1448  0.2203
 9536SOL     OW40243   2.627   0.863   5.000  0.6180 -0.3614  0.1815
 9536SOL    HW140244   2.695   0.856   5.066 -1.2231 -2.8102  1.7888
 9536SOL    HW240245   2.569   0.933   5.030 -2.3702 -2.2369 -1.2130
 9537SOL     OW40246   0.343   4.304  12.606  0.5506  0.1495  0.3869
 9537SOL    HW140247   0.356   4.259  12.689 -1.3926 -1.1541  0.0007
 9537SOL    HW240248   0.278   4.370  12.629 -0.8915 -1.6558  1.4567
 9538SOL     OW40249   4.478   1.582  13.072 -0.2049  0.0832 -0.4637
 9538SOL    HW140250   4.553   1.524  13.084  0.9725  1.7178  0.0466
 9538SOL    HW240251   4.416   1.512  13.054 -0.4923  0.4395 -0.8639
 9539SOL     OW40252   1.789   0.239   7.298  0.5771  0.3744 -1.2120
 9539SOL    HW140253   1.812   0.319   7.344  0.8642 -0.5603  0.2827
 9539SOL    HW240254   1.816   0.179   7.368  2.5013  3.2820  0.4895
 9540SOL     OW40255   4.475   4.705   7.617  0.1136  0.0621  0.0408
 9540SOL    HW140256   4.413   4.709   7.544 -0.8610 -0.1030  0.8559
 9540SOL    HW240257   4.488   0.063   7.626  0.4433  0.1302 -1.2052
 9541SOL     OW40258   4.030   2.333   7.366 -0.0650  0.0569  0.0121
 9541SOL    HW140259   4.030   2.237   7.368 -1.4764  0.0667 -0.0549
 9541SOL    HW240260   3.948   2.348   7.412  0.3267 -1.2887  1.1450
 9542SOL     OW40261   0.211   3.934   3.476  0.3007  0.0914  0.3430
 9542SOL    HW140262   0.258   4.005   3.518  0.2168 -0.1615  0.8603
 9542SOL    HW240263   0.128   3.935   3.525 -1.7564  0.3300 -3.1303
 9543SOL     OW40264   2.793   1.426  13.657 -0.1253  0.4379  0.6158
 9543SOL    HW140265   2.780   1.480  13.735 -2.4338  1.7193 -0.6439
 9543SOL    HW240266   2.859   1.482  13.615 -0.5251 -0.3130 -0.9995
 9544SOL     OW40267   3.102   3.160  16.423 -0.7592  0.2994 -0.2714
 9544SOL    HW140268   3.104   3.255  16.436 -2.1300  0.0596  1.7353
 9544SOL    HW240269   3.076   3.160  16.331 -0.8948  0.0091 -0.2338
 9545SOL     OW40270   1.335   3.481   6.869 -0.2727  0.2715 -0.3166
 9545SOL    HW140271   1.272   3.443   6.808  0.4869  0.2231 -1.0808
 9545SOL    HW240272   1.273   3.545   6.905 -1.6307 -0.9057 -0.5802
 9546SOL     OW40273   0.708   3.383   7.233 -1.0941 -0.3375  0.6858
 9546SOL    HW140274   0.693   3.434   7.153 -0.7927 -3.0718 -1.1013
 9546SOL    HW240275   0.684   3.448   7.299 -1.5022 -0.0721  0.2766
 9547SOL     OW40276   1.381   3.321   2.774  0.0385 -0.0601  0.2914
 9547SOL    HW140277   1.343   3.238   2.744  1.4910 -0.5915 -0.0769
 9547SOL    HW240278   1.306   3.378   2.763  0.1250  0.4069  2.0689
 9548SOL     OW40279   2.197   4.682   6.146 -0.0708  0.5225 -0.1711
 9548SOL    HW140280   2.103   4.671   6.160 -0.2345 -1.5699 -2.9528
 9548SOL    HW240281   2.205   0.029   6.102  1.2831  0.5344  0.0744
 9549SOL     OW40282   3.907   0.506  17.201 -0.3497 -0.3866  0.3475
 9549SOL    HW140283   3.956   0.432  17.237 -1.0923 -1.9079 -1.7452
 9549SOL    HW240284   3.963   0.580  17.226 -1.3629  0.3263  0.4863
 9550SOL     OW40285   3.097   3.687   5.848 -0.6509  0.3451  0.2624
 9550SOL    HW140286   3.122   3.719   5.762 -0.7929  1.9378  0.8095
 9550SOL    HW240287   3.163   3.723   5.908  0.4783 -0.8285 -0.2708
 9551SOL     OW40288   3.546   1.991   2.337  0.4511 -0.2839 -0.0341
 9551SOL    HW140289   3.458   1.990   2.298  0.3345 -0.1910  0.2239
 9551SOL    HW240290   3.583   2.076   2.312 -0.0692 -0.8270 -2.6876
 9552SOL     OW40291   1.219   1.899   5.290 -0.4362  0.1715 -0.0350
 9552SOL    HW140292   1.194   1.837   5.359 -0.4314  1.5406  1.2105
 9552SOL    HW240293   1.315   1.891   5.287 -0.6366 -1.1421 -2.3880
 9553SOL     OW40294   3.644   3.560  12.140  0.1887  0.6681 -0.5107
 9553SOL    HW140295   3.702   3.579  12.066  0.2802  0.2257 -0.5474
 9553SOL    HW240296   3.671   3.470  12.157  1.4681  0.8059 -1.8632
 9554SOL     OW40297   4.638   3.645   5.190 -0.9378  0.2871 -0.7827
 9554SOL    HW140298   4.693   3.588   5.137 -0.4939 -1.0121  1.0780
 9554SOL    HW240299   4.586   3.585   5.243  1.5257  0.3552  1.6686
 9555SOL     OW40300   4.584   1.828   2.156 -0.7625  0.1327  0.4393
 9555SOL    HW140301   4.535   1.884   2.216 -1.2377  0.6098 -0.3881
 9555SOL    HW240302   4.571   1.739   2.189  1.1035  1.1081  3.8113
 9556SOL     OW40303   1.052   1.411   0.925  0.0997  0.5052  0.2032
 9556SOL    HW140304   1.066   1.505   0.909 -0.7288  0.5662 -0.1212
 9556SOL    HW240305   0.966   1.388   0.892  1.4936  0.6745 -3.5848
 9557SOL     OW40306   2.385   1.768   5.579 -0.2709  0.2330 -0.2792
 9557SOL    HW140307   2.331   1.841   5.548 -1.1525 -0.7752 -1.1021
 9557SOL    HW240308   2.391   1.713   5.501 -2.1262 -1.5053  0.7843
 9558SOL     OW40309   4.188   0.138   9.205  0.1245 -0.2458 -0.3202
 9558SOL    HW140310   4.236   0.187   9.137  2.4586 -3.8239 -1.2718
 9558SOL    HW240311   4.163   0.060   9.156  0.0699 -0.2789 -0.2386
 9559SOL     OW40312   2.881   2.251   2.911 -0.7822 -0.5156  0.3718
 9559SOL    HW140313   2.972   2.258   2.884 -1.1782  0.5552 -0.7270
 9559SOL    HW240314   2.847   2.335   2.880 -3.1608 -0.7229  2.3753
 9560SOL     OW40315   2.972   3.316   0.685 -0.0178 -0.2815  0.0455
 9560SOL    HW140316   3.062   3.295   0.661  0.0112 -1.2967  1.0238
 9560SOL    HW240317   2.966   3.411   0.691 -1.4590 -0.2906 -1.2265
 9561SOL     OW40318   3.325   0.506  11.793  0.2714 -0.1841 -0.2829
 9561SOL    HW140319   3.244   0.468  11.826  0.4185  1.7898  2.3328
 9561SOL    HW240320   3.290   0.548  11.714  1.0079 -0.1548 -0.5925
 9562SOL     OW40321   4.356   3.168   3.913 -0.0626 -0.0091 -0.3328
 9562SOL    HW140322   4.445   3.191   3.940  0.1548 -0.4706 -0.6605
 9562SOL    HW240323   4.377   3.142   3.824 -2.4378  1.6982 -1.4065
 9563SOL     OW40324   3.655   1.687  16.136 -0.2627 -0.3797  0.5616
 9563SOL    HW140325   3.593   1.698  16.064 -0.8899  0.6963  1.2649
 9563SOL    HW240326   3.732   1.705  16.082 -1.0588 -0.3682 -0.5873
 9564SOL     OW40327   1.804   4.492   2.810  1.1620 -0.0935  0.1881
 9564SOL    HW140328   1.764   4.407   2.790  2.6272 -0.3092 -1.7569
 9564SOL    HW240329   1.738   4.555   2.782  0.0717 -1.4305 -0.2649
 9565SOL     OW40330   0.570   0.530   1.749  0.0002  0.1910  0.1424
 9565SOL    HW140331   0.634   0.601   1.745  1.4720 -1.1871 -0.8598
 9565SOL    HW240332   0.540   0.544   1.839 -0.8092  0.0418 -0.0981
 9566SOL     OW40333   1.694   0.355   3.647 -0.8010 -0.2769 -0.0915
 9566SOL    HW140334   1.620   0.333   3.591 -1.3725  1.9500 -0.1864
 9566SOL    HW240335   1.706   0.447   3.624 -1.0704  0.4356  2.6070
 9567SOL     OW40336   0.278   2.926   1.187  0.3035  0.6288 -0.1366
 9567SOL    HW140337   0.366   2.956   1.162  0.4997 -0.3602 -0.6079
 9567SOL    HW240338   0.217   2.999   1.170 -0.8082 -0.4137 -0.6300
 9568SOL     OW40339   1.866   3.109   5.903 -0.7545  0.1861  0.0514
 9568SOL    HW140340   1.829   3.053   5.835  1.5776  1.3274 -2.1524
 9568SOL    HW240341   1.855   3.194   5.861 -0.7503  0.2849  0.2479
 9569SOL     OW40342   1.705   3.500   7.136 -0.2728 -0.5747  0.0531
 9569SOL    HW140343   1.637   3.551   7.179 -2.1617 -1.1091 -2.3360
 9569SOL    HW240344   1.670   3.412   7.150  1.1737 -1.0941  0.4852
   4.73717   4.73717  17.74699
