Membrane in water
40344
    1TMC1    C1    1   1.620   4.553  11.889 -0.5717 -0.1527 -0.7203
    1TMC1    C2    2   1.606   4.604  11.767 -0.4249 -0.6019 -0.7464
    1TMC1    C3    3   1.702   4.686  11.722 -0.6761 -0.4180 -0.2264
    1TMC1    C4    4   1.730   4.584  11.967 -0.2481 -0.3965  0.6938
    1TMC1    C5    5   1.821   4.677  11.923  0.3426 -0.5022 -0.2555
    1TMC1    C6    6   1.813   4.719  11.794 -0.2882 -0.3638  0.3537
    1TMC1     C    7   1.517   4.449  11.925 -0.9216  0.2043  0.5223
    1TMC1     O    8   1.406   4.459  11.882  0.6683  0.0807  0.2048
    1TMC1     H    9   1.522   4.579  11.703  0.2995 -0.2277 -1.8544
    1TMC1    H1   10   1.743   4.539  12.065  2.5365  1.1887  1.0520
    1TMC1    H2   11   1.891   0.043  11.746 -0.5985 -0.3007 -0.0678
    1TMC1    C7   12   1.932   4.711  12.010 -0.2187  0.8471  0.5015
    1TMC1    C8   13   1.708   4.729  11.582  0.0307 -0.0348  0.2039
    1TMC1    O1   14   1.998   4.628  12.067 -0.0227  0.9893 -0.4238
    1TMC1    O2   15   1.625   4.701  11.495 -0.3419  0.5175 -0.0337
    1TMC1    O3   16   1.927   0.112  12.025 -0.9169  0.2042 -0.9452
    1TMC1    H3   17   1.862   0.148  11.961 -0.1407 -1.8442 -2.8791
    1TMC1    O5   18   1.743   0.116  11.598  0.6504  0.6843  0.1049
    1TMC1    H5   19   1.769   0.140  11.689 -0.4150  0.4691  0.4564
    2MPD2     C   20   1.378   4.006  12.144  0.5625 -0.8998  0.2678
    2MPD2    C1   21   1.297   4.112  12.093 -0.2381  0.2038  0.2490
    2MPD2    C2   22   1.365   4.220  12.038  0.7189 -0.0397 -0.3895
    2MPD2    C3   23   1.503   4.224  12.035 -0.1709  0.2096  0.1000
    2MPD2    C4   24   1.572   4.120  12.070 -0.1704  0.5232 -0.0973
    2MPD2    C5   25   1.509   4.006  12.127 -0.7636 -0.1027  0.3974
    2MPD2     H   26   1.301   4.301  12.005 -0.6798 -0.7228  0.6402
    2MPD2    H1   27   1.680   4.118  12.056 -0.2002 -0.8751 -0.2051
    2MPD2    H2   28   1.343   3.917  12.195 -0.8190 -0.2814  0.4017
    2MPD2    H3   29   1.567   3.922  12.162 -0.8447  0.2183  1.3036
    2MPD2     N   30   1.574   4.339  11.989 -0.1001 -0.5178 -0.9008
    2MPD2    H5   31   1.674   4.326  11.987  0.0618  0.7176 -0.2876
    2MPD2    N1   32   1.154   4.110  12.091  0.5754  0.2566 -0.2894
    2MPD2    H7   33   1.103   4.190  12.055 -1.0801 -1.4602 -1.6857
    3TMC1    C1   34   1.051   0.084  11.156 -0.2278 -0.1454  0.1310
    3TMC1    C2   35   1.130   0.196  11.169 -0.1828  0.4474  0.3818
    3TMC1    C3   36   1.259   0.180  11.139  0.3770  0.5051 -0.2884
    3TMC1    C4   37   1.100   4.699  11.106  0.6860  0.2466  0.7818
    3TMC1    C5   38   1.226   4.696  11.067 -0.2275 -0.9048  0.1386
    3TMC1    C6   39   1.311   0.068  11.086  0.4750  0.4773 -0.1205
    3TMC1     C   40   0.904   0.093  11.156 -0.9593 -0.2444  0.6939
    3TMC1     O   41   0.836   4.725  11.162  0.7541 -0.1959 -0.4816
    3TMC1     H   42   1.095   0.295  11.197  0.3934  0.9795 -0.8167
    3TMC1    H1   43   1.028   4.618  11.102  1.9539 -0.8218 -0.2854
    3TMC1    H2   44   1.415   0.061  11.056 -0.0649 -0.5763 -1.7488
    3TMC1    C7   45   1.278   4.585  10.992 -0.8013 -0.3937  0.4928
    3TMC1    C8   46   1.331   0.301  11.142 -0.1620 -0.4504  0.1606
    3TMC1    O1   47   1.403   4.570  10.973  0.4739  0.3307  0.3449
    3TMC1    O2   48   1.274   0.407  11.146 -0.6397  0.1631 -0.9948
    3TMC1    O3   49   1.180   4.522  10.924  0.5439  0.2202  0.3586
    3TMC1    H3   50   1.111   4.582  10.889  0.2382 -0.9957 -1.1395
    3TMC1    O5   51   1.462   0.285  11.164 -0.2698  0.3432  0.2485
    3TMC1    H5   52   1.493   0.193  11.175  1.0901  0.6799 -0.8497
    4MPD2     C   53   0.474   0.372  11.139  0.1509 -0.4224 -0.2597
    4MPD2    C1   54   0.567   0.449  11.069  1.0155  0.1688 -0.0509
    4MPD2    C2   55   0.693   0.388  11.062  0.1791 -0.4009 -0.5146
    4MPD2    C3   56   0.723   0.265  11.128  0.1717  1.0030 -0.6730
    4MPD2    C4   57   0.623   0.190  11.183  0.3443  0.8728  0.3220
    4MPD2    C5   58   0.494   0.240  11.177  0.2626  0.7961 -0.5728
    4MPD2     H   59   0.769   0.440  11.004  0.2585  0.8037  0.6886
    4MPD2    H1   60   0.637   0.091  11.224 -2.2419  0.2762 -0.2283
    4MPD2    H2   61   0.371   0.406  11.150 -0.1566 -0.8107 -1.8982
    4MPD2    H3   62   0.416   0.190  11.233  1.8813  0.5675  1.5059
    4MPD2     N   63   0.857   0.223  11.134  0.1995 -0.2024  0.2578
    4MPD2    H5   64   0.925   0.294  11.108  1.2790 -1.4615 -0.3786
    4MPD2    N1   65   0.543   0.581  11.020 -0.1710  0.0939 -0.5431
    4MPD2    H7   66   0.622   0.627  10.977 -1.4090  3.0449  0.3091
    5TCq1    O1   67   2.135   2.765  11.603  0.3991  0.0749 -0.4841
    5TCq1    C1   68   2.064   2.663  11.553  0.3359  0.2023 -0.0196
    5TCq1    O2   69   2.060   2.634  11.435 -0.5915 -0.3119 -0.1229
    5TCq1    C2   70   1.943   2.649  11.633 -0.5011  0.0142  0.3153
    5TCq1    C3   71   1.957   2.678  11.764 -0.2872 -0.6904 -0.0117
    5TCq1    C4   72   1.869   2.617  11.851  0.3960 -0.5586 -0.3555
    5TCq1    C5   73   1.775   2.535  11.797 -0.8072  0.3165 -0.2220
    5TCq1    C6   74   1.760   2.512  11.664  0.0672 -0.6047 -0.3088
    5TCq1    C7   75   1.850   2.565  11.580  0.4968  0.8575 -0.1329
    5TCq1    C8   76   1.662   2.424  11.607 -0.6026 -0.6525  0.6659
    5TCq1    O4   77   1.684   2.390  11.490  0.2689  1.1104 -0.0455
    5TCq1    C9   78   1.870   2.653  11.988  0.0211 -0.0762  0.5611
    5TCq1    O5   79   1.796   2.581  12.064  0.1871  0.1638 -0.7206
    5TCq1    O6   80   1.907   2.770  12.018 -0.0456  0.9556  0.4313
    5TCq1    H1   81   2.140   2.757  11.701 -0.0391  1.4167 -0.3595
    5TCq1    H2   82   2.020   2.756  11.805  0.4795 -0.8475 -0.9056
    5TCq1    H3   83   1.693   2.509  11.864 -0.9708 -1.1061 -0.9697
    5TCq1    H4   84   1.848   2.552  11.473 -1.0636 -0.2141  0.0423
    6MPD2     C   85   1.312   2.398  11.705  0.4932 -0.5082 -0.4910
    6MPD2    C1   86   1.420   2.366  11.639  0.3559  0.5968 -0.4138
    6MPD2    C2   87   1.406   2.294  11.518 -0.1552  0.2393  0.0120
    6MPD2    C3   88   1.286   2.253  11.478  0.4826  0.0598 -0.1140
    6MPD2    C4   89   1.172   2.281  11.552 -0.3988 -0.5962 -0.0197
    6MPD2    C5   90   1.188   2.352  11.672  0.1955 -0.2855 -0.1014
    6MPD2     H   91   1.493   2.273  11.457 -1.6004 -2.0187 -1.2682
    6MPD2    H1   92   1.071   2.246  11.536 -0.2739 -0.1299 -1.7543
    6MPD2    H2   93   1.324   2.456  11.795  0.6613  0.3360 -1.0619
    6MPD2    H3   94   1.102   2.378  11.733 -1.7640 -0.1451 -2.8781
    6MPD2     N   95   1.286   2.162  11.366 -0.2798 -0.7727 -0.0024
    6MPD2    H5   96   1.375   2.149  11.318 -2.1140 -4.0495 -2.5221
    6MPD2    N1   97   1.545   2.419  11.685 -0.2229 -0.7307  0.0144
    6MPD2    H7   98   1.541   2.479  11.767  2.8582  1.0417 -1.1594
    7TCq1    O1   99   3.789   1.931  13.591 -0.1803 -0.9029 -0.0865
    7TCq1    C1  100   3.739   2.014  13.491 -0.1659  0.3210  0.4149
    7TCq1    O2  101   3.796   2.117  13.452 -0.2351  0.2911  0.0444
    7TCq1    C2  102   3.594   1.995  13.465 -0.1823  0.2353  0.7996
    7TCq1    C3  103   3.519   2.098  13.413 -0.4350  0.7627  0.1653
    7TCq1    C4  104   3.385   2.068  13.377 -0.7607 -0.0762 -0.1535
    7TCq1    C5  105   3.329   1.945  13.408 -0.3149  0.5095 -0.0998
    7TCq1    C6  106   3.402   1.858  13.482 -0.6073  0.5132  0.2856
    7TCq1    C7  107   3.541   1.878  13.502 -0.3779 -0.2729 -0.2087
    7TCq1    C8  108   3.349   1.727  13.492  0.3806  0.4401 -0.7678
    7TCq1    O4  109   3.429   1.633  13.489 -0.0425  0.2622 -0.2442
    7TCq1    C9  110   3.303   2.157  13.296 -0.3267  0.6970  0.3030
    7TCq1    O5  111   3.185   2.127  13.266  0.2065  0.0634 -0.3009
    7TCq1    O6  112   3.351   2.273  13.273  0.1626  0.5966  0.2625
    7TCq1    H1  113   3.726   1.860  13.617  0.4833 -0.3902  2.8820
    7TCq1    H2  114   3.560   2.198  13.397 -0.8280  0.9154  0.1133
    7TCq1    H3  115   3.227   1.929  13.376 -0.9183 -0.1562  2.1923
    7TCq1    H4  116   3.597   1.798  13.549 -1.2601 -0.9076 -0.2371
    8MPD2     C  117   2.995   1.363  13.399 -0.2247 -0.2046 -0.4212
    8MPD2    C1  118   3.132   1.356  13.386 -0.3658 -0.4405 -0.0802
    8MPD2    C2  119   3.206   1.467  13.423 -0.3566 -0.1776 -0.4802
    8MPD2    C3  120   3.140   1.587  13.451  0.4519  0.2164 -0.3726
    8MPD2    C4  121   2.998   1.597  13.449 -1.3573 -0.4350 -0.0740
    8MPD2    C5  122   2.929   1.479  13.430  0.1225  0.0985  1.1041
    8MPD2     H  123   3.313   1.467  13.434 -0.6501 -0.5177  2.3897
    8MPD2    H1  124   2.931   1.671  13.490 -1.0352 -1.0014  1.4834
    8MPD2    H2  125   2.933   1.275  13.387  0.0163 -0.3893 -0.3094
    8MPD2    H3  126   2.821   1.477  13.439 -0.3050  1.7129 -3.6642
    8MPD2     N  127   3.210   1.708  13.481  0.1161  0.4368 -0.3158
    8MPD2    H5  128   3.154   1.791  13.496  0.0231  0.4454 -0.6998
    8MPD2    N1  129   3.183   1.222  13.352 -0.3695  0.5763 -0.4928
    8MPD2    H7  130   3.112   1.157  13.321 -3.1564  2.9496  0.9306
    9TMC1    C1  131   0.815   1.283  11.499  0.0229 -0.3385 -0.1111
    9TMC1    C2  132   0.766   1.270  11.628 -0.6655 -0.2482 -0.1731
    9TMC1    C3  133   0.644   1.324  11.657  0.6034  0.6625 -0.2859
    9TMC1    C4  134   0.739   1.334  11.398 -0.2810 -0.5674 -0.1487
    9TMC1    C5  135   0.611   1.364  11.434  0.5083 -0.4516 -0.5818
    9TMC1    C6  136   0.567   1.368  11.557 -0.2290 -0.0066 -0.4026
    9TMC1     C  137   0.921   1.192  11.446  0.0620 -0.0192 -0.1648
    9TMC1     O  138   0.968   1.236  11.341 -0.9314 -1.1345  0.1193
    9TMC1     H  139   0.829   1.233  11.708 -1.4819 -1.6080 -0.1676
    9TMC1    H1  140   0.766   1.327  11.294  1.4724 -0.8942  0.3333
    9TMC1    H2  141   0.464   1.398  11.572  0.1216  1.6376 -1.3624
    9TMC1    C7  142   0.528   1.374  11.317 -0.6106 -0.3144  0.3513
    9TMC1    C8  143   0.584   1.300  11.787  0.4637 -0.3246 -1.0275
    9TMC1    O1  144   0.566   1.396  11.206  0.4618 -0.3680 -0.0418
    9TMC1    O2  145   0.494   1.372  11.825  0.4195  0.0059 -0.2162
    9TMC1    O3  146   0.423   1.299  11.349  0.1986  0.4025 -0.4818
    9TMC1    H3  147   0.421   1.258  11.438  0.2904  0.7313 -0.3324
    9TMC1    O5  148   0.627   1.180  11.838 -0.4303  0.6685  0.1749
    9TMC1    H5  149   0.676   1.127  11.772 -0.1172  0.4315  0.5939
   10MPD2     C  150   1.115   0.968  11.393 -0.5922 -0.1130 -0.1688
   10MPD2    C1  151   1.013   0.968  11.478 -1.0622  0.2214  0.1627
   10MPD2    C2  152   0.991   0.850  11.552  0.1565 -0.4611 -0.2827
   10MPD2    C3  153   1.084   0.747  11.536  0.0873 -0.4138  1.0702
   10MPD2    C4  154   1.195   0.756  11.455 -0.2159 -0.0448  0.6857
   10MPD2    C5  155   1.202   0.867  11.381  0.0535  0.4992  0.4540
   10MPD2     H  156   0.912   0.851  11.626 -0.5234  2.5878 -1.0360
   10MPD2    H1  157   1.274   0.682  11.460 -0.6854 -0.7209 -1.7528
   10MPD2    H2  158   1.136   1.063  11.345 -1.3189 -0.1495 -0.5586
   10MPD2    H3  159   1.295   0.880  11.327 -2.0141 -1.3275 -3.5525
   10MPD2     N  160   1.075   0.624  11.615  0.3101 -0.1513 -0.1902
   10MPD2    H5  161   1.153   0.559  11.609  0.3562 -0.3107  2.2216
   10MPD2    N1  162   0.922   1.068  11.503 -0.0805 -0.2178  0.0235
   10MPD2    H7  163   0.848   1.048  11.569 -0.6335  3.3056  0.4826
   11TCq1    O1  164   0.954   0.458  14.111 -0.9288 -0.4389 -0.5960
   11TCq1    C1  165   0.971   0.380  14.224 -0.5575 -0.9281 -0.5862
   11TCq1    O2  166   1.047   0.404  14.319 -0.2543 -0.4424 -0.0982
   11TCq1    C2  167   0.869   0.281  14.231  0.0845 -0.6808  0.1838
   11TCq1    C3  168   0.783   0.243  14.128  0.2524  0.4403  0.4746
   11TCq1    C4  169   0.694   0.140  14.151  0.1213 -0.2931 -1.3071
   11TCq1    C5  170   0.681   0.074  14.272 -0.5050  0.0180  0.8661
   11TCq1    C6  171   0.759   0.121  14.371  0.7207 -0.2929  0.0702
   11TCq1    C7  172   0.853   0.220  14.356 -0.1588  1.1741  0.6369
   11TCq1    C8  173   0.773   0.040  14.490 -0.1515  0.7089  0.0624
   11TCq1    O4  174   0.802   0.092  14.597 -0.0218  0.8085  0.0756
   11TCq1    C9  175   0.606   0.102  14.044 -0.5537 -0.5672  0.3556
   11TCq1    O5  176   0.546   4.726  14.054 -0.7276  0.3258 -0.2236
   11TCq1    O6  177   0.578   0.200  13.966 -0.3398 -0.2524  0.9436
   11TCq1    H1  178   0.879   0.433  14.052 -0.8663 -0.6322 -0.5918
   11TCq1    H2  179   0.800   0.278  14.027  0.2372 -0.7647  0.0526
   11TCq1    H3  180   0.596   0.008  14.284  0.4104 -1.8777 -2.8740
   11TCq1    H4  181   0.910   0.258  14.440  2.8075  0.1838 -0.9658
   12MPD2     C  182   0.909   4.558  14.647 -0.2500 -0.4377 -0.0795
   12MPD2    C1  183   0.852   4.534  14.523  0.1537 -0.3498  0.2292
   12MPD2    C2  184   0.877   4.418  14.450 -0.7948 -0.1128  0.1822
   12MPD2    C3  185   0.957   4.321  14.495 -0.5632 -0.1759  0.1890
   12MPD2    C4  186   1.005   4.338  14.622 -0.0634 -0.5267  0.1981
   12MPD2    C5  187   0.986   4.455  14.695 -0.6459  0.3316  0.3811
   12MPD2     H  188   0.836   4.406  14.350  2.2065  1.0017 -1.1734
   12MPD2    H1  189   1.063   4.261  14.671  1.5674  0.3036 -0.4339
   12MPD2    H2  190   0.886   4.645  14.707 -2.1738 -1.7454  1.0671
   12MPD2    H3  191   1.015   4.457  14.800 -1.1382 -1.5312  0.5465
   12MPD2     N  192   1.002   4.201  14.419 -1.1385 -0.0556 -0.2353
   12MPD2    H5  193   1.066   4.134  14.460  0.4652  0.5104 -1.8035
   12MPD2    N1  194   0.789   4.639  14.450 -0.3183 -0.2374  0.4757
   12MPD2    H7  195   0.776   4.608  14.354 -1.0129 -1.8560  1.0871
   13TCq1    O1  196   1.674   0.833  11.699 -0.2159  0.0490 -0.7564
   13TCq1    C1  197   1.559   0.760  11.699  0.3685 -0.0624  0.0048
   13TCq1    O2  198   1.451   0.810  11.675  0.1853 -0.8296  0.0970
   13TCq1    C2  199   1.596   0.620  11.668  0.0515  0.5007 -0.5667
   13TCq1    C3  200   1.655   0.554  11.773 -0.0356 -0.1545 -0.3131
   13TCq1    C4  201   1.642   0.419  11.778 -0.2780  0.6249  0.4378
   13TCq1    C5  202   1.576   0.348  11.685  0.0909 -0.5002  0.0018
   13TCq1    C6  203   1.517   0.417  11.578 -0.4587 -0.8364 -0.2568
   13TCq1    C7  204   1.523   0.556  11.576 -0.0087 -1.2560 -0.2127
   13TCq1    C8  205   1.391   0.365  11.525  0.3293  0.2266 -0.4354
   13TCq1    O4  206   1.293   0.440  11.517 -0.3852  0.2728 -0.1418
   13TCq1    C9  207   1.697   0.351  11.890  0.3395  0.2224  0.0628
   13TCq1    O5  208   1.697   0.416  12.001  0.0465  0.0031  0.7050
   13TCq1    O6  209   1.771   0.254  11.858 -0.0961  0.0953 -0.5554
   13TCq1    H1  210   1.754   0.781  11.724 -2.5408 -0.9100  4.8034
   13TCq1    H2  211   1.699   0.604  11.858 -0.0324 -2.3461  0.9893
   13TCq1    H3  212   1.560   0.242  11.697  1.2065 -0.5437  1.2037
   13TCq1    H4  213   1.470   0.615  11.501  1.8226 -0.2931 -0.7572
   14MPD2     C  214   1.301   0.017  11.518  0.3626 -0.4264 -0.3118
   14MPD2    C1  215   1.279   0.151  11.505  0.1579 -0.7708  0.0354
   14MPD2    C2  216   1.147   0.201  11.490  0.1700  0.0211  0.6536
   14MPD2    C3  217   1.040   0.120  11.500  0.6377  0.3633  0.2036
   14MPD2    C4  218   1.062   4.718  11.505  0.5534 -1.0574  1.0614
   14MPD2    C5  219   1.191   4.670  11.508  0.4335  0.3486  0.3971
   14MPD2     H  220   1.116   0.305  11.484  0.2699  0.1278  1.9746
   14MPD2    H1  221   0.984   4.643  11.503  1.0082 -1.4717 -0.9726
   14MPD2    H2  222   1.397   4.709  11.543  0.3283 -1.3434 -1.7106
   14MPD2    H3  223   1.202   4.562  11.515 -3.0276 -0.0808 -0.6937
   14MPD2     N  224   0.907   0.175  11.503 -0.2184  0.4018  0.0008
   14MPD2    H5  225   0.889   0.273  11.483 -3.0163 -0.2750 -0.8258
   14MPD2    N1  226   1.395   0.226  11.523 -0.1051  0.0666 -0.6637
   14MPD2    H7  227   1.481   0.180  11.550 -0.6421 -0.4249  0.1887
   15TCq1    O1  228   2.794   3.913   2.837 -0.6876  0.5664  0.3313
   15TCq1    C1  229   2.818   3.919   2.707 -0.0854 -0.2585  0.1586
   15TCq1    O2  230   2.931   3.931   2.665  0.1676  0.3192  0.1701
   15TCq1    C2  231   2.694   3.903   2.629  0.6214  0.4441  0.2683
   15TCq1    C3  232   2.581   3.927   2.694  0.9279 -1.0186 -0.2049
   15TCq1    C4  233   2.467   3.896   2.630 -0.3964 -0.6930  0.0254
   15TCq1    C5  234   2.461   3.836   2.506  0.2133 -0.2426 -0.0423
   15TCq1    C6  235   2.586   3.824   2.441 -0.2706  0.5150 -0.4136
   15TCq1    C7  236   2.697   3.868   2.505  0.5628  0.0106 -0.0542
   15TCq1    C8  237   2.607   3.759   2.314  0.7366 -0.6515 -0.3031
   15TCq1    O4  238   2.716   3.779   2.264  0.2025 -0.1149 -0.1899
   15TCq1    C9  239   2.338   3.927   2.698  0.8828 -0.7925 -0.5300
   15TCq1    O5  240   2.331   3.977   2.814 -0.2774  0.4180 -0.1242
   15TCq1    O6  241   2.237   3.925   2.625 -0.5048  0.3669 -0.0616
   15TCq1    H1  242   2.717   3.857   2.860 -0.1756 -1.0626 -2.0073
   15TCq1    H2  243   2.578   3.978   2.790 -0.8808  0.7901 -1.2382
   15TCq1    H3  244   2.364   3.828   2.459 -0.2099  1.2114  0.5886
   15TCq1    H4  245   2.792   3.858   2.453  0.3847  0.1084 -0.3908
   16MPD2     C  246   2.353   3.619   2.096 -0.0560  0.1839 -0.0922
   16MPD2    C1  247   2.481   3.651   2.136  0.2794 -0.5875 -0.6105
   16MPD2    C2  248   2.581   3.650   2.036  0.3385  0.5080  1.0882
   16MPD2    C3  249   2.551   3.594   1.910 -0.2451  0.1456  0.3567
   16MPD2    C4  250   2.425   3.545   1.886 -0.4713 -0.1284 -0.2515
   16MPD2    C5  251   2.325   3.563   1.972  0.1254  0.1919 -0.1114
   16MPD2     H  252   2.687   3.665   2.057  1.0474 -2.4601 -0.2340
   16MPD2    H1  253   2.400   3.500   1.791  0.7789  0.9241 -1.0821
   16MPD2    H2  254   2.270   3.636   2.164  0.7933  1.0173  0.7215
   16MPD2    H3  255   2.225   3.528   1.949 -0.9967  2.2980  1.5838
   16MPD2     N  256   2.658   3.566   1.821  0.4138 -0.2644 -0.0340
   16MPD2    H5  257   2.752   3.595   1.845 -0.1270  0.4499  1.2275
   16MPD2    N1  258   2.496   3.703   2.266  0.3296 -0.3847  0.1622
   16MPD2    H7  259   2.417   3.698   2.330 -0.9048 -0.4705 -1.3696
   17TMC1    C1  260   0.779   3.854  10.725  0.4884 -0.2514  0.7771
   17TMC1    C2  261   0.678   3.757  10.712 -0.0326 -0.0398 -0.4868
   17TMC1    C3  262   0.615   3.705  10.825  0.3237 -0.6352 -0.1910
   17TMC1    C4  263   0.821   3.907  10.849 -0.0967 -0.8646  0.3770
   17TMC1    C5  264   0.753   3.846  10.955  0.0377  0.5546  0.2848
   17TMC1    C6  265   0.658   3.741  10.951  0.5826 -1.1146  0.2521
   17TMC1     C  266   0.857   3.894  10.605  0.1420 -0.5281 -0.6889
   17TMC1     O  267   0.800   3.879  10.497  0.8323  0.1808 -0.1497
   17TMC1     H  268   0.651   3.726  10.612 -1.4240  0.4474 -0.2629
   17TMC1    H1  269   0.880   3.998  10.858 -1.1896  0.0443 -1.7054
   17TMC1    H2  270   0.623   3.692  11.041  0.2590 -0.1104  0.6817
   17TMC1    C7  271   0.799   3.881  11.089 -0.2630 -0.0899  0.1073
   17TMC1    C8  272   0.520   3.592  10.800  0.0287 -0.1686 -0.2516
   17TMC1    O1  273   0.727   3.882  11.187 -0.4387  0.0194  0.2148
   17TMC1    O2  274   0.549   3.510  10.714 -0.2160 -0.3260 -0.3923
   17TMC1    O3  275   0.912   3.951  11.083 -0.4122 -0.1099 -0.5246
   17TMC1    H3  276   0.973   3.920  11.013 -2.9532  0.8969 -3.1745
   17TMC1    O5  277   0.467   3.557  10.925 -0.1115 -0.3619  0.0213
   17TMC1    H5  278   0.433   3.636  10.973  1.5258 -0.4894  1.3578
   18MPD2     C  279   1.083   3.921  10.405  0.3439  0.4264 -0.6870
   18MPD2    C1  280   1.090   3.966  10.538  0.2343  0.3874  0.1413
   18MPD2    C2  281   1.207   4.026  10.582  0.5369  0.0407  0.9408
   18MPD2    C3  282   1.315   4.047  10.492  1.0807 -0.0003 -0.0506
   18MPD2    C4  283   1.295   4.008  10.361 -0.0206  0.0711 -0.3069
   18MPD2    C5  284   1.187   3.939  10.318 -0.9162  0.4146  0.1232
   18MPD2     H  285   1.212   4.046  10.689  0.5271  1.7074  0.6303
   18MPD2    H1  286   1.376   4.020  10.290 -0.7736  1.3793 -0.9418
   18MPD2    H2  287   1.000   3.862  10.367 -0.4909  3.0103 -2.8450
   18MPD2    H3  288   1.186   3.911  10.213 -1.6936  1.4053 -0.1319
   18MPD2     N  289   1.426   4.122  10.520  0.8613 -0.4669 -0.3654
   18MPD2    H5  290   1.493   4.148  10.448  1.6037 -1.9306 -0.1985
   18MPD2    N1  291   0.984   3.939  10.628 -0.2808  0.6006  0.0264
   18MPD2    H7  292   1.009   3.951  10.725  3.0510 -1.3654 -0.5945
   19TMC2    C1  293   2.381   0.201  14.346 -0.5794 -0.1575  0.8406
   19TMC2    C2  294   2.305   0.279  14.430 -0.3674 -0.3177  0.4684
   19TMC2    C3  295   2.173   0.242  14.461  0.4588 -0.4020  0.5701
   19TMC2    C4  296   2.322   0.108  14.270 -0.1905 -0.4671  0.5178
   19TMC2    C5  297   2.190   0.076  14.291  0.0146  0.0346 -0.0783
   19TMC2    C6  298   2.119   0.131  14.396  0.0744 -0.5177 -0.0587
   19TMC2     C  299   2.521   0.247  14.323  0.7265 -0.4648 -0.2088
   19TMC2     O  300   2.562   0.343  14.384  0.0213 -0.3433  0.4437
   19TMC2     H  301   2.360   0.357  14.482 -0.9011 -0.0781  0.6764
   19TMC2    H1  302   2.374   0.058  14.189  0.0329 -0.0510  0.4060
   19TMC2    H2  303   2.021   0.097  14.426  0.4650 -0.4209  1.3496
   19TMC2    C7  304   2.132   4.708  14.214  0.0277 -0.0400  0.4786
   19TMC2    C8  305   2.095   0.308  14.564  0.1336 -0.4263  0.3601
   19TMC2    O1  306   2.199   4.635  14.142 -0.1555 -0.3161  0.3156
   19TMC2    O2  307   1.987   0.265  14.596  0.1314 -0.0606 -0.1701
   19TMC2    O5  308   2.181   0.356  14.660  0.1751  0.3462  0.2162
   19TMC2    H5  309   2.258   0.406  14.626 -0.3611  0.4008 -0.9479
   20MPD2     C  310   2.810   0.271  14.293  0.4880 -0.0652 -0.4492
   20MPD2    C1  311   2.737   0.147  14.275  1.2886 -0.4166 -0.2301
   20MPD2    C2  312   2.806   0.030  14.287 -0.0221  0.2376 -0.0487
   20MPD2    C3  313   2.947   0.037  14.331 -0.8213  0.5501  0.1870
   20MPD2    C4  314   3.008   0.162  14.354 -0.1331  0.5813 -0.9289
   20MPD2    C5  315   2.938   0.273  14.339  0.4633 -0.5033  0.3492
   20MPD2     H  316   2.751   4.671  14.291  1.0089 -0.4336 -1.3976
   20MPD2    H1  317   3.114   0.175  14.370 -0.1126 -1.2815  0.4556
   20MPD2    H2  318   2.761   0.365  14.271 -0.5846 -0.7683 -1.0769
   20MPD2    H3  319   2.988   0.368  14.342 -0.1535 -0.2508  2.5595
   20MPD2     N  320   3.025   4.655  14.359 -0.4611  0.0582 -0.6286
   20MPD2    H5  321   3.118   4.682  14.391  0.5587 -1.3511 -2.3953
   20MPD2    N1  322   2.598   0.146  14.268  0.1266 -0.0898 -0.2325
   20MPD2    H7  323   2.561   0.052  14.255  0.1610 -0.4345  2.2812
   21TMC2    C1  324   0.241   0.087  14.461  0.4867  0.0703 -0.2555
   21TMC2    C2  325   0.244   4.692  14.511  0.1639  0.0741  0.2314
   21TMC2    C3  326   0.168   4.653  14.609 -0.7350 -0.2708  0.2662
   21TMC2    C4  327   0.153   0.182  14.509 -0.3319  0.3234  0.3672
   21TMC2    C5  328   0.073   0.142  14.613 -0.0461 -0.1089 -0.0232
   21TMC2    C6  329   0.089   0.018  14.670 -0.0439  0.0757 -1.1105
   21TMC2     C  330   0.360   0.152  14.416  0.3162 -0.0351 -0.2865
   21TMC2     O  331   0.454   0.138  14.492 -0.5074 -0.2094  0.0468
   21TMC2     H  332   0.321   4.623  14.479  2.4289  2.9291 -0.3646
   21TMC2    H1  333   0.154   0.283  14.470  1.2999  0.2403  0.1832
   21TMC2    H2  334   0.030   0.001  14.760 -0.6393 -1.4587 -1.7909
   21TMC2    C7  335   0.038   0.252  14.696  0.6445  0.7972 -0.0793
   21TMC2    C8  336   0.183   4.534  14.680 -0.3798 -0.0097  0.2331
   21TMC2    O1  337   0.055   0.232  14.816  0.5471  0.2623 -0.3137
   21TMC2    O2  338   0.162   4.521  14.800  0.0952 -0.3016  0.5784
   21TMC2    O5  339   0.169   4.436  14.597  0.0893  0.1524  0.0467
   21TMC2    H5  340   0.144   4.447  14.503  1.0531  1.6530 -0.0315
   22MPD2     C  341   0.560   0.579  14.212 -0.2995 -0.4472  0.9427
   22MPD2    C1  342   0.602   0.512  14.323 -1.1454 -0.1570  0.4048
   22MPD2    C2  343   0.524   0.402  14.359 -0.5661  0.2068  0.9356
   22MPD2    C3  344   0.417   0.354  14.283  0.5545 -0.2854 -0.1038
   22MPD2    C4  345   0.381   0.425  14.165  0.1360  0.7488  0.1818
   22MPD2    C5  346   0.451   0.538  14.138 -0.5129 -0.1060 -0.0536
   22MPD2     H  347   0.545   0.346  14.449 -0.8376  1.5728  1.8473
   22MPD2    H1  348   0.298   0.401  14.100 -1.5138  0.8559  2.2117
   22MPD2    H2  349   0.605   0.671  14.177 -0.6976 -0.3965  0.5680
   22MPD2    H3  350   0.420   0.610  14.062  1.7265 -0.3229 -1.1686
   22MPD2     N  351   0.332   0.244  14.319  0.2270  0.5848 -0.0607
   22MPD2    H5  352   0.247   0.232  14.266  1.0278 -1.1841 -0.9483
   22MPD2    N1  353   0.706   0.554  14.408 -0.1560  0.5373  0.4369
   22MPD2    H7  354   0.723   0.492  14.487  0.4836  0.0498 -0.0812
   23TMC2    C1  355   1.324   2.126  14.777  0.4921  0.9095 -0.0376
   23TMC2    C2  356   1.236   2.212  14.832 -0.6762 -0.5929  0.0644
   23TMC2    C3  357   1.137   2.256  14.747 -0.8976  1.3063 -0.2956
   23TMC2    C4  358   1.314   2.086  14.643 -0.4087 -0.6179 -0.4337
   23TMC2    C5  359   1.213   2.131  14.566 -0.0002  0.3778  0.2031
   23TMC2    C6  360   1.121   2.220  14.614  0.1916  0.0380  0.3277
   23TMC2     C  361   1.417   2.071  14.874  0.0514 -0.9173 -0.4132
   23TMC2     O  362   1.406   2.102  14.990  0.1084  0.1820  0.2613
   23TMC2     H  363   1.247   2.250  14.933 -1.8240  1.0011 -0.4175
   23TMC2    H1  364   1.372   2.002  14.607 -0.5773 -0.5042 -0.9648
   23TMC2    H2  365   1.033   2.252  14.560  0.9241 -0.3828 -1.1151
   23TMC2    C7  366   1.177   2.064  14.439  0.0657  0.2838 -1.2966
   23TMC2    C8  367   1.030   2.344  14.793 -0.5424 -0.4982  0.5213
   23TMC2    O1  368   1.264   2.013  14.367  0.8931 -0.4018  0.6047
   23TMC2    O2  369   0.941   2.389  14.722  0.0230 -0.3712  0.6097
   23TMC2    O5  370   0.997   2.309  14.923  0.7060  0.3108 -0.3093
   23TMC2    H5  371   1.065   2.250  14.961 -0.9357 -1.9868 -0.9122
   24MPD2     C  372   1.828   1.776  14.986  0.5581  0.6735 -0.0453
   24MPD2    C1  373   1.702   1.784  15.050  0.0646  0.1006  0.3244
   24MPD2    C2  374   1.606   1.879  15.006 -0.5404 -0.0384  0.0005
   24MPD2    C3  375   1.626   1.944  14.880  0.7424  0.1920  0.0237
   24MPD2    C4  376   1.740   1.917  14.816 -0.2961  0.3683  0.2318
   24MPD2    C5  377   1.841   1.839  14.867 -0.2090  0.2551 -0.0298
   24MPD2     H  378   1.507   1.891  15.048 -0.8714 -0.1327 -0.7496
   24MPD2    H1  379   1.768   1.965  14.723 -0.9721  0.3234  0.0030
   24MPD2    H2  380   1.913   1.719  15.019  0.3833 -0.0048 -0.7792
   24MPD2    H3  381   1.932   1.820  14.811 -0.4982  2.6366 -1.3116
   24MPD2     N  382   1.532   2.031  14.817  0.4984 -0.3386 -0.1004
   24MPD2    H5  383   1.543   2.041  14.716  0.7224  0.3546 -0.0078
   24MPD2    N1  384   1.679   1.710  15.165 -0.3037  0.4693 -0.0645
   24MPD2    H7  385   1.593   1.704  15.218  0.6423  0.3532  1.4528
   25TMC2    C1  386   1.009   3.696  11.420  0.4359  0.1925 -0.2321
   25TMC2    C2  387   1.108   3.745  11.498 -0.2034  1.0564 -0.3832
   25TMC2    C3  388   1.065   3.807  11.617  0.3290 -0.6879 -0.0826
   25TMC2    C4  389   0.872   3.712  11.446  0.1340 -0.0051  0.3666
   25TMC2    C5  390   0.838   3.779  11.556 -0.3659 -0.3977  0.1889
   25TMC2    C6  391   0.930   3.829  11.643  0.2595  0.8751 -0.0746
   25TMC2     C  392   1.043   3.661  11.286 -0.3704  0.6585 -0.1639
   25TMC2     O  393   1.155   3.690  11.250 -0.1382 -0.0151  0.6907
   25TMC2     H  394   1.212   3.733  11.469 -0.5674 -1.6660 -0.6212
   25TMC2    H1  395   0.789   3.684  11.383  0.0141  0.5131  0.2878
   25TMC2    H2  396   0.911   3.868  11.742  0.1465  0.9775 -0.1374
   25TMC2    C7  397   0.703   3.826  11.564  0.2965  0.4034 -0.0269
   25TMC2    C8  398   1.151   3.857  11.717 -0.7125 -0.7788 -0.2610
   25TMC2    O1  399   0.648   3.876  11.466  0.4755 -0.4954  0.2670
   25TMC2    O2  400   1.123   3.956  11.785 -0.1938  0.0076  0.3012
   25TMC2    O5  401   1.264   3.781  11.726  0.0522  0.2126  0.4273
   25TMC2    H5  402   1.264   3.711  11.657 -2.3101 -0.7444  1.3917
   26MPD2     C  403   0.899   3.478  10.827  1.2970 -0.3013  0.6370
   26MPD2    C1  404   0.817   3.420  10.924  0.4568 -0.3796  0.2215
   26MPD2    C2  405   0.836   3.459  11.056 -0.5129 -0.4841 -0.2313
   26MPD2    C3  406   0.935   3.545  11.090 -0.0861  0.2063  0.5142
   26MPD2    C4  407   1.015   3.608  10.992  0.1632  0.4541 -0.6629
   26MPD2    C5  408   0.997   3.561  10.860 -0.2568  0.1712  0.0605
   26MPD2     H  409   0.789   3.408  11.140  1.1361  0.4196  1.2427
   26MPD2    H1  410   1.094   3.676  11.021 -0.3116  0.0834  1.5315
   26MPD2    H2  411   0.887   3.453  10.722  4.0474  3.5094 -0.5807
   26MPD2    H3  412   1.057   3.604  10.781  2.8599 -5.5006 -0.6835
   26MPD2     N  413   0.952   3.577  11.228  0.2781 -0.6598  0.2820
   26MPD2    H5  414   0.882   3.535  11.288 -1.9325  0.0282 -1.7920
   26MPD2    N1  415   0.727   3.322  10.884 -0.7218  0.4996 -0.8700
   26MPD2    H7  416   0.713   3.311  10.784  2.0690 -0.0225 -1.1868
   27TMC2    C1  417   4.112   1.453  12.231 -0.3639  0.0476 -0.4538
   27TMC2    C2  418   4.220   1.489  12.156  0.3313  0.1397 -1.3109
   27TMC2    C3  419   4.338   1.507  12.226  0.0143 -0.1302  0.3482
   27TMC2    C4  420   4.114   1.453  12.368 -0.1506 -0.3572  0.0223
   27TMC2    C5  421   4.223   1.500  12.433  0.2152  0.7340 -0.2132
   27TMC2    C6  422   4.343   1.520  12.361  1.1742 -0.2736  0.1964
   27TMC2     C  423   3.997   1.401  12.155  0.4074  0.4571  0.5635
   27TMC2     O  424   3.973   1.433  12.041  0.1031  0.5004 -0.1993
   27TMC2     H  425   4.217   1.484  12.048 -0.6843 -0.9265 -1.2313
   27TMC2    H1  426   4.026   1.436  12.429  0.8044 -0.4649  1.3837
   27TMC2    H2  427   4.432   1.556  12.410  1.0325  0.6666 -0.2335
   27TMC2    C7  428   4.221   1.506  12.576  0.1322  0.5027  0.2839
   27TMC2    C8  429   4.451   1.442  12.169  0.1670 -0.0200  0.2823
   27TMC2    O1  430   4.124   1.464  12.636 -0.0857 -0.3192  0.3646
   27TMC2    O2  431   4.455   1.440  12.049 -0.2855  0.2585  0.1396
   27TMC2    O5  432   4.505   1.352  12.251  0.0833 -0.0477 -0.1246
   27TMC2    H5  433   4.489   1.385  12.342 -4.6399  0.2513 -1.0449
   28MPD2     C  434   3.562   1.119  12.144  0.4976 -0.5041  0.0443
   28MPD2    C1  435   3.603   1.137  12.277  0.3577 -0.9601  0.0203
   28MPD2    C2  436   3.715   1.215  12.300 -0.3153 -0.1623  0.1506
   28MPD2    C3  437   3.790   1.258  12.197  0.1201 -0.6043 -0.1637
   28MPD2    C4  438   3.755   1.242  12.070 -0.6138  0.2506  0.4889
   28MPD2    C5  439   3.639   1.180  12.040 -0.9510 -0.2354  0.7227
   28MPD2     H  440   3.743   1.252  12.397  0.2131  0.0701 -0.0917
   28MPD2    H1  441   3.810   1.282  11.985 -1.7953  0.4908 -0.1598
   28MPD2    H2  442   3.466   1.071  12.133 -0.4134  1.3704 -0.2116
   28MPD2    H3  443   3.596   1.179  11.941 -0.1515 -2.5125  0.3936
   28MPD2     N  444   3.906   1.342  12.237 -0.3186  0.3272 -0.7358
   28MPD2    H5  445   3.927   1.338  12.336  0.7736 -0.3763 -0.9941
   28MPD2    N1  446   3.521   1.086  12.389  0.1454  0.4322 -0.1589
   28MPD2    H7  447   3.431   1.043  12.372  0.6916 -1.2689  1.2712
   29TMC2    C1  448   3.451   3.480  14.328 -0.1632  0.3432 -0.1805
   29TMC2    C2  449   3.460   3.415  14.454 -0.4695 -0.9925  0.1459
   29TMC2    C3  450   3.490   3.501  14.554  0.2521 -0.2459 -1.2357
   29TMC2    C4  451   3.492   3.605  14.310 -0.0009 -0.3429 -0.3685
   29TMC2    C5  452   3.547   3.676  14.412  0.0207 -0.4364  0.7251
   29TMC2    C6  453   3.548   3.625  14.543 -0.6527 -0.4233 -0.2285
   29TMC2     C  454   3.422   3.396  14.207  0.8371  0.2138  0.2773
   29TMC2     O  455   3.399   3.465  14.109  0.6030  0.6272 -0.1218
   29TMC2     H  456   3.421   3.315  14.469  1.5931 -1.9838 -1.0310
   29TMC2    H1  457   3.496   3.645  14.209  0.9229 -0.8812 -0.5448
   29TMC2    H2  458   3.572   3.683  14.631 -1.8040 -2.0714  1.1673
   29TMC2    C7  459   3.568   3.816  14.381  0.3482  0.1563  0.3167
   29TMC2    C8  460   3.409   3.467  14.671 -0.3208 -0.4490 -0.2588
   29TMC2    O1  461   3.559   3.859  14.266  0.4904 -0.1492  0.2663
   29TMC2    O2  462   3.383   3.351  14.694 -0.0892 -0.2246  0.7978
   29TMC2    O5  463   3.343   3.571  14.729  0.8097  0.6483 -0.2782
   29TMC2    H5  464   3.358   3.647  14.669  0.0744 -0.2651 -1.6284
   30MPD2     C  465   3.382   2.970  13.929  0.5715  0.0930 -0.2589
   30MPD2    C1  466   3.427   2.934  14.052  0.3217 -0.0601  0.3407
   30MPD2    C2  467   3.467   3.041  14.141  0.5257 -0.1495  0.5557
   30MPD2    C3  468   3.421   3.170  14.113  0.5200 -0.3884  0.1605
   30MPD2    C4  469   3.354   3.201  13.993  0.4018 -0.6011 -0.8337
   30MPD2    C5  470   3.347   3.096  13.900 -0.4140 -0.0660 -0.1611
   30MPD2     H  471   3.516   3.021  14.236  0.5094 -1.4594  0.2880
   30MPD2    H1  472   3.320   3.298  13.958 -2.3100 -0.5281  2.0820
   30MPD2    H2  473   3.361   2.897  13.852 -0.0438 -1.9476  1.8625
   30MPD2    H3  474   3.303   3.125  13.805 -0.8508  1.6112  0.5411
   30MPD2     N  475   3.448   3.262  14.217  0.8591  0.3139 -0.1184
   30MPD2    H5  476   3.493   3.223  14.299 -1.1900 -0.7974  0.4861
   30MPD2    N1  477   3.445   2.796  14.094  0.0614 -0.2071  0.4253
   30MPD2    H7  478   3.486   2.784  14.186  0.3983  0.0723  0.3129
   31TMC2    C1  479   0.860   2.586  15.211 -0.2945 -0.1772 -0.1974
   31TMC2    C2  480   0.722   2.589  15.188  0.3076 -0.5165  0.1715
   31TMC2    C3  481   0.648   2.548  15.301  0.0001 -0.2399  0.4645
   31TMC2    C4  482   0.920   2.542  15.323 -0.2129  0.8093  0.3590
   31TMC2    C5  483   0.841   2.510  15.428  0.7175  0.9478  0.3605
   31TMC2    C6  484   0.704   2.508  15.417 -0.2280 -0.6281 -0.0511
   31TMC2     C  485   0.940   2.631  15.098  0.3701 -0.1807  0.7044
   31TMC2     O  486   0.879   2.669  15.000  0.4043 -0.1369  0.7987
   31TMC2     H  487   0.679   2.623  15.094  1.0876  1.7090  0.6320
   31TMC2    H1  488   1.023   2.527  15.352 -0.2370  1.0510  0.5658
   31TMC2    H2  489   0.647   2.459  15.495 -1.4479 -1.4824 -1.4801
   31TMC2    C7  490   0.898   2.445  15.544 -0.5670 -0.5669 -0.0439
   31TMC2    C8  491   0.503   2.561  15.289  0.0716  0.2011 -0.3842
   31TMC2    O1  492   0.999   2.374  15.530 -0.2913 -0.4676 -0.0078
   31TMC2    O2  493   0.444   2.562  15.180 -0.2886  0.3072 -0.2747
   31TMC2    O5  494   0.460   2.634  15.400 -0.2572  0.6291 -0.2381
   31TMC2    H5  495   0.530   2.651  15.467  1.5985 -1.3551 -1.6680
   32MPD2     C  496   1.379   2.590  14.831  0.7250 -0.4183  0.2837
   32MPD2    C1  497   1.256   2.636  14.787 -0.7188 -0.0910  0.3952
   32MPD2    C2  498   1.153   2.638  14.882 -0.2659  0.0744  0.1133
   32MPD2    C3  499   1.172   2.607  15.014 -0.7204  0.7033 -0.0763
   32MPD2    C4  500   1.296   2.565  15.059 -0.0783 -0.1695 -0.1041
   32MPD2    C5  501   1.394   2.558  14.963 -0.7693 -0.7075 -0.4712
   32MPD2     H  502   1.055   2.671  14.850 -0.1295 -0.7946 -1.2063
   32MPD2    H1  503   1.315   2.540  15.163 -1.9505 -0.0078  0.2800
   32MPD2    H2  504   1.456   2.576  14.755  0.3550 -2.7779  0.3463
   32MPD2    H3  505   1.487   2.509  14.989 -0.5492 -0.3191 -0.5248
   32MPD2     N  506   1.075   2.603  15.116  0.4401  0.4368 -0.7060
   32MPD2    H5  507   1.106   2.571  15.207  1.3571 -3.5655 -2.4342
   32MPD2    N1  508   1.230   2.658  14.655  0.1989  0.1332 -0.6338
   32MPD2    H7  509   1.314   2.657  14.599  1.2871 -0.0064  1.0128
   33TMC2    C1  510   1.517   0.466  10.863 -0.0616  0.1850 -0.1801
   33TMC2    C2  511   1.381   0.481  10.855  0.8353 -0.5251  0.4842
   33TMC2    C3  512   1.326   0.595  10.797 -0.7917  0.1858 -0.0409
   33TMC2    C4  513   1.600   0.566  10.830  0.2127 -1.0007  0.3645
   33TMC2    C5  514   1.543   0.675  10.761  0.9505  0.1076  0.6287
   33TMC2    C6  515   1.409   0.693  10.755  0.0249 -0.0162  0.2652
   33TMC2     C  516   1.557   0.325  10.864 -0.1181 -0.1310 -0.2265
   33TMC2     O  517   1.472   0.242  10.822 -0.2153  0.3743 -0.1440
   33TMC2     H  518   1.320   0.395  10.882  0.7454 -0.4662  0.4697
   33TMC2    H1  519   1.706   0.544  10.822  0.3917 -0.0127 -0.0273
   33TMC2    H2  520   1.363   0.764  10.687 -0.4852 -0.6071 -0.0151
   33TMC2    C7  521   1.609   0.761  10.676  0.4235  0.1321  0.7483
   33TMC2    C8  522   1.209   0.571  10.718  0.6738  0.0791  0.0462
   33TMC2    O1  523   1.572   0.875  10.654 -0.8735  0.1477  0.0894
   33TMC2    O2  524   1.101   0.605  10.760 -0.3620 -0.1213  0.7159
   33TMC2    O5  525   1.225   0.450  10.667 -0.1610 -0.9709  0.0524
   33TMC2    H5  526   1.323   0.443  10.663  0.0444  1.4343  0.7772
   34MPD2     C  527   1.903   4.681  10.953  0.6773  0.5719  0.4468
   34MPD2    C1  528   1.783   4.679  10.883 -0.7121 -0.0143  0.0803
   34MPD2    C2  529   1.704   0.057  10.875  0.1745  0.7338  0.6534
   34MPD2    C3  530   1.751   0.177  10.929  0.0975 -0.1739  0.2012
   34MPD2    C4  531   1.862   0.173  11.009  0.2806  0.3820  0.2220
   34MPD2    C5  532   1.937   0.059  11.022 -0.5949 -0.0878  0.5960
   34MPD2     H  533   1.616   0.038  10.815  1.4034  0.7911 -1.1803
   34MPD2    H1  534   1.898   0.260  11.062 -0.6407  0.7831  0.1921
   34MPD2    H2  535   1.966   4.593  10.962  0.3379  0.2948  0.0884
   34MPD2    H3  536   2.021   0.064  11.090 -2.2834  1.8833  2.5282
   34MPD2     N  537   1.685   0.302  10.907 -0.4950 -0.3895 -0.1166
   34MPD2    H5  538   1.728   0.389  10.936 -0.2694  0.3752 -2.7102
   34MPD2    N1  539   1.743   4.562  10.815  0.0810  0.3246  0.1774
   34MPD2    H7  540   1.651   4.570  10.774  0.8340 -0.3946 -1.6259
   35TMC2    C1  541   1.978   1.179  11.494 -0.4221 -0.3100 -0.3077
   35TMC2    C2  542   1.849   1.224  11.504 -0.0360 -0.6042 -0.0301
   35TMC2    C3  543   1.745   1.137  11.494 -0.5318  0.5550 -0.2436
   35TMC2    C4  544   2.009   1.046  11.472  0.1044  0.7644 -0.3297
   35TMC2    C5  545   1.903   0.963  11.462 -0.1996 -0.2716  0.0790
   35TMC2    C6  546   1.775   1.004  11.489 -0.4467 -0.3980 -0.3272
   35TMC2     C  547   2.079   1.277  11.507 -0.5495 -0.0115  0.0836
   35TMC2     O  548   2.046   1.397  11.503  0.7682  0.0100  0.0567
   35TMC2     H  549   1.827   1.330  11.515  0.5382 -0.2607 -2.1245
   35TMC2    H1  550   2.110   1.010  11.457  0.4418  1.2704  0.7340
   35TMC2    H2  551   1.694   0.933  11.504  0.2943 -1.3504 -0.8450
   35TMC2    C7  552   1.940   0.823  11.468  0.4298 -0.7596 -0.0785
   35TMC2    C8  553   1.612   1.194  11.487 -0.4519  0.3754 -0.1424
   35TMC2    O1  554   2.053   0.803  11.515  0.3138 -0.1460  0.3061
   35TMC2    O2  555   1.598   1.315  11.479 -0.2041  0.2759  0.4399
   35TMC2    O5  556   1.535   1.109  11.420 -0.5079 -0.2185 -0.0343
   35TMC2    H5  557   1.572   1.018  11.426 -0.6561 -0.3215 -0.7175
   36MPD2     C  558   2.571   1.421  11.535 -0.5246 -0.4340 -0.0188
   36MPD2    C1  559   2.556   1.295  11.585  0.4922 -0.8929  0.2337
   36MPD2    C2  560   2.435   1.225  11.578  0.5958 -0.4553  0.9683
   36MPD2    C3  561   2.324   1.294  11.531 -0.0974 -0.4298  0.3600
   36MPD2    C4  562   2.344   1.418  11.475  0.2249 -0.3589  0.0685
   36MPD2    C5  563   2.464   1.479  11.477 -0.1945 -0.1889  0.0653
   36MPD2     H  564   2.436   1.122  11.611  0.5951 -1.6551 -2.7913
   36MPD2    H1  565   2.268   1.476  11.425  0.6151  0.8908  0.9102
   36MPD2    H2  566   2.669   1.468  11.540 -1.6033  1.8442 -0.7520
   36MPD2    H3  567   2.477   1.576  11.430  1.1934 -0.7381 -0.6961
   36MPD2     N  568   2.201   1.222  11.544 -0.6839  0.0865  0.1556
   36MPD2    H5  569   2.204   1.124  11.570 -2.2361  0.0030  0.0134
   36MPD2    N1  570   2.676   1.241  11.639  0.6577  0.4464  0.0824
   36MPD2    H7  571   2.763   1.289  11.623  1.4565 -0.6472  1.1642
   37TMC2    C1  572   0.245   1.573  11.700 -0.1816 -0.9219  0.2247
   37TMC2    C2  573   0.160   1.587  11.593 -0.1512 -0.0726  0.3227
   37TMC2    C3  574   0.202   1.662  11.484 -0.6160 -0.0124 -0.2372
   37TMC2    C4  575   0.363   1.639  11.707 -0.1694 -0.3964  0.5856
   37TMC2    C5  576   0.399   1.709  11.600  0.6020  1.5034 -0.3113
   37TMC2    C6  577   0.324   1.723  11.486  0.0054 -0.6240 -0.0788
   37TMC2     C  578   0.176   1.535  11.821  0.4846  0.1740  0.1941
   37TMC2     O  579   0.054   1.541  11.817  0.7410 -0.0276  0.1166
   37TMC2     H  580   0.056   1.558  11.597 -0.2509  0.4479  1.5149
   37TMC2    H1  581   0.429   1.652  11.792 -0.0318  3.3878 -0.1072
   37TMC2    H2  582   0.348   1.792  11.406  0.4999 -1.1241 -0.3686
   37TMC2    C7  583   0.543   1.735  11.588  0.2088  0.4405 -0.2200
   37TMC2    C8  584   0.113   1.669  11.378  0.2012 -0.1731 -0.1242
   37TMC2    O1  585   0.612   1.692  11.677  0.2518  0.1362  0.3455
   37TMC2    O2  586   4.728   1.653  11.399 -0.5390  0.0350  0.2116
   37TMC2    O5  587   0.174   1.675  11.260  0.5102  0.4163 -0.3250
   37TMC2    H5  588   0.272   1.664  11.259  0.1297 -2.7488 -1.1753
   38MPD2     C  589   0.173   1.494  12.334 -0.2717  0.3980 -0.0327
   38MPD2    C1  590   0.291   1.445  12.293  0.2656  0.0102  0.1414
   38MPD2    C2  591   0.321   1.451  12.159 -0.6691 -0.1490 -0.3076
   38MPD2    C3  592   0.227   1.493  12.062 -0.4509 -0.3791 -0.4088
   38MPD2    C4  593   0.104   1.540  12.114  0.1130 -0.4719 -0.0627
   38MPD2    C5  594   0.077   1.535  12.250  0.1240 -0.0306 -0.0076
   38MPD2     H  595   0.414   1.407  12.126 -1.2875 -2.7239  1.4132
   38MPD2    H1  596   0.018   1.559  12.051 -1.0345 -0.4011  1.5193
   38MPD2    H2  597   0.147   1.495  12.440  0.0388 -0.7841  0.0537
   38MPD2    H3  598   4.710   1.558  12.281  0.4796  1.5544 -0.0216
   38MPD2     N  599   0.256   1.478  11.923 -0.2084  0.3828  0.0199
   38MPD2    H5  600   0.348   1.448  11.893 -0.2960 -1.4886  1.6496
   38MPD2    N1  601   0.387   1.372  12.373  0.2584  0.6458 -0.4096
   38MPD2    H7  602   0.470   1.342  12.323  1.0996 -1.5475  2.3179
   39TMC2    C1  603   2.901   3.481   2.223 -0.4049 -0.1113 -0.6114
   39TMC2    C2  604   2.885   3.458   2.358  0.6815  0.8591 -0.4114
   39TMC2    C3  605   2.940   3.561   2.436  0.2042  0.5040  0.1844
   39TMC2    C4  606   2.971   3.582   2.169  0.3815 -0.0088 -0.0742
   39TMC2    C5  607   3.032   3.676   2.255  0.1462  0.1820 -0.1835
   39TMC2    C6  608   3.013   3.663   2.395  0.4203 -0.2569 -0.2461
   39TMC2     C  609   2.860   3.374   2.136  0.1145  0.4629  0.8265
   39TMC2     O  610   2.747   3.326   2.151  0.4688 -0.9297 -0.3518
   39TMC2     H  611   2.822   3.378   2.393  1.6410  0.2035 -0.2007
   39TMC2    H1  612   2.984   3.582   2.061  1.1652 -1.5572  0.0169
   39TMC2    H2  613   3.060   3.729   2.467 -0.2104 -1.3637  1.1566
   39TMC2    C7  614   3.139   3.765   2.220  0.7776 -0.1094  0.6656
   39TMC2    C8  615   2.922   3.566   2.579 -0.1515 -0.3270  0.4818
   39TMC2    O1  616   3.221   3.809   2.299  0.4650  0.4910 -0.2259
   39TMC2    O2  617   2.992   3.639   2.652 -0.1713 -0.1991 -0.1525
   39TMC2    O5  618   2.790   3.548   2.599  0.1356 -0.0581 -0.8498
   39TMC2    H5  619   2.743   3.510   2.521  2.3225 -0.3868 -2.0196
   40MPD2     C  620   3.076   3.198   1.895 -0.1819  0.7445  0.0665
   40MPD2    C1  621   2.956   3.238   1.955 -0.0484  0.2365  0.3863
   40MPD2    C2  622   2.833   3.202   1.893 -0.0376  0.1733  0.2479
   40MPD2    C3  623   2.826   3.135   1.774  0.2885  0.0543  0.5205
   40MPD2    C4  624   2.940   3.092   1.719  0.7695  0.1885  0.0321
   40MPD2    C5  625   3.061   3.123   1.785 -0.0971 -0.8446 -0.1268
   40MPD2     H  626   2.740   3.243   1.931 -0.2651  1.1338 -1.3338
   40MPD2    H1  627   2.941   3.055   1.617 -0.7497 -0.1687  0.1396
   40MPD2    H2  628   3.175   3.223   1.932 -0.7060  2.3951  0.3544
   40MPD2    H3  629   3.149   3.110   1.724 -0.8893 -1.9629 -1.0323
   40MPD2     N  630   2.704   3.125   1.702 -0.3409  0.2665  0.3521
   40MPD2    H5  631   2.716   3.088   1.608  0.0918  1.8591 -0.2055
   40MPD2    N1  632   2.965   3.320   2.067 -0.1627  0.6220 -0.2296
   40MPD2    H7  633   3.056   3.361   2.082  1.6256 -2.9960 -1.2676
   41TMC2    C1  634   2.477   1.794  13.446 -0.1376 -0.1862 -0.1638
   41TMC2    C2  635   2.342   1.779  13.439  0.0234  0.1705 -0.0461
   41TMC2    C3  636   2.282   1.699  13.343  0.4849 -0.6237 -0.9481
   41TMC2    C4  637   2.555   1.739  13.353  0.1650  0.6629  0.4711
   41TMC2    C5  638   2.502   1.659  13.253 -0.1313 -0.5237 -0.8045
   41TMC2    C6  639   2.360   1.640  13.246 -0.0779 -0.2708 -0.0811
   41TMC2     C  640   2.535   1.898  13.537  0.0665  0.6376 -0.4707
   41TMC2     O  641   2.656   1.921  13.553  0.1928  0.4297 -0.2732
   41TMC2     H  642   2.282   1.818  13.520  1.4250 -0.1981  1.1628
   41TMC2    H1  643   2.662   1.755  13.364  0.4693 -0.6957 -0.4707
   41TMC2    H2  644   2.317   1.577  13.169  2.0504 -0.3156 -1.2281
   41TMC2    C7  645   2.596   1.606  13.151 -0.6560  1.1101  0.4845
   41TMC2    C8  646   2.149   1.720  13.312  0.6222 -0.5275  0.1218
   41TMC2    O1  647   2.696   1.668  13.145  0.9311 -0.7379  0.5281
   41TMC2    O2  648   2.068   1.759  13.395  0.2204  0.5509  0.1627
   41TMC2    O5  649   2.156   1.753  13.181 -0.3441  0.0546 -0.3497
   41TMC2    H5  650   2.232   1.729  13.124 -0.2069  0.3036 -0.2729
   42MPD2     C  651   2.576   2.131  13.748  0.2302  0.4458 -0.6783
   42MPD2    C1  652   2.455   2.074  13.706 -0.1661  0.0387  0.4511
   42MPD2    C2  653   2.343   2.115  13.780  0.2171 -0.1135  0.7713
   42MPD2    C3  654   2.353   2.212  13.880  0.0544  0.0262 -0.1634
   42MPD2    C4  655   2.476   2.250  13.924  0.3525  0.5684 -0.3279
   42MPD2    C5  656   2.591   2.205  13.862  0.5158  0.0801 -0.3390
   42MPD2     H  657   2.248   2.066  13.761 -1.4522  2.5370  2.3683
   42MPD2    H1  658   2.484   2.311  14.013  0.4763 -4.7639  3.3025
   42MPD2    H2  659   2.662   2.089  13.697 -1.3566 -2.6528 -0.7923
   42MPD2    H3  660   2.688   2.241  13.893  0.7724 -1.8951  1.1717
   42MPD2     N  661   2.232   2.264  13.939  0.8151 -0.2496 -0.4909
   42MPD2    H5  662   2.249   2.305  14.030 -0.4584  0.7221 -0.7003
   42MPD2    N1  663   2.435   1.966  13.612  0.4219  0.1954 -0.3335
   42MPD2    H7  664   2.338   1.941  13.600 -0.4197  2.0413  2.6476
   43TMC2    C1  665   2.769   4.700   0.643  0.0758  0.5599 -0.6763
   43TMC2    C2  666   2.636   4.708   0.616  0.4938  0.6414 -0.0869
   43TMC2    C3  667   2.590   0.098   0.593  0.8457 -0.1703 -0.2449
   43TMC2    C4  668   2.863   0.068   0.643  0.2563 -0.5485 -0.3072
   43TMC2    C5  669   2.813   0.193   0.613 -0.5299  0.7687  0.1215
   43TMC2    C6  670   2.678   0.206   0.589  0.3242 -0.2253 -0.0725
   43TMC2     C  671   2.817   4.565   0.668  0.1184 -0.3760  0.3708
   43TMC2     O  672   2.933   4.544   0.644 -1.0472 -0.1518  0.0992
   43TMC2     H  673   2.565   4.629   0.638  1.0787  0.6507  1.8349
   43TMC2    H1  674   2.968   0.057   0.666 -0.1043 -1.2952  0.9773
   43TMC2    H2  675   2.634   0.301   0.560  0.9069 -0.0934 -0.5274
   43TMC2    C7  676   2.893   0.315   0.613  0.2550  0.1336 -0.0737
   43TMC2    C8  677   2.458   0.113   0.533 -0.6809 -0.4319  0.2004
   43TMC2    O1  678   2.844   0.418   0.575  0.2271 -0.3810 -0.4175
   43TMC2    O2  679   2.410   0.227   0.527 -0.0931 -0.1061  0.3724
   43TMC2    O5  680   2.409   0.005   0.475 -0.0576 -0.4729 -0.3034
   43TMC2    H5  681   2.469   4.662   0.480 -0.5054 -0.7681  0.5323
   44MPD2     C  682   2.775   4.070   0.793  0.2182  0.4036 -0.0205
   44MPD2    C1  683   2.868   4.133   0.711 -0.7488  0.6499 -0.1434
   44MPD2    C2  684   2.850   4.271   0.686  0.3077  0.2566 -0.7151
   44MPD2    C3  685   2.752   4.348   0.753  0.3881 -0.2873  0.4037
   44MPD2    C4  686   2.664   4.279   0.839 -0.0241  0.6339  0.2148
   44MPD2    C5  687   2.676   4.141   0.859 -0.6520  0.5812 -0.3267
   44MPD2     H  688   2.905   4.309   0.601 -2.7590  2.9483 -1.5140
   44MPD2    H1  689   2.583   4.331   0.888 -0.4636  0.9268 -0.8218
   44MPD2    H2  690   2.770   3.963   0.802  2.3404  0.3389  0.3574
   44MPD2    H3  691   2.600   4.086   0.914 -0.3653 -0.6661 -1.1581
   44MPD2     N  692   2.731   4.483   0.731  0.5320  0.5717  0.5643
   44MPD2    H5  693   2.651   4.524   0.778 -0.1288  0.4270 -0.4410
   44MPD2    N1  694   2.972   4.061   0.656 -0.2988 -0.0022  0.1419
   44MPD2    H7  695   3.047   4.115   0.613 -0.5236  1.5409  1.6831
   45TMC2    C1  696   4.668   1.292   9.413  0.0006 -0.4467 -0.8660
   45TMC2    C2  697   0.009   1.220   9.322  0.7694 -0.6573  0.6148
   45TMC2    C3  698   0.130   1.265   9.294  0.2150 -0.6054  0.6543
   45TMC2    C4  699   4.708   1.408   9.476  0.1523  0.0790  0.2066
   45TMC2    C5  700   0.099   1.454   9.441  0.6185 -0.0022  0.1036
   45TMC2    C6  701   0.173   1.383   9.350  0.0078 -0.5170 -1.1128
   45TMC2     C  702   4.543   1.240   9.452 -0.3593  0.1648 -0.2252
   45TMC2     O  703   4.539   1.117   9.458 -0.0860  0.2776  0.2050
   45TMC2     H  704   4.713   1.119   9.294 -2.6330  1.0310 -1.8264
   45TMC2    H1  705   4.634   1.466   9.531 -0.6873  0.3046 -1.1540
   45TMC2    H2  706   0.279   1.399   9.335 -0.4008  3.4134  0.0363
   45TMC2    C7  707   0.154   1.562   9.520 -0.0064 -0.1840 -0.1497
   45TMC2    C8  708   0.202   1.195   9.196 -0.9869  0.5512 -0.0833
   45TMC2    O1  709   0.106   1.583   9.633  0.4261 -0.3671  0.2802
   45TMC2    O2  710   0.179   1.080   9.169 -0.7930 -0.0294 -0.1159
   45TMC2    O5  711   0.295   1.275   9.140  0.1217 -0.0924 -0.2726
   45TMC2    H5  712   0.277   1.371   9.150  0.8953 -0.2987  3.1027
   46MPD2     C  713   4.262   1.172   9.520  0.5083 -0.0022  1.1065
   46MPD2    C1  714   4.301   1.297   9.483 -0.1815 -0.5019  0.4980
   46MPD2    C2  715   4.210   1.399   9.469 -0.2035  0.1356 -1.0150
   46MPD2    C3  716   4.075   1.373   9.495 -0.7570 -1.0235 -0.0811
   46MPD2    C4  717   4.035   1.246   9.534 -0.1964  0.1800  0.6432
   46MPD2    C5  718   4.125   1.147   9.537  0.2659  0.0719 -0.0505
   46MPD2     H  719   4.245   1.499   9.445  0.6402 -0.0765 -0.6683
   46MPD2    H1  720   3.938   1.225   9.577  0.0475 -0.2259  0.9852
   46MPD2    H2  721   4.320   1.081   9.507 -0.0106  0.0012 -1.2376
   46MPD2    H3  722   4.094   1.046   9.563 -0.8772  0.1085 -1.3060
   46MPD2     N  723   3.983   1.479   9.492 -0.5880  0.7440 -0.4348
   46MPD2    H5  724   4.016   1.574   9.480  0.7009  0.3495 -0.0412
   46MPD2    N1  725   4.432   1.324   9.438 -0.2939  0.4831 -0.1607
   46MPD2    H7  726   4.449   1.419   9.406 -3.9809  1.0282 -0.4976
   47TMC2    C1  727   3.403   1.305   9.413 -1.0866 -0.8284 -0.2699
   47TMC2    C2  728   3.524   1.248   9.388  0.4984 -0.1779  0.1307
   47TMC2    C3  729   3.552   1.129   9.444 -0.4340  0.2749 -0.0690
   47TMC2    C4  730   3.317   1.254   9.508  0.3547  0.0932 -0.0862
   47TMC2    C5  731   3.368   1.150   9.580  0.1436 -0.4017  0.3814
   47TMC2    C6  732   3.479   1.077   9.543 -0.0318  0.6752 -0.6388
   47TMC2     C  733   3.354   1.403   9.321  0.0190 -0.5144 -0.0527
   47TMC2     O  734   3.430   1.433   9.234  0.2042 -0.5857  0.4089
   47TMC2     H  735   3.585   1.282   9.304 -0.8760 -1.4422 -1.3871
   47TMC2    H1  736   3.216   1.293   9.520  0.2412 -0.9538  2.2320
   47TMC2    H2  737   3.509   0.984   9.590 -0.1139  0.6457 -0.6435
   47TMC2    C7  738   3.296   1.108   9.700 -0.2349  0.7250 -0.4257
   47TMC2    C8  739   3.659   1.041   9.405  0.5800  0.2150  0.0933
   47TMC2    O1  740   3.342   1.014   9.760  0.3805  0.0017  0.1425
   47TMC2    O2  741   3.644   0.918   9.402  0.2238 -0.7124 -0.0764
   47TMC2    O5  742   3.771   1.111   9.421 -0.6237  0.9252  0.1075
   47TMC2    H5  743   3.758   1.205   9.444  1.0922  1.1326  0.2017
   48MPD2     C  744   3.220   1.612   9.159 -0.1198 -0.0533  0.2702
   48MPD2    C1  745   3.172   1.564   9.276 -0.6547  0.4196  0.4011
   48MPD2    C2  746   3.064   1.630   9.339  0.6700 -0.1817 -0.3192
   48MPD2    C3  747   3.010   1.742   9.283  0.2814 -0.3523  0.4393
   48MPD2    C4  748   3.055   1.791   9.163 -0.4434  0.1672 -0.3543
   48MPD2    C5  749   3.159   1.719   9.101  0.3874 -0.3570  0.3991
   48MPD2     H  750   3.035   1.601   9.440  0.7713  2.0412  0.3559
   48MPD2    H1  751   3.008   1.879   9.121  1.4766  1.4509  0.2140
   48MPD2    H2  752   3.300   1.567   9.102 -1.7694 -0.6929 -1.5473
   48MPD2    H3  753   3.188   1.752   9.002  1.0034 -1.9869  0.0332
   48MPD2     N  754   2.906   1.795   9.363 -0.4235  0.2221  0.3554
   48MPD2    H5  755   2.868   1.738   9.438  2.6418 -2.2720  0.0356
   48MPD2    N1  756   3.234   1.459   9.351 -0.4029 -0.4551 -0.3190
   48MPD2    H7  757   3.178   1.448   9.435 -0.5549 -1.0516 -0.5033
   49TMC2    C1  758   0.559   4.266  10.261  0.1312  0.0425 -0.4190
   49TMC2    C2  759   0.594   4.393  10.306  0.2894 -0.1897 -0.7799
   49TMC2    C3  760   0.607   4.487  10.210  0.7341  0.0307 -0.2660
   49TMC2    C4  761   0.521   4.239  10.132  0.1252 -0.5053  0.4743
   49TMC2    C5  762   0.530   4.342  10.044  0.4693 -0.0045 -0.0942
   49TMC2    C6  763   0.575   4.463  10.079  0.1424 -0.8353  0.1130
   49TMC2     C  764   0.510   4.167  10.361 -0.0560 -0.0928 -0.2663
   49TMC2     O  765   0.456   4.060  10.324  0.4470 -0.7336  0.3618
   49TMC2     H  766   0.610   4.415  10.411  2.8757 -0.2882 -1.1400
   49TMC2    H1  767   0.498   4.136  10.104  2.1645 -0.3892 -1.6091
   49TMC2    H2  768   0.591   4.545  10.009 -1.0121 -1.0096 -0.3622
   49TMC2    C7  769   0.455   4.333   9.914  0.2950  0.0620 -0.0286
   49TMC2    C8  770   0.681   4.605  10.248 -0.5118  0.1248  0.2267
   49TMC2    O1  771   0.476   4.425   9.836 -0.5338 -0.1583 -0.2984
   49TMC2    O2  772   0.696   4.702  10.178 -0.5100 -0.0379  0.2780
   49TMC2    O5  773   0.791   4.555  10.307 -0.1749 -0.3910  0.0973
   49TMC2    H5  774   0.787   4.462  10.338 -1.1034  0.0804  1.4000
   50MPD2     C  775   0.469   4.011  10.605  0.2385 -0.3979  0.1473
   50MPD2    C1  776   0.549   4.119  10.601  0.5310 -0.5127 -0.2767
   50MPD2    C2  777   0.612   4.170  10.712  0.2791 -0.2648 -0.5083
   50MPD2    C3  778   0.585   4.118  10.832 -0.3707  0.3950 -0.2486
   50MPD2    C4  779   0.495   4.015  10.842 -0.2541  0.3870 -0.4800
   50MPD2    C5  780   0.431   3.968  10.731 -0.0858 -1.1364 -0.2419
   50MPD2     H  781   0.679   4.254  10.697  0.0630  0.1292  0.7489
   50MPD2    H1  782   0.478   3.974  10.941  0.2258 -0.2085 -0.6438
   50MPD2    H2  783   0.417   3.968  10.521 -0.5854  0.8113  0.0325
   50MPD2    H3  784   0.359   3.887  10.732  0.5655 -1.7153  0.1035
   50MPD2     N  785   0.642   4.167  10.951 -0.3421  0.5188  0.0118
   50MPD2    H5  786   0.600   4.127  11.034 -0.8835  2.9371  0.9211
   50MPD2    N1  787   0.568   4.188  10.481  0.7945  0.4197  0.1023
   50MPD2    H7  788   0.638   4.262  10.482  2.4272 -1.1317 -0.5583
   51TMC2    C1  789   0.715   2.546   1.440  0.5894 -0.5185 -0.9624
   51TMC2    C2  790   0.639   2.469   1.358  0.2849  0.2305  0.1908
   51TMC2    C3  791   0.514   2.513   1.330  0.3501 -0.6068  0.3794
   51TMC2    C4  792   0.664   2.669   1.483  0.0606 -0.3491 -0.3796
   51TMC2    C5  793   0.534   2.708   1.455  0.2406  0.2897  0.0543
   51TMC2    C6  794   0.454   2.630   1.376 -0.1609 -0.2110 -0.2666
   51TMC2     C  795   0.856   2.538   1.422 -0.1867 -0.2959  0.4036
   51TMC2     O  796   0.895   2.492   1.316  0.2043  0.4403  0.2218
   51TMC2     H  797   0.680   2.377   1.317  0.8222 -0.0715  1.3952
   51TMC2    H1  798   0.737   2.744   1.509 -2.0368  1.5022  0.1699
   51TMC2    H2  799   0.358   2.668   1.346 -0.5223 -0.9763 -0.0562
   51TMC2    C7  800   0.507   2.848   1.470 -0.8914  0.6806  0.3320
   51TMC2    C8  801   0.473   2.460   1.197  0.1681 -0.9232 -0.1569
   51TMC2    O1  802   0.587   2.929   1.429  0.0302 -0.3984  0.6520
   51TMC2    O2  803   0.494   2.344   1.165 -0.3969  0.4992  0.5373
   51TMC2    O5  804   0.430   2.561   1.121 -0.4010 -0.4112 -0.4114
   51TMC2    H5  805   0.445   2.651   1.157  0.1400 -0.2667 -0.9894
   52MPD2     C  806   1.348   2.586   1.586 -0.7418 -0.3707 -0.1961
   52MPD2    C1  807   1.289   2.523   1.478 -0.4629 -0.7541  0.1099
   52MPD2    C2  808   1.151   2.532   1.451 -0.0929 -0.3022 -1.2442
   52MPD2    C3  809   1.066   2.578   1.548  0.2652 -0.3086 -0.0886
   52MPD2    C4  810   1.122   2.639   1.662 -0.1945  0.0129  0.1374
   52MPD2    C5  811   1.262   2.646   1.681 -0.0319  0.1934  0.5746
   52MPD2     H  812   1.111   2.486   1.361 -1.0776  0.9799 -1.4583
   52MPD2    H1  813   1.058   2.690   1.733 -0.3233  1.9678 -1.3737
   52MPD2    H2  814   1.452   2.578   1.613 -0.8663  1.9023  0.9684
   52MPD2    H3  815   1.312   2.691   1.766  0.7538  0.0225  0.1992
   52MPD2     N  816   0.925   2.572   1.534  0.2473 -0.5836 -0.0670
   52MPD2    H5  817   0.873   2.617   1.609 -0.3082 -1.8818  0.3237
   52MPD2    N1  818   1.363   2.454   1.389  0.4734  0.4328 -0.8342
   52MPD2    H7  819   1.314   2.399   1.319 -0.2592 -0.5293  0.4351
   53TMC2    C1  820   1.260   1.633  11.621 -0.0812  0.3749 -0.4947
   53TMC2    C2  821   1.390   1.595  11.592 -0.0993  0.3587 -0.8497
   53TMC2    C3  822   1.463   1.555  11.701 -0.1396 -0.1774 -0.0903
   53TMC2    C4  823   1.211   1.647  11.750  0.8501  0.4316  0.2461
   53TMC2    C5  824   1.294   1.607  11.854 -0.7671 -0.0135 -0.3872
   53TMC2    C6  825   1.422   1.569  11.829  0.1438  0.2457 -0.0159
   53TMC2     C  826   1.188   1.689  11.507  0.1428 -0.0225 -0.3157
   53TMC2     O  827   1.251   1.709  11.402 -0.3298  0.1662  0.4408
   53TMC2     H  828   1.430   1.589  11.491 -0.5431  0.0813 -1.0095
   53TMC2    H1  829   1.122   1.700  11.782  1.1657  1.1333 -0.0423
   53TMC2    H2  830   1.495   1.550  11.906  2.0795 -0.5309 -2.0347
   53TMC2    C7  831   1.234   1.603  11.990  0.2959 -0.5546  0.8750
   53TMC2    C8  832   1.606   1.513  11.678  1.1116  0.3822  0.3721
   53TMC2    O1  833   1.130   1.661  12.010 -0.0654  0.1278 -0.1978
   53TMC2    O2  834   1.657   1.439  11.760  0.0196  0.3183 -0.2134
   53TMC2    O5  835   1.672   1.608  11.612  0.0716 -0.2814 -0.1793
   53TMC2    H5  836   1.610   1.674  11.576 -0.6266 -1.5749 -1.3484
   54MPD2     C  837   0.977   1.826  11.341  1.0893 -0.0926 -0.3790
   54MPD2    C1  838   0.960   1.766  11.459  0.1156  0.0737  0.2951
   54MPD2    C2  839   0.836   1.762  11.511 -0.6466 -0.6190 -0.1025
   54MPD2    C3  840   0.724   1.799  11.430  0.4493  0.2778 -0.7126
   54MPD2    C4  841   0.744   1.840  11.298  0.7173  0.5802  0.1826
   54MPD2    C5  842   0.873   1.857  11.258 -0.1066  0.0087  0.7176
   54MPD2     H  843   0.820   1.710  11.605 -3.7528  1.6999  0.6611
   54MPD2    H1  844   0.655   1.869  11.242  0.4815  0.4782  0.5067
   54MPD2    H2  845   1.079   1.846  11.311  1.2672 -1.1478 -0.4807
   54MPD2    H3  846   0.899   1.920  11.174 -1.3633 -1.1187 -0.5314
   54MPD2     N  847   0.586   1.771  11.462 -0.2919  1.0670 -0.2383
   54MPD2    H5  848   0.511   1.792  11.397 -0.0434  2.4025 -0.0997
   54MPD2    N1  849   1.059   1.715  11.540  0.4970  0.1249  0.7518
   54MPD2    H7  850   1.029   1.689  11.634 -0.4571  0.3532  0.5110
   55TMC2    C1  851   1.175   4.726   0.211  0.0823 -0.2430  0.7860
   55TMC2    C2  852   1.244   4.710   0.095  0.3689  0.0944  0.5887
   55TMC2    C3  853   1.316   4.591   0.081 -1.1886  0.4709  0.0280
   55TMC2    C4  854   1.184   4.629   0.309  0.1067 -0.2758  0.2659
   55TMC2    C5  855   1.268   4.522   0.290 -0.2497  0.2911 -0.1539
   55TMC2    C6  856   1.343   4.497   0.176  0.3867 -0.3335  0.6692
   55TMC2     C  857   1.076   0.100   0.227  0.0551 -0.1008  1.0871
   55TMC2     O  858   0.987   0.079   0.304  0.2343  0.2603  0.2548
   55TMC2     H  859   1.218   0.031   0.006 -0.9695 -1.8391 -0.2287
   55TMC2    H1  860   1.140   4.647   0.406 -0.0390 -1.0154  0.3384
   55TMC2    H2  861   1.417   4.419   0.170  0.4888 -0.2214  0.4572
   55TMC2    C7  862   1.291   4.421   0.399  0.0399  0.9259  0.7179
   55TMC2    C8  863   1.398   4.585  17.705 -0.0142 -0.1716  0.1633
   55TMC2    O1  864   1.382   4.342   0.390  0.0299 -0.2631 -0.3168
   55TMC2    O2  865   1.442   4.679  17.642  0.6836 -0.2771 -0.3220
   55TMC2    O5  866   1.391   4.460  17.649 -0.5925  0.0496 -0.0976
   55TMC2    H5  867   1.336   4.408  17.711 -0.0290 -0.8464 -0.3654
   56MPD2     C  868   1.034   0.377  17.720  0.4107  0.2823  0.1992
   56MPD2    C1  869   0.998   0.292   0.079 -0.3952  0.6756 -0.1001
   56MPD2    C2  870   0.874   0.296   0.131 -0.2282 -0.3803 -0.3241
   56MPD2    C3  871   0.783   0.394   0.091  0.7122 -0.6790 -0.2517
   56MPD2    C4  872   0.825   0.491  17.734 -0.3928  0.2045  0.1723
   56MPD2    C5  873   0.954   0.483  17.688  0.2815 -0.0219  0.6299
   56MPD2     H  874   0.849   0.234   0.217 -0.0425  1.9435  1.4018
   56MPD2    H1  875   0.761   0.574  17.706 -1.2526 -0.4716  0.1257
   56MPD2    H2  876   1.134   0.361  17.681  0.0308 -3.3493  0.7316
   56MPD2    H3  877   0.989   0.551  17.611  2.2977 -0.4756  1.1247
   56MPD2     N  878   0.659   0.402   0.159 -0.8286 -0.0812 -0.2741
   56MPD2    H5  879   0.635   0.325   0.220 -0.9630 -1.7462 -2.4002
   56MPD2    N1  880   1.093   0.191   0.124 -0.7383 -0.2350 -0.1099
   56MPD2    H7  881   1.188   0.199   0.089 -1.2970 -0.6467 -1.7356
   57TMC2    C1  882   0.473   4.626  12.930 -0.9984  0.3370  0.2160
   57TMC2    C2  883   0.361   4.606  12.856 -0.6332  0.2815  0.1036
   57TMC2    C3  884   0.365   4.501  12.770  0.1160  0.3186 -0.6153
   57TMC2    C4  885   0.580   4.544  12.943 -0.3751 -0.3849  0.7072
   57TMC2    C5  886   0.570   4.431  12.867 -0.4010  0.5295  0.9853
   57TMC2    C6  887   0.470   4.408  12.778 -0.0918  0.1366 -0.1135
   57TMC2     C  888   0.463   0.005  13.017 -0.2667  0.2831 -0.1104
   57TMC2     O  889   0.350   0.049  13.032 -0.2035 -0.1859  0.4844
   57TMC2     H  890   0.274   4.670  12.861 -1.0577 -0.3141  0.3605
   57TMC2    H1  891   0.655   4.559  13.021 -0.6837  0.4241  0.8438
   57TMC2    H2  892   0.484   4.322  12.713  1.5584  0.0090  0.3964
   57TMC2    C7  893   0.679   4.336  12.853 -0.9608 -0.2610  0.0108
   57TMC2    C8  894   0.240   4.459  12.706 -0.4326  0.7180  0.4896
   57TMC2    O1  895   0.649   4.220  12.833  0.0965 -0.3797 -0.0945
   57TMC2    O2  896   0.195   4.347  12.706 -0.6360  0.1513 -0.0540
   57TMC2    O5  897   0.213   4.565  12.621  0.2075 -0.1729 -0.5447
   57TMC2    H5  898   0.281   4.636  12.621  1.5516 -1.4747 -2.1287
   58MPD2     C  899   0.649   0.332  13.361 -0.6045  0.1704 -0.2037
   58MPD2    C1  900   0.523   0.317  13.304  0.3724  0.1937 -0.0456
   58MPD2    C2  901   0.504   0.226  13.209  0.1513  0.0724  0.5902
   58MPD2    C3  902   0.608   0.150  13.163 -0.4151  0.1037  0.4316
   58MPD2    C4  903   0.735   0.163  13.213 -0.5986 -0.0917  0.7887
   58MPD2    C5  904   0.753   0.257  13.313 -0.5459  0.4217 -0.3652
   58MPD2     H  905   0.414   0.221  13.149  1.5406  0.4993 -1.5526
   58MPD2    H1  906   0.814   0.110  13.160 -0.8576 -0.4921  0.8015
   58MPD2    H2  907   0.677   0.405  13.435  0.8631 -0.4634 -0.1348
   58MPD2    H3  908   0.856   0.274  13.343 -0.3263 -0.7278 -0.4691
   58MPD2     N  909   0.587   0.050  13.065  0.0091  0.3892  0.3616
   58MPD2    H5  910   0.673   4.733  13.044 -0.7053 -0.3712 -0.7040
   58MPD2    N1  911   0.413   0.398  13.340 -0.2456 -0.2388  0.0657
   58MPD2    H7  912   0.322   0.367  13.307 -0.4942  0.4251  0.1393
   59TMC2    C1  913   3.417   0.513  12.653  0.7070  0.2294 -0.4746
   59TMC2    C2  914   3.448   0.381  12.707  0.4597  0.0556  0.0075
   59TMC2    C3  915   3.388   0.276  12.643  0.3331 -0.4001 -0.0331
   59TMC2    C4  916   3.326   0.532  12.549  0.4254 -0.1562 -0.6242
   59TMC2    C5  917   3.268   0.414  12.507 -0.9763 -0.3931 -0.0987
   59TMC2    C6  918   3.291   0.288  12.553  0.6461  0.2227 -0.8327
   59TMC2     C  919   3.475   0.637  12.711 -0.5036  0.8655  0.2781
   59TMC2     O  920   3.457   0.734  12.642  0.0564  0.0177 -0.0792
   59TMC2     H  921   3.522   0.361  12.783  1.7687  0.0775 -1.2469
   59TMC2    H1  922   3.306   0.633  12.514 -1.9615 -0.3420  0.1972
   59TMC2    H2  923   3.250   0.199  12.509 -0.3210 -0.4745  1.4917
   59TMC2    C7  924   3.143   0.427  12.442 -0.6663 -0.6758 -0.4131
   59TMC2    C8  925   3.427   0.135  12.681 -0.6414  0.1434  0.3445
   59TMC2    O1  926   3.063   0.335  12.457 -0.3359  0.3761  0.3187
   59TMC2    O2  927   3.354   0.043  12.651 -0.3770 -0.5952  0.7003
   59TMC2    O5  928   3.561   0.131  12.695 -0.0766  0.5678 -0.2078
   59TMC2    H5  929   3.612   0.215  12.692  0.2746  0.3830  0.8208
   60MPD2     C  930   3.620   0.850  12.851  0.5235 -0.3452  0.3322
   60MPD2    C1  931   3.608   0.717  12.903  0.8507 -0.4284  0.4616
   60MPD2    C2  932   3.664   0.687  13.023  1.1240 -0.5773  0.4748
   60MPD2    C3  933   3.727   0.782  13.099 -0.3757  0.0540 -0.0904
   60MPD2    C4  934   3.739   0.907  13.050  0.8308 -0.0105 -1.3598
   60MPD2    C5  935   3.684   0.944  12.931 -0.5086  0.2342  0.5726
   60MPD2     H  936   3.646   0.586  13.056  2.5696 -1.3612 -1.0994
   60MPD2    H1  937   3.785   0.991  13.102 -1.2032 -0.1587  0.6980
   60MPD2    H2  938   3.606   0.883  12.749  0.6133 -0.1162  0.3960
   60MPD2    H3  939   3.708   1.038  12.884  0.2771  0.6448  1.8063
   60MPD2     N  940   3.785   0.744  13.225 -0.9378  0.1316  0.6402
   60MPD2    H5  941   3.860   0.799  13.265 -2.1027  0.2711  2.6343
   60MPD2    N1  942   3.546   0.616  12.823 -0.6272 -0.1172  0.4384
   60MPD2    H7  943   3.537   0.521  12.856  1.1079 -0.9498 -1.4635
   61TMC2    C1  944   2.374   2.088  15.669  0.3278 -0.3985 -0.5200
   61TMC2    C2  945   2.304   2.054  15.780 -1.0605 -0.0455  0.1015
   61TMC2    C3  946   2.173   2.095  15.789  0.1734  0.2953  0.3628
   61TMC2    C4  947   2.308   2.151  15.565 -0.4385 -0.4641 -0.0238
   61TMC2    C5  948   2.174   2.181  15.578 -0.4536 -0.1296 -0.7148
   61TMC2    C6  949   2.105   2.157  15.687 -0.4492 -0.1907  0.6003
   61TMC2     C  950   2.510   2.028  15.663  0.2466 -0.4685  0.7394
   61TMC2     O  951   2.542   1.952  15.752 -0.5649 -0.0399 -0.3587
   61TMC2     H  952   2.346   1.992  15.859 -1.1877  1.5349  1.4106
   61TMC2    H1  953   2.356   2.168  15.470  0.1709  1.3195  0.6082
   61TMC2    H2  954   2.001   2.184  15.701 -0.8113  0.3419 -3.0538
   61TMC2    C7  955   2.096   2.229  15.470 -0.0836 -0.5610 -1.3146
   61TMC2    C8  956   2.111   2.087  15.918 -0.6431 -0.1470 -0.2883
   61TMC2    O1  957   1.977   2.216  15.468 -0.1708  0.5321 -0.9107
   61TMC2    O2  958   2.155   2.017  16.012 -0.1652 -0.6777 -0.0098
   61TMC2    O5  959   2.023   2.184  15.946 -0.0692 -0.3205  0.6991
   61TMC2    H5  960   2.009   2.247  15.872  1.3234 -1.2861 -0.3855
   62MPD2     C  961   2.747   1.876  15.523  0.6566 -0.3915 -0.6238
   62MPD2    C1  962   2.675   1.992  15.483  0.3716 -0.3421 -0.2856
   62MPD2    C2  963   2.700   2.028  15.351 -0.0845  0.8634  0.6175
   62MPD2    C3  964   2.778   1.958  15.259 -0.1431  0.1934  0.2115
   62MPD2    C4  965   2.846   1.849  15.305 -0.4567 -0.8401  0.1485
   62MPD2    C5  966   2.828   1.814  15.434  0.2338  0.3674 -0.4818
   62MPD2     H  967   2.643   2.112  15.313  0.5085  1.0346  0.0997
   62MPD2    H1  968   2.905   1.783  15.242 -0.2942 -0.1743 -0.3898
   62MPD2    H2  969   2.737   1.828  15.620  2.8762  0.7634  0.1842
   62MPD2    H3  970   2.890   1.730  15.461 -0.8413 -0.4090 -0.4509
   62MPD2     N  971   2.787   1.992  15.120 -0.0957 -0.0793  0.2202
   62MPD2    H5  972   2.857   1.948  15.062  0.2154  0.3147  0.2962
   62MPD2    N1  973   2.574   2.062  15.545  0.3110 -0.4924  0.1945
   62MPD2    H7  974   2.532   2.135  15.488  2.7702  1.5022  0.9348
   63TMC2    C1  975   1.913   2.443  10.887  0.0227  0.5655  0.3398
   63TMC2    C2  976   1.864   2.560  10.937  0.0757  0.2836 -0.3911
   63TMC2    C3  977   1.951   2.669  10.918  0.4835  0.1283 -0.2109
   63TMC2    C4  978   2.029   2.438  10.814 -0.7801  0.4288 -0.3452
   63TMC2    C5  979   2.109   2.543  10.806 -0.5860 -0.3056 -0.3898
   63TMC2    C6  980   2.075   2.661  10.867  0.0938 -0.1614 -0.5667
   63TMC2     C  981   1.829   2.325  10.907 -0.3580  0.0003  0.4519
   63TMC2     O  982   1.712   2.353  10.940 -0.1188 -0.0411  0.9090
   63TMC2     H  983   1.779   2.548  11.003  0.2147 -0.3857 -0.3296
   63TMC2    H1  984   2.045   2.345  10.760  1.0375 -0.1749  1.2123
   63TMC2    H2  985   2.125   2.755  10.844 -1.7189  0.7998 -0.5835
   63TMC2    C7  986   2.178   2.551  10.679 -0.3056  0.2117  0.0932
   63TMC2    C8  987   1.919   2.793  10.994  0.4283  0.9072  0.1632
   63TMC2    O1  988   2.128   2.497  10.580  0.3729 -0.0527 -0.1568
   63TMC2    O2  989   1.832   2.869  10.952  0.0608  0.1437 -0.3402
   63TMC2    O5  990   1.905   2.733  11.113 -0.0809  0.2310  0.0606
   63TMC2    H5  991   1.984   2.680  11.136 -0.0914  0.1133 -0.1754
   64MPD2     C  992   1.727   1.819  10.900 -0.9161 -0.0557 -0.1886
   64MPD2    C1  993   1.860   1.833  10.893 -0.4070 -0.0521  0.4827
   64MPD2    C2  994   1.916   1.962  10.900 -0.2145  0.5284 -0.8575
   64MPD2    C3  995   1.845   2.080  10.911  0.2780 -1.1050 -0.1779
   64MPD2    C4  996   1.709   2.060  10.906  0.0252  0.1070  0.2058
   64MPD2    C5  997   1.656   1.936  10.903 -0.3068  0.6158  0.0583
   64MPD2     H  998   2.022   1.979  10.888  0.7990 -2.3060  4.3578
   64MPD2    H1  999   1.643   2.146  10.898 -1.2931 -0.7975  1.1757
   64MPD2    H2 1000   1.671   1.727  10.906 -0.3009 -0.3415  1.0622
   64MPD2    H3 1001   1.548   1.930  10.907 -0.1977 -1.0637  0.4380
   64MPD2     N 1002   1.899   2.207  10.896 -0.0888 -0.0261  0.1731
   64MPD2    H5 1003   2.000   2.210  10.881 -0.5282  0.4834 -2.7083
   64MPD2    N1 1004   1.933   1.714  10.897 -0.9321 -0.0937  0.1655
   64MPD2    H7 1005   1.876   1.632  10.916 -2.1758  0.9961  1.1591
   65TMC2    C1 1006   3.511   1.460  15.652  0.9056 -0.2847 -0.0346
   65TMC2    C2 1007   3.587   1.513  15.755 -0.2589 -0.0465  0.2149
   65TMC2    C3 1008   3.594   1.651  15.755  0.0609  0.1495 -0.4196
   65TMC2    C4 1009   3.420   1.535  15.579  0.5941  0.0895  0.2274
   65TMC2    C5 1010   3.434   1.669  15.588 -0.2881  0.0481 -0.2287
   65TMC2    C6 1011   3.524   1.733  15.670 -0.0608 -0.8924 -0.3282
   65TMC2     C 1012   3.441   1.346  15.699 -0.3392 -0.0615 -0.0518
   65TMC2     O 1013   3.437   1.330  15.822  0.6122  0.2166 -0.4741
   65TMC2     H 1014   3.651   1.450  15.815 -1.1659  0.8122  2.0691
   65TMC2    H1 1015   3.353   1.496  15.503  2.8831 -2.5466 -0.4438
   65TMC2    H2 1016   3.517   1.840  15.686  1.1295 -1.1770  2.0669
   65TMC2    C7 1017   3.355   1.763  15.512  0.1292 -0.5075 -0.1786
   65TMC2    C8 1018   3.695   1.712  15.833  0.3820  0.0427  0.5638
   65TMC2    O1 1019   3.335   1.724  15.398 -0.3450 -0.1406 -0.5293
   65TMC2    O2 1020   3.726   1.826  15.812 -0.2635 -0.4544  0.1456
   65TMC2    O5 1021   3.681   1.668  15.959  0.0632  0.6563 -0.3509
   65TMC2    H5 1022   3.633   1.584  15.966  1.9057 -0.3282  0.5176
   66MPD2     C 1023   3.250   1.120  15.736  0.5761 -0.3634  0.4055
   66MPD2    C1 1024   3.296   1.163  15.615 -0.9561 -0.2935  0.1215
   66MPD2    C2 1025   3.263   1.085  15.504  0.4291  0.0640 -0.1043
   66MPD2    C3 1026   3.175   0.974  15.516  0.2329 -0.0338  0.1665
   66MPD2    C4 1027   3.135   0.934  15.643 -0.0625  0.2471  0.6160
   66MPD2    C5 1028   3.170   1.012  15.743  0.0804 -0.3056 -0.2596
   66MPD2     H 1029   3.305   1.120  15.410  1.0128 -0.9305 -0.2221
   66MPD2    H1 1030   3.061   0.855  15.650 -0.5878  0.7286  0.5708
   66MPD2    H2 1031   3.261   1.180  15.826 -0.3197  0.1048  0.2073
   66MPD2    H3 1032   3.128   0.993  15.841  3.0599  0.2077  1.1271
   66MPD2     N 1033   3.124   0.908  15.404 -0.4942  0.3712  0.6135
   66MPD2    H5 1034   3.049   0.842  15.423 -0.6715  0.5655  0.5868
   66MPD2    N1 1035   3.377   1.281  15.596  0.2509 -0.1820  0.3003
   66MPD2    H7 1036   3.413   1.297  15.503  0.8893  0.9661  0.7472
   67TMC2    C1 1037   3.549   0.193  14.097 -0.3059  0.2750 -0.2060
   67TMC2    C2 1038   3.479   0.103  14.172 -1.2056  0.6171  0.2908
   67TMC2    C3 1039   3.439   0.137  14.298 -0.0449  0.2918  0.1563
   67TMC2    C4 1040   3.581   0.306  14.158 -0.1446  0.4498 -1.0693
   67TMC2    C5 1041   3.562   0.334  14.287 -0.1867  0.6297 -0.0485
   67TMC2    C6 1042   3.487   0.244  14.363 -0.0916  0.1762 -0.4106
   67TMC2     C 1043   3.489   0.200  13.970 -0.6880  0.0853 -0.2320
   67TMC2     O 1044   3.442   0.097  13.920  0.0258  0.0026  0.4247
   67TMC2     H 1045   3.416   0.023  14.135  0.3068 -1.1439  1.5557
   67TMC2    H1 1046   3.651   0.369  14.104 -0.8928  2.1037 -0.1278
   67TMC2    H2 1047   3.473   0.267  14.468  1.1144  2.4859 -0.7572
   67TMC2    C7 1048   3.634   0.450  14.344 -0.2647  0.0110  0.1538
   67TMC2    C8 1049   3.408   0.020  14.376  0.2429 -0.3922  0.0704
   67TMC2    O1 1050   3.724   0.512  14.285  0.1095 -0.1376  0.3483
   67TMC2    O2 1051   3.296   0.002  14.417  0.4290  0.8814 -0.4810
   67TMC2    O5 1052   3.504   4.661  14.363  0.4222 -0.0654 -0.4115
   67TMC2    H5 1053   3.585   4.694  14.320  1.0398  0.1654  0.9165
   68MPD2     C 1054   3.380   0.310  13.713 -0.1306  0.9483 -0.4054
   68MPD2    C1 1055   3.392   0.384  13.831 -0.2155  0.4497 -0.2984
   68MPD2    C2 1056   3.330   0.505  13.842 -0.2687 -0.4665  0.0609
   68MPD2    C3 1057   3.251   0.555  13.742  0.1166  0.1369 -0.0614
   68MPD2    C4 1058   3.256   0.487  13.621  0.1250  0.4716 -0.7617
   68MPD2    C5 1059   3.314   0.363  13.607  0.0144  0.4323 -0.3469
   68MPD2     H 1060   3.344   0.570  13.927 -0.9842 -0.2214 -0.0069
   68MPD2    H1 1061   3.233   0.536  13.527  1.6957  0.3754 -1.1842
   68MPD2    H2 1062   3.433   0.217  13.697  0.2011  0.9692  0.5724
   68MPD2    H3 1063   3.332   0.315  13.511 -1.6528 -1.1452  0.1314
   68MPD2     N 1064   3.189   0.682  13.744  0.1539  0.0764  0.3040
   68MPD2    H5 1065   3.165   0.721  13.654 -1.9978 -3.0911 -0.4935
   68MPD2    N1 1066   3.455   0.328  13.950  0.4818  0.1207 -0.7456
   68MPD2    H7 1067   3.456   0.388  14.032 -2.0387  0.1895 -0.7657
   69TMC2    C1 1068   1.228   1.710  12.607  0.0281 -0.5481 -0.2807
   69TMC2    C2 1069   1.201   1.823  12.673 -0.4257 -0.5872  0.2591
   69TMC2    C3 1070   1.226   1.940  12.614 -0.0999  0.6986  0.3474
   69TMC2    C4 1071   1.278   1.709  12.485 -0.0805 -0.7305 -0.4412
   69TMC2    C5 1072   1.302   1.826  12.426  0.5930 -0.5044 -0.2769
   69TMC2    C6 1073   1.276   1.949  12.484 -0.0430 -0.2005  0.2076
   69TMC2     C 1074   1.204   1.586  12.666 -0.1502 -0.7711 -0.5476
   69TMC2     O 1075   1.111   1.578  12.746 -0.0272  0.0803 -0.3251
   69TMC2     H 1076   1.139   1.823  12.763 -1.4712  2.1010 -0.4544
   69TMC2    H1 1077   1.288   1.614  12.433 -1.1738 -2.1552  1.9268
   69TMC2    H2 1078   1.293   2.045  12.438  1.4193 -2.0004 -2.9828
   69TMC2    C7 1079   1.370   1.829  12.300  0.1016  0.3432 -0.0347
   69TMC2    C8 1080   1.212   2.071  12.685 -0.5196 -0.0895 -0.7821
   69TMC2    O1 1081   1.430   1.729  12.263  0.2611 -0.3520 -0.7700
   69TMC2    O2 1082   1.202   2.178  12.625 -0.2819  0.5679  0.2926
   69TMC2    O5 1083   1.182   2.055  12.814 -0.8453  0.1873 -0.5135
   69TMC2    H5 1084   1.200   1.970  12.861  0.4575  0.6683 -0.1419
   70MPD2     C 1085   1.425   1.291  12.679  0.5934  0.1284  0.3697
   70MPD2    C1 1086   1.311   1.367  12.703  0.0124 -0.4251  0.0805
   70MPD2    C2 1087   1.222   1.315  12.798 -0.2090  0.2534 -0.0781
   70MPD2    C3 1088   1.246   1.202  12.872  0.5811  0.0894  0.4097
   70MPD2    C4 1089   1.363   1.131  12.852  0.3438 -0.1695  0.0768
   70MPD2    C5 1090   1.453   1.182  12.761  0.1906 -0.2476  0.0149
   70MPD2     H 1091   1.123   1.356  12.811 -0.5876 -1.3069  1.8995
   70MPD2    H1 1092   1.390   1.041  12.905  0.7853  0.0070  0.1574
   70MPD2    H2 1093   1.505   1.320  12.611 -0.9954  1.2441 -1.0137
   70MPD2    H3 1094   1.555   1.144  12.758 -0.6484 -2.2022 -3.0185
   70MPD2     N 1095   1.164   1.163  12.983  0.1423 -0.2778 -0.2089
   70MPD2    H5 1096   1.202   1.099  13.052 -1.5204 -0.9908  0.0343
   70MPD2    N1 1097   1.297   1.490  12.640 -0.1246 -0.8041  0.0795
   70MPD2    H7 1098   1.372   1.529  12.584 -1.1636 -0.9794 -1.4411
   71TMC2    C1 1099   2.850   2.454   2.053  0.1098  0.1670 -0.2133
   71TMC2    C2 1100   2.962   2.427   2.138 -0.7577 -0.3392  0.1756
   71TMC2    C3 1101   2.948   2.441   2.270 -0.1733  1.0037  0.1062
   71TMC2    C4 1102   2.732   2.496   2.107  0.8125  0.1652  0.0426
   71TMC2    C5 1103   2.733   2.521   2.243 -0.6053  0.3087 -0.0728
   71TMC2    C6 1104   2.836   2.490   2.329 -0.1395  0.3088  0.2671
   71TMC2     C 1105   2.853   2.446   1.906 -0.0608 -0.1147  0.5249
   71TMC2     O 1106   2.949   2.497   1.854 -0.5140  0.2024  0.4346
   71TMC2     H 1107   3.055   2.394   2.094 -0.0766  0.8088  0.7584
   71TMC2    H1 1108   2.648   2.519   2.043  1.5063  0.7725 -0.6420
   71TMC2    H2 1109   2.808   2.483   2.434 -0.1567  0.6821  0.2889
   71TMC2    C7 1110   2.603   2.556   2.299 -0.8788 -0.6139 -0.2542
   71TMC2    C8 1111   3.059   2.392   2.344  0.2038  0.0776  0.1739
   71TMC2    O1 1112   2.601   2.612   2.405  0.5209  0.1921 -0.1334
   71TMC2    O2 1113   3.115   2.291   2.303 -0.2357  0.3663 -0.1991
   71TMC2    O5 1114   3.043   2.418   2.476  0.6045  0.0961 -0.3822
   71TMC2    H5 1115   2.999   2.504   2.496 -0.5390 -0.5031 -0.3395
   72MPD2     C 1116   2.595   2.295   1.484  0.2053 -0.2505  0.0278
   72MPD2    C1 1117   2.689   2.392   1.490  0.2084  0.3765 -0.1026
   72MPD2    C2 1118   2.740   2.425   1.616  0.9260 -0.4377 -0.5857
   72MPD2    C3 1119   2.693   2.369   1.735  0.2510  0.4864  0.1244
   72MPD2    C4 1120   2.584   2.282   1.725  0.2238  0.9454  0.2449
   72MPD2    C5 1121   2.550   2.241   1.601  0.0420 -0.6024 -0.3741
   72MPD2     H 1122   2.818   2.501   1.618  0.6037 -0.2045  2.5193
   72MPD2    H1 1123   2.550   2.227   1.812  1.4051  2.3296  1.5910
   72MPD2    H2 1124   2.550   2.268   1.390 -0.9112 -2.3513  1.1666
   72MPD2    H3 1125   2.475   2.164   1.585 -0.9564  0.2676  0.1248
   72MPD2     N 1126   2.738   2.391   1.866  0.2319 -0.8602 -0.1148
   72MPD2    H5 1127   2.684   2.343   1.937 -0.7422  0.0446 -0.2482
   72MPD2    N1 1128   2.743   2.459   1.374  0.5982 -0.0326  0.5612
   72MPD2    H7 1129   2.825   2.519   1.384  0.0950  0.3398  2.4344
   73TMC2    C1 1130   3.063   3.869  13.945 -0.3295  0.1088  0.7454
   73TMC2    C2 1131   3.042   3.792  14.054  1.0213  0.0783  0.4591
   73TMC2    C3 1132   3.139   3.789  14.146 -0.1248  0.1448 -0.1263
   73TMC2    C4 1133   3.180   3.940  13.935 -0.6261  0.0351  0.5561
   73TMC2    C5 1134   3.274   3.942  14.037 -0.3945 -0.0566  0.3890
   73TMC2    C6 1135   3.257   3.856  14.143  0.8072 -0.1668 -0.1613
   73TMC2     C 1136   2.957   3.963  13.933 -0.4619  0.2246  0.1168
   73TMC2     O 1137   2.990   4.081  13.940  0.2855 -0.1170 -0.0366
   73TMC2     H 1138   2.945   3.757  14.087  0.3067  0.8666 -0.7890
   73TMC2    H1 1139   3.195   3.998  13.845  0.6833  1.3198  1.6013
   73TMC2    H2 1140   3.320   3.850  14.231  1.1564  0.1882 -0.3879
   73TMC2    C7 1141   3.318   4.075  14.077 -0.0104 -0.4125 -0.2286
   73TMC2    C8 1142   3.126   3.688  14.252 -0.5025  0.0004 -0.2181
   73TMC2    O1 1143   3.427   4.091  14.132  0.1393 -0.5514 -0.0270
   73TMC2    O2 1144   3.152   3.706  14.370 -0.0965 -0.2079  0.2847
   73TMC2    O5 1145   3.108   3.573  14.183 -0.0013 -0.1691 -0.1642
   73TMC2    H5 1146   3.120   3.582  14.086 -0.4029  1.4488 -0.0668
   74MPD2     C 1147   2.479   4.122  13.910  0.2549  0.2481  0.3762
   74MPD2    C1 1148   2.595   4.191  13.887  0.0867  0.3346  0.7089
   74MPD2    C2 1149   2.715   4.118  13.889 -0.4815 -0.2750  0.4930
   74MPD2    C3 1150   2.715   3.981  13.911 -0.4399 -0.0541  0.7097
   74MPD2    C4 1151   2.597   3.918  13.938 -0.0152 -0.2216 -0.2189
   74MPD2    C5 1152   2.484   3.990  13.941 -0.1457  0.2585 -0.2776
   74MPD2     H 1153   2.810   4.168  13.871 -0.7062 -0.2207 -0.5542
   74MPD2    H1 1154   2.590   3.818  13.980 -0.5633 -0.7154 -1.5137
   74MPD2    H2 1155   2.380   4.166  13.900  0.9385  1.5817 -0.6104
   74MPD2    H3 1156   2.387   3.944  13.956 -0.0071 -0.7517 -2.4221
   74MPD2     N 1157   2.834   3.912  13.933  0.5007  0.8540 -0.0603
   74MPD2    H5 1158   2.826   3.811  13.928 -0.8955  0.9734 -0.3801
   74MPD2    N1 1159   2.592   4.333  13.865  0.0408  0.3957 -0.2141
   74MPD2    H7 1160   2.500   4.376  13.856 -0.5140 -0.4304  1.5520
   75TMC2    C1 1161   3.115   0.896  13.834 -0.2001  0.0683  0.7250
   75TMC2    C2 1162   3.107   0.976  13.942 -0.1469  0.3876  0.2359
   75TMC2    C3 1163   3.034   1.091  13.935 -0.9465  0.0334  0.3867
   75TMC2    C4 1164   3.048   0.928  13.719 -0.4317 -0.1825 -0.8767
   75TMC2    C5 1165   2.974   1.041  13.709  0.0898  0.1406 -0.7623
   75TMC2    C6 1166   2.954   1.120  13.825 -0.4869  0.3102 -1.1162
   75TMC2     C 1167   3.169   0.761  13.853  0.2351  0.1438 -0.4013
   75TMC2     O 1168   3.186   0.731  13.972  0.3312  0.3131 -0.2475
   75TMC2     H 1169   3.163   0.954  14.032 -0.3790 -2.0879 -0.2238
   75TMC2    H1 1170   3.072   0.876  13.627  1.1000  2.7186 -2.1311
   75TMC2    H2 1171   2.881   1.199  13.833  1.9533  2.4831 -0.3849
   75TMC2    C7 1172   2.862   1.032  13.624 -0.5693 -1.0257 -0.6582
   75TMC2    C8 1173   3.010   1.178  14.047 -0.7595 -0.5318  1.0481
   75TMC2    O1 1174   2.855   0.926  13.561 -0.0610  0.2025 -0.2493
   75TMC2    O2 1175   2.920   1.260  14.046 -0.0005 -0.0611  0.4366
   75TMC2    O5 1176   3.126   1.199  14.111  0.7831 -0.5990  0.5167
   75TMC2    H5 1177   3.198   1.136  14.087  1.8961  0.3921  1.2452
   76TMC2    C1 1178   1.479   0.928  12.079 -0.5659 -0.1426 -0.0803
   76TMC2    C2 1179   1.347   0.926  12.045  0.2934  0.2947 -0.4199
   76TMC2    C3 1180   1.266   0.841  12.120 -0.5289 -0.6105 -0.0221
   76TMC2    C4 1181   1.530   0.859  12.195  0.4420  0.4822  0.3618
   76TMC2    C5 1182   1.438   0.797  12.272  0.4447  0.2243 -0.2995
   76TMC2    C6 1183   1.311   0.778  12.231  0.1226  0.0402 -0.0862
   76TMC2     C 1184   1.565   1.016  12.005  0.1791  0.3483  0.0009
   76TMC2     O 1185   1.517   1.122  11.957  0.0923 -0.3209 -0.6424
   76TMC2     H 1186   1.310   0.975  11.955 -0.0456  1.4750  0.3589
   76TMC2    H1 1187   1.633   0.877  12.224  0.9870 -0.4150 -1.0276
   76TMC2    H2 1188   1.248   0.702  12.276  0.8856 -0.6748 -0.2199
   76TMC2    C7 1189   1.486   0.700  12.370 -0.5945  0.1443 -0.1947
   76TMC2    C8 1190   1.136   0.811  12.066  0.7142  0.0527 -0.0539
   76TMC2    O1 1191   1.418   0.599  12.392  0.7842 -0.3653  0.3482
   76TMC2    O2 1192   1.042   0.770  12.132 -0.7026 -0.1898 -0.4107
   76TMC2    O5 1193   1.174   0.738  11.957 -0.2961 -0.2130 -0.3698
   76TMC2    H5 1194   1.270   0.723  11.949  0.1286  1.8848  0.8284
   77MPD2     C 1195   2.039   1.148  11.861  0.2696 -0.2282  0.0265
   77MPD2    C1 1196   1.918   1.221  11.864  0.1901  0.0190 -0.2987
   77MPD2    C2 1197   1.800   1.169  11.918 -0.1879 -0.3315 -0.3062
   77MPD2    C3 1198   1.806   1.039  11.964  0.2786 -0.1517  0.0514
   77MPD2    C4 1199   1.924   0.969  11.961  0.3410  0.0652 -0.2535
   77MPD2    C5 1200   2.033   1.018  11.904 -0.5321  0.2356  0.3312
   77MPD2     H 1201   1.713   1.232  11.929  0.6902  0.7421  0.5400
   77MPD2    H1 1202   1.928   0.863  11.983  1.6336  0.3733  0.9726
   77MPD2    H2 1203   2.127   1.195  11.818  0.9742 -0.3236  1.3751
   77MPD2    H3 1204   2.123   0.958  11.896 -1.0147 -0.8058  2.6190
   77MPD2     N 1205   1.690   0.971  12.007 -0.6227  0.4116 -0.2491
   77MPD2    H5 1206   1.711   0.880  12.046 -0.0946 -0.3394 -2.3180
   77MPD2    N1 1207   1.915   1.352  11.811 -0.4085 -0.5983  0.5158
   77MPD2    H7 1208   1.824   1.388  11.785 -0.8105 -1.5943  0.5156
   78TMC2    C1 1209   3.036   2.817   2.074 -0.0452  0.1735 -0.7429
   78TMC2    C2 1210   3.100   2.783   2.191 -0.4112  0.0522 -0.6040
   78TMC2    C3 1211   3.225   2.731   2.179  0.7022 -0.4186  0.0538
   78TMC2    C4 1212   3.100   2.815   1.958  0.1848  0.4408  1.0172
   78TMC2    C5 1213   3.230   2.774   1.945 -0.3231 -0.2935 -0.7205
   78TMC2    C6 1214   3.292   2.729   2.059  0.6559 -0.0017  0.3200
   78TMC2     C 1215   2.891   2.844   2.083  0.2216 -0.7701 -0.1644
   78TMC2     O 1216   2.840   2.874   2.192 -0.5737  0.2770  0.0406
   78TMC2     H 1217   3.069   2.788   2.295 -0.9376 -1.8267 -0.6623
   78TMC2    H1 1218   3.053   2.872   1.878 -0.2135 -0.5879  0.5113
   78TMC2    H2 1219   3.389   2.681   2.055  0.1603 -1.0964  1.4703
   78TMC2    C7 1220   3.310   2.774   1.819 -0.0874 -0.1265 -0.8733
   78TMC2    C8 1221   3.303   2.707   2.302  0.3611 -0.4920  0.2672
   78TMC2    O1 1222   3.428   2.740   1.831 -0.4793  0.5614 -0.3549
   78TMC2    O2 1223   3.252   2.685   2.409  0.1552  0.2656 -0.2413
   78TMC2    O5 1224   3.409   2.783   2.274  0.1053 -0.5313 -0.3393
   78TMC2    H5 1225   3.403   2.810   2.180 -0.4164 -0.1815 -0.1998
   79MPD1     C 1226   2.417   2.828   1.884 -0.5304  0.2436 -1.0398
   79MPD1    C1 1227   2.460   2.881   2.001  0.3192 -0.2257 -0.1389
   79MPD1    C2 1228   2.592   2.873   2.044 -0.0120  0.2848  0.2241
   79MPD1    C3 1229   2.679   2.817   1.956  0.0889 -0.3653  0.2627
   79MPD1    C4 1230   2.634   2.781   1.834  0.0158 -0.0644 -0.6320
   79MPD1    C5 1231   2.504   2.788   1.792  0.0020 -0.7655  0.0994
   79MPD1     H 1232   2.610   2.912   2.144  2.0613  0.1456 -0.1009
   79MPD1    H1 1233   2.690   2.720   1.764  0.2719  0.1360 -0.5984
   79MPD1    H2 1234   2.311   2.830   1.858 -0.6697 -1.6009 -0.6393
   79MPD1    H3 1235   2.468   2.737   1.703 -0.5950  1.7145 -1.0643
   79MPD1     N 1236   2.823   2.810   1.970  0.0491 -0.0237  0.1794
   79MPD1    H5 1237   2.875   2.775   1.890 -2.1738 -2.1698 -0.2953
   79MPD1    N1 1238   2.363   2.927   2.089 -0.3711 -0.2768  0.1583
   79MPD1    H6 1239   2.290   2.864   2.123  0.9716 -1.0718  1.5592
   79MPD1    H7 1240   2.414   2.966   2.168 -0.8894  1.7080 -0.4961
   80TMC2    C1 1241   0.585   0.841  11.738  1.4533 -0.5296  0.2182
   80TMC2    C2 1242   0.512   0.932  11.679  0.4998  0.9551  0.6377
   80TMC2    C3 1243   0.395   0.982  11.739 -0.1335 -0.7470 -0.1606
   80TMC2    C4 1244   0.532   0.777  11.850  0.4032 -0.1822  0.7774
   80TMC2    C5 1245   0.419   0.835  11.904 -0.6321 -0.4154  0.8010
   80TMC2    C6 1246   0.349   0.940  11.859  0.3389 -0.1820 -0.1992
   80TMC2     C 1247   0.718   0.896  11.763 -0.0697 -0.6469 -0.3589
   80TMC2     O 1248   0.743   0.994  11.697 -0.3866  0.4691 -0.0280
   80TMC2     H 1249   0.554   0.974  11.588 -0.0518 -1.2441 -0.6223
   80TMC2    H1 1250   0.578   0.692  11.898  2.1406  0.3194  0.0092
   80TMC2    H2 1251   0.252   0.972  11.896  0.2766 -1.8655  1.0470
   80TMC2    C7 1252   0.367   0.774  12.023 -0.9102  1.0156 -0.5083
   80TMC2    C8 1253   0.324   1.077  11.667 -0.1523  0.5316  0.9442
   80TMC2    O1 1254   0.383   0.652  12.028  0.5522  0.0067 -0.1513
   80TMC2    O2 1255   0.387   1.154  11.597 -0.4540 -0.2555 -0.7411
   80TMC2    O5 1256   0.201   1.096  11.721  0.2451  0.1188  0.6172
   80TMC2    H5 1257   0.169   1.008  11.750 -0.4359  0.2879  0.3779
   81MPD2     C 1258   0.936   1.040  11.914 -0.4264  0.5044  0.6080
   81MPD2    C1 1259   0.837   0.962  11.967 -0.1770  0.8155  1.1877
   81MPD2    C2 1260   0.810   0.964  12.101 -0.5064  0.1029 -0.6431
   81MPD2    C3 1261   0.867   1.062  12.180 -0.2458 -0.1700  0.3098
   81MPD2    C4 1262   0.968   1.142  12.135  0.3301  0.1793  0.9065
   81MPD2    C5 1263   1.002   1.124  12.001 -0.1499  0.0419  0.2333
   81MPD2     H 1264   0.730   0.904  12.141  0.9374 -0.4479  1.4420
   81MPD2    H1 1265   1.006   1.232  12.182  0.9745  0.8032 -0.8128
   81MPD2    H2 1266   0.975   1.032  11.813  0.1369 -0.1322  0.8737
   81MPD2    H3 1267   1.076   1.189  11.956 -2.7023  2.0567 -0.9937
   81MPD2     N 1268   0.814   1.085  12.307  0.3023 -0.4757 -0.3371
   81MPD2    H5 1269   0.840   1.166  12.363 -2.4399 -1.8931  3.0337
   81MPD2    N1 1270   0.754   0.872  11.893 -0.6429 -0.1295 -0.3870
   81MPD2    H7 1271   0.697   0.809  11.950  1.4350 -0.2122  1.6245
   82TMC2    C1 1272   4.220   0.277  11.111 -0.1961  0.4519  0.2365
   82TMC2    C2 1273   4.318   0.283  11.206  0.4156  0.3424  0.3059
   82TMC2    C3 1274   4.345   0.168  11.275 -0.0989 -0.6910 -0.5304
   82TMC2    C4 1275   4.140   0.164  11.089 -0.1490  0.5785  0.1587
   82TMC2    C5 1276   4.174   0.057  11.164 -0.4494 -0.3355  0.0950
   82TMC2    C6 1277   4.266   0.059  11.261 -0.1809  0.0378 -0.9718
   82TMC2     C 1278   4.171   0.405  11.065 -0.5206  0.0892  0.6378
   82TMC2     O 1279   4.047   0.421  11.045  0.5067 -0.1403  0.1576
   82TMC2     H 1280   4.385   0.368  11.202 -2.2500  2.5016  1.7811
   82TMC2    H1 1281   4.056   0.169  11.021 -0.0896 -1.2821 -0.0271
   82TMC2    H2 1282   4.284   4.697  11.307 -1.2130  1.2671  2.0411
   82TMC2    C7 1283   4.087   4.676  11.177  0.1118  0.6521 -0.2971
   82TMC2    C8 1284   4.479   0.140  11.318 -0.5297 -0.6081  0.4025
   82TMC2    O1 1285   4.061   4.643  11.291  0.1811 -0.0677  0.0006
   82TMC2    O2 1286   4.580   0.167  11.253  0.2230 -0.7216 -0.2565
   82TMC2    O5 1287   4.468   0.044  11.410 -0.6005 -0.1001 -0.4262
   82TMC2    H5 1288   4.386   0.053  11.462 -0.1986  2.3155 -0.2058
   83MPD2     C 1289   4.230   0.862  10.848  0.1317 -0.1353  0.3570
   83MPD2    C1 1290   4.111   0.805  10.901 -0.3627  0.2172  0.6958
   83MPD2    C2 1291   4.123   0.678  10.952 -0.6262 -0.1057 -0.4584
   83MPD2    C3 1292   4.242   0.614  10.963 -0.9090  0.9375  0.5213
   83MPD2    C4 1293   4.355   0.676  10.907  0.6142  0.0556 -0.0695
   83MPD2    C5 1294   4.350   0.801  10.845 -0.3697  0.0220  0.1434
   83MPD2     H 1295   4.033   0.629  10.986 -0.7139 -0.6785 -1.5211
   83MPD2    H1 1296   4.451   0.627  10.899  1.2221  1.5894 -2.0843
   83MPD2    H2 1297   4.237   0.962  10.808 -0.4013 -0.0564  0.4659
   83MPD2    H3 1298   4.436   0.857  10.811 -1.6714  1.7713 -0.2404
   83MPD2     N 1299   4.270   0.489  11.023  0.4810 -0.0442 -0.2066
   83MPD2    H5 1300   4.365   0.455  11.013  0.4249 -0.2354 -0.1025
   83MPD2    N1 1301   3.992   0.877  10.893 -0.3580 -0.0290 -0.4041
   83MPD2    H7 1302   4.005   0.967  10.848 -0.1310  1.1959  2.0962
   84TMC2    C1 1303   0.682   4.376  11.304 -0.0351  0.1564  0.2306
   84TMC2    C2 1304   0.811   4.399  11.351 -0.2872 -0.2927  0.0042
   84TMC2    C3 1305   0.913   4.377  11.265  0.0087 -0.2464 -0.3232
   84TMC2    C4 1306   0.664   4.326  11.180 -0.5199 -0.3615  0.6115
   84TMC2    C5 1307   0.769   4.289  11.104 -0.3240  0.7367  0.0927
   84TMC2    C6 1308   0.901   4.329  11.140 -0.6350  0.0390  0.7140
   84TMC2     C 1309   0.567   4.424  11.378 -0.2328  0.3395 -0.5933
   84TMC2     O 1310   0.577   4.527  11.443 -0.2315  0.0835  0.1578
   84TMC2     H 1311   0.831   4.443  11.448 -0.2494  0.5018 -0.3612
   84TMC2    H1 1312   0.564   4.313  11.141 -1.1605  1.6052  1.6117
   84TMC2    H2 1313   0.988   4.305  11.079 -1.8742 -1.3585 -0.5102
   84TMC2    C7 1314   0.745   4.262  10.967  0.6362 -0.3534 -0.0706
   84TMC2    C8 1315   1.049   4.351  11.322  0.3146 -0.6235 -0.6907
   84TMC2    O1 1316   0.820   4.311  10.882 -0.3911 -0.6274 -0.4521
   84TMC2    O2 1317   1.149   4.348  11.256 -0.2979  0.2878  0.1556
   84TMC2    O5 1318   1.017   4.275  11.436  0.1761  0.1715  0.0100
   84TMC2    H5 1319   0.929   4.250  11.472  0.3400  0.6121  0.7210
   85TMC2    C1 1320   0.852   2.517  16.333 -0.1700  0.0372 -0.5546
   85TMC2    C2 1321   0.967   2.506  16.258 -0.9346 -0.7930  0.3286
   85TMC2    C3 1322   0.999   2.616  16.182  0.1222 -0.1363  0.0406
   85TMC2    C4 1323   0.773   2.627  16.333  0.3074  0.4544 -0.2346
   85TMC2    C5 1324   0.818   2.737  16.256 -0.2192 -0.7344  0.5432
   85TMC2    C6 1325   0.931   2.734  16.184  0.2018  0.5645 -0.2059
   85TMC2     C 1326   0.841   2.435  16.455 -0.4159 -0.4332 -0.1320
   85TMC2     O 1327   0.943   2.411  16.521 -0.0763 -0.0171  0.0259
   85TMC2     H 1328   1.038   2.427  16.280 -0.6704 -0.5837  0.2335
   85TMC2    H1 1329   0.679   2.625  16.387  1.3951 -1.2875  1.6118
   85TMC2    H2 1330   0.973   2.817  16.128 -0.4258  0.6926 -0.4789
   85TMC2    C7 1331   0.761   2.860  16.261  0.2711 -1.5104 -0.4159
   85TMC2    C8 1332   1.118   2.622  16.112  0.5265 -0.2351  0.3481
   85TMC2    O1 1333   0.705   2.904  16.362  0.5040  0.0992 -0.3223
   85TMC2    O2 1334   1.146   2.714  16.039 -0.2996 -0.4070  0.4733
   85TMC2    O5 1335   1.183   2.505  16.110 -0.4741 -0.2163  0.2753
   85TMC2    H5 1336   1.177   2.455  16.194 -1.6527 -0.6181 -0.0440
   86MPD2     C 1337   0.613   2.081  16.760 -0.2866  0.3007 -0.0062
   86MPD2    C1 1338   0.547   2.086  16.638  0.7126  0.0399  0.2444
   86MPD2    C2 1339   0.586   2.186  16.547 -0.2629  0.0017 -0.2430
   86MPD2    C3 1340   0.697   2.272  16.569 -0.0844  0.1184  0.1364
   86MPD2    C4 1341   0.764   2.255  16.687  0.0102 -0.5334  0.1934
   86MPD2    C5 1342   0.726   2.158  16.775  0.4871  0.5239  0.1384
   86MPD2     H 1343   0.539   2.197  16.450 -0.9111  1.9892  0.2953
   86MPD2    H1 1344   0.842   2.322  16.721 -1.6566  1.1889  0.5986
   86MPD2    H2 1345   0.586   2.016  16.842 -1.4029 -0.1954 -0.7714
   86MPD2    H3 1346   0.777   2.136  16.868 -0.2148 -1.2667  0.1079
   86MPD2     N 1347   0.720   2.377  16.470 -0.3500 -0.6295 -0.1250
   86MPD2    H5 1348   0.641   2.395  16.408  0.7910  0.1374 -1.3381
   86MPD2    N1 1349   0.460   1.991  16.595 -0.0281  0.2813 -0.6937
   86MPD2    H7 1350   0.403   2.012  16.515 -1.7612 -0.8376  0.2657
   87TMC2    C1 1351   3.347   1.411   0.812 -0.5075 -0.2799 -0.0073
   87TMC2    C2 1352   3.449   1.396   0.730  0.9667  0.4512 -0.4954
   87TMC2    C3 1353   3.579   1.440   0.775  0.1715  0.4118 -0.8855
   87TMC2    C4 1354   3.365   1.469   0.934  0.4884  0.0948 -0.0508
   87TMC2    C5 1355   3.488   1.527   0.965  0.0525 -0.3496  0.4560
   87TMC2    C6 1356   3.603   1.501   0.893 -0.1623 -0.4473 -0.0748
   87TMC2     C 1357   3.212   1.377   0.759  0.8214  0.2419 -0.1427
   87TMC2     O 1358   3.209   1.308   0.658 -0.6194  0.2340  0.4990
   87TMC2     H 1359   3.428   1.354   0.633  0.3090 -1.8127  0.6112
   87TMC2    H1 1360   3.279   1.478   0.999  0.7093 -3.2171  0.6783
   87TMC2    H2 1361   3.704   1.528   0.924  0.0493  2.3540 -3.1528
   87TMC2    C7 1362   3.476   1.639   1.063  0.7734 -0.1117 -0.1612
   87TMC2    C8 1363   3.682   1.406   0.677  0.2261 -0.2011  0.5073
   87TMC2    O1 1364   3.373   1.706   1.049 -0.5855 -0.2568  0.3470
   87TMC2    O2 1365   3.660   1.337   0.574  0.1152 -0.3662  0.4685
   87TMC2    O5 1366   3.800   1.468   0.697 -0.8807  0.5313 -0.2402
   87TMC2    H5 1367   3.798   1.533   0.770 -1.0701  0.6196 -0.3229
   88MPD2     C 1368   3.690   1.725   1.349 -0.3614 -0.1924  0.6063
   88MPD2    C1 1369   3.601   1.753   1.239  0.0568 -0.1802 -0.4463
   88MPD2    C2 1370   3.510   1.852   1.249 -0.2798  0.1541  0.2882
   88MPD2    C3 1371   3.486   1.910   1.371 -0.0179  0.2705 -0.2004
   88MPD2    C4 1372   3.575   1.887   1.479 -0.1447 -0.0971 -0.0651
   88MPD2    C5 1373   3.671   1.787   1.474 -0.9074  0.4621  0.0924
   88MPD2     H 1374   3.437   1.874   1.172  2.1003  4.2526 -0.8167
   88MPD2    H1 1375   3.581   1.936   1.575 -0.7813 -0.5221  0.1880
   88MPD2    H2 1376   3.770   1.651   1.343 -0.0903  0.1725 -0.2550
   88MPD2    H3 1377   3.743   1.773   1.553 -1.3803 -0.6589  0.3157
   88MPD2     N 1378   3.372   1.992   1.388 -0.5898  0.0661 -0.1453
   88MPD2    H5 1379   3.326   2.030   1.306  1.2516  1.0980 -0.6934
   88MPD2    N1 1380   3.588   1.651   1.142 -0.7944 -0.8428 -0.3825
   88MPD2    H7 1381   3.650   1.570   1.141 -2.2353 -1.9092 -2.2586
   89TMC2    C1 1382   3.294   3.943   1.436 -0.1778 -0.1633  0.4655
   89TMC2    C2 1383   3.240   3.818   1.417 -0.0768  0.6396  0.5819
   89TMC2    C3 1384   3.205   3.791   1.288  0.1310 -0.5619 -0.1758
   89TMC2    C4 1385   3.302   4.047   1.341  0.0884 -0.4631  0.3081
   89TMC2    C5 1386   3.249   4.008   1.222 -0.0126 -0.1632  0.8182
   89TMC2    C6 1387   3.208   3.882   1.188  0.5925 -0.2860 -0.3181
   89TMC2     C 1388   3.359   3.973   1.558  0.3077  0.4538 -0.9972
   89TMC2     O 1389   3.445   4.061   1.563 -0.4600  0.3335 -0.0783
   89TMC2     H 1390   3.252   3.734   1.484  1.1605  3.1414  3.4706
   89TMC2    H1 1391   3.302   4.149   1.377  2.7509 -1.2814  2.5323
   89TMC2    H2 1392   3.181   3.872   1.083 -0.9864 -0.8875  0.1488
   89TMC2    C7 1393   3.195   4.112   1.140  0.5296 -0.6664  0.3479
   89TMC2    C8 1394   3.130   3.665   1.262  0.1720 -0.0527 -0.2186
   89TMC2    O1 1395   3.098   4.082   1.074  0.3623 -0.0795  0.1944
   89TMC2    O2 1396   3.143   3.556   1.318  0.0923  0.4608  0.0881
   89TMC2    O5 1397   3.059   3.685   1.152  0.1678 -0.8437  0.2254
   89TMC2    H5 1398   3.040   3.775   1.120 -1.6727 -1.3111 -0.0021
   90MPD2     C 1399   3.372   3.885   2.072 -0.2215 -0.4690  0.2666
   90MPD2    C1 1400   3.263   3.833   2.013 -0.6327 -0.2589 -0.3883
   90MPD2    C2 1401   3.246   3.831   1.876  0.2913  0.0810  0.0708
   90MPD2    C3 1402   3.339   3.893   1.795 -0.3838  0.0881 -0.5049
   90MPD2    C4 1403   3.455   3.935   1.853 -0.1874 -0.6107  0.5009
   90MPD2    C5 1404   3.474   3.927   1.991 -0.2372 -0.8809  0.0004
   90MPD2     H 1405   3.148   3.813   1.833  0.3407 -0.3746  0.1439
   90MPD2    H1 1406   3.530   3.981   1.789 -0.2660 -1.1664  0.0047
   90MPD2    H2 1407   3.400   3.889   2.177  1.6312  0.0081 -0.2342
   90MPD2    H3 1408   3.569   3.957   2.034 -0.5436  0.6652 -0.3916
   90MPD2     N 1409   3.300   3.904   1.657 -0.0119  0.1229 -0.0199
   90MPD2    H5 1410   3.219   3.845   1.639  0.8248 -1.2495  0.6783
   90MPD2    N1 1411   3.155   3.775   2.085 -0.7140  0.1251  0.8925
   90MPD2    H7 1412   3.084   3.750   2.018 -1.0442 -2.4301  2.1942
   91TMC2    C1 1413   0.459   3.933  16.349 -0.1281 -0.3892 -0.1034
   91TMC2    C2 1414   0.404   3.949  16.472  0.2685 -0.4744  0.0378
   91TMC2    C3 1415   0.271   3.968  16.478  0.5787  0.9397  0.2035
   91TMC2    C4 1416   0.390   3.950  16.237  0.1130 -0.0032 -0.1011
   91TMC2    C5 1417   0.252   3.959  16.252 -0.4553 -0.2352 -0.2293
   91TMC2    C6 1418   0.191   3.972  16.373  0.0850  0.5614  0.0120
   91TMC2     C 1419   0.602   3.898  16.330  0.3951 -0.4361  0.0064
   91TMC2     O 1420   0.646   3.890  16.214 -0.3046  0.1382  0.5237
   91TMC2     H 1421   0.446   3.925  16.569  2.0883  1.0446 -0.3590
   91TMC2    H1 1422   0.429   3.943  16.137 -0.1755  3.3878 -0.4359
   91TMC2    H2 1423   0.086   3.992  16.392  0.2481  1.1929  0.2670
   91TMC2    C7 1424   0.174   3.964  16.133 -0.2492 -0.5786 -0.3216
   91TMC2    C8 1425   0.203   3.942  16.609 -0.3975  0.0603  0.9412
   91TMC2    O1 1426   0.224   4.024  16.042 -0.1276  0.3949  0.3923
   91TMC2    O2 1427   0.259   3.974  16.714 -0.7348 -0.4213 -0.3185
   91TMC2    O5 1428   0.094   3.867  16.590  0.0185 -0.5499  0.1802
   91TMC2    H5 1429   0.076   3.832  16.500  1.5895  0.7609 -0.6461
   92MPD2     C 1430   0.898   3.900  16.371 -0.8354  0.2437  0.5204
   92MPD2    C1 1431   0.804   3.874  16.475 -0.3992 -0.0026  0.3258
   92MPD2    C2 1432   0.856   3.836  16.597  0.4454 -0.2094 -0.1781
   92MPD2    C3 1433   0.991   3.826  16.619  0.2854 -0.4815  0.5279
   92MPD2    C4 1434   1.076   3.865  16.519  0.5644  0.3841 -0.0063
   92MPD2    C5 1435   1.030   3.904  16.398  0.0461  0.3905 -0.0999
   92MPD2     H 1436   0.787   3.796  16.670  0.4425  0.9117  0.4359
   92MPD2    H1 1437   1.179   3.883  16.548  0.2025  0.7242  1.0847
   92MPD2    H2 1438   0.869   3.925  16.270  1.0974 -1.2488 -0.4047
   92MPD2    H3 1439   1.100   3.954  16.332  0.5043 -2.1448 -1.5404
   92MPD2     N 1440   1.047   3.774  16.741  0.1241  0.2086  0.2261
   92MPD2    H5 1441   0.983   3.767  16.819 -0.5134 -1.7841 -0.4552
   92MPD2    N1 1442   0.663   3.891  16.450 -0.4017  0.1653  0.1513
   92MPD2    H7 1443   0.602   3.862  16.526  2.0443 -0.7250  1.8006
   93TMC2    C1 1444   2.596   3.867  13.429  0.7828 -0.3766  0.4920
   93TMC2    C2 1445   2.524   3.987  13.441  0.6250  0.2036 -0.7429
   93TMC2    C3 1446   2.583   4.097  13.500 -0.5975  0.4291  0.4866
   93TMC2    C4 1447   2.721   3.858  13.474 -0.1104 -0.0934  0.1221
   93TMC2    C5 1448   2.785   3.972  13.527 -0.0291 -0.6343 -0.1999
   93TMC2    C6 1449   2.716   4.091  13.541 -0.4135  0.2944  0.3988
   93TMC2     C 1450   2.520   3.742  13.439 -0.4123 -1.0581 -0.0044
   93TMC2     O 1451   2.585   3.642  13.454 -0.4941 -0.2813  0.1089
   93TMC2     H 1452   2.419   4.003  13.415 -0.3374 -1.2876  2.2683
   93TMC2    H1 1453   2.776   3.765  13.466  1.2875  0.5407  2.1038
   93TMC2    H2 1454   2.759   4.183  13.578  0.6413 -0.8385  1.9814
   93TMC2    C7 1455   2.928   3.971  13.533 -0.0316  0.0383  0.0249
   93TMC2    C8 1456   2.536   4.221  13.450 -0.0881  0.4251 -0.0547
   93TMC2    O1 1457   2.983   3.869  13.491 -0.3790  0.1965  0.1765
   93TMC2    O2 1458   2.548   4.313  13.530 -0.2149 -0.4701  0.0615
   93TMC2    O5 1459   2.553   4.223  13.314  0.0497 -0.2859  0.0921
   93TMC2    H5 1460   2.578   4.134  13.280 -0.5202  0.2130 -1.6135
   94MPD2     C 1461   2.328   3.518  13.439 -0.1432  0.2128 -0.3702
   94MPD2    C1 1462   2.297   3.649  13.462  0.7490 -0.5300  0.3724
   94MPD2    C2 1463   2.164   3.682  13.487 -0.3166 -0.1464 -0.8197
   94MPD2    C3 1464   2.066   3.592  13.510  0.5946 -0.1618 -0.5346
   94MPD2    C4 1465   2.106   3.459  13.497  0.9396  0.7761 -0.7406
   94MPD2    C5 1466   2.233   3.424  13.468  0.7587  0.4297 -0.1271
   94MPD2     H 1467   2.143   3.785  13.463  0.3092  0.5194  1.5390
   94MPD2    H1 1468   2.038   3.379  13.522  3.0887 -0.4024  1.3399
   94MPD2    H2 1469   2.422   3.475  13.409  0.4590  1.1890  0.1199
   94MPD2    H3 1470   2.266   3.321  13.456  1.0432  0.3311  1.5043
   94MPD2     N 1471   1.932   3.617  13.551 -0.0648  0.0864 -0.2291
   94MPD2    H5 1472   1.876   3.541  13.589 -2.1609  1.1197 -1.2716
   94MPD2    N1 1473   2.388   3.755  13.443  0.1619  0.0987 -0.6053
   94MPD2    H7 1474   2.350   3.849  13.442 -0.7588 -0.2618  0.0114
   95TMC2    C1 1475   2.130   0.959  15.433  0.7554  0.2178 -0.0008
   95TMC2    C2 1476   2.023   0.876  15.456 -0.5434 -0.4866  0.2195
   95TMC2    C3 1477   1.924   0.910  15.549 -0.0737  0.4663 -0.4218
   95TMC2    C4 1478   2.141   1.072  15.505 -0.2531 -0.0054 -0.2649
   95TMC2    C5 1479   2.049   1.101  15.607  0.4106  0.3491 -0.3450
   95TMC2    C6 1480   1.935   1.026  15.633 -0.1145  0.3199 -0.2256
   95TMC2     C 1481   2.245   0.908  15.356 -0.2470 -0.2210  0.6198
   95TMC2     O 1482   2.353   0.968  15.370  0.3776  0.2855 -0.0141
   95TMC2     H 1483   2.008   0.783  15.404  1.5570 -0.4569 -0.4568
   95TMC2    H1 1484   2.225   1.136  15.482 -0.1821  1.0415  2.8894
   95TMC2    H2 1485   1.863   1.050  15.710 -0.1852  0.3027 -0.2856
   95TMC2    C7 1486   2.049   1.227  15.665 -0.5987  0.6186  0.7561
   95TMC2    C8 1487   1.809   0.819  15.561  0.5440  0.5128  0.1166
   95TMC2    O1 1488   1.940   1.279  15.685  0.2950 -0.7056  0.0875
   95TMC2    O2 1489   1.809   0.700  15.540 -0.3009 -0.3527  0.0722
   95TMC2    O5 1490   1.716   0.890  15.621  0.0899 -0.2347  0.2763
   95TMC2    H5 1491   1.740   0.984  15.608  1.5493 -0.2896  2.5229
   96MPD2     C 1492   2.449   0.551  15.034 -0.1861  0.3044 -0.7665
   96MPD2    C1 1493   2.504   0.664  15.091  0.0233  0.0966  0.5318
   96MPD2    C2 1494   2.421   0.744  15.174 -0.8152  0.8831  0.4449
   96MPD2    C3 1495   2.291   0.714  15.198 -0.6965  0.5679 -0.5566
   96MPD2    C4 1496   2.239   0.604  15.136  0.2230  0.6810 -0.3969
   96MPD2    C5 1497   2.317   0.529  15.055 -0.0514  0.2300 -0.2496
   96MPD2     H 1498   2.460   0.833  15.222 -0.0103  3.1021 -4.3355
   96MPD2    H1 1499   2.138   0.576  15.162  0.3283 -0.3603 -1.1230
   96MPD2    H2 1500   2.503   0.484  14.968 -0.6905 -1.1293  0.2783
   96MPD2    H3 1501   2.260   0.449  15.008 -0.4159 -0.2663  1.0520
   96MPD2     N 1502   2.205   0.796  15.279  0.6733  0.4942 -0.4278
   96MPD2    H5 1503   2.111   0.765  15.302  1.1484 -0.3808  0.3094
   96MPD2    N1 1504   2.643   0.698  15.064  0.1156 -0.0747  0.7601
   96MPD2    H7 1505   2.689   0.650  14.988 -1.0524  3.0298 -1.9069
   97TMC2    C1 1506   4.618   3.252   0.063  0.2846 -0.2802  0.8731
   97TMC2    C2 1507   4.579   3.190  17.685  0.1237  0.3503 -0.3519
   97TMC2    C3 1508   4.494   3.259  17.598  0.6447  0.1758  0.1346
   97TMC2    C4 1509   4.563   3.373   0.104 -0.8023  0.6229  0.1902
   97TMC2    C5 1510   4.479   3.441   0.016 -0.3537 -0.3426  0.3313
   97TMC2    C6 1511   4.450   3.382  17.630 -0.5326  0.2307  0.5746
   97TMC2     C 1512   4.685   3.184   0.163  0.3491  1.1073 -0.2148
   97TMC2     O 1513   4.655   3.218   0.275  0.2720 -0.0974  0.0609
   97TMC2     H 1514   4.624   3.097  17.652  1.5430  0.4769  1.2407
   97TMC2    H1 1515   4.591   3.421   0.197  2.9382  0.7190 -0.9854
   97TMC2    H2 1516   4.396   3.437  17.553  3.0347 -1.6584 -3.2181
   97TMC2    C7 1517   4.481   3.586   0.033 -0.0311 -0.0425 -0.8856
   97TMC2    C8 1518   4.460   3.202  17.463 -0.9495 -0.2055  0.0997
   97TMC2    O1 1519   4.493   3.629   0.148 -0.0745  0.2671  0.2211
   97TMC2    O2 1520   4.401   3.273  17.382  0.2252 -0.1632  0.7808
   97TMC2    O5 1521   4.531   3.089  17.437  0.5533 -0.4608 -0.3437
   97TMC2    H5 1522   4.532   3.038  17.521  0.2007  1.5332  0.8921
   98MPD2     C 1523   0.231   2.785   0.347  0.2019  0.8523 -0.1691
   98MPD2    C1 1524   0.132   2.863   0.413  0.1973  0.2629 -0.0450
   98MPD2    C2 1525   0.075   2.970   0.342  0.0284 -1.1715  0.9135
   98MPD2    C3 1526   0.093   2.986   0.206 -0.0353  0.4518 -0.5343
   98MPD2    C4 1527   0.192   2.908   0.143 -0.3533  0.4279 -0.4118
   98MPD2    C5 1528   0.263   2.810   0.215 -0.2175 -0.1702 -0.3181
   98MPD2     H 1529   0.002   3.037   0.387  1.6625  0.0813  1.6731
   98MPD2    H1 1530   0.220   2.930   0.041  1.7432 -0.3635 -0.0066
   98MPD2    H2 1531   0.288   2.710   0.402 -1.0711 -2.1287 -2.9437
   98MPD2    H3 1532   0.339   2.755   0.162 -0.1984 -0.5009  0.0447
   98MPD2     N 1533   0.029   3.082   0.117  0.4103  0.5747 -0.3029
   98MPD2    H5 1534   0.052   3.074   0.018 -2.7466  1.3670 -1.0833
   98MPD2    N1 1535   0.113   2.831   0.554 -0.3687 -0.6048 -0.0078
   98MPD2    H7 1536   0.173   2.757   0.588  0.9081  1.1187  1.4970
   99TMC2    C1 1537   3.570   0.506   1.044  0.1345  0.6495  0.0119
   99TMC2    C2 1538   3.709   0.526   1.064 -0.6164 -0.0180  0.8280
   99TMC2    C3 1539   3.751   0.522   1.196 -0.7093  0.3066  0.0118
   99TMC2    C4 1540   3.477   0.486   1.147 -0.5290  0.2769  0.4946
   99TMC2    C5 1541   3.532   0.481   1.273 -0.5751 -0.6212  0.2486
   99TMC2    C6 1542   3.665   0.492   1.300  0.0059  0.3266 -0.1910
   99TMC2     C 1543   3.526   0.530   0.907 -0.1805 -0.3608  0.0824
   99TMC2     O 1544   3.602   0.572   0.826 -0.6231  0.3382  1.1012
   99TMC2     H 1545   3.784   0.540   0.987 -1.4826  1.5641  0.2664
   99TMC2    H1 1546   3.373   0.465   1.124 -0.2159 -1.0412  0.2349
   99TMC2    H2 1547   3.708   0.483   1.399  0.0941  1.0969 -0.1593
   99TMC2    C7 1548   3.437   0.471   1.381 -0.2214  0.1859 -0.3375
   99TMC2    C8 1549   3.890   0.510   1.223 -0.5437  0.1034 -0.7321
   99TMC2    O1 1550   3.469   0.502   1.492  0.6151 -0.0323 -0.4245
   99TMC2    O2 1551   3.940   0.414   1.283  0.1019  0.0915 -0.2607
   99TMC2    O5 1552   3.952   0.583   1.129  0.3740  0.0447  0.7508
   99TMC2    H5 1553   3.898   0.658   1.095  0.9734  0.8527  1.5875
  100MPD2     C 1554   3.351   0.544   0.662 -0.0906 -0.2930 -0.1941
  100MPD2    C1 1555   3.324   0.466   0.773  0.5261  0.5115 -0.1422
  100MPD2    C2 1556   3.217   0.389   0.775 -0.2287 -0.1174  0.2178
  100MPD2    C3 1557   3.122   0.393   0.671 -0.7756  1.1344 -0.1068
  100MPD2    C4 1558   3.142   0.478   0.563  0.2413 -0.0889 -0.6918
  100MPD2    C5 1559   3.260   0.542   0.558  0.0190  0.2673 -0.7667
  100MPD2     H 1560   3.217   0.320   0.859 -1.7584  2.0445  1.9711
  100MPD2    H1 1561   3.071   0.477   0.481 -0.4266 -0.1856 -0.1045
  100MPD2    H2 1562   3.435   0.610   0.645  1.8182 -2.7092 -0.1803
  100MPD2    H3 1563   3.280   0.594   0.465  1.4980  1.6227  0.3099
  100MPD2     N 1564   3.017   0.302   0.682 -0.4839 -0.4819 -0.2138
  100MPD2    H5 1565   3.050   0.212   0.716  2.9372  0.6960 -0.4140
  100MPD2    N1 1566   3.410   0.462   0.889  0.0880 -0.0680  0.0245
  100MPD2    H7 1567   3.369   0.392   0.951  0.6306 -0.1366  0.3022
  101TMC2    C1 1568   4.720   1.177  13.456  0.2909  0.8253  0.2157
  101TMC2    C2 1569   4.729   1.232  13.584 -0.1735 -0.3933 -0.4052
  101TMC2    C3 1570   0.110   1.302  13.604  0.2082 -0.5836  0.4425
  101TMC2    C4 1571   0.089   1.187  13.364 -0.1128 -0.2459 -0.0720
  101TMC2    C5 1572   0.197   1.265  13.400 -0.6943 -0.2844  0.4360
  101TMC2    C6 1573   0.212   1.320  13.524 -0.1478 -0.1373 -0.5305
  101TMC2     C 1574   4.620   1.066  13.446 -0.2533 -0.2260 -0.8989
  101TMC2     O 1575   4.546   1.059  13.540 -0.4962 -0.3959  0.6624
  101TMC2     H 1576   4.650   1.226  13.657  1.6895  0.2892  1.6916
  101TMC2    H1 1577   0.072   1.156  13.261 -1.0387  1.9785 -0.6023
  101TMC2    H2 1578   0.297   1.379  13.558  0.5255 -1.7465  0.5603
  101TMC2    C7 1579   0.305   1.264  13.299 -0.2241  0.6327  0.9247
  101TMC2    C8 1580   0.111   1.376  13.728  0.7473  0.2538  0.4426
  101TMC2    O1 1581   0.275   1.257  13.180 -0.2172  0.4504 -0.0945
  101TMC2    O2 1582   0.216   1.424  13.762 -0.4792 -0.6726 -0.4188
  101TMC2    O5 1583   0.006   1.459  13.721  0.1441  0.1771 -0.9535
  101TMC2    H5 1584   4.695   1.454  13.634  0.7532 -0.8922 -1.2037
  102MPD2     C 1585   4.559   0.853  13.158 -0.2685  0.3454  0.2910
  102MPD2    C1 1586   4.542   0.897  13.288  0.1183  0.2029 -0.3234
  102MPD2    C2 1587   4.461   0.825  13.374 -0.0855  0.0969  0.3588
  102MPD2    C3 1588   4.386   0.729  13.323 -0.3672  0.6415  0.1702
  102MPD2    C4 1589   4.406   0.676  13.192  0.2123 -0.0598 -0.1988
  102MPD2    C5 1590   4.496   0.738  13.114  0.2879  0.0116  0.1154
  102MPD2     H 1591   4.463   0.848  13.480 -3.0535  2.4489 -0.0918
  102MPD2    H1 1592   4.356   0.585  13.163 -0.2877  0.6297 -1.5134
  102MPD2    H2 1593   4.626   0.892  13.083  1.0273 -1.0877  0.6966
  102MPD2    H3 1594   4.525   0.682  13.026  0.4903  2.3036 -1.2613
  102MPD2     N 1595   4.293   0.666  13.411  0.3716  0.0846 -0.1846
  102MPD2    H5 1596   4.258   0.723  13.487  2.4854 -0.5111  1.2523
  102MPD2    N1 1597   4.623   1.006  13.324 -0.3582  0.2583 -0.8770
  102MPD2    H7 1598   4.681   1.045  13.249 -0.2614  1.3852 -0.2112
  103TMC2    C1 1599   2.206   0.827  12.639  0.4536  0.4510  0.3084
  103TMC2    C2 1600   2.274   0.775  12.530  0.0236 -0.6755  0.1980
  103TMC2    C3 1601   2.396   0.817  12.506  1.1641  0.2855 -0.2146
  103TMC2    C4 1602   2.251   0.939  12.702 -0.2090  0.3338  0.4000
  103TMC2    C5 1603   2.378   0.978  12.676 -0.5043 -0.0401 -0.0934
  103TMC2    C6 1604   2.458   0.912  12.590 -0.3470  0.1262  0.2873
  103TMC2     C 1605   2.064   0.805  12.652 -0.9065 -0.1337  0.3546
  103TMC2     O 1606   1.992   0.906  12.644  0.0912 -0.2340 -0.2137
  103TMC2     H 1607   2.238   0.685  12.481  0.7713 -0.2654 -1.0927
  103TMC2    H1 1608   2.184   0.984  12.774 -1.7287 -1.7519  0.2901
  103TMC2    H2 1609   2.554   0.960  12.571 -0.0165 -0.9174 -0.7157
  103TMC2    C7 1610   2.427   1.082  12.769  0.1463  0.4288 -0.5346
  103TMC2    C8 1611   2.458   0.800  12.376 -0.4572 -0.0885  0.4321
  103TMC2    O1 1612   2.351   1.104  12.865 -0.0185 -0.5147  0.3019
  103TMC2    O2 1613   2.581   0.819  12.371 -0.1412  0.3833 -0.5197
  103TMC2    O5 1614   2.374   0.857  12.289  0.1709  0.2387 -0.1771
  103TMC2    H5 1615   2.276   0.854  12.300  0.3895  0.4043  1.8332
  104MPD2     C 1616   1.867   0.498  12.642 -0.1971  0.0753  0.0840
  104MPD2    C1 1617   1.897   0.624  12.611 -0.5342  0.2924 -0.3750
  104MPD2    C2 1618   1.809   0.703  12.544  0.7927 -1.2387  1.0441
  104MPD2    C3 1619   1.686   0.646  12.515 -0.3981  0.1819 -0.2437
  104MPD2    C4 1620   1.653   0.517  12.540  0.1652 -0.0612 -0.2005
  104MPD2    C5 1621   1.747   0.441  12.603  0.0779  0.1690 -0.4881
  104MPD2     H 1622   1.835   0.804  12.513 -0.3183 -1.7071 -1.4169
  104MPD2    H1 1623   1.567   0.473  12.491 -2.4364  4.4965  0.2585
  104MPD2    H2 1624   1.927   0.435  12.706 -0.3244  0.6899  0.8066
  104MPD2    H3 1625   1.716   0.339  12.618 -3.5078  1.1348 -1.4246
  104MPD2     N 1626   1.613   0.729  12.426  0.5896 -0.4991  0.6372
  104MPD2    H5 1627   1.657   0.817  12.404  0.2962 -0.9279 -1.7230
  104MPD2    N1 1628   2.027   0.672  12.637  0.3261  0.0499  0.2089
  104MPD2    H7 1629   2.095   0.602  12.664  1.1988  0.5001 -0.8252
  105TMC2    C1 1630   2.507   1.120   0.147 -0.3317  0.9007  0.3759
  105TMC2    C2 1631   2.603   1.169   0.055  0.2541 -0.5244 -0.2872
  105TMC2    C3 1632   2.699   1.260   0.102  0.9383  0.7560 -0.6363
  105TMC2    C4 1633   2.511   1.166   0.279  1.0461 -0.3818 -0.1146
  105TMC2    C5 1634   2.615   1.243   0.322  0.7237  0.2110 -0.0360
  105TMC2    C6 1635   2.706   1.299   0.230  0.5027  0.0893  0.6260
  105TMC2     C 1636   2.476   0.981   0.136 -0.2882 -0.3001  0.1004
  105TMC2     O 1637   2.467   0.921   0.238 -0.5949  0.0743 -0.4581
  105TMC2     H 1638   2.616   1.132  17.690  1.1599 -0.7829 -0.0752
  105TMC2    H1 1639   2.457   1.118   0.360 -0.4195  1.8020  0.1957
  105TMC2    H2 1640   2.778   1.377   0.254  0.2085  0.0820  1.5298
  105TMC2    C7 1641   2.618   1.283   0.464 -0.4286  0.9028  1.0039
  105TMC2    C8 1642   2.804   1.293   0.009  0.6421  0.3694 -0.2984
  105TMC2    O1 1643   2.512   1.310   0.520 -0.4379 -0.3104 -0.1014
  105TMC2    O2 1644   2.778   1.321  17.631 -0.3011  0.2959  0.0646
  105TMC2    O5 1645   2.909   1.215   0.045  0.4327 -0.1055 -0.2854
  105TMC2    H5 1646   2.907   1.201   0.142 -0.5423  0.9272 -0.1577
  106MPD2     C 1647   2.542   0.576  17.582  0.4069  0.5269 -0.7651
  106MPD2    C1 1648   2.534   0.685  17.502  0.8089  0.1409  0.4444
  106MPD2    C2 1649   2.483   0.794  17.561 -0.7150  0.2525  0.2378
  106MPD2    C3 1650   2.476   0.811  17.698 -0.7467 -1.0835  0.8090
  106MPD2    C4 1651   2.478   0.697   0.037  0.3332  0.3676  0.6584
  106MPD2    C5 1652   2.490   0.579  17.708 -0.0186  0.3461 -0.2410
  106MPD2     H 1653   2.464   0.878  17.495 -0.5711  0.4635  0.4637
  106MPD2    H1 1654   2.474   0.700   0.146 -0.5731  0.4428  0.6206
  106MPD2    H2 1655   2.569   0.482  17.536  1.9442  0.1004  1.0220
  106MPD2    H3 1656   2.496   0.494   0.040  1.3642 -0.3059 -1.1620
  106MPD2     N 1657   2.463   0.939   0.008 -0.3527 -0.0398 -0.2677
  106MPD2    H5 1658   2.462   1.006  17.669  1.1128  0.3831  0.0870
  106MPD2    N1 1659   2.555   0.699  17.364 -0.1143 -0.4942 -0.1242
  106MPD2    H7 1660   2.532   0.791  17.330  0.8038 -0.4701 -0.6751
  107TMC2    C1 1661   4.581   0.211  11.726  0.1781 -0.5228 -0.5796
  107TMC2    C2 1662   4.623   0.299  11.630 -0.2731 -0.5655  0.4098
  107TMC2    C3 1663   4.727   0.266  11.546 -0.1077  0.3350  0.9082
  107TMC2    C4 1664   4.630   0.089  11.715 -0.1448 -0.0060 -0.8136
  107TMC2    C5 1665   4.734   0.055  11.629 -0.0570  0.1869  0.2030
  107TMC2    C6 1666   0.060   0.144  11.550  0.2638  0.2229 -0.4081
  107TMC2     C 1667   4.483   0.246  11.840  0.1686 -0.2001  0.2839
  107TMC2     O 1668   4.432   0.164  11.915  0.3532 -0.7812 -0.1820
  107TMC2     H 1669   4.603   0.405  11.641  0.3410 -0.3344 -0.6630
  107TMC2    H1 1670   4.593   0.010  11.778 -0.2568  0.5263 -0.2190
  107TMC2    H2 1671   0.141   0.116  11.484  1.2028 -1.4031  1.4127
  107TMC2    C7 1672   0.007   4.649  11.602 -0.1053  0.3863  0.7464
  107TMC2    C8 1673   0.047   0.367  11.461  0.0990  0.1781  0.3714
  107TMC2    O1 1674   4.646   4.576  11.630 -0.1276  0.1654 -0.0678
  107TMC2    O2 1675   0.161   0.355  11.418  0.1963 -0.3543 -0.2518
  107TMC2    O5 1676   4.692   0.462  11.434 -0.5203  0.1098 -0.1150
  107TMC2    H5 1677   4.602   0.446  11.471 -0.2351 -1.6141 -0.1820
  108MPD2     C 1678   4.457   0.572  12.007 -0.2109 -0.0134 -0.0661
  108MPD2    C1 1679   4.422   0.446  11.961  0.7241 -0.2112 -0.7531
  108MPD2    C2 1680   4.316   0.388  12.026  0.2213 -0.5011  0.6778
  108MPD2    C3 1681   4.244   0.457  12.121  0.0099 -0.3599 -1.0578
  108MPD2    C4 1682   4.279   0.586  12.159  0.0953 -0.3718 -0.0708
  108MPD2    C5 1683   4.388   0.636  12.102  0.3344 -0.8643  0.4041
  108MPD2     H 1684   4.280   0.291  11.996 -0.9932  0.0152  0.4803
  108MPD2    H1 1685   4.220   0.639  12.233 -1.1921  0.0051 -1.3646
  108MPD2    H2 1686   4.542   0.623  11.963 -0.0620  0.2352  0.5209
  108MPD2    H3 1687   4.418   0.733  12.142  1.6844 -0.6762 -1.0498
  108MPD2     N 1688   4.139   0.399  12.193 -0.3270 -1.5543 -0.4063
  108MPD2    H5 1689   4.106   0.448  12.275  2.0314 -0.1347 -0.2769
  108MPD2    N1 1690   4.494   0.380  11.860 -0.2209  0.4855  0.1450
  108MPD2    H7 1691   4.552   0.440  11.803  0.2889  2.2323  2.4813
  109TMC2    C1 1692   3.993   2.006   0.659  1.5064  0.6870  0.7400
  109TMC2    C2 1693   3.995   1.923   0.549 -0.1680 -0.1747  0.4549
  109TMC2    C3 1694   4.110   1.924   0.470 -0.2574  0.1412  0.1265
  109TMC2    C4 1695   4.109   2.065   0.707  0.1912 -0.6595 -0.0076
  109TMC2    C5 1696   4.225   2.050   0.636 -0.0090  1.1486  0.4663
  109TMC2    C6 1697   4.224   1.981   0.518  0.1627 -0.0935 -0.6294
  109TMC2     C 1698   3.867   2.064   0.679 -0.8310 -0.2060  0.0857
  109TMC2     O 1699   3.774   2.040   0.602  0.3354 -0.0135 -0.1410
  109TMC2     H 1700   3.914   1.853   0.535  0.1386 -0.3193 -0.5733
  109TMC2    H1 1701   4.114   2.112   0.805 -1.4787  2.5616 -1.4523
  109TMC2    H2 1702   4.312   1.978   0.455 -0.1309  2.0994 -1.1689
  109TMC2    C7 1703   4.337   2.140   0.678 -0.1658  0.7570  0.3493
  109TMC2    C8 1704   4.108   1.884   0.330  0.1885  0.6469 -0.7605
  109TMC2    O1 1705   4.305   2.245   0.731 -0.4776  0.7215  0.3435
  109TMC2    O2 1706   4.204   1.926   0.263  0.2610 -0.2674 -0.3771
  109TMC2    O5 1707   3.979   1.874   0.288  0.5128 -0.1964  0.2297
  109TMC2    H5 1708   3.912   1.851   0.356 -1.4815  1.3672 -1.1937
  110MPD2     C 1709   3.625   2.474   0.865 -0.5318 -0.2981  0.7632
  110MPD2    C1 1710   3.748   2.468   0.925 -0.0153  0.0184  0.8788
  110MPD2    C2 1711   3.830   2.358   0.896  0.4616 -0.7505  0.2120
  110MPD2    C3 1712   3.788   2.261   0.803  0.3081  0.3872  0.1526
  110MPD2    C4 1713   3.666   2.271   0.743  0.6341  0.7278 -0.0306
  110MPD2    C5 1714   3.582   2.372   0.785  0.4212  0.5570 -0.2534
  110MPD2     H 1715   3.932   2.360   0.932 -0.0797 -1.4289  1.8124
  110MPD2    H1 1716   3.626   2.200   0.671 -2.3247  0.3711  1.9856
  110MPD2    H2 1717   3.562   2.559   0.889  0.1846  0.0837  1.3196
  110MPD2    H3 1718   3.490   2.377   0.728 -0.0076  1.1962  0.4963
  110MPD2     N 1719   3.880   2.165   0.766 -0.5411  0.2100 -0.8603
  110MPD2    H5 1720   3.973   2.184   0.802 -0.7000  0.7374 -0.7217
  110MPD2    N1 1721   3.778   2.576   1.017 -0.3962 -0.5542 -0.5179
  110MPD2    H7 1722   3.697   2.632   1.040 -2.5608 -3.6533 -0.6067
  111TMC2    C1 1723   4.645   1.866  11.745 -0.1429 -0.1383 -0.2198
  111TMC2    C2 1724   4.556   1.840  11.845 -0.2497  0.9537 -0.4811
  111TMC2    C3 1725   4.612   1.841  11.971 -0.8102 -0.1634  0.0470
  111TMC2    C4 1726   0.041   1.904  11.767 -0.1925  0.8545 -0.1236
  111TMC2    C5 1727   0.090   1.896  11.895  0.2829 -1.0109 -0.0755
  111TMC2    C6 1728   0.008   1.873  12.004 -0.5819  0.5690 -0.0617
  111TMC2     C 1729   4.607   1.876  11.604  0.0104 -1.1941  0.5793
  111TMC2     O 1730   4.661   1.958  11.534  0.0388 -0.0366 -0.2981
  111TMC2     H 1731   4.454   1.813  11.818 -0.5328  0.5469  0.9342
  111TMC2    H1 1732   0.107   1.931  11.686  0.0218  1.4576  0.2523
  111TMC2    H2 1733   0.039   1.859  12.106  0.4809 -0.6501 -0.5477
  111TMC2    C7 1734   0.230   1.911  11.906  0.3524 -0.0569 -0.3400
  111TMC2    C8 1735   4.515   1.809  12.082 -0.0174  0.0814  0.1325
  111TMC2    O1 1736   0.293   1.969  11.817  0.1473 -0.4927  0.0377
  111TMC2    O2 1737   4.530   1.740  12.183  0.8784 -0.6174  0.8596
  111TMC2    O5 1738   4.393   1.880  12.063 -0.2944  0.2215 -0.0863
  111TMC2    H5 1739   4.382   1.954  11.999 -1.6844  1.6035  1.7689
  112MPD2     C 1740   4.222   1.844  11.267 -0.3040  0.2987 -0.2343
  112MPD2    C1 1741   4.346   1.910  11.249 -0.0570 -1.4247  0.5061
  112MPD2    C2 1742   4.443   1.886  11.349  0.3635  0.1090 -0.1083
  112MPD2    C3 1743   4.408   1.817  11.462 -0.0964  0.0416 -0.1307
  112MPD2    C4 1744   4.287   1.760  11.478  0.4830 -0.5134  0.1446
  112MPD2    C5 1745   4.191   1.777  11.385 -0.1807  0.7292  0.6351
  112MPD2     H 1746   4.541   1.930  11.333  0.7550 -0.5913  0.3821
  112MPD2    H1 1747   4.258   1.703  11.565 -0.2833 -1.0403 -0.4611
  112MPD2    H2 1748   4.148   1.851  11.189 -0.8404 -1.4788  0.1322
  112MPD2    H3 1749   4.094   1.734  11.408 -0.2018 -0.6785 -2.0609
  112MPD2     N 1750   4.497   1.801  11.573 -0.6562  0.2180 -0.7448
  112MPD2    H5 1751   4.465   1.732  11.641 -0.6516 -0.5858 -1.5574
  112MPD2    N1 1752   4.376   1.985  11.139 -0.0199 -0.0234  0.6099
  112MPD2    H7 1753   4.473   2.005  11.118 -0.5679  2.3613  0.3887
  113TMC2    C1 1754   1.707   0.104   0.692  0.7644 -0.2496  0.6539
  113TMC2    C2 1755   1.698   0.157   0.561  0.1693  0.1886  0.2312
  113TMC2    C3 1756   1.598   0.121   0.476 -0.1199 -0.5608 -0.7383
  113TMC2    C4 1757   1.620   0.013   0.738 -0.1427 -0.2622 -0.3297
  113TMC2    C5 1758   1.524   4.709   0.654 -0.2351 -0.1255  0.0510
  113TMC2    C6 1759   1.509   0.025   0.526 -0.3856 -0.5947  0.7748
  113TMC2     C 1760   1.826   0.132   0.768  0.6911 -0.3686 -0.0247
  113TMC2     O 1761   1.875   0.246   0.755  0.4408 -0.3235  0.9153
  113TMC2     H 1762   1.782   0.216   0.528 -0.2187  0.2355 -0.6676
  113TMC2    H1 1763   1.617   0.005   0.846 -0.2987  0.6210 -0.2648
  113TMC2    H2 1764   1.438   4.719   0.455 -1.8601 -0.2292  2.0676
  113TMC2    C7 1765   1.422   4.624   0.709  0.3027 -0.1797 -0.1300
  113TMC2    C8 1766   1.578   0.181   0.347  0.5195  0.6901 -0.4726
  113TMC2    O1 1767   1.313   4.635   0.655 -0.5341  0.3549 -0.5232
  113TMC2    O2 1768   1.495   0.151   0.264 -0.3145 -0.0715 -0.4054
  113TMC2    O5 1769   1.654   0.292   0.340 -0.5181 -0.5114 -0.0325
  113TMC2    H5 1770   1.704   0.320   0.419 -1.2324  0.3821  0.1006
  114MPD2     C 1771   2.215   4.732   1.075  0.3678  1.0387  0.1129
  114MPD2    C1 1772   2.197   0.090   0.976  0.6782 -0.7594 -0.0446
  114MPD2    C2 1773   2.082   0.101   0.898  0.5704  0.5900 -0.2236
  114MPD2    C3 1774   1.978   0.019   0.928  0.0184  0.4538  0.8981
  114MPD2    C4 1775   1.991   4.656   1.024 -0.2055  0.5913 -0.2347
  114MPD2    C5 1776   2.110   4.651   1.094  0.6427 -0.2045  0.5736
  114MPD2     H 1777   2.091   0.177   0.821 -2.6370  0.7031 -0.5058
  114MPD2    H1 1778   1.911   4.586   1.046 -0.4861  0.8683 -0.3679
  114MPD2    H2 1779   2.300   4.728   1.141 -0.0713  1.4025  0.6969
  114MPD2    H3 1780   2.126   4.581   1.175  1.7058  0.6652  1.1104
  114MPD2     N 1781   1.854   0.030   0.857 -0.2008 -0.4819  0.5746
  114MPD2    H5 1782   1.796   4.681   0.857 -2.2507  0.9392  1.4635
  114MPD2    N1 1783   2.294   0.187   0.946  0.3785  0.1320 -0.2717
  114MPD2    H7 1784   2.257   0.259   0.885 -0.2686  1.3039  1.5226
  115TMC2    C1 1785   3.203   2.360  17.423 -0.5721 -0.1322 -0.1168
  115TMC2    C2 1786   3.215   2.277  17.531 -0.4008 -0.2817  0.5808
  115TMC2    C3 1787   3.184   2.322  17.659 -0.2503 -0.3637 -0.0314
  115TMC2    C4 1788   3.153   2.486  17.450 -0.2371 -0.6802 -0.0323
  115TMC2    C5 1789   3.128   2.531  17.573  0.2931 -0.6222 -0.5160
  115TMC2    C6 1790   3.126   2.445  17.677 -0.1248  0.3390 -0.4652
  115TMC2     C 1791   3.163   2.298  17.296 -1.3747 -0.2741 -0.3099
  115TMC2     O 1792   3.049   2.314  17.256 -0.0756  0.3284  0.5350
  115TMC2     H 1793   3.277   2.189  17.517  1.3833  1.2336 -1.0586
  115TMC2    H1 1794   3.145   2.555  17.367  1.3783  0.2683  0.6038
  115TMC2    H2 1795   3.113   2.484   0.041  0.4161 -0.9499  0.1091
  115TMC2    C7 1796   3.072   2.664  17.604  0.0639  0.4869  0.3930
  115TMC2    C8 1797   3.226   2.253   0.047  0.2078  0.1507  0.5087
  115TMC2    O1 1798   2.990   2.659  17.699  0.0996 -0.0620  0.0795
  115TMC2    O2 1799   3.238   2.304   0.157 -0.3292 -0.2646  0.5059
  115TMC2    O5 1800   3.290   2.142   0.020  0.1047 -0.4257 -0.0286
  115TMC2    H5 1801   3.268   2.086  17.679 -2.0711 -0.0770  0.3576
  116MPD2     C 1802   3.323   2.072  16.861 -0.5687 -0.5107 -0.2670
  116MPD2    C1 1803   3.196   2.099  16.901 -0.1355  0.2441 -0.1294
  116MPD2    C2 1804   3.179   2.161  17.025  0.2039 -0.1831  0.3944
  116MPD2    C3 1805   3.285   2.195  17.104 -0.2091  0.6242  0.2112
  116MPD2    C4 1806   3.410   2.161  17.065  1.0861 -0.6370 -0.0151
  116MPD2    C5 1807   3.433   2.104  16.943 -0.2693 -0.1941  0.1276
  116MPD2     H 1808   3.080   2.191  17.056  0.6985  1.7691  0.1087
  116MPD2    H1 1809   3.500   2.183  17.120  1.3056  2.3603 -1.5541
  116MPD2    H2 1810   3.340   2.023  16.766  0.8906 -0.6793  0.0809
  116MPD2    H3 1811   3.532   2.078  16.907 -0.7743  1.4101 -2.4206
  116MPD2     N 1812   3.272   2.250  17.229  0.2645  0.3555  0.3948
  116MPD2    H5 1813   3.361   2.274  17.273 -0.8754  0.7123  2.5212
  116MPD2    N1 1814   3.089   2.059  16.823 -0.0366 -0.5255  0.3671
  116MPD2    H7 1815   3.111   2.006  16.739 -2.7212 -1.5656  0.3299
  117TMC2    C1 1816   1.957   3.902  13.895 -0.0074  0.0924 -0.3837
  117TMC2    C2 1817   2.052   3.884  13.797  0.9844 -0.2510  0.4228
  117TMC2    C3 1818   2.113   3.997  13.753  1.1459 -0.9812  0.3481
  117TMC2    C4 1819   1.926   4.023  13.954 -0.5645 -0.2561  0.5083
  117TMC2    C5 1820   1.995   4.136  13.894 -0.8351  0.0316  0.8964
  117TMC2    C6 1821   2.087   4.126  13.795 -0.2653 -0.2790 -1.0569
  117TMC2     C 1822   1.879   3.781  13.927 -0.1997  0.2288  0.2840
  117TMC2     O 1823   1.937   3.671  13.915 -0.3868 -0.3313 -0.1317
  117TMC2     H 1824   2.084   3.788  13.757  1.1505 -0.5441  1.2569
  117TMC2    H1 1825   1.857   4.039  14.037 -0.3024 -0.6111  0.7908
  117TMC2    H2 1826   2.141   4.214  13.763 -0.0584 -0.5124 -1.3505
  117TMC2    C7 1827   1.995   4.259  13.962  0.2851 -0.0029 -0.5381
  117TMC2    C8 1828   2.226   3.979  13.666 -0.0115 -0.3566  0.1164
  117TMC2    O1 1829   2.092   4.335  13.946 -0.0600  0.0046 -0.5811
  117TMC2    O2 1830   2.308   3.891  13.681  0.0248  0.1684  0.3843
  117TMC2    O5 1831   2.235   4.077  13.581  0.6105  0.6242 -0.2564
  117TMC2    H5 1832   2.158   4.137  13.569  0.0220  0.1075  0.9492
  118MPD2     C 1833   1.715   4.431  14.121  0.5087  0.4252  0.4987
  118MPD2    C1 1834   1.840   4.419  14.072  0.0538 -0.3399 -0.5056
  118MPD2    C2 1835   1.931   4.521  14.094 -0.1133 -0.0755  1.3103
  118MPD2    C3 1836   1.898   4.631  14.173  0.1971 -0.4916  0.4913
  118MPD2    C4 1837   1.765   4.651  14.212  0.2122 -0.5877  0.5290
  118MPD2    C5 1838   1.674   4.549  14.191 -0.0470 -0.3612 -1.0189
  118MPD2     H 1839   2.035   4.499  14.069 -1.1713 -1.8702 -1.4991
  118MPD2    H1 1840   1.747   4.733  14.280  0.9110  0.5810 -0.7062
  118MPD2    H2 1841   1.644   4.350  14.106  0.6644  0.0913  1.5480
  118MPD2    H3 1842   1.583   4.548  14.249  0.7543 -2.9628  0.2308
  118MPD2     N 1843   1.993   4.727  14.219  0.7027 -0.3957  0.0743
  118MPD2    H5 1844   1.962   0.082  14.256 -0.9189  0.3999 -3.1889
  118MPD2    N1 1845   1.873   4.292  14.011  0.1996  0.2950  0.4369
  118MPD2    H7 1846   1.802   4.220  14.018  2.0080 -1.3222  2.2726
  119TMC2    C1 1847   4.281   4.642  13.107 -0.6461 -0.5390 -0.1697
  119TMC2    C2 1848   4.326   4.574  12.994  0.4791 -0.2907 -0.6003
  119TMC2    C3 1849   4.364   4.444  13.012  0.9573  0.3775  0.9907
  119TMC2    C4 1850   4.268   4.585  13.230 -0.4287 -0.3803  0.1175
  119TMC2    C5 1851   4.315   4.454  13.254 -0.4130  0.1469 -0.1961
  119TMC2    C6 1852   4.370   4.392  13.137  0.4632  0.0986  0.0193
  119TMC2     C 1853   4.336   0.040  13.121 -0.2891 -0.6619  0.2469
  119TMC2     O 1854   4.370   0.061  13.235  0.4918  0.2114 -0.1868
  119TMC2     H 1855   4.326   4.622  12.896  0.7450  0.3692 -0.2815
  119TMC2    H1 1856   4.223   4.646  13.308 -1.3784  0.9168 -1.4443
  119TMC2    H2 1857   4.394   4.287  13.152  1.3144  0.4053  0.7583
  119TMC2    C7 1858   4.395   4.432  13.372 -0.1523  0.2371 -0.0671
  119TMC2    C8 1859   4.322   4.356  12.907 -0.2647  0.1824  0.2966
  119TMC2    O1 1860   4.480   4.342  13.360  0.5101 -0.1127  0.7026
  119TMC2    O2 1861   4.242   4.389  12.822 -0.0902 -0.4187  0.1950
  119TMC2    O5 1862   4.368   4.233  12.939  0.1584 -0.2456  0.7269
  119TMC2    H5 1863   4.451   4.250  12.989  0.5564 -0.9200  0.3058
  120MPD2     C 1864   4.615   0.435  12.950  0.2037  0.1969  0.0608
  120MPD2    C1 1865   4.614   0.375  13.079 -0.4173 -0.8856  0.0611
  120MPD2    C2 1866   4.542   0.261  13.104  0.0327  0.3810 -0.3470
  120MPD2    C3 1867   4.472   0.207  12.992 -0.3051  0.8569  0.1907
  120MPD2    C4 1868   4.483   0.263  12.864 -0.0126 -0.1635  0.3406
  120MPD2    C5 1869   4.551   0.375  12.845  0.0710  0.5051 -0.0459
  120MPD2     H 1870   4.531   0.228  13.207  1.3588 -0.1163 -0.3665
  120MPD2    H1 1871   4.433   0.213  12.782  0.1333  0.4331 -0.1187
  120MPD2    H2 1872   4.668   0.527  12.929  1.2118 -0.4148 -0.0429
  120MPD2    H3 1873   4.542   0.436  12.755 -1.3603 -0.1729 -0.3554
  120MPD2     N 1874   4.381   0.098  13.003  0.0012 -0.0420 -0.3819
  120MPD2    H5 1875   4.351   0.063  12.912 -1.0792  4.1617 -1.6277
  120MPD2    N1 1876   4.671   0.432  13.193 -0.5007 -0.2892 -0.7582
  120MPD2    H7 1877   4.654   0.397  13.287 -1.7567 -0.6994 -1.1373
  121TMC2    C1 1878   1.630   2.606  14.138  0.2351 -0.3841  0.4628
  121TMC2    C2 1879   1.601   2.558  14.263  0.1506 -0.6859 -0.2764
  121TMC2    C3 1880   1.483   2.490  14.277  0.2077  0.0108  0.5782
  121TMC2    C4 1881   1.549   2.572  14.029  0.0302  0.2727  0.4078
  121TMC2    C5 1882   1.432   2.503  14.051  0.0999  0.6344 -0.1874
  121TMC2    C6 1883   1.398   2.463  14.175 -0.1777 -0.2113  0.1386
  121TMC2     C 1884   1.769   2.638  14.114 -0.4114  0.1891 -0.3994
  121TMC2     O 1885   1.844   2.614  14.206  0.7708 -0.3399  0.3656
  121TMC2     H 1886   1.668   2.575  14.347  1.0431 -0.2811 -1.0803
  121TMC2    H1 1887   1.567   2.617  13.932  1.3325  0.2911  0.6537
  121TMC2    H2 1888   1.297   2.425  14.186  0.4945 -1.4411  2.0275
  121TMC2    C7 1889   1.326   2.542  13.957  0.2529  0.1878 -0.0320
  121TMC2    C8 1890   1.433   2.475  14.406 -0.2754 -0.3813  0.2443
  121TMC2    O1 1891   1.330   2.658  13.925 -0.2701 -0.0962 -0.3234
  121TMC2    O2 1892   1.452   2.568  14.485 -0.2299 -0.3205  0.2353
  121TMC2    O5 1893   1.365   2.360  14.416 -0.1550 -0.2283 -0.6505
  121TMC2    H5 1894   1.393   2.295  14.348  0.2282 -1.7510  0.9738
  122MPD2     C 1895   2.028   2.615  13.966 -0.3217  0.0790  0.2528
  122MPD2    C1 1896   1.916   2.691  13.921  0.4906  0.1739 -0.2796
  122MPD2    C2 1897   1.931   2.754  13.790 -1.0770 -0.4020  0.4052
  122MPD2    C3 1898   2.041   2.741  13.711  0.4743  0.0943  0.4873
  122MPD2    C4 1899   2.148   2.663  13.757  0.4358  0.2303 -0.5209
  122MPD2    C5 1900   2.141   2.606  13.881  0.0239  0.0190  0.5057
  122MPD2     H 1901   1.838   2.805  13.767  0.0962  0.9151 -1.4387
  122MPD2    H1 1902   2.238   2.637  13.703 -0.6261 -1.3707 -1.5061
  122MPD2    H2 1903   2.031   2.566  14.063  0.7471  0.7225  0.5501
  122MPD2    H3 1904   2.226   2.555  13.924 -0.5676 -1.8742 -0.5890
  122MPD2     N 1905   2.056   2.800  13.582 -0.4540 -0.4186  0.3666
  122MPD2    H5 1906   2.134   2.769  13.525 -0.8149 -1.8869  0.6884
  122MPD2    N1 1907   1.790   2.688  13.988  0.4836 -0.8329  0.1881
  122MPD2    H7 1908   1.720   2.733  13.930  0.4858 -0.3886  0.5248
  123TMC2    C1 1909   0.718   0.678  10.518 -0.7966  0.1032  0.1014
  123TMC2    C2 1910   0.837   0.718  10.576  0.0352 -0.2619  0.0840
  123TMC2    C3 1911   0.939   0.759  10.493  0.4539  0.0737  0.0163
  123TMC2    C4 1912   0.708   0.669  10.379 -0.0772 -0.0608 -0.1008
  123TMC2    C5 1913   0.816   0.708  10.296  0.2454  0.7345 -0.3305
  123TMC2    C6 1914   0.928   0.761  10.352  0.4281  0.1270  0.1158
  123TMC2     C 1915   0.654   0.577  10.605  0.6112 -0.0132 -0.0724
  123TMC2     O 1916   0.723   0.569  10.710  0.0780  0.3881 -0.0748
  123TMC2     H 1917   0.855   0.740  10.681 -1.4277 -0.3437  0.3523
  123TMC2    H1 1918   0.613   0.646  10.332  0.1646  0.5102 -0.8858
  123TMC2    H2 1919   1.016   0.786  10.294  0.8303  0.5541  0.9075
  123TMC2    C7 1920   0.812   0.754  10.156  0.8861  0.6287 -0.1349
  123TMC2    C8 1921   1.054   0.812  10.549 -0.4918 -0.6123  0.4025
  123TMC2    O1 1922   0.838   0.872  10.151 -0.0232  0.4814 -0.4798
  123TMC2    O2 1923   1.167   0.821  10.501  0.6099  0.0330  0.1675
  123TMC2    O5 1924   1.012   0.921  10.622 -0.4000  0.1639  0.5248
  123TMC2    H5 1925   0.920   0.919  10.656 -0.1269 -0.4995  1.2377
  124MPD2     C 1926   0.382   0.157  10.770 -0.3090 -0.2714 -0.3838
  124MPD2    C1 1927   0.329   0.206  10.659  0.0603  0.0056  0.0613
  124MPD2    C2 1928   0.378   0.319  10.592  0.4830  0.1542 -0.7652
  124MPD2    C3 1929   0.491   0.388  10.634 -0.0344 -0.4396 -0.0350
  124MPD2    C4 1930   0.556   0.325  10.738  0.7488  0.5508  0.4728
  124MPD2    C5 1931   0.502   0.211  10.804 -0.0559  0.4782  0.1387
  124MPD2     H 1932   0.327   0.355  10.503  1.5576  1.8054 -0.7297
  124MPD2    H1 1933   0.646   0.370  10.779  0.2242 -1.6537  4.0004
  124MPD2    H2 1934   0.355   0.063  10.816 -1.9609  1.2101  1.7133
  124MPD2    H3 1935   0.560   0.164  10.882  1.1290  1.2879 -0.2611
  124MPD2     N 1936   0.552   0.500  10.562 -0.4463  0.2403 -0.7453
  124MPD2    H5 1937   0.515   0.502  10.467  1.5724  3.1160 -1.4488
  124MPD2    N1 1938   0.220   0.136  10.612 -0.4542  0.5003 -0.2906
  124MPD2    H7 1939   0.195   0.062  10.678 -1.1153  3.3335  2.6153
  125TMC2    C1 1940   2.977   0.809  10.577  0.0475 -0.5126  0.2936
  125TMC2    C2 1941   3.108   0.819  10.615  0.0932  0.5541  0.3392
  125TMC2    C3 1942   3.186   0.867  10.511 -0.2209 -0.3588  0.7319
  125TMC2    C4 1943   2.934   0.835  10.450  0.2224 -0.3192 -0.0410
  125TMC2    C5 1944   3.025   0.865  10.348  0.1307 -0.9406 -0.0098
  125TMC2    C6 1945   3.156   0.879  10.381 -0.3095 -0.2709 -0.2972
  125TMC2     C 1946   2.873   0.756  10.665  0.9402 -0.4406  0.3256
  125TMC2     O 1947   2.752   0.779  10.636  0.3665  0.2532 -0.0100
  125TMC2     H 1948   3.138   0.800  10.718 -0.1309  0.4003  0.3775
  125TMC2    H1 1949   2.830   0.817  10.425  0.0471 -1.2577  1.3553
  125TMC2    H2 1950   3.230   0.909  10.308 -0.5030 -2.5119 -1.4252
  125TMC2    C7 1951   2.973   0.950  10.245 -0.2482 -0.4481  0.4757
  125TMC2    C8 1952   3.323   0.896  10.556  0.0004 -1.2778  0.0216
  125TMC2    O1 1953   2.855   0.979  10.266  0.5581 -0.2779  0.0068
  125TMC2    O2 1954   3.392   0.837  10.639 -0.0453 -0.0400  0.0211
  125TMC2    O5 1955   3.362   1.006  10.492 -0.2713 -0.1005 -0.3880
  125TMC2    H5 1956   3.282   1.056  10.466 -0.1769 -0.1884 -0.8547
  126MPD1     C 1957   2.691   0.556  11.110  0.2105 -0.0577  0.0801
  126MPD1    C1 1958   2.815   0.499  11.081 -0.0980  0.6678  0.7435
  126MPD1    C2 1959   2.879   0.538  10.966  0.1003  0.4722 -0.6820
  126MPD1    C3 1960   2.833   0.635  10.881 -0.5053  0.6395 -0.7422
  126MPD1    C4 1961   2.714   0.692  10.918  0.2085  0.3135  0.7348
  126MPD1    C5 1962   2.642   0.656  11.032  0.1971 -0.2814 -0.0098
  126MPD1     H 1963   2.978   0.493  10.964  0.2628  0.6313  3.3645
  126MPD1    H1 1964   2.676   0.784  10.873 -0.9855 -0.1243  0.8440
  126MPD1    H2 1965   2.632   0.523  11.195 -1.7205 -0.1974 -1.3223
  126MPD1    H3 1966   2.562   0.722  11.062  0.7202 -0.2138  1.2596
  126MPD1     N 1967   2.917   0.676  10.778  0.4520  0.4778  0.5865
  126MPD1    H5 1968   3.005   0.627  10.768  1.9450  2.9004  2.0497
  126MPD1    N1 1969   2.872   0.402  11.165  0.3920 -0.4079  0.2652
  126MPD1    H6 1970   2.966   0.371  11.144  0.5133 -0.7297  1.2556
  126MPD1    H7 1971   2.859   0.416  11.265 -2.7392  0.9016 -0.3286
  127TMC2    C1 1972   2.157   1.447  10.202  0.2153  0.4813 -0.2615
  127TMC2    C2 1973   2.189   1.511  10.320  1.3174  0.3234  0.1578
  127TMC2    C3 1974   2.160   1.432  10.428 -0.1428 -0.2055 -0.3280
  127TMC2    C4 1975   2.117   1.314  10.201 -0.2197  0.1887  0.4116
  127TMC2    C5 1976   2.084   1.251  10.313 -0.0417 -0.1603 -0.3364
  127TMC2    C6 1977   2.102   1.312  10.432 -1.1369  0.5108 -0.4453
  127TMC2     C 1978   2.181   1.527  10.088  0.2918  0.0428 -0.3823
  127TMC2     O 1979   2.252   1.626  10.105  0.2982  0.5990 -0.3618
  127TMC2     H 1980   2.234   1.609  10.324 -0.8336  1.3003  0.2654
  127TMC2    H1 1981   2.092   1.262  10.109 -0.0028 -0.1210  0.5290
  127TMC2    H2 1982   2.095   1.263  10.528 -1.9394 -0.1033 -0.8171
  127TMC2    C7 1983   2.055   1.112  10.312  0.9157 -0.4415 -0.2486
  127TMC2    C8 1984   2.201   1.484  10.552  0.2757  0.7287  0.0961
  127TMC2    O1 1985   2.109   1.046  10.222  0.1619  0.5784 -0.1212
  127TMC2    O2 1986   2.318   1.524  10.568 -0.1307 -0.1407 -0.5984
  127TMC2    O5 1987   2.090   1.527  10.609 -0.3303  0.5746 -0.0534
  127TMC2    H5 1988   2.019   1.517  10.542  0.5769  0.9606 -1.0810
  128MPD2     C 1989   2.087   1.463   9.741 -0.1274 -0.0429  0.3336
  128MPD2    C1 1990   2.150   1.523   9.846  0.1129  1.0660  0.3903
  128MPD2    C2 1991   2.254   1.609   9.817 -0.0826 -0.5694 -0.2365
  128MPD2    C3 1992   2.288   1.640   9.688 -0.5880  0.1779  0.2254
  128MPD2    C4 1993   2.219   1.588   9.579 -0.4871  0.1178  0.4504
  128MPD2    C5 1994   2.122   1.487   9.610 -0.1710  0.2549  1.3405
  128MPD2     H 1995   2.313   1.658   9.893 -0.0350  1.6270 -1.6936
  128MPD2    H1 1996   2.235   1.606   9.473 -0.2371 -0.4558  0.3952
  128MPD2    H2 1997   2.021   1.381   9.767  0.7327 -0.9339 -0.2917
  128MPD2    H3 1998   2.075   1.434   9.529  1.5274 -0.2516  0.6850
  128MPD2     N 1999   2.395   1.725   9.665 -0.0291  0.5214 -0.5207
  128MPD2    H5 2000   2.453   1.752   9.743 -0.6832 -0.7056  0.3840
  128MPD2    N1 2001   2.128   1.474   9.976 -0.7738  0.6226 -0.2369
  128MPD2    H7 2002   2.056   1.404   9.990 -0.8664  0.4333 -1.6561
  129TMC2    C1 2003   0.729   1.661   1.309 -0.3304 -0.8976  0.7350
  129TMC2    C2 2004   0.697   1.777   1.370 -0.0141 -0.2472 -0.8145
  129TMC2    C3 2005   0.566   1.813   1.379  0.6106  0.4796 -0.0145
  129TMC2    C4 2006   0.636   1.569   1.271  0.2280  0.5841  0.1523
  129TMC2    C5 2007   0.511   1.608   1.288  0.6499  0.6822 -0.1744
  129TMC2    C6 2008   0.469   1.726   1.335 -0.5892  0.2725 -0.4703
  129TMC2     C 2009   0.868   1.624   1.296  0.6028  0.1092 -0.0835
  129TMC2     O 2010   0.899   1.511   1.287 -0.6848  0.1380 -0.1454
  129TMC2     H 2011   0.778   1.838   1.410 -1.1672  2.6629 -2.8775
  129TMC2    H1 2012   0.664   1.484   1.209 -0.1528  1.3072 -1.0063
  129TMC2    H2 2013   0.365   1.750   1.356 -1.1755  0.5573 -3.7593
  129TMC2    C7 2014   0.410   1.507   1.259  0.4482 -0.0603 -1.2982
  129TMC2    C8 2015   0.534   1.949   1.416  0.5216  0.7074 -0.0557
  129TMC2    O1 2016   0.302   1.552   1.222  0.3390 -0.2819  0.1906
  129TMC2    O2 2017   0.424   2.000   1.405 -0.4119 -0.3731 -0.5032
  129TMC2    O5 2018   0.647   2.024   1.408 -0.0930 -0.8504  0.7205
  129TMC2    H5 2019   0.720   1.981   1.358  0.4032  0.2356  0.5169
  130MPD2     C 2020   1.174   1.629   1.298  0.3816  0.3078 -0.4449
  130MPD2    C1 2021   1.097   1.743   1.289  0.1171 -0.3595 -0.2598
  130MPD2    C2 2022   1.157   1.865   1.267 -1.2618 -0.2486  0.5298
  130MPD2    C3 2023   1.298   1.869   1.251 -0.4173  0.1198 -0.4533
  130MPD2    C4 2024   1.373   1.755   1.272  0.0375  0.1369 -0.0029
  130MPD2    C5 2025   1.308   1.634   1.285  0.3615  0.1430  0.4857
  130MPD2     H 2026   1.100   1.956   1.251  1.9922  1.8229  0.5807
  130MPD2    H1 2027   1.480   1.758   1.289  0.2858  0.6468 -1.6350
  130MPD2    H2 2028   1.121   1.536   1.314  1.6545 -0.2446  0.6072
  130MPD2    H3 2029   1.359   1.539   1.295 -1.6921 -0.8680  1.3583
  130MPD2     N 2030   1.363   1.995   1.238  0.3144  0.2221 -0.6679
  130MPD2    H5 2031   1.302   2.075   1.246  1.5418  0.9502  1.5300
  130MPD2    N1 2032   0.954   1.736   1.290 -0.4273 -0.5311  0.0783
  130MPD2    H7 2033   0.910   1.827   1.295 -1.0469 -0.7898 -0.5906
  131TMC2    C1 2034   4.562   0.644   9.761 -0.2502  0.5263  0.4746
  131TMC2    C2 2035   4.473   0.740   9.773  0.0261  0.6207 -0.5787
  131TMC2    C3 2036   4.504   0.871   9.739  0.2631  0.0132  0.6409
  131TMC2    C4 2037   4.682   0.675   9.701  0.7717 -0.2859  0.0801
  131TMC2    C5 2038   4.710   0.805   9.664  0.9849 -0.4648  0.0538
  131TMC2    C6 2039   4.622   0.907   9.678  0.0071 -0.0286 -0.3320
  131TMC2     C 2040   4.546   0.514   9.822 -0.1375  0.6013 -0.8015
  131TMC2     O 2041   4.650   0.465   9.867 -0.6086 -0.2314  0.0193
  131TMC2     H 2042   4.382   0.714   9.827  0.9984  1.3369  1.4151
  131TMC2    H1 2043   0.020   0.598   9.677  1.8373  0.0970  2.0004
  131TMC2    H2 2044   4.637   1.010   9.651  0.6117 -0.4429 -1.5969
  131TMC2    C7 2045   0.088   0.822   9.580  0.0375 -0.0718  0.0778
  131TMC2    C8 2046   4.392   0.960   9.731  0.3888  0.1855  0.2941
  131TMC2    O1 2047   0.130   0.722   9.521 -0.3685 -0.5757  0.4142
  131TMC2    O2 2048   4.284   0.908   9.745 -0.2382 -0.1133  0.2679
  131TMC2    O5 2049   4.424   1.073   9.801 -0.2822  0.1307  0.1200
  131TMC2    H5 2050   4.518   1.099   9.801 -0.8305  2.1306  0.8800
  132MPD2     C 2051   4.250   0.306   9.916  1.1353 -0.0485  0.5304
  132MPD2    C1 2052   4.384   0.351   9.930  0.5467  0.3898 -0.2983
  132MPD2    C2 2053   4.472   0.276  10.006  0.7881  0.2428 -0.1458
  132MPD2    C3 2054   4.436   0.157  10.064 -0.2147 -0.2558 -0.5331
  132MPD2    C4 2055   4.320   0.098  10.026 -0.3680  1.3412 -0.1621
  132MPD2    C5 2056   4.227   0.185   9.973  0.8894  0.0361 -0.2393
  132MPD2     H 2057   4.568   0.318  10.034  1.4012  0.6713 -2.9314
  132MPD2    H1 2058   4.291   4.734  10.061 -0.2630  2.1299  2.1186
  132MPD2    H2 2059   4.176   0.366   9.865  0.9182  1.7704  3.0061
  132MPD2    H3 2060   4.124   0.151   9.968  0.6774  0.4796  1.0198
  132MPD2     N 2061   4.527   0.108  10.158 -0.1407  0.6645  0.2045
  132MPD2    H5 2062   4.612   0.161  10.170  0.6539 -0.2071 -1.6453
  132MPD2    N1 2063   4.420   0.472   9.857  0.7051 -0.1158 -0.0603
  132MPD2    H7 2064   4.350   0.520   9.801 -0.5831 -1.9993 -0.0714
  133TMC2    C1 2065   3.912   2.576   9.561 -0.3271 -0.2548  0.4125
  133TMC2    C2 2066   4.031   2.615   9.603  0.8161  0.1782  0.2269
  133TMC2    C3 2067   4.042   2.753   9.610 -0.4992  0.7342 -0.3026
  133TMC2    C4 2068   3.801   2.652   9.543 -0.6022 -0.6384 -0.0236
  133TMC2    C5 2069   3.822   2.786   9.548 -0.6693 -0.8338  0.1755
  133TMC2    C6 2070   3.944   2.842   9.584  0.1123  0.8556  0.1132
  133TMC2     C 2071   3.900   2.439   9.525 -0.4427  0.3180  0.2273
  133TMC2     O 2072   3.790   2.385   9.503 -0.4697  0.0445 -0.2914
  133TMC2     H 2073   4.099   2.552   9.661  0.4102  0.0532  0.5666
  133TMC2    H1 2074   3.718   2.612   9.486  0.0063 -1.0692 -0.6105
  133TMC2    H2 2075   3.961   2.949   9.573 -1.8918  1.2004  0.4264
  133TMC2    C7 2076   3.724   2.882   9.492  0.6636 -0.9173  0.7012
  133TMC2    C8 2077   4.166   2.814   9.667  0.2918 -0.4427 -0.0280
  133TMC2    O1 2078   3.732   2.998   9.538 -0.3833 -0.4573  0.7693
  133TMC2    O2 2079   4.173   2.937   9.680 -0.3122 -0.0243  0.4364
  133TMC2    O5 2080   4.215   2.722   9.748  0.0760  0.6350  0.4479
  133TMC2    H5 2081   4.244   2.636   9.714 -1.4568 -0.1340  1.0528
  134MPD2     C 2082   4.187   2.258   9.396  0.7479  0.4269  0.7986
  134MPD2    C1 2083   4.060   2.274   9.436  0.1027 -0.9330  0.0150
  134MPD2    C2 2084   3.973   2.167   9.436  0.2371  0.3266  0.5022
  134MPD2    C3 2085   4.020   2.043   9.400  0.0032  0.2846 -0.6405
  134MPD2    C4 2086   4.151   2.024   9.358  0.5968  0.1408  0.0919
  134MPD2    C5 2087   4.235   2.137   9.356  0.1245 -0.2639 -0.7342
  134MPD2     H 2088   3.870   2.181   9.468 -0.5350 -1.1541 -1.3141
  134MPD2    H1 2089   4.189   1.924   9.339 -0.5970  0.0285 -1.7244
  134MPD2    H2 2090   4.252   2.344   9.392  0.5986  0.4631 -0.7709
  134MPD2    H3 2091   4.338   2.117   9.326  0.1601  0.3037 -0.9774
  134MPD2     N 2092   3.941   1.929   9.396  0.2511  0.2628  0.1898
  134MPD2    H5 2093   3.983   1.837   9.390  0.1472  0.2581 -0.5254
  134MPD2    N1 2094   4.027   2.397   9.492 -0.4359  0.1872 -0.1467
  134MPD2    H7 2095   4.107   2.457   9.508 -0.5347 -0.0538  1.2488
  135TMC2    C1 2096   1.192   2.861   9.985  0.4925  0.6430 -0.3321
  135TMC2    C2 2097   1.117   2.773   9.912  0.3157  0.5541 -0.3372
  135TMC2    C3 2098   0.982   2.759   9.950  0.2903  0.4590  0.1128
  135TMC2    C4 2099   1.137   2.933  10.092  0.3569  0.3781 -0.5896
  135TMC2    C5 2100   1.004   2.919  10.117 -0.3735 -0.2292 -0.1574
  135TMC2    C6 2101   0.923   2.847  10.040 -0.6363  0.8168  0.4217
  135TMC2     C 2102   1.338   2.870   9.963 -0.3247 -0.6457 -0.7087
  135TMC2     O 2103   1.404   2.927  10.049  0.4707 -0.1739 -0.4345
  135TMC2     H 2104   1.153   2.707   9.834 -0.0610  0.3369 -0.3320
  135TMC2    H1 2105   1.204   3.000  10.146  0.1942 -0.8301  1.1288
  135TMC2    H2 2106   0.820   2.825  10.066  0.2496 -0.2084  3.0978
  135TMC2    C7 2107   0.967   2.937  10.257  0.3449  0.6360 -0.0904
  135TMC2    C8 2108   0.885   2.701   9.851 -0.0334  0.4609 -1.3604
  135TMC2    O1 2109   1.014   3.034  10.317  0.5406 -0.3873  0.1174
  135TMC2    O2 2110   0.772   2.746   9.836 -1.6341  0.3439  0.1847
  135TMC2    O5 2111   0.929   2.596   9.774 -0.0095 -0.2538 -0.0343
  135TMC2    H5 2112   1.006   2.554   9.819 -0.6609  0.6996  1.9830
  136MPD2     C 2113   1.618   2.835   9.903 -0.1790 -0.9116 -0.1843
  136MPD2    C1 2114   1.518   2.767   9.837 -0.3150  0.2330  0.3589
  136MPD2    C2 2115   1.545   2.670   9.743  0.0790  0.3381 -0.3783
  136MPD2    C3 2116   1.676   2.639   9.712  0.1013 -0.1074  0.1438
  136MPD2    C4 2117   1.781   2.713   9.769  0.4710 -0.2624  0.1411
  136MPD2    C5 2118   1.748   2.802   9.863 -0.0149  0.6161 -0.4604
  136MPD2     H 2119   1.463   2.620   9.692  0.6042 -1.0101  0.0928
  136MPD2    H1 2120   1.881   2.702   9.728  0.3911  3.2037 -0.9672
  136MPD2    H2 2121   1.606   2.914   9.976 -0.4632 -1.1137 -0.0120
  136MPD2    H3 2122   1.833   2.858   9.901  0.9271  0.6604 -2.6617
  136MPD2     N 2123   1.714   2.541   9.616  0.3148  0.4214  0.5778
  136MPD2    H5 2124   1.813   2.526   9.603  0.0980 -1.0059  0.5570
  136MPD2    N1 2125   1.379   2.797   9.857  0.2944 -0.6306  0.2646
  136MPD2    H7 2126   1.310   2.762   9.791  0.3037 -1.6319  0.7848
  137TMC2    C1 2127   1.646   1.275   9.554 -0.3166  0.7148  0.0235
  137TMC2    C2 2128   1.762   1.298   9.485  0.3673 -0.2127  1.5796
  137TMC2    C3 2129   1.754   1.272   9.348  0.0335 -1.1237 -0.0411
  137TMC2    C4 2130   1.528   1.243   9.504 -0.3133 -0.3615  0.3340
  137TMC2    C5 2131   1.519   1.237   9.364 -0.9038  1.4122 -0.5050
  137TMC2    C6 2132   1.635   1.243   9.291  0.1254 -0.1016  0.1658
  137TMC2     C 2133   1.651   1.309   9.696 -0.7497  0.1836  0.6728
  137TMC2     O 2134   1.737   1.394   9.731  0.6510 -0.2620 -0.2371
  137TMC2     H 2135   1.858   1.312   9.533  0.7606  0.3672  0.5954
  137TMC2    H1 2136   1.441   1.248   9.569 -0.1512 -2.8844  0.7236
  137TMC2    H2 2137   1.630   1.242   9.183  2.8473 -0.1672  0.0485
  137TMC2    C7 2138   1.392   1.254   9.286 -0.1652  0.1168  0.1813
  137TMC2    C8 2139   1.880   1.283   9.271 -0.4321 -0.0898  0.6374
  137TMC2    O1 2140   1.406   1.232   9.167 -0.3642 -0.0761  0.0968
  137TMC2    O2 2141   1.988   1.249   9.321 -0.8244 -0.3616 -0.7618
  137TMC2    O5 2142   1.851   1.268   9.139 -0.5653 -0.1075 -0.6560
  137TMC2    H5 2143   1.767   1.313   9.116 -1.3385 -1.1359  0.1702
  138MPD2     C 2144   1.411   1.203   9.970 -0.0112  0.1573  0.0773
  138MPD2    C1 2145   1.517   1.281   9.909  0.8716  0.2758 -0.0928
  138MPD2    C2 2146   1.563   1.395   9.976  0.3679 -0.4512  0.0160
  138MPD2    C3 2147   1.503   1.436  10.094 -0.6883 -0.8866 -0.4867
  138MPD2    C4 2148   1.400   1.363  10.148 -0.0941 -1.0430 -0.1830
  138MPD2    C5 2149   1.361   1.246  10.091 -0.4728 -0.2989  0.3202
  138MPD2     H 2150   1.628   1.462   9.921  0.9275 -0.3915  0.7464
  138MPD2    H1 2151   1.359   1.396  10.243 -2.0182  1.3933 -1.8512
  138MPD2    H2 2152   1.363   1.116   9.926  1.2558  0.4951 -1.9518
  138MPD2    H3 2153   1.286   1.184  10.139 -0.2220 -0.3945  0.5862
  138MPD2     N 2154   1.538   1.564  10.146 -0.7262 -0.2164  0.1488
  138MPD2    H5 2155   1.618   1.612  10.107  0.0277 -0.8713  0.9066
  138MPD2    N1 2156   1.550   1.246   9.776 -0.3346  0.8284  0.0592
  138MPD2    H7 2157   1.499   1.166   9.740 -0.0912  1.1417 -1.0012
  139TMC2    C1 2158   2.294   0.398  13.882  0.0769  0.7840 -0.0830
  139TMC2    C2 2159   2.344   0.316  13.786  0.3921 -0.3437  0.3809
  139TMC2    C3 2160   2.284   0.311  13.663  0.2230  0.3322  0.3977
  139TMC2    C4 2161   2.189   0.479  13.847  0.3472  0.1389  0.5129
  139TMC2    C5 2162   2.127   0.473  13.726 -0.4524  0.2058 -0.2443
  139TMC2    C6 2163   2.173   0.383  13.634  1.4110 -0.3493 -0.2091
  139TMC2     C 2164   2.373   0.420  13.999  0.5636  0.3596  0.5599
  139TMC2     O 2165   2.493   0.428  13.981 -0.4873 -0.5527  0.5104
  139TMC2     H 2166   2.444   0.276  13.795  0.3179 -0.6624 -0.2195
  139TMC2    H1 2167   2.152   0.557  13.914 -0.1723 -0.2812  0.7165
  139TMC2    H2 2168   2.120   0.369  13.541 -0.4114  0.7224  0.6819
  139TMC2    C7 2169   1.992   0.495  13.720  0.5249  0.1479  0.4222
  139TMC2    C8 2170   2.342   0.218  13.571  0.5151 -0.6175  0.0793
  139TMC2    O1 2171   1.934   0.418  13.645  0.0856 -0.5134 -0.1214
  139TMC2    O2 2172   2.330   0.228  13.449  0.3655 -0.3007 -0.0133
  139TMC2    O5 2173   2.316   0.097  13.626  0.4157 -0.1914 -0.3385
  139TMC2    H5 2174   2.309   0.105  13.723 -1.5494 -0.1141 -0.4832
  140MPD2     C 2175   2.124   0.489  14.263 -0.3359 -0.7727  0.6835
  140MPD2    C1 2176   2.174   0.423  14.148  0.8378 -0.4451  0.3048
  140MPD2    C2 2177   2.096   0.329  14.086  0.2156 -0.5540  0.4432
  140MPD2    C3 2178   1.964   0.313  14.122  0.0527 -0.5765  0.5086
  140MPD2    C4 2179   1.910   0.392  14.223 -0.1182  0.4853  0.6334
  140MPD2    C5 2180   1.986   0.485  14.289 -0.0160 -0.0683  0.5732
  140MPD2     H 2181   2.135   0.267  14.006 -2.3191  0.9164 -1.9521
  140MPD2    H1 2182   1.813   0.387  14.271 -1.4602  0.3353 -2.1382
  140MPD2    H2 2183   2.178   0.561  14.325 -1.8895 -2.2117  3.7219
  140MPD2    H3 2184   1.941   0.540  14.371 -3.2940 -0.2851 -1.0881
  140MPD2     N 2185   1.881   0.235  14.038 -0.2543 -0.1827  0.4496
  140MPD2    H5 2186   1.919   0.198  13.951 -0.1234  0.8505  0.0691
  140MPD2    N1 2187   2.309   0.442  14.119 -0.3487  0.1385 -0.1713
  140MPD2    H7 2188   2.360   0.488  14.194 -1.2256  1.0356 -0.1241
  141TMC2    C1 2189   1.994   2.280  13.983  0.7592  0.0977 -0.2412
  141TMC2    C2 2190   1.876   2.297  13.919  0.7156  0.6566  0.4610
  141TMC2    C3 2191   1.766   2.261  13.992  0.4107  0.5750 -0.1817
  141TMC2    C4 2192   2.007   2.260  14.114 -0.7679 -0.0083  0.1348
  141TMC2    C5 2193   1.898   2.255  14.195  0.3545 -0.7757 -0.2266
  141TMC2    C6 2194   1.779   2.259  14.131  0.8794  0.3338 -0.2290
  141TMC2     C 2195   2.100   2.239  13.897  0.4081  0.0424 -1.1199
  141TMC2     O 2196   2.067   2.212  13.782  0.0301  0.2341 -0.1848
  141TMC2     H 2197   1.881   2.323  13.814 -1.3143  0.8414  0.4163
  141TMC2    H1 2198   2.106   2.248  14.155 -0.5186 -1.1428 -0.7905
  141TMC2    H2 2199   1.687   2.228  14.178  1.8215 -2.2949 -0.1320
  141TMC2    C7 2200   1.904   2.252  14.342  0.4649 -0.0007  0.5992
  141TMC2    C8 2201   1.641   2.248  13.929 -0.4674 -0.2302 -0.5791
  141TMC2    O1 2202   1.796   2.251  14.398 -0.4315 -0.1586  0.4596
  141TMC2    O2 2203   1.541   2.201  13.984  0.2322  0.2056 -1.0715
  141TMC2    O5 2204   1.646   2.305  13.807  0.3445  0.6825  0.5343
  141TMC2    H5 2205   1.566   2.319  13.751 -0.0993 -1.0017  0.7308
  142TMC2    C1 2206   0.663   4.729  10.583 -0.0037  0.1014  0.1203
  142TMC2    C2 2207   0.772   4.702  10.664 -0.1390 -0.5113 -0.2664
  142TMC2    C3 2208   0.863   0.074  10.678 -0.4215 -0.1295  0.4668
  142TMC2    C4 2209   0.664   0.095  10.486 -0.1477 -0.5108 -0.0402
  142TMC2    C5 2210   0.779   0.174  10.483  0.9783  0.4807  0.6909
  142TMC2    C6 2211   0.867   0.175  10.584  0.4497  0.1052  0.0833
  142TMC2     C 2212   0.546   4.648  10.588  0.1244  0.6901  0.3213
  142TMC2     O 2213   0.469   4.663  10.493 -0.0984  0.8124  0.2359
  142TMC2     H 2214   0.773   4.623  10.738  0.7077 -0.2020  0.0403
  142TMC2    H1 2215   0.580   0.119  10.422  0.7783  3.1649  0.1494
  142TMC2    H2 2216   0.957   0.235  10.573  0.4964 -0.5570 -3.2146
  142TMC2    C7 2217   0.788   0.285  10.392  0.0561 -0.4221  0.2273
  142TMC2    C8 2218   0.978   0.054  10.763  0.2989 -0.0205  0.2374
  142TMC2    O1 2219   0.854   0.384  10.419  0.4022 -0.1179  0.3587
  142TMC2    O2 2220   1.013   4.681  10.811 -0.0748 -0.1008  0.5527
  142TMC2    O5 2221   1.022   0.177  10.800 -0.7995 -0.1975 -0.0226
  142TMC2    H5 2222   0.979   0.253  10.755 -3.8149 -1.3923  0.8285
  143MPD2     C 2223   0.275   4.285  10.802 -0.0329 -0.0387 -0.0522
  143MPD2    C1 2224   0.285   4.326  10.669 -0.0615  0.0308 -0.2944
  143MPD2    C2 2225   0.367   4.433  10.631 -0.1749 -0.2967 -0.8255
  143MPD2    C3 2226   0.434   4.491  10.733  0.0377  0.7211 -0.3922
  143MPD2    C4 2227   0.423   4.447  10.861 -0.1442  0.1665  0.6330
  143MPD2    C5 2228   0.337   4.347  10.899 -0.8606  0.5782  0.0597
  143MPD2     H 2229   0.389   4.453  10.527 -0.9200 -0.2385 -0.9687
  143MPD2    H1 2230   0.482   4.498  10.937 -0.4785 -0.7838  1.5331
  143MPD2    H2 2231   0.226   4.195  10.837  2.1221 -0.0550  2.9367
  143MPD2    H3 2232   0.324   4.305  10.998  0.9043  0.0675  0.0691
  143MPD2     N 2233   0.527   4.588  10.711 -0.3449  0.0969 -0.5385
  143MPD2    H5 2234   0.588   4.604  10.791  1.4595  2.4826 -2.4126
  143MPD2    N1 2235   0.207   4.254  10.576  0.1173  0.0510 -0.1154
  143MPD2    H7 2236   0.167   4.165  10.604 -1.6232  0.4017 -1.4367
  144TMC2    C1 2237   2.273   3.703   1.103  0.2552 -0.8990  0.3644
  144TMC2    C2 2238   2.303   3.568   1.092  0.1555 -0.5876  0.1900
  144TMC2    C3 2239   2.434   3.525   1.114  0.3831  1.2739 -0.2067
  144TMC2    C4 2240   2.366   3.794   1.150  0.1643 -0.2283  0.0478
  144TMC2    C5 2241   2.491   3.740   1.170  0.3530  0.1056  0.5841
  144TMC2    C6 2242   2.527   3.613   1.154  0.2194  1.0146  0.6280
  144TMC2     C 2243   2.156   3.749   1.025  0.4682 -0.0431  1.0190
  144TMC2     O 2244   2.088   3.656   0.987  0.5695 -0.0303 -0.2169
  144TMC2     H 2245   2.233   3.493   1.055  0.4075 -0.0064 -1.4864
  144TMC2    H1 2246   2.323   3.882   1.195 -1.4129 -1.3532  0.7338
  144TMC2    H2 2247   2.634   3.595   1.163  0.7342  2.7486 -2.0829
  144TMC2    C7 2248   2.584   3.812   1.259  0.1611 -0.4357  0.2851
  144TMC2    C8 2249   2.458   3.387   1.076  0.3782  0.6976  0.0509
  144TMC2    O1 2250   2.643   3.740   1.339  0.0410 -0.1223  0.1272
  144TMC2    O2 2251   2.362   3.311   1.056  0.2001  0.1542  0.4086
  144TMC2    O5 2252   2.555   3.353   1.153  0.1993 -0.4486  0.3217
  144TMC2    H5 2253   2.643   3.387   1.128  0.8708 -2.8428 -0.5816
  145MPD2     C 2254   1.901   4.087   0.727 -0.2116  0.2424  0.3164
  145MPD2    C1 2255   1.908   3.947   0.714 -0.1208 -0.2934 -0.4573
  145MPD2    C2 2256   1.980   3.875   0.811 -0.2103  0.2780  0.0242
  145MPD2    C3 2257   2.059   3.948   0.900  0.3023 -0.9495  0.6747
  145MPD2    C4 2258   2.055   4.085   0.903  0.6883  0.5834 -0.6177
  145MPD2    C5 2259   1.971   4.153   0.815 -0.0223 -0.1403 -0.3354
  145MPD2     H 2260   1.982   3.767   0.812 -2.2496  0.2220 -0.9459
  145MPD2    H1 2261   2.107   4.136   0.983  1.4476  0.1998 -0.8669
  145MPD2    H2 2262   1.838   4.145   0.661 -3.1898 -1.7547  1.3670
  145MPD2    H3 2263   1.953   4.259   0.813  0.7518  0.0249  1.4533
  145MPD2     N 2264   2.148   3.884   0.993 -0.6633 -0.5419  0.4269
  145MPD2    H5 2265   2.211   3.946   1.042 -0.5654 -1.5312  1.5696
  145MPD2    N1 2266   1.846   3.887   0.609 -0.4804 -0.5093 -0.1456
  145MPD2    H7 2267   1.860   3.786   0.604  0.3983 -0.1998 -3.8398
  146TMC2    C1 2268   4.050   2.762  12.572  1.0241  0.5338  0.1769
  146TMC2    C2 2269   3.952   2.830  12.498  0.1783 -0.1926 -0.4252
  146TMC2    C3 2270   3.969   2.857  12.370 -0.0938 -0.0353 -0.6062
  146TMC2    C4 2271   4.166   2.716  12.513  0.1432  0.1549 -0.5638
  146TMC2    C5 2272   4.178   2.747  12.380  0.1487 -0.3672  0.3778
  146TMC2    C6 2273   4.080   2.813  12.308  0.5187 -0.5415  0.0524
  146TMC2     C 2274   4.058   2.790  12.718 -0.9489 -0.1272  0.9180
  146TMC2     O 2275   4.020   2.901  12.750  0.3651  0.4842  0.3771
  146TMC2     H 2276   3.884   2.899  12.547  1.0339  0.2161  0.1922
  146TMC2    H1 2277   4.233   2.655  12.573 -0.9896  0.3450  0.9023
  146TMC2    H2 2278   4.091   2.836  12.203  0.1005 -0.5113  0.0144
  146TMC2    C7 2279   4.282   2.688  12.295 -0.3435 -0.3671  0.5861
  146TMC2    C8 2280   3.950   2.996  12.330 -0.1999 -0.2946  0.2596
  146TMC2    O1 2281   4.324   2.750  12.199 -0.4671  0.5836 -0.5864
  146TMC2    O2 2282   4.039   3.081  12.344  0.1389  0.2678  0.8686
  146TMC2    O5 2283   3.817   3.013  12.360  0.1783 -0.1222 -0.2631
  146TMC2    H5 2284   3.772   2.926  12.354  0.1204 -0.2011  1.4756
  147MPD2     C 2285   4.593   2.299  12.154  0.3594 -0.6149  0.1848
  147MPD2    C1 2286   4.562   2.292  12.284 -0.8532 -0.4109 -0.0612
  147MPD2    C2 2287   4.464   2.376  12.340  0.9150  0.0818  0.0105
  147MPD2    C3 2288   4.421   2.488  12.273  0.3109  0.2827 -0.0561
  147MPD2    C4 2289   4.445   2.492  12.139 -0.4048  0.1148  0.1070
  147MPD2    C5 2290   4.528   2.390  12.081  0.1627  0.1744  0.4741
  147MPD2     H 2291   4.440   2.373  12.446  2.9492  1.5813  0.5209
  147MPD2    H1 2292   4.416   2.574  12.074  0.8731  0.5960  0.1396
  147MPD2    H2 2293   4.655   2.220  12.114  0.7318 -1.3742  2.2896
  147MPD2    H3 2294   4.532   2.385  11.972 -1.5287 -0.2250  0.4315
  147MPD2     N 2295   4.335   2.576  12.346 -0.0650  0.2769  0.0275
  147MPD2    H5 2296   4.303   2.540  12.436 -0.5569 -0.6163 -0.5108
  147MPD2    N1 2297   4.624   2.189  12.357 -0.5700  0.5737  0.3703
  147MPD2    H7 2298   4.707   2.147  12.315 -1.0449  0.2343 -0.2231
  148TMC2    C1 2299   0.482   1.342  10.137 -0.8349 -0.6240 -0.1431
  148TMC2    C2 2300   0.573   1.366  10.043 -0.0866  0.6071  0.1425
  148TMC2    C3 2301   0.664   1.266  10.005 -1.1422  0.4370 -0.1121
  148TMC2    C4 2302   0.476   1.217  10.190 -0.0104  0.3218 -0.5447
  148TMC2    C5 2303   0.562   1.118  10.145 -0.7202 -0.0382 -0.6391
  148TMC2    C6 2304   0.656   1.144  10.055 -0.3372 -0.4421 -0.0237
  148TMC2     C 2305   0.370   1.433  10.156 -0.5863  0.2999 -0.5372
  148TMC2     O 2306   0.396   1.553  10.149  0.0618 -0.3608 -0.1652
  148TMC2     H 2307   0.576   1.463   9.995 -0.5425  1.6748  2.2766
  148TMC2    H1 2308   0.403   1.192  10.266  1.3713 -0.0132  0.6730
  148TMC2    H2 2309   0.737   1.074  10.041 -0.3361 -0.5917  0.7348
  148TMC2    C7 2310   0.503   0.989  10.163 -0.3778 -0.1680  0.5315
  148TMC2    C8 2311   0.726   1.275   9.877 -0.3164 -0.0355  0.1702
  148TMC2    O1 2312   0.435   0.965  10.261  0.4014 -0.0497  0.5545
  148TMC2    O2 2313   0.727   1.180   9.800 -0.5053 -0.0356  0.4545
  148TMC2    O5 2314   0.788   1.396   9.867  0.0352  0.1323 -0.1894
  148TMC2    H5 2315   0.802   1.447   9.950 -1.1343 -1.5290  1.0218
  149MPD2     C 2316   0.099   1.570  10.209 -0.1055 -0.1592 -0.1350
  149MPD2    C1 2317   0.124   1.436  10.185  0.1002  0.1203 -0.5655
  149MPD2    C2 2318   0.010   1.354  10.182 -0.1584 -0.6859  0.0954
  149MPD2    C3 2319   4.622   1.411  10.220  0.4427  0.6167  1.0551
  149MPD2    C4 2320   4.602   1.546  10.235 -0.1015 -0.2251 -0.0406
  149MPD2    C5 2321   4.710   1.626  10.236 -0.4174  0.5487 -0.1726
  149MPD2     H 2322   0.017   1.248  10.160  0.1868  0.0782 -3.5794
  149MPD2    H1 2323   4.510   1.588  10.274 -0.0388 -0.8088  0.7347
  149MPD2    H2 2324   0.186   1.634  10.211 -0.6382  0.4889  2.3953
  149MPD2    H3 2325   4.698   1.729  10.268  1.1708  0.5895  0.3082
  149MPD2     N 2326   4.511   1.333  10.258 -0.7060 -0.3421 -0.3444
  149MPD2    H5 2327   4.421   1.375  10.277  0.2580  1.6248 -0.1532
  149MPD2    N1 2328   0.244   1.375  10.164  0.7689  0.4734 -0.5302
  149MPD2    H7 2329   0.243   1.277  10.137 -2.3363  1.1377 -2.8071
  150TMC2    C1 2330   1.858   0.331  12.298 -0.3019  0.6270 -0.0950
  150TMC2    C2 2331   1.804   0.449  12.253  0.3043 -0.2216  0.4044
  150TMC2    C3 2332   1.887   0.547  12.215  0.3110  0.4817 -0.9121
  150TMC2    C4 2333   1.990   0.315  12.313  0.2352 -0.4551 -0.1746
  150TMC2    C5 2334   2.069   0.422  12.288  0.0434  0.0815 -0.6436
  150TMC2    C6 2335   2.020   0.542  12.255  0.7674 -0.7721  0.3349
  150TMC2     C 2336   1.772   0.214  12.295  0.8024  0.3976 -0.5357
  150TMC2     O 2337   1.791   0.122  12.375  0.4902 -0.6742 -0.0064
  150TMC2     H 2338   1.697   0.468  12.256  0.2251 -0.7286  0.7313
  150TMC2    H1 2339   2.030   0.215  12.331  0.5273 -0.7251 -2.2692
  150TMC2    H2 2340   2.083   0.621  12.215  0.3043 -0.3580  0.4253
  150TMC2    C7 2341   2.216   0.416  12.307  0.0225 -0.1305  1.2146
  150TMC2    C8 2342   1.838   0.677  12.175 -0.1747 -0.2184  0.2886
  150TMC2    O1 2343   2.287   0.511  12.276  0.3868  0.1555 -0.4703
  150TMC2    O2 2344   1.864   0.789  12.220  0.2110 -0.0750  0.5951
  150TMC2    O5 2345   1.737   0.654  12.095  0.5321 -0.5004 -0.4188
  150TMC2    H5 2346   1.725   0.560  12.067  3.5328 -1.3142  1.0975
  151MPD2     C 2347   1.343   4.701  12.098  0.9747 -0.0835 -0.2646
  151MPD2    C1 2348   1.371   0.088  12.035 -0.5848  0.0018  0.8126
  151MPD2    C2 2349   1.482   0.156  12.073 -0.3444  0.5678  0.0037
  151MPD2    C3 2350   1.564   0.124  12.174  0.5846 -0.0293  0.4307
  151MPD2    C4 2351   1.526   0.012  12.245  0.3216  0.2027  0.1282
  151MPD2    C5 2352   1.436   4.661  12.196  0.3212  0.2831 -0.9285
  151MPD2     H 2353   1.512   0.248  12.023  1.7849  0.0489  0.3117
  151MPD2    H1 2354   1.589   4.724  12.331  2.0817 -0.8571 -1.4173
  151MPD2    H2 2355   1.269   4.624  12.078  0.3683  0.0759  1.3399
  151MPD2    H3 2356   1.422   4.572  12.256 -0.8448  2.4175  1.9583
  151MPD2     N 2357   1.667   0.228  12.209 -1.5671 -0.3204  0.3391
  151MPD2    H5 2358   1.679   0.303  12.141  1.4740  0.8241  2.1460
  151MPD2    N1 2359   1.275   0.137  11.942 -0.4589  0.3807  0.0952
  151MPD2    H7 2360   1.212   0.067  11.906  1.9249 -1.4631 -0.5135
  152TMC2    C1 2361   1.201   0.277  12.782 -0.2083 -0.6817  0.0425
  152TMC2    C2 2362   1.294   0.205  12.719  0.6035 -0.1132 -0.4848
  152TMC2    C3 2363   1.424   0.231  12.747  0.1360  0.2099  0.0259
  152TMC2    C4 2364   1.229   0.371  12.875 -0.0457  0.2159 -0.4736
  152TMC2    C5 2365   1.365   0.401  12.892  0.5308  0.0740  0.4484
  152TMC2    C6 2366   1.468   0.328  12.824 -0.6324 -0.2597 -0.2270
  152TMC2     C 2367   1.067   0.258  12.765  0.5911  1.0515  0.0017
  152TMC2     O 2368   0.993   0.355  12.797  0.0578 -0.4800 -0.1325
  152TMC2     H 2369   1.278   0.135  12.638  0.1987 -0.0508 -0.4568
  152TMC2    H1 2370   1.160   0.430  12.934  0.7766  0.5234  0.1670
  152TMC2    H2 2371   1.574   0.341  12.839 -0.5203 -0.4681 -0.8610
  152TMC2    C7 2372   1.391   0.531  12.942 -0.5561 -1.2780  0.1001
  152TMC2    C8 2373   1.522   0.154  12.668 -0.2583  0.3253 -0.2640
  152TMC2    O1 2374   1.302   0.614  12.954 -0.2426 -0.1329  0.3735
  152TMC2    O2 2375   1.633   0.136  12.715 -0.2567  0.1850 -0.2828
  152TMC2    O5 2376   1.501   0.197  12.542 -0.4357  0.0968 -0.0716
  152TMC2    H5 2377   1.426   0.259  12.536  1.5040  2.3578 -0.9520
  153MPD2     C 2378   0.928   4.677  12.652  0.4169 -0.2115  0.0336
  153MPD2    C1 2379   0.922   0.073  12.687 -0.4203  0.4229  0.4480
  153MPD2    C2 2380   0.805   0.139  12.687  0.6258 -0.7275  1.6454
  153MPD2    C3 2381   0.689   0.080  12.655  0.2270 -0.6453 -0.1759
  153MPD2    C4 2382   0.692   4.687  12.607 -0.2975 -0.3983  0.5278
  153MPD2    C5 2383   0.812   4.621  12.605  0.1721  0.6431  0.4624
  153MPD2     H 2384   0.800   0.234  12.737  1.7936  0.5972 -0.7814
  153MPD2    H1 2385   0.605   4.631  12.575 -1.1630  1.1520  0.1500
  153MPD2    H2 2386   1.024   4.626  12.650 -0.9243 -2.7151  1.0004
  153MPD2    H3 2387   0.809   4.516  12.578  1.5573  0.6311  0.3867
  153MPD2     N 2388   0.568   0.153  12.682 -0.0368  0.0419 -0.0972
  153MPD2    H5 2389   0.571   0.253  12.698  0.6294 -0.1966  1.2638
  153MPD2    N1 2390   1.046   0.128  12.725  0.1746 -0.0634 -0.0883
  153MPD2    H7 2391   1.127   0.067  12.723  1.7886  2.0868  0.0846
  154TMC2    C1 2392   1.877   1.381   0.154 -0.2020 -0.7422 -0.4911
  154TMC2    C2 2393   1.823   1.256   0.149  0.2684 -0.8325 -0.4515
  154TMC2    C3 2394   1.816   1.200   0.020  0.4169 -0.1939 -0.4662
  154TMC2    C4 2395   1.935   1.448   0.046 -0.4551  0.3195  0.0624
  154TMC2    C5 2396   1.923   1.380  17.659 -0.6528  0.5652  0.4752
  154TMC2    C6 2397   1.853   1.261  17.644 -0.5815  0.6480  0.0898
  154TMC2     C 2398   1.898   1.431   0.287 -0.0240  0.6820 -0.0640
  154TMC2     O 2399   1.911   1.348   0.374 -0.2229 -0.3431 -0.0321
  154TMC2     H 2400   1.785   1.218   0.243  1.3435 -1.7415 -0.3730
  154TMC2    H1 2401   2.008   1.527   0.058  0.4568 -0.4511 -0.4500
  154TMC2    H2 2402   1.835   1.224  17.544  1.1067 -0.8631  0.3347
  154TMC2    C7 2403   2.005   1.418  17.546 -0.6475  0.4526  0.4041
  154TMC2    C8 2404   1.764   1.068   0.007 -0.6453 -1.0713  0.5424
  154TMC2    O1 2405   2.011   1.341  17.449  0.1621 -0.3207 -0.3120
  154TMC2    O2 2406   1.734   1.033  17.626  0.4015 -0.2854 -0.3334
  154TMC2    O5 2407   1.702   1.021   0.120  0.4383 -0.1658 -0.0577
  154TMC2    H5 2408   1.760   1.028   0.199  1.8317 -1.2429 -0.9802
  155MPD2     C 2409   1.924   1.780   0.404  0.2180 -0.2420  0.3548
  155MPD2    C1 2410   1.945   1.645   0.403 -0.5485 -0.1411 -0.2533
  155MPD2    C2 2411   2.009   1.591   0.509 -0.6418 -0.0436 -0.3713
  155MPD2    C3 2412   2.047   1.666   0.621  0.1496 -0.2481  0.6860
  155MPD2    C4 2413   2.007   1.800   0.629 -0.4445  0.8856  1.3794
  155MPD2    C5 2414   1.946   1.851   0.519  0.1257 -0.8662  0.1095
  155MPD2     H 2415   2.041   1.487   0.507 -0.0383  0.1228  0.4158
  155MPD2    H1 2416   2.033   1.863   0.713 -2.3335 -1.4974  3.7724
  155MPD2    H2 2417   1.893   1.826   0.311  1.2251  1.3704  0.8186
  155MPD2    H3 2418   1.918   1.956   0.529 -0.7651 -1.0824 -0.1359
  155MPD2     N 2419   2.128   1.598   0.717 -0.1471 -0.3519  0.1645
  155MPD2    H5 2420   2.125   1.500   0.689 -1.2850  0.2316 -1.8081
  155MPD2    N1 2421   1.913   1.567   0.287 -0.2865  0.2220  0.6018
  155MPD2    H7 2422   1.896   1.616   0.200  1.7945 -1.5483 -0.7838
  156TMC2    C1 2423   2.402   2.499  11.762 -0.9002  0.2959 -0.4249
  156TMC2    C2 2424   2.473   2.387  11.784 -0.0280 -0.8428 -0.6824
  156TMC2    C3 2425   2.558   2.338  11.686  0.0936 -0.7693  0.0933
  156TMC2    C4 2426   2.414   2.570  11.644  0.2955  0.1390 -0.2684
  156TMC2    C5 2427   2.502   2.517  11.556 -0.6200 -0.7871 -0.5274
  156TMC2    C6 2428   2.582   2.409  11.571  0.5360 -0.1518  0.2811
  156TMC2     C 2429   2.317   2.554  11.870  0.3030  0.9447  0.2466
  156TMC2     O 2430   2.221   2.623  11.835 -0.2976 -0.5846 -1.1340
  156TMC2     H 2431   2.456   2.323  11.870 -1.6494  0.9661  0.3553
  156TMC2    H1 2432   2.350   2.653  11.615 -0.8578 -0.7913 -0.4293
  156TMC2    H2 2433   2.670   2.391  11.511  1.1415 -0.8934  1.4025
  156TMC2    C7 2434   2.525   2.596  11.434 -0.0353 -0.3486 -0.1658
  156TMC2    C8 2435   2.635   2.217  11.707 -0.1510 -0.3331  0.0048
  156TMC2    O1 2436   2.602   2.547  11.355  0.0061  0.3846 -0.0250
  156TMC2    O2 2437   2.685   2.164  11.609 -0.1837 -0.3198  0.1431
  156TMC2    O5 2438   2.695   2.229  11.823 -0.5081 -0.4971  0.3408
  156TMC2    H5 2439   2.648   2.300  11.871  1.4005 -0.6987  2.5056
  157MPD2     C 2440   2.379   2.498  12.224 -0.0457  0.3466 -0.5072
  157MPD2    C1 2441   2.312   2.551  12.118 -0.3148 -0.4200  0.0097
  157MPD2    C2 2442   2.190   2.613  12.136 -0.0887 -0.3020 -0.1344
  157MPD2    C3 2443   2.145   2.642  12.263 -0.0233  1.2783  0.9694
  157MPD2    C4 2444   2.215   2.590  12.371 -0.0981 -0.1944 -0.5454
  157MPD2    C5 2445   2.324   2.517  12.350 -0.1243 -0.3492  0.0968
  157MPD2     H 2446   2.131   2.650  12.053  1.4613 -1.3498 -1.7095
  157MPD2    H1 2447   2.190   2.613  12.474 -0.4362 -0.4004 -0.5825
  157MPD2    H2 2448   2.469   2.438  12.213  1.1669  1.7683  1.5517
  157MPD2    H3 2449   2.382   2.480  12.435  0.3622 -1.9719 -0.9366
  157MPD2     N 2450   2.030   2.717  12.276 -0.0523  0.1324  0.2870
  157MPD2    H5 2451   1.979   2.734  12.190 -1.6192  0.8884  1.3626
  157MPD2    N1 2452   2.367   2.514  11.989  0.0628 -0.7647 -0.0569
  157MPD2    H7 2453   2.462   2.480  11.990 -0.1040 -1.2485 -0.8613
  158TMC2    C1 2454   1.130   1.292  13.949  0.0057  0.1794 -0.3707
  158TMC2    C2 2455   1.093   1.416  13.912 -0.3613 -0.6925 -0.9847
  158TMC2    C3 2456   0.972   1.437  13.857  0.5174  0.0620  0.6419
  158TMC2    C4 2457   1.050   1.183  13.932  0.0363 -0.3215  1.1583
  158TMC2    C5 2458   0.928   1.215  13.876  0.2501 -0.2527 -0.2170
  158TMC2    C6 2459   0.891   1.332  13.833 -0.0327  0.7850 -0.4350
  158TMC2     C 2460   1.254   1.289  14.033  0.4902  1.2448 -0.5461
  158TMC2     O 2461   1.304   1.391  14.074 -0.1344  0.1447  0.3519
  158TMC2     H 2462   1.157   1.499  13.937 -1.2069  0.0962 -1.4431
  158TMC2    H1 2463   1.081   1.083  13.959  3.6061  0.2978 -0.6674
  158TMC2    H2 2464   0.806   1.351  13.769 -1.3772  2.2269  1.7596
  158TMC2    C7 2465   0.849   1.105  13.819  0.8988  0.0491  0.2015
  158TMC2    C8 2466   0.961   1.547  13.762  0.3108  0.4293 -0.0540
  158TMC2    O1 2467   0.738   1.138  13.784 -0.9046 -0.2939 -0.0807
  158TMC2    O2 2468   1.008   1.657  13.783  0.0014  0.0059  0.1713
  158TMC2    O5 2469   0.949   1.488  13.637  0.0949  0.7832  0.3235
  158TMC2    H5 2470   0.937   1.390  13.638  0.6661  0.7086  0.1928
  159MPD2     C 2471   1.519   0.995  14.333  0.5660  0.2767 -0.3794
  159MPD2    C1 2472   1.465   0.916  14.233  0.1645  0.6985 -0.5799
  159MPD2    C2 2473   1.387   0.974  14.138 -0.3424 -0.0877 -0.6505
  159MPD2    C3 2474   1.371   1.108  14.139 -0.2684  0.4126  0.1889
  159MPD2    C4 2475   1.428   1.185  14.231 -0.0968 -0.1716 -0.2668
  159MPD2    C5 2476   1.505   1.129  14.330 -0.6256 -0.6832 -0.0556
  159MPD2     H 2477   1.352   0.912  14.056 -0.5884 -1.8389  0.7949
  159MPD2    H1 2478   1.417   1.293  14.231 -0.6226 -0.2347  1.1758
  159MPD2    H2 2479   1.576   0.951  14.414 -1.2889  1.4245  1.5533
  159MPD2    H3 2480   1.550   1.193  14.406  1.1148 -1.1935 -0.6656
  159MPD2     N 2481   1.283   1.156  14.045 -0.2191  0.5494 -0.1610
  159MPD2    H5 2482   1.237   1.091  13.982 -0.4973 -0.2381  0.8558
  159MPD2    N1 2483   1.488   0.776  14.250 -0.0766 -0.7277  0.5072
  159MPD2    H7 2484   1.546   0.740  14.325  3.3584  2.0741 -0.8039
  160TMC2    C1 2485   0.826   4.113   1.540 -0.5843  0.5387 -0.2774
  160TMC2    C2 2486   0.819   4.054   1.663  0.0000 -0.3732 -0.3670
  160TMC2    C3 2487   0.935   4.041   1.729 -0.4872 -0.4222 -0.1574
  160TMC2    C4 2488   0.942   4.164   1.480  0.5134 -0.3395  0.4601
  160TMC2    C5 2489   1.059   4.154   1.558  0.2484  0.5549 -0.0282
  160TMC2    C6 2490   1.053   4.095   1.682 -0.0347 -0.8079  0.4168
  160TMC2     C 2491   0.707   4.106   1.456  0.4087 -0.1996 -0.6036
  160TMC2     O 2492   0.632   4.014   1.486 -0.1972 -0.0479 -0.3318
  160TMC2     H 2493   0.723   4.026   1.703  1.3655 -2.2144  1.5879
  160TMC2    H1 2494   0.944   4.198   1.377  0.6909 -0.3165  0.4705
  160TMC2    H2 2495   1.144   4.063   1.731  1.2967 -0.0695 -1.5555
  160TMC2    C7 2496   1.188   4.156   1.497  0.6785  0.5324 -0.8567
  160TMC2    C8 2497   0.936   3.945   1.832 -0.3249 -0.1148  0.2005
  160TMC2    O1 2498   1.256   4.063   1.534 -0.0657 -0.5826 -0.2241
  160TMC2    O2 2499   0.840   3.871   1.845 -0.1073 -0.2851 -0.2652
  160TMC2    O5 2500   1.005   4.002   1.936  0.1749  0.6953 -0.3837
  160TMC2    H5 2501   1.058   4.080   1.909  0.2611  0.8328  0.1843
  161MPD2     C 2502   0.475   4.140   1.285 -0.6338  0.4543  0.2904
  161MPD2    C1 2503   0.568   4.236   1.298 -0.1352  0.0566 -0.1551
  161MPD2    C2 2504   0.541   4.371   1.253 -0.3526  0.2188 -0.3061
  161MPD2    C3 2505   0.414   4.396   1.205 -0.1555 -0.0286 -0.3726
  161MPD2    C4 2506   0.313   4.298   1.212 -0.6209  0.8011 -0.1319
  161MPD2    C5 2507   0.350   4.171   1.250 -0.1088 -0.2932  0.7701
  161MPD2     H 2508   0.612   4.451   1.268 -2.4910  1.8519  1.3041
  161MPD2    H1 2509   0.209   4.321   1.190 -0.2781 -1.8675 -4.6167
  161MPD2    H2 2510   0.482   4.039   1.323  1.6566  1.0365  1.4543
  161MPD2    H3 2511   0.275   4.092   1.248  0.8486 -1.1615 -1.1834
  161MPD2     N 2512   0.369   4.523   1.159 -0.1454 -0.7869  0.3849
  161MPD2    H5 2513   0.285   4.523   1.103  0.2988  1.0445 -0.2435
  161MPD2    N1 2514   0.684   4.213   1.375 -0.1434 -0.1941  0.2247
  161MPD2    H7 2515   0.749   4.288   1.399 -0.3567  0.0369  0.0765
  162TMC2    C1 2516   3.737   1.896   0.961  0.1362  0.1675  0.0516
  162TMC2    C2 2517   3.672   2.005   1.002  0.2398 -0.2342  0.7587
  162TMC2    C3 2518   3.719   2.081   1.112  0.2215 -0.2852  0.6066
  162TMC2    C4 2519   3.849   1.854   1.026 -0.5446  0.1040 -0.7383
  162TMC2    C5 2520   3.896   1.929   1.135 -0.5839 -0.3114  0.3661
  162TMC2    C6 2521   3.827   2.037   1.186  0.1406  0.4682  0.5521
  162TMC2     C 2522   3.689   1.817   0.845 -0.6220  0.0685 -0.0127
  162TMC2     O 2523   3.764   1.729   0.798  0.3354  0.6213 -0.0573
  162TMC2     H 2524   3.585   2.050   0.956  0.1820 -0.8564  0.2525
  162TMC2    H1 2525   3.903   1.772   0.981 -0.6539 -0.5355  0.2851
  162TMC2    H2 2526   3.859   2.096   1.271  0.6008 -0.2060  0.8465
  162TMC2    C7 2527   4.028   1.909   1.197  0.0598 -0.4857  0.1865
  162TMC2    C8 2528   3.622   2.180   1.155 -0.2146  0.0992  0.3598
  162TMC2    O1 2529   4.061   2.003   1.270  0.3433  0.5321 -0.0645
  162TMC2    O2 2530   3.504   2.172   1.127 -0.3026  0.0629  0.4076
  162TMC2    O5 2531   3.679   2.273   1.225  0.1672 -0.4832 -0.3827
  162TMC2    H5 2532   3.775   2.266   1.207  0.2610 -1.2222  0.3719
  163MPD2     C 2533   3.351   1.672   0.489  0.3551 -0.7141 -0.5534
  163MPD2    C1 2534   3.490   1.668   0.496  0.2669  0.0415  0.4803
  163MPD2    C2 2535   3.560   1.727   0.600  0.0529  0.0703  0.6491
  163MPD2    C3 2536   3.488   1.788   0.701 -0.0166  0.8754 -0.3351
  163MPD2    C4 2537   3.349   1.802   0.680 -0.0527 -0.2318 -0.6920
  163MPD2    C5 2538   3.283   1.743   0.578  0.3696 -0.5516 -0.4358
  163MPD2     H 2539   3.668   1.727   0.601  0.0294 -1.3015  1.9525
  163MPD2    H1 2540   3.299   1.849   0.764 -1.0781 -3.0966  0.2919
  163MPD2    H2 2541   3.295   1.620   0.412 -1.9981 -0.2298  0.8375
  163MPD2    H3 2542   3.178   1.766   0.572  0.2490 -1.5514 -2.0727
  163MPD2     N 2543   3.554   1.842   0.814 -0.0954  0.0366  0.4615
  163MPD2    H5 2544   3.499   1.910   0.866 -2.1547 -1.4523  0.2308
  163MPD2    N1 2545   3.554   1.621   0.375 -0.5248  0.1992  0.5487
  163MPD2    H7 2546   3.492   1.573   0.310  1.1253  0.9059 -1.5303
  164TMC2    C1 2547   0.436   0.784  10.967  0.2295  0.2924  0.2169
  164TMC2    C2 2548   0.553   0.831  10.914  0.1321 -0.1040  0.1080
  164TMC2    C3 2549   0.558   0.961  10.863  0.1792 -0.0384 -0.0463
  164TMC2    C4 2550   0.338   0.875  10.996  0.2525 -0.4481  0.1344
  164TMC2    C5 2551   0.348   1.000  10.944  0.1058  0.9118  0.3413
  164TMC2    C6 2552   0.461   1.057  10.883  0.1860  0.9844  0.1328
  164TMC2     C 2553   0.423   0.653  11.026 -0.1121  0.3223 -0.6207
  164TMC2     O 2554   0.315   0.625  11.076 -0.0287  0.1435  0.2034
  164TMC2     H 2555   0.627   0.761  10.876 -0.3787 -0.0427 -1.0224
  164TMC2    H1 2556   0.245   0.833  11.034  1.0510 -2.0200  0.3535
  164TMC2    H2 2557   0.451   1.152  10.831 -1.7631  0.8947  0.3405
  164TMC2    C7 2558   0.240   1.093  10.982  0.0612  0.4738 -0.9090
  164TMC2    C8 2559   0.670   0.999  10.778  0.7226 -0.3040 -0.4678
  164TMC2    O1 2560   0.214   1.190  10.913 -0.2153 -0.1536 -0.1152
  164TMC2    O2 2561   0.761   0.926  10.747 -0.0762 -0.1925  0.2425
  164TMC2    O5 2562   0.705   1.125  10.817  0.3302 -0.1744 -0.2307
  164TMC2    H5 2563   0.640   1.173  10.873  0.9764 -0.8680  1.1218
  165TMC2    C1 2564   0.520   3.533   1.460  0.1329 -0.7979  1.3308
  165TMC2    C2 2565   0.449   3.598   1.367 -0.4649  0.3139  0.0256
  165TMC2    C3 2566   0.510   3.690   1.284  0.0522 -0.5808  0.4279
  165TMC2    C4 2567   0.651   3.570   1.480 -0.8854  0.1181 -0.2035
  165TMC2    C5 2568   0.697   3.676   1.398  0.4611 -0.3178 -0.1915
  165TMC2    C6 2569   0.632   3.734   1.297 -0.0120 -0.2503 -0.8632
  165TMC2     C 2570   0.489   3.396   1.491 -0.2814  0.8232 -0.0743
  165TMC2     O 2571   0.581   3.323   1.524  0.2022  0.2193  0.1250
  165TMC2     H 2572   0.344   3.579   1.350 -0.2369 -0.3020 -0.6837
  165TMC2    H1 2573   0.710   3.516   1.552  1.9151  3.3437 -0.0370
  165TMC2    H2 2574   0.669   3.819   1.241  0.6914  0.3459  0.5082
  165TMC2    C7 2575   0.835   3.715   1.399  0.1896 -0.1951 -0.3366
  165TMC2    C8 2576   0.417   3.773   1.206  0.0820  0.2248 -0.0977
  165TMC2    O1 2577   0.879   3.781   1.303 -0.2908 -0.3940 -0.0478
  165TMC2    O2 2578   0.298   3.785   1.238 -0.4727  0.1037 -0.0362
  165TMC2    O5 2579   0.449   3.761   1.076  0.2466  0.3583 -0.0602
  165TMC2    H5 2580   0.542   3.735   1.060  0.5572  1.1464  0.4683
  166MPD2     C 2581   0.171   2.989   1.520 -0.2838 -0.6124 -0.4644
  166MPD2    C1 2582   0.305   2.993   1.507 -0.3703  0.2621  0.3291
  166MPD2    C2 2583   0.366   3.113   1.504 -0.2487  0.1135  0.1986
  166MPD2    C3 2584   0.297   3.231   1.510 -0.8731  0.4209 -0.1959
  166MPD2    C4 2585   0.161   3.227   1.514  0.8828 -0.7873 -0.7000
  166MPD2    C5 2586   0.102   3.105   1.529 -0.4382  1.2718 -0.2396
  166MPD2     H 2587   0.473   3.125   1.492 -0.2657  0.6203  0.5373
  166MPD2    H1 2588   0.100   3.316   1.527 -0.6270 -1.9470  0.1686
  166MPD2    H2 2589   0.121   2.893   1.527 -2.1320  0.5126  1.7234
  166MPD2    H3 2590   4.730   3.096   1.546 -0.7443  0.4695 -2.5505
  166MPD2     N 2591   0.356   3.367   1.499 -0.1327  0.5883 -0.3138
  166MPD2    H5 2592   0.297   3.450   1.503 -0.7328  0.1582 -0.2753
  166MPD2    N1 2593   0.375   2.869   1.504 -0.4674  0.5084 -0.4971
  166MPD2    H7 2594   0.326   2.784   1.528  0.9823  0.3209  1.8207
  167TMC2    C1 2595   4.281   1.256  13.262 -0.0317 -0.7766 -0.4291
  167TMC2    C2 2596   4.260   1.259  13.397  0.3926 -0.1994 -1.0890
  167TMC2    C3 2597   4.195   1.144  13.445  0.0524  0.0708 -0.4748
  167TMC2    C4 2598   4.251   1.142  13.185 -0.2276  0.5419 -0.2387
  167TMC2    C5 2599   4.198   1.033  13.242  0.4607 -0.5470  0.5182
  167TMC2    C6 2600   4.164   1.033  13.372  0.1130  0.5911  0.3764
  167TMC2     C 2601   4.334   1.386  13.203  0.6717  0.9895 -0.5429
  167TMC2     O 2602   4.382   1.470  13.277  0.6244  0.0767  0.1922
  167TMC2     H 2603   4.292   1.343  13.457  0.0907 -1.6873  1.1718
  167TMC2    H1 2604   4.248   1.147  13.077 -0.5019 -0.8474 -0.2999
  167TMC2    H2 2605   4.127   0.939  13.412  1.9294 -0.9065 -1.4255
  167TMC2    C7 2606   4.142   0.922  13.158  0.1986  0.1026  0.6899
  167TMC2    C8 2607   4.213   1.098  13.577  0.4179 -0.0320 -0.2666
  167TMC2    O1 2608   4.034   0.880  13.192 -0.5460 -0.1646  0.2241
  167TMC2    O2 2609   4.224   0.977  13.592  0.4742  0.3995  0.1186
  167TMC2    O5 2610   4.296   1.188  13.641  0.6813  0.5094 -0.5315
  167TMC2    H5 2611   4.263   1.280  13.639 -1.0214 -0.0872  0.9564
  168MPD2     C 2612   4.466   1.581  13.014  0.2323 -0.0823  1.4191
  168MPD2    C1 2613   4.361   1.496  12.983  0.8881 -0.4110 -0.7501
  168MPD2    C2 2614   4.309   1.504  12.858  0.2704 -0.0139 -0.2447
  168MPD2    C3 2615   4.361   1.592  12.762 -0.6242 -0.1367 -0.5897
  168MPD2    C4 2616   4.465   1.678  12.798  0.2337  0.2190  0.2072
  168MPD2    C5 2617   4.520   1.671  12.923 -0.3290  0.5953  0.2984
  168MPD2     H 2618   4.234   1.431  12.829 -0.2555  0.6707 -0.6161
  168MPD2    H1 2619   4.509   1.742  12.722  2.1329  0.1744  1.2712
  168MPD2    H2 2620   4.518   1.571  13.108  3.5145 -1.2185 -0.5198
  168MPD2    H3 2621   4.601   1.734  12.957 -0.7531  1.7183 -0.7819
  168MPD2     N 2622   4.321   1.584  12.629 -0.3053  0.3828  0.2909
  168MPD2    H5 2623   4.378   1.640  12.567 -0.3943 -0.8736 -0.9197
  168MPD2    N1 2624   4.313   1.399  13.065 -0.3058 -0.3257  0.2084
  168MPD2    H7 2625   4.253   1.325  13.029  0.3480 -1.5175  1.5715
  169MPD1     C 2626   1.475   0.861   9.112  0.3583  0.3054  0.0066
  169MPD1    C1 2627   1.407   0.843   9.231  0.2264 -0.2263  0.1568
  169MPD1    C2 2628   1.479   0.871   9.348  0.3673  0.2920 -1.0063
  169MPD1    C3 2629   1.616   0.896   9.346  0.1081 -0.3482 -0.2417
  169MPD1    C4 2630   1.686   0.894   9.220  0.5370 -1.0637 -0.1626
  169MPD1    C5 2631   1.616   0.872   9.102  0.1345  0.1213 -0.6673
  169MPD1     H 2632   1.431   0.870   9.445  0.2753 -0.1367 -1.0560
  169MPD1    H1 2633   1.788   0.931   9.212  0.6721 -1.8560 -2.1634
  169MPD1    H2 2634   1.428   0.861   9.014  2.5739 -1.5428 -1.0603
  169MPD1    H3 2635   1.659   0.895   9.005  0.5878 -2.5761 -1.0913
  169MPD1     N 2636   1.683   0.921   9.466 -0.2536  0.7584 -0.1229
  169MPD1    H5 2637   1.626   0.924   9.550 -2.2071 -2.1734 -1.3125
  169MPD1    N1 2638   1.271   0.835   9.229 -0.0848 -0.1263 -0.4375
  169MPD1    H6 2639   1.232   0.802   9.141  0.6285 -1.2629 -0.3203
  169MPD1    H7 2640   1.254   0.764   9.299 -0.8250  3.1590  2.7082
  170MPD1     C 2641   0.540   3.059  12.988  0.4157 -0.4143 -0.0885
  170MPD1    C1 2642   0.406   3.064  12.963  0.7324 -1.0189  0.0406
  170MPD1    C2 2643   0.322   3.126  13.057 -0.4424  0.3515 -0.1197
  170MPD1    C3 2644   0.369   3.161  13.182  0.2047  0.5888  0.3586
  170MPD1    C4 2645   0.508   3.145  13.207  0.0966  0.5348 -0.0531
  170MPD1    C5 2646   0.591   3.107  13.108 -0.5283  0.0631 -0.7881
  170MPD1     H 2647   0.219   3.143  13.029 -0.8533  0.5259  1.5246
  170MPD1    H1 2648   0.550   3.174  13.302 -1.1222 -0.3724  0.7645
  170MPD1    H2 2649   0.608   3.029  12.909 -0.7968 -0.0484 -1.2471
  170MPD1    H3 2650   0.698   3.112  13.127 -0.5492 -0.0559 -0.6361
  170MPD1     N 2651   0.276   3.224  13.268 -0.0189 -0.0929 -0.0270
  170MPD1    H5 2652   0.180   3.234  13.237  0.2005 -1.7537 -1.1986
  170MPD1    N1 2653   0.375   3.050  12.831 -0.2224 -0.1986 -0.3353
  170MPD1    H6 2654   0.277   3.028  12.813 -0.2381  2.4528 -3.6030
  170MPD1    H7 2655   0.440   2.987  12.785 -1.9672 -1.8606 -0.5474
  171MPD1     C 2656   3.604   4.734  15.520 -0.3363  0.2391 -0.1176
  171MPD1    C1 2657   3.590   4.625  15.437 -0.0749  0.4711 -0.1520
  171MPD1    C2 2658   3.537   4.514  15.491  0.3732  0.1866 -0.0417
  171MPD1    C3 2659   3.537   4.494  15.628 -0.5024  0.0056  0.5124
  171MPD1    C4 2660   3.579   4.590  15.713 -0.5784 -0.0752 -0.3079
  171MPD1    C5 2661   3.607   4.711  15.657  0.1744  0.1006 -0.1812
  171MPD1     H 2662   3.500   4.432  15.431  2.5610 -1.8647  1.4290
  171MPD1    H1 2663   3.573   4.579  15.821 -1.0446 -0.7730 -0.4034
  171MPD1    H2 2664   3.631   0.098  15.484 -1.1526  0.5949  0.2307
  171MPD1    H3 2665   3.631   0.062  15.720 -1.3847  0.2970  0.1488
  171MPD1     N 2666   3.506   4.368  15.684 -0.1213  0.1311 -0.1872
  171MPD1    H5 2667   3.510   4.355  15.785  0.8702  0.0670 -0.2328
  171MPD1    N1 2668   3.597   4.661  15.300 -0.4062  0.8170 -0.2235
  171MPD1    H6 2669   3.614   4.576  15.246  2.1040 -0.8223  3.1775
  171MPD1    H7 2670   3.668   4.733  15.285 -0.4659  1.3664  2.1811
  172MPD1     C 2671   2.602   3.147   0.625 -0.3829  0.6879 -0.1212
  172MPD1    C1 2672   2.526   3.207   0.727  0.3162  0.1197 -0.2020
  172MPD1    C2 2673   2.523   3.344   0.725 -0.4957  0.3689  0.2700
  172MPD1    C3 2674   2.608   3.416   0.641  0.2228  0.9393 -0.1280
  172MPD1    C4 2675   2.694   3.353   0.554 -0.9926  0.2604 -0.3174
  172MPD1    C5 2676   2.681   3.218   0.536  0.0243 -0.0593 -0.1387
  172MPD1     H 2677   2.458   3.397   0.794  1.5533  1.4574  1.3600
  172MPD1    H1 2678   2.747   3.406   0.476  0.6033 -0.8592  0.0268
  172MPD1    H2 2679   2.608   3.040   0.614  1.7003  0.8582 -0.6771
  172MPD1    H3 2680   2.737   3.180   0.451  0.3099  1.2972 -0.5583
  172MPD1     N 2681   2.606   3.558   0.646  0.2133 -0.2405 -0.1470
  172MPD1    H5 2682   2.686   3.600   0.600  0.4850 -3.7350 -2.8570
  172MPD1    N1 2683   2.427   3.136   0.804 -0.4048 -0.0055 -0.2636
  172MPD1    H6 2684   2.392   3.182   0.887  1.2534  0.2349  0.3072
  172MPD1    H7 2685   2.473   3.049   0.832 -0.5030 -0.1927 -0.6786
  173MPD1     C 2686   4.107   3.930  13.771 -0.7718 -0.1848  0.2862
  173MPD1    C1 2687   4.228   3.884  13.814 -0.2205 -0.2764 -0.1125
  173MPD1    C2 2688   4.229   3.831  13.940  0.1023  1.0617 -0.2078
  173MPD1    C3 2689   4.125   3.857  14.026 -0.1194  0.0087  0.0264
  173MPD1    C4 2690   4.010   3.924  13.984  0.7478 -0.1557  0.4257
  173MPD1    C5 2691   4.005   3.952  13.849 -0.4109  0.1333 -0.4323
  173MPD1     H 2692   4.302   3.759  13.974 -1.3755  0.1569  1.0409
  173MPD1    H1 2693   3.925   3.943  14.049  0.3565 -2.0425  0.4877
  173MPD1    H2 2694   4.103   3.960  13.667  0.6430  1.1956  0.6304
  173MPD1    H3 2695   3.915   3.992  13.801  0.8849  3.3517 -0.1879
  173MPD1     N 2696   4.143   3.813  14.155  0.2027 -0.4148  0.5612
  173MPD1    H5 2697   4.235   3.772  14.168 -0.5085 -1.1852  3.2307
  173MPD1    N1 2698   4.328   3.858  13.721  0.4248 -0.5438  0.1323
  173MPD1    H6 2699   4.411   3.837  13.776  0.9679 -0.5933 -0.7179
  173MPD1    H7 2700   4.335   3.924  13.644  1.5419 -0.2122  0.5078
  174MPD1     C 2701   4.701   3.243  14.736  0.1723  0.4865 -0.2851
  174MPD1    C1 2702   4.715   3.357  14.662  0.0688  0.3433 -0.0905
  174MPD1    C2 2703   4.606   3.394  14.583  0.5338 -0.1614 -0.0088
  174MPD1    C3 2704   4.480   3.351  14.616 -0.2091 -0.5062 -0.1980
  174MPD1    C4 2705   4.464   3.247  14.701 -0.1629 -0.8976  0.2640
  174MPD1    C5 2706   4.575   3.189  14.757 -0.7172  0.2141  0.5451
  174MPD1     H 2707   4.631   3.480  14.522 -0.8143  1.8412  2.2313
  174MPD1    H1 2708   4.366   3.202  14.716 -1.7801  1.9622 -1.6265
  174MPD1    H2 2709   0.047   3.200  14.794 -0.5890  1.0712  1.2000
  174MPD1    H3 2710   4.566   3.091  14.803 -1.6559  0.4408  0.8471
  174MPD1     N 2711   4.363   3.402  14.557 -0.4633  0.3715  0.5232
  174MPD1    H5 2712   4.274   3.355  14.573  0.9174 -2.5512 -0.4600
  174MPD1    N1 2713   0.103   3.429  14.674  0.6700  0.4024  0.2020
  174MPD1    H6 2714   0.184   3.370  14.692  0.2522  0.2749  1.6746
  174MPD1    H7 2715   0.127   3.491  14.597 -0.6252  2.2636  1.3006
  175MPD1     C 2716   2.082   0.083  15.606  0.1725  0.3111  0.0049
  175MPD1    C1 2717   2.027   0.176  15.691  0.0091 -0.5184 -0.3508
  175MPD1    C2 2718   1.985   0.148  15.818  0.3876 -0.3513  0.6655
  175MPD1    C3 2719   2.020   0.025  15.861 -0.1767 -0.0499 -0.3438
  175MPD1    C4 2720   2.101   4.675  15.788 -0.5641  0.5383 -0.0102
  175MPD1    C5 2721   2.126   4.697  15.657 -0.4300 -0.4026  0.7480
  175MPD1     H 2722   1.933   0.224  15.875  1.3467  0.0800  0.9753
  175MPD1    H1 2723   2.127   4.577  15.827  0.5846 -0.4068 -3.1035
  175MPD1    H2 2724   2.108   0.109  15.504 -0.7895 -0.3436 -0.4123
  175MPD1    H3 2725   2.172   4.621  15.595 -1.7866 -0.9983  0.4864
  175MPD1     N 2726   1.978   4.716  15.989  0.7388  0.4056 -0.0170
  175MPD1    H5 2727   2.017   4.629  16.022  3.5757  1.6639 -0.0358
  175MPD1    N1 2728   1.981   0.292  15.632 -0.2018  0.4154  0.6306
  175MPD1    H6 2729   1.907   0.272  15.566  0.9135 -0.6790 -0.2937
  175MPD1    H7 2730   1.944   0.367  15.690  1.5844 -0.4601  2.8861
  176MPD1     C 2731   3.529   1.654  17.669 -0.1332  0.0206 -0.6338
  176MPD1    C1 2732   3.475   1.729   0.040 -0.3812  0.3677 -0.0338
  176MPD1    C2 2733   3.525   1.856   0.053  0.1000  0.5422 -0.1583
  176MPD1    C3 2734   3.625   1.906  17.704  0.0893  0.4113  0.1283
  176MPD1    C4 2735   3.670   1.830  17.593 -0.2320 -0.6536 -0.3159
  176MPD1    C5 2736   3.624   1.702  17.585 -0.4076  0.2198 -0.5454
  176MPD1     H 2737   3.470   1.925   0.115  0.1786  0.6665 -0.2269
  176MPD1    H1 2738   3.738   1.862  17.515 -0.7851 -1.9891 -1.3499
  176MPD1    H2 2739   3.497   1.552  17.651  1.3968 -0.0912 -2.7657
  176MPD1    H3 2740   3.661   1.638  17.506 -2.9460 -0.5181 -1.1627
  176MPD1     N 2741   3.672   2.037  17.721 -0.0302 -0.0239 -0.0501
  176MPD1    H5 2742   3.632   2.091   0.061  0.0587  0.8790 -0.6542
  176MPD1    N1 2743   3.384   1.680   0.136 -0.3756 -0.0019  0.1753
  176MPD1    H6 2744   3.309   1.626   0.093 -0.8024 -1.6111  2.9679
  176MPD1    H7 2745   3.332   1.749   0.189  2.3318  1.5262  0.8298
  177MPD1     C 2746   3.005   2.029  10.191 -0.0436 -0.2903 -0.2548
  177MPD1    C1 2747   2.898   1.946  10.203  0.1135  0.3503  0.4159
  177MPD1    C2 2748   2.806   1.951  10.097 -0.3868  0.9732 -0.4462
  177MPD1    C3 2749   2.835   2.010   9.975 -0.2510 -0.1947 -0.4349
  177MPD1    C4 2750   2.956   2.078   9.963 -0.3296 -0.0287  0.5794
  177MPD1    C5 2751   3.033   2.097  10.076  0.8076  0.0249 -0.0513
  177MPD1     H 2752   2.713   1.895  10.094  0.1606  0.1530 -2.7150
  177MPD1    H1 2753   2.984   2.125   9.869 -3.5972  0.6294 -0.0674
  177MPD1    H2 2754   3.067   2.053  10.276 -1.2012  1.9891 -0.0488
  177MPD1    H3 2755   3.125   2.151  10.061 -0.9032  2.1300 -2.9430
  177MPD1     N 2756   2.742   1.996   9.868  0.6156  0.1175  0.9897
  177MPD1    H5 2757   2.676   1.919   9.869 -0.2715  0.8781  1.1015
  177MPD1    N1 2758   2.870   1.895  10.329  0.3855 -0.2303  0.4213
  177MPD1    H6 2759   2.958   1.875  10.377  1.5308  0.8017 -1.2536
  177MPD1    H7 2760   2.814   1.810  10.329  0.4687 -0.2833 -0.9691
  178MPD1     C 2761   0.299   2.349   0.467 -0.1114 -0.4879 -0.8729
  178MPD1    C1 2762   0.193   2.355   0.387 -1.1100  0.4236  0.7281
  178MPD1    C2 2763   0.204   2.405   0.257  0.4824 -0.6600  0.6370
  178MPD1    C3 2764   0.323   2.445   0.200  0.0305  0.3934 -0.6255
  178MPD1    C4 2765   0.431   2.439   0.285  0.3262 -0.1009 -0.4948
  178MPD1    C5 2766   0.411   2.395   0.415  0.2033 -0.8866 -0.2306
  178MPD1     H 2767   0.110   2.408   0.202  0.6337 -0.0066  0.4127
  178MPD1    H1 2768   0.533   2.465   0.259  0.5250 -1.1683 -0.7756
  178MPD1    H2 2769   0.292   2.323   0.572  0.0841 -0.2397 -0.7982
  178MPD1    H3 2770   0.502   2.396   0.475 -0.7358 -2.3206  1.2121
  178MPD1     N 2771   0.343   2.489   0.066  0.1338 -0.8631 -0.4101
  178MPD1    H5 2772   0.432   2.534   0.046 -0.0113 -0.1112  0.6698
  178MPD1    N1 2773   0.060   2.341   0.439 -0.5895  0.6100 -0.5612
  178MPD1    H6 2774   4.732   2.298   0.372 -0.2336  0.1884 -0.6183
  178MPD1    H7 2775   0.066   2.290   0.527 -1.1626  1.1126 -0.2312
  179MPD1     C 2776   4.401   1.321  15.734 -0.1293 -0.0557 -0.1057
  179MPD1    C1 2777   4.350   1.232  15.642 -0.0556 -0.0664 -0.0080
  179MPD1    C2 2778   4.259   1.138  15.690  0.6397 -0.4417  0.1404
  179MPD1    C3 2779   4.206   1.149  15.817  0.1893  0.0161 -0.1014
  179MPD1    C4 2780   4.254   1.249  15.900  0.1019 -0.1763 -0.7334
  179MPD1    C5 2781   4.359   1.321  15.864 -0.5464  0.0515 -0.4390
  179MPD1     H 2782   4.234   1.064  15.615 -0.2915  0.4118 -0.3847
  179MPD1    H1 2783   4.228   1.240  16.005  3.1114 -3.8437 -0.3148
  179MPD1    H2 2784   4.489   1.382  15.716 -0.0994  0.1336  0.6843
  179MPD1    H3 2785   4.402   1.389  15.937  2.6664 -0.7720 -1.5578
  179MPD1     N 2786   4.104   1.065  15.871 -0.3599  0.6174  0.0569
  179MPD1    H5 2787   4.082   1.073  15.970 -1.5066  0.8467 -0.2106
  179MPD1    N1 2788   4.418   1.214  15.519 -0.2899  0.1802  0.7200
  179MPD1    H6 2789   4.467   1.302  15.501  0.9394 -0.5248  0.5860
  179MPD1    H7 2790   4.360   1.197  15.438 -0.3109 -0.5610  0.8907
  180MPD1     C 2791   3.631   1.966  15.247  0.5329  0.9444  0.0869
  180MPD1    C1 2792   3.746   2.033  15.212  0.3270  0.3536  0.7958
  180MPD1    C2 2793   3.786   2.026  15.087 -0.0730  0.2819  0.3367
  180MPD1    C3 2794   3.726   1.949  14.994  0.6633  0.0180  0.0252
  180MPD1    C4 2795   3.617   1.873  15.032  0.7396 -0.4969 -0.6695
  180MPD1    C5 2796   3.569   1.882  15.158  0.0790  0.4234 -0.4279
  180MPD1     H 2797   3.872   2.084  15.057  0.7720 -1.0122  0.2533
  180MPD1    H1 2798   3.566   1.799  14.971 -1.9831  0.4332  0.4643
  180MPD1    H2 2799   3.591   1.982  15.347  1.0367 -2.6388  0.8616
  180MPD1    H3 2800   3.473   1.836  15.177  0.9865 -2.0066 -1.7507
  180MPD1     N 2801   3.793   1.944  14.866  0.4597 -0.2827 -0.9407
  180MPD1    H5 2802   3.884   1.989  14.862  0.7592 -0.5480  2.3257
  180MPD1    N1 2803   3.797   2.123  15.308  0.5676  0.7720  0.2593
  180MPD1    H6 2804   3.790   2.076  15.398  1.8346 -1.9243 -1.0380
  180MPD1    H7 2805   3.886   2.170  15.293  2.0242 -2.1991 -0.3992
  181MPD1     C 2806   0.947   3.993   9.456 -0.5940  0.5733 -0.1102
  181MPD1    C1 2807   0.999   4.123   9.490  0.0304  1.3602 -0.0043
  181MPD1    C2 2808   1.046   4.135   9.622 -0.0493 -0.8589 -0.0638
  181MPD1    C3 2809   1.059   4.026   9.706  0.3135 -0.5906  0.5636
  181MPD1    C4 2810   1.033   3.901   9.661  0.1482 -0.5228 -0.5538
  181MPD1    C5 2811   0.967   3.885   9.538 -0.8862  0.2744  0.5192
  181MPD1     H 2812   1.065   4.237   9.652  0.1980  0.2306 -3.8847
  181MPD1    H1 2813   1.058   3.808   9.709  1.1038 -0.2060 -0.4249
  181MPD1    H2 2814   0.907   3.967   9.359  0.1790  0.7511 -0.4799
  181MPD1    H3 2815   0.951   3.783   9.503  0.0965  0.5685 -0.8015
  181MPD1     N 2816   1.133   4.033   9.832  0.5502  0.3353 -0.7146
  181MPD1    H5 2817   1.161   3.952   9.886 -0.2885  0.4205 -0.1558
  181MPD1    N1 2818   0.985   4.237   9.411 -0.5837  0.1937 -0.7494
  181MPD1    H6 2819   0.994   4.222   9.311  0.2306  1.8821 -0.9283
  181MPD1    H7 2820   1.015   4.331   9.436 -2.2654  0.0778  1.7514
  182MPD1     C 2821   2.201   2.799   1.539  0.0919 -0.3630  0.0992
  182MPD1    C1 2822   2.240   2.765   1.413  0.1562 -0.0673 -0.1975
  182MPD1    C2 2823   2.221   2.857   1.313  0.2433 -0.1197  0.1202
  182MPD1    C3 2824   2.139   2.963   1.323 -0.2186  0.2548 -0.1711
  182MPD1    C4 2825   2.092   2.987   1.449  0.3118  0.7311 -0.1104
  182MPD1    C5 2826   2.129   2.916   1.553  0.1475  0.6998 -0.0613
  182MPD1     H 2827   2.265   2.831   1.217 -2.1965 -0.5298 -0.8732
  182MPD1    H1 2828   2.021   3.068   1.460 -0.6749 -0.0536 -0.6484
  182MPD1    H2 2829   2.218   2.733   1.623  1.6983 -0.8139 -0.5703
  182MPD1    H3 2830   2.095   2.942   1.653  1.2823  3.2217 -0.3406
  182MPD1     N 2831   2.112   3.056   1.213 -0.4569  0.1065 -0.2052
  182MPD1    H5 2832   2.057   3.140   1.230 -0.6844 -0.3178  1.1353
  182MPD1    N1 2833   2.338   2.665   1.398  0.7324 -0.2129 -0.4168
  182MPD1    H6 2834   2.335   2.605   1.480  1.8909  0.5589  0.1914
  182MPD1    H7 2835   2.425   2.718   1.404  0.0660  1.0049 -1.4019
  183MPD1     C 2836   2.177   2.929   8.949  0.0032  0.0378  0.1658
  183MPD1    C1 2837   2.132   2.929   9.079 -0.2053  0.5089  1.2035
  183MPD1    C2 2838   2.156   3.047   9.153  0.0692  0.1345  0.6679
  183MPD1    C3 2839   2.243   3.141   9.113 -0.0390 -0.7929 -0.0020
  183MPD1    C4 2840   2.293   3.143   8.985 -0.4032 -0.4094  0.2129
  183MPD1    C5 2841   2.255   3.037   8.911  0.0235  0.8755 -0.5215
  183MPD1     H 2842   2.120   3.056   9.255 -1.4452  0.3227  0.1039
  183MPD1    H1 2843   2.346   3.228   8.943 -1.7246 -1.4084 -3.4246
  183MPD1    H2 2844   2.153   2.861   8.868  1.4640  1.1853 -1.2368
  183MPD1    H3 2845   2.284   3.035   8.807 -1.3157 -1.7318 -0.8474
  183MPD1     N 2846   2.282   3.245   9.201 -0.2383  0.2914 -0.5819
  183MPD1    H5 2847   2.227   3.254   9.286 -0.2345  1.7911 -0.7411
  183MPD1    N1 2848   2.027   2.848   9.112 -0.2875 -0.4857 -0.0796
  183MPD1    H6 2849   2.019   2.850   9.214  0.9405  0.8512 -0.0112
  183MPD1    H7 2850   2.046   2.753   9.082  0.7284  0.7052 -3.2146
  184MPD1     C 2851   1.854   1.761  10.495 -0.5357 -0.6114 -0.1486
  184MPD1    C1 2852   1.836   1.648  10.420  0.5388 -0.9095  0.0199
  184MPD1    C2 2853   1.855   1.669  10.285  0.1212  0.7526  0.3533
  184MPD1    C3 2854   1.873   1.792  10.224  0.4592 -0.5397  0.2763
  184MPD1    C4 2855   1.874   1.904  10.303 -0.0489  0.1771 -0.0450
  184MPD1    C5 2856   1.869   1.886  10.439  0.2135  0.1138  0.3543
  184MPD1     H 2857   1.847   1.581  10.222  1.0310  0.2275  0.9641
  184MPD1    H1 2858   1.889   2.005  10.267 -2.0918  0.2909 -0.5879
  184MPD1    H2 2859   1.849   1.751  10.603  1.3807  0.7823  0.0798
  184MPD1    H3 2860   1.896   1.972  10.500  0.6437  1.5992 -1.9167
  184MPD1     N 2861   1.907   1.810  10.090 -0.9452 -0.1713 -0.6171
  184MPD1    H5 2862   1.954   1.898  10.072  1.0862 -1.5545 -2.0022
  184MPD1    N1 2863   1.843   1.519  10.482  0.7812  0.6261  0.3797
  184MPD1    H6 2864   1.815   1.450  10.411  0.0855  0.3790  0.8969
  184MPD1    H7 2865   1.771   1.518  10.554 -0.0670  2.4501 -0.4185
  185MPD1     C 2866   1.484   1.556   9.173 -0.6338 -0.7535 -0.2881
  185MPD1    C1 2867   1.617   1.581   9.152  0.3127 -0.0350 -1.2666
  185MPD1    C2 2868   1.691   1.629   9.256 -0.7715 -0.2028 -0.2902
  185MPD1    C3 2869   1.637   1.638   9.384  0.8482 -0.8897 -0.4303
  185MPD1    C4 2870   1.505   1.626   9.395  0.0774  0.4430 -0.5495
  185MPD1    C5 2871   1.433   1.578   9.293  0.2926 -0.4440  0.2667
  185MPD1     H 2872   1.797   1.648   9.238 -0.8657  0.8474  0.2173
  185MPD1    H1 2873   1.455   1.643   9.490 -0.8698 -1.2676 -0.7542
  185MPD1    H2 2874   1.425   1.510   9.094  0.3180 -2.8865  0.2483
  185MPD1    H3 2875   1.328   1.553   9.299  0.3488 -0.8334 -0.3347
  185MPD1     N 2876   1.706   1.681   9.498  0.2419  0.0254  0.3236
  185MPD1    H5 2877   1.650   1.688   9.582  2.9410 -2.2438  2.3263
  185MPD1    N1 2878   1.680   1.522   9.040  0.4429  0.0671  0.2863
  185MPD1    H6 2879   1.620   1.516   8.958  1.1671  0.2758 -0.2551
  185MPD1    H7 2880   1.760   1.577   9.012 -0.1196  0.7415 -0.0042
  186MPD1     C 2881   0.064   0.548  15.616 -0.4862  0.5480  0.3471
  186MPD1    C1 2882   4.717   0.662  15.598 -0.3477 -0.1411  1.1672
  186MPD1    C2 2883   4.715   0.760  15.693 -0.5761 -0.3679 -0.3830
  186MPD1    C3 2884   0.073   0.752  15.798 -0.6209 -0.4254 -0.0532
  186MPD1    C4 2885   0.154   0.642  15.811  0.5008 -0.3158  0.5209
  186MPD1    C5 2886   0.142   0.536  15.727  0.1839  0.0224  0.2187
  186MPD1     H 2887   4.652   0.848  15.686 -2.7655 -1.8948 -0.0762
  186MPD1    H1 2888   0.228   0.650  15.890  2.1486  1.9638 -1.2511
  186MPD1    H2 2889   0.059   0.465  15.547 -0.1505  0.7127  0.1298
  186MPD1    H3 2890   0.192   0.441  15.736  2.1554  0.7884 -2.7240
  186MPD1     N 2891   0.075   0.841  15.911 -0.4528  0.6534 -0.2298
  186MPD1    H5 2892   0.120   0.810  15.997  0.1787  1.2448 -0.3427
  186MPD1    N1 2893   4.629   0.667  15.491 -0.4724  0.5571 -0.4653
  186MPD1    H6 2894   4.585   0.754  15.462  0.3706  1.1575  0.0715
  186MPD1    H7 2895   4.649   0.614  15.407 -1.9496 -3.6084  1.7651
  187MPD1     C 2896   4.086   3.100   0.307 -0.7388  0.1616  0.3317
  187MPD1    C1 2897   3.985   3.014   0.276  0.4361 -0.0683 -0.0162
  187MPD1    C2 2898   3.928   3.016   0.146 -0.5280 -0.1690 -0.1403
  187MPD1    C3 2899   3.968   3.116   0.057 -0.1139  0.4655  0.3015
  187MPD1    C4 2900   4.067   3.200   0.100 -0.0742 -0.2719  0.2628
  187MPD1    C5 2901   4.123   3.194   0.224  0.0636 -0.5933 -0.5166
  187MPD1     H 2902   3.865   2.933   0.116 -0.9278 -0.1168  0.5338
  187MPD1    H1 2903   4.105   3.277   0.034 -3.1977  1.0104 -0.0383
  187MPD1    H2 2904   4.128   3.102   0.407 -0.6146  1.4556  0.2573
  187MPD1    H3 2905   4.191   3.272   0.258 -2.1134  1.6766 -1.3602
  187MPD1     N 2906   3.914   3.137  17.661  0.4685  0.5185  0.3408
  187MPD1    H5 2907   3.958   3.198  17.593  0.5222 -1.2720 -1.2458
  187MPD1    N1 2908   3.961   2.910   0.362  0.0511  0.3284 -0.2329
  187MPD1    H6 2909   3.965   2.944   0.458  0.8409  0.4291 -0.2940
  187MPD1    H7 2910   3.877   2.855   0.351  0.3542 -0.0111 -0.8408
  188MPD1     C 2911   0.219   2.931   9.950 -0.5199  0.1555 -0.3249
  188MPD1    C1 2912   0.092   2.971   9.969 -0.9837 -0.9098  0.0570
  188MPD1    C2 2913   4.734   2.873   9.971  0.0347 -0.8925  0.2086
  188MPD1    C3 2914   0.031   2.740   9.948 -0.6336 -0.3770  0.0699
  188MPD1    C4 2915   0.152   2.701   9.910 -0.1841 -0.2035 -0.8187
  188MPD1    C5 2916   0.245   2.805   9.911  0.4317  0.7269 -0.1351
  188MPD1     H 2917   4.630   2.886  10.001  0.1973 -0.3124  0.5279
  188MPD1    H1 2918   0.171   2.611   9.853  0.1771 -0.1009 -0.8648
  188MPD1    H2 2919   0.295   3.008   9.937 -1.1299  1.0011  1.0510
  188MPD1    H3 2920   0.345   2.794   9.869  0.2826 -0.3012 -0.2394
  188MPD1     N 2921   4.675   2.636   9.959  0.2632  0.0152  0.2568
  188MPD1    H5 2922   4.707   2.549   9.917  1.3230 -1.2006  3.6244
  188MPD1    N1 2923   0.065   3.100  10.001  0.4150 -0.3272  0.4751
  188MPD1    H6 2924   4.702   3.129   9.990  0.4342 -0.7671 -0.8063
  188MPD1    H7 2925   0.132   3.163   9.956  0.7901  0.5706  2.2865
  189MPD1     C 2926   0.768   3.822   0.638 -0.1945  0.4784 -1.3341
  189MPD1    C1 2927   0.642   3.771   0.634  0.2065  0.8480  0.7050
  189MPD1    C2 2928   0.537   3.851   0.587  0.6355 -0.2833 -0.8017
  189MPD1    C3 2929   0.559   3.972   0.524  0.6575  0.3658 -0.1405
  189MPD1    C4 2930   0.687   4.025   0.532  0.6595  0.5297 -0.0477
  189MPD1    C5 2931   0.788   3.948   0.584  0.2236 -0.1935  0.8007
  189MPD1     H 2932   0.434   3.816   0.590  1.1849 -1.8231  0.0497
  189MPD1    H1 2933   0.709   4.127   0.504 -0.1183  0.0757 -2.3239
  189MPD1    H2 2934   0.854   3.768   0.677 -0.2621  0.5399 -1.1014
  189MPD1    H3 2935   0.883   3.999   0.592  0.9295 -1.4980  0.7690
  189MPD1     N 2936   0.453   4.033   0.455  0.1833  0.1658 -0.0018
  189MPD1    H5 2937   0.371   3.979   0.430 -0.6597  1.5695 -0.2653
  189MPD1    N1 2938   0.612   3.649   0.701 -0.7097 -0.3326 -0.8991
  189MPD1    H6 2939   0.687   3.587   0.731 -0.7561 -0.1338 -0.3732
  189MPD1    H7 2940   0.546   3.589   0.652 -1.6528 -0.8186  0.9725
  190MPD1     C 2941   4.343   2.413  15.894 -0.0074  1.1818 -0.0933
  190MPD1    C1 2942   4.391   2.400  16.026 -0.3734  0.3432 -0.1376
  190MPD1    C2 2943   4.523   2.382  16.047 -0.1259 -0.6788 -0.1798
  190MPD1    C3 2944   4.613   2.370  15.946  0.4640  0.9749  0.6637
  190MPD1    C4 2945   4.566   2.383  15.816  0.1900 -0.5640 -0.1041
  190MPD1    C5 2946   4.430   2.409  15.794 -0.2996  0.1760  0.6215
  190MPD1     H 2947   4.570   2.373  16.144 -1.1910 -1.1571  0.2880
  190MPD1    H1 2948   4.638   2.410  15.740 -1.6621  0.3715 -1.5104
  190MPD1    H2 2949   4.239   2.425  15.865  0.8190  0.9350 -3.1480
  190MPD1    H3 2950   4.387   2.413  15.695  2.2586 -1.9356 -0.5864
  190MPD1     N 2951   0.012   2.338  15.986 -0.0060 -0.8835  0.1583
  190MPD1    H5 2952   0.022   2.307  16.082  0.7539 -2.0374 -0.2928
  190MPD1    N1 2953   4.306   2.438  16.136  0.3002  0.2471  0.1830
  190MPD1    H6 2954   4.205   2.425  16.129  0.3819  0.3980 -1.2771
  190MPD1    H7 2955   4.328   2.370  16.209 -0.0912 -0.5766 -0.4693
  191MPD1     C 2956   3.447   3.451  11.651  0.3290 -0.3865  0.1399
  191MPD1    C1 2957   3.443   3.471  11.787  0.3542 -0.0682  1.0863
  191MPD1    C2 2958   3.486   3.585  11.843  0.1666 -0.4443 -0.1474
  191MPD1    C3 2959   3.555   3.680  11.770  0.2546  0.2639  0.3211
  191MPD1    C4 2960   3.558   3.667  11.631 -0.7327  0.5092 -0.4956
  191MPD1    C5 2961   3.504   3.551  11.575 -0.1201 -0.3055  0.0708
  191MPD1     H 2962   3.476   3.593  11.951 -0.3698  1.3868 -0.3233
  191MPD1    H1 2963   3.605   3.734  11.560 -0.8608 -0.3114 -1.3533
  191MPD1    H2 2964   3.401   3.366  11.603 -0.6321  1.1654 -1.6860
  191MPD1    H3 2965   3.508   3.547  11.467 -0.8077 -2.2517  0.1074
  191MPD1     N 2966   3.604   3.789  11.833 -0.5197  0.5214  0.2068
  191MPD1    H5 2967   3.579   3.810  11.929 -1.5612 -1.0320  0.2802
  191MPD1    N1 2968   3.362   3.385  11.861  0.0499  0.3153 -1.1138
  191MPD1    H6 2969   3.399   3.376  11.955 -2.3006 -1.4097 -0.3643
  191MPD1    H7 2970   3.360   3.294  11.815  1.0519 -0.1983 -0.1392
  192MPD1     C 2971   4.304   4.446  11.508 -0.8794 -0.2662 -1.2505
  192MPD1    C1 2972   4.322   4.441  11.647  0.2697  0.0564  0.4217
  192MPD1    C2 2973   4.234   4.357  11.716 -0.3796  0.7213  0.0925
  192MPD1    C3 2974   4.139   4.275  11.657 -0.7132 -0.6738  0.4598
  192MPD1    C4 2975   4.122   4.282  11.516 -0.2275 -0.5308  0.4832
  192MPD1    C5 2976   4.196   4.381  11.446 -0.2519  0.2353 -0.4858
  192MPD1     H 2977   4.221   4.382  11.821  1.3007 -0.6398  0.6180
  192MPD1    H1 2978   4.049   4.229  11.456  0.8831 -1.5011 -0.0037
  192MPD1    H2 2979   4.353   4.519  11.444  0.9879  0.5196  1.0766
  192MPD1    H3 2980   4.192   4.385  11.337 -1.9201  0.4588 -0.4124
  192MPD1     N 2981   4.046   4.203  11.737 -0.3157 -0.5420  0.1228
  192MPD1    H5 2982   3.994   4.139  11.678 -0.5519 -1.5460  1.4196
  192MPD1    N1 2983   4.387   4.547  11.721  0.1623 -0.1715  0.1396
  192MPD1    H6 2984   4.473   4.574  11.672  1.0397  0.0349  1.8061
  192MPD1    H7 2985   4.405   4.531  11.820 -4.0073  0.0194  0.8927
  193MPD1     C 2986   2.281   4.258  16.801  0.1305  0.1915  0.4079
  193MPD1    C1 2987   2.348   4.237  16.920 -0.3206 -0.2075 -0.2046
  193MPD1    C2 2988   2.439   4.331  16.962  0.5298  0.2330  0.5668
  193MPD1    C3 2989   2.465   4.441  16.886  0.6165  0.6014  0.0566
  193MPD1    C4 2990   2.399   4.456  16.768  0.3410 -0.2162 -0.9434
  193MPD1    C5 2991   2.315   4.360  16.721 -0.5881  0.1603  0.1481
  193MPD1     H 2992   2.486   4.316  17.059  0.6901 -0.7935  0.3368
  193MPD1    H1 2993   2.433   4.537  16.704 -0.3428  1.2944  0.5863
  193MPD1    H2 2994   2.198   4.194  16.775  0.6735 -0.0754 -0.6847
  193MPD1    H3 2995   2.266   4.371  16.625  1.5084 -0.5108 -1.0067
  193MPD1     N 2996   2.559   4.536  16.920  0.5462 -0.3988  0.1762
  193MPD1    H5 2997   2.571   4.604  16.845 -0.0704 -1.7028 -1.0977
  193MPD1    N1 2998   2.299   4.137  17.012 -0.1100 -0.0784  0.0898
  193MPD1    H6 2999   2.256   4.064  16.955  1.3737 -0.7420 -0.1844
  193MPD1    H7 3000   2.376   4.097  17.066 -0.9857 -1.2151  0.4813
  194MPD1     C 3001   2.268   1.849  16.793 -0.0177  0.0141  0.6203
  194MPD1    C1 3002   2.230   1.928  16.896 -0.1489 -0.7359 -1.2302
  194MPD1    C2 3003   2.146   1.878  16.989  0.0654  0.3547  0.2506
  194MPD1    C3 3004   2.102   1.745  16.983  0.0000 -0.1440  0.7357
  194MPD1    C4 3005   2.144   1.668  16.875  0.1426  0.5712 -0.0415
  194MPD1    C5 3006   2.230   1.720  16.780 -0.1616 -0.0611 -0.3290
  194MPD1     H 3007   2.122   1.931  17.080 -0.4220 -2.0848  1.5322
  194MPD1    H1 3008   2.105   1.570  16.855  1.5492 -0.4221  2.0540
  194MPD1    H2 3009   2.336   1.881  16.715 -0.6873  0.3714  0.1882
  194MPD1    H3 3010   2.259   1.664  16.691  1.9956 -1.2358  1.1227
  194MPD1     N 3011   2.007   1.690  17.069  0.0060 -0.6792  0.1676
  194MPD1    H5 3012   1.975   1.598  17.041 -1.4052  0.0710 -0.6556
  194MPD1    N1 3013   2.304   2.041  16.924  0.5895  0.0824 -0.1958
  194MPD1    H6 3014   2.240   2.112  16.959  1.0002 -0.2330  1.2371
  194MPD1    H7 3015   2.337   2.086  16.839  0.5266  2.5353  1.0814
  195MPD1     C 3016   2.985   3.733  16.938  0.0659  0.0899 -0.3749
  195MPD1    C1 3017   2.905   3.700  17.040  0.8854  0.4896  0.9729
  195MPD1    C2 3018   2.965   3.643  17.153 -0.4481 -0.3226 -0.1258
  195MPD1    C3 3019   3.103   3.639  17.171  0.9434  0.1436 -0.7458
  195MPD1    C4 3020   3.182   3.680  17.071  0.7152 -0.2081  0.0334
  195MPD1    C5 3021   3.120   3.729  16.959  0.3475 -0.5032  0.6739
  195MPD1     H 3022   2.902   3.607  17.233 -2.0088 -0.6514 -1.5202
  195MPD1    H1 3023   3.290   3.683  17.075  0.8927 -1.0963 -3.4350
  195MPD1    H2 3024   2.947   3.761  16.840 -2.2041 -0.7598  0.2890
  195MPD1    H3 3025   3.179   3.746  16.870 -1.3990  1.2267 -0.1516
  195MPD1     N 3026   3.169   3.594  17.287 -0.0100 -0.3699  0.2573
  195MPD1    H5 3027   3.271   3.597  17.290 -0.0971  1.2642  1.4513
  195MPD1    N1 3028   2.770   3.697  17.010 -0.8901 -0.0147  0.3321
  195MPD1    H6 3029   2.721   3.775  16.969  0.4096 -0.0932 -1.3588
  195MPD1    H7 3030   2.714   3.666  17.089 -0.1339 -0.3787  0.7346
  196MPD1     C 3031   2.587   2.249   0.424  0.0516 -0.3044  0.8575
  196MPD1    C1 3032   2.628   2.384   0.428  0.3527  0.0583  0.8722
  196MPD1    C2 3033   2.694   2.428   0.541  0.4361 -0.4083  0.0667
  196MPD1    C3 3034   2.736   2.336   0.641 -0.2251 -0.0554  0.2659
  196MPD1    C4 3035   2.702   2.203   0.632  0.2238  0.7816  0.1382
  196MPD1    C5 3036   2.629   2.163   0.523  0.7347  0.0390  0.3987
  196MPD1     H 3037   2.704   2.536   0.546  1.2331 -0.4845  0.1021
  196MPD1    H1 3038   2.724   2.133   0.712  1.0603 -0.1699 -0.9150
  196MPD1    H2 3039   2.530   2.198   0.347  0.5661 -1.0057  0.9383
  196MPD1    H3 3040   2.616   2.055   0.518 -1.3445  0.4295 -2.5705
  196MPD1     N 3041   2.790   2.384   0.760 -0.2070 -0.9187  0.7467
  196MPD1    H5 3042   2.811   2.313   0.830 -0.2255  0.2373  1.9013
  196MPD1    N1 3043   2.579   2.475   0.330 -0.0798 -0.6417  0.5636
  196MPD1    H6 3044   2.632   2.561   0.326  0.3768 -1.0255 -1.4757
  196MPD1    H7 3045   2.597   2.434   0.239 -1.1787  0.7901 -0.2812
  197MPD1     C 3046   2.159   4.723  17.214 -0.0157 -0.5884 -0.0102
  197MPD1    C1 3047   2.230   4.666  17.115  0.4455  0.1700 -0.1840
  197MPD1    C2 3048   2.259   0.006  17.003  0.1625  0.5470 -0.0400
  197MPD1    C3 3049   2.225   0.133  16.984  0.6307  0.9927  0.7033
  197MPD1    C4 3050   2.160   0.196  17.092 -0.5508 -0.3447 -0.2761
  197MPD1    C5 3051   2.130   0.122  17.201  0.3455  0.7525  0.0837
  197MPD1     H 3052   2.319   4.687  16.930  2.9607  0.8397  2.0326
  197MPD1    H1 3053   2.136   0.301  17.081  0.0927 -0.0890  0.7005
  197MPD1    H2 3054   2.123   4.672  17.303 -0.1126 -0.4328  0.0399
  197MPD1    H3 3055   2.076   0.169  17.283 -1.0437 -1.3004  0.3516
  197MPD1     N 3056   2.258   0.208  16.862  0.3226 -0.6907  0.3198
  197MPD1    H5 3057   2.206   0.295  16.854  0.9300 -0.4957 -1.4789
  197MPD1    N1 3058   2.246   4.528  17.112  0.5671  0.7858  0.4914
  197MPD1    H6 3059   2.326   4.504  17.053  0.9939 -0.5915  1.6144
  197MPD1    H7 3060   2.263   4.490  17.205  0.9878  2.9089  1.2895
  198MPD1     C 3061   3.668   2.931  15.686  0.0782  0.5084  0.2369
  198MPD1    C1 3062   3.775   2.909  15.605 -0.2690 -0.1562 -0.2207
  198MPD1    C2 3063   3.889   2.991  15.616 -0.0928  0.3828  0.5258
  198MPD1    C3 3064   3.896   3.090  15.708  0.8177  0.0290 -0.4243
  198MPD1    C4 3065   3.782   3.115  15.786 -0.6318 -0.1766 -0.0819
  198MPD1    C5 3066   3.670   3.036  15.773 -0.7420  0.0492  0.0791
  198MPD1     H 3067   3.977   2.965  15.559  0.0031 -1.1415  1.3623
  198MPD1    H1 3068   3.784   3.197  15.856  1.0826  1.1010 -1.6249
  198MPD1    H2 3069   3.577   2.872  15.688  1.0884 -1.2372 -3.6894
  198MPD1    H3 3070   3.584   3.055  15.836 -0.5115 -2.8839  1.2762
  198MPD1     N 3071   4.022   3.162  15.708  0.4597  0.1674 -0.1302
  198MPD1    H5 3072   4.101   3.127  15.654  0.0541 -1.9195  0.6389
  198MPD1    N1 3073   3.777   2.790  15.531  0.2369  0.3079 -0.2887
  198MPD1    H6 3074   3.682   2.761  15.510  0.6415 -0.2549 -1.3082
  198MPD1    H7 3075   3.819   2.797  15.439  0.7144  2.6353  0.1015
  199MPD1     C 3076   1.257   4.633  10.624 -0.6270 -0.0193  0.6464
  199MPD1    C1 3077   1.214   4.584  10.505  0.1767 -0.0581 -0.2381
  199MPD1    C2 3078   1.194   4.672  10.398  0.1117  0.2569 -0.6443
  199MPD1    C3 3079   1.220   0.071  10.412  0.1862 -0.1543  0.0739
  199MPD1    C4 3080   1.281   0.118  10.526  0.1615 -0.3023  0.2383
  199MPD1    C5 3081   1.298   0.031  10.635  0.0526  0.1330 -0.2178
  199MPD1     H 3082   1.143   4.628  10.314  0.0583  0.6336 -0.8083
  199MPD1    H1 3083   1.322   0.218  10.528 -0.7900  0.0736  0.6893
  199MPD1    H2 3084   1.269   4.563  10.706  0.6765 -1.7727 -1.0228
  199MPD1    H3 3085   1.343   0.078  10.722  0.9620 -1.0500 -0.0425
  199MPD1     N 3086   1.189   0.169  10.312  0.0263  0.3301 -0.2488
  199MPD1    H5 3087   1.201   0.266  10.341  1.9286 -0.1306  0.5325
  199MPD1    N1 3088   1.151   4.460  10.501 -0.1175  0.1487  0.5031
  199MPD1    H6 3089   1.201   4.427  10.419 -0.4458  0.9945 -0.0440
  199MPD1    H7 3090   1.176   4.396  10.576 -1.1085  0.6649  1.2816
  200MPD1     C 3091   0.698   0.292  15.278  0.2053  0.9648  0.0196
  200MPD1    C1 3092   0.683   0.413  15.210  0.1877 -0.5752  0.3386
  200MPD1    C2 3093   0.692   0.526  15.286 -0.9750 -0.0646 -0.3850
  200MPD1    C3 3094   0.736   0.522  15.413  0.3971  0.2370  0.4242
  200MPD1    C4 3095   0.770   0.405  15.473  0.5378 -0.1375 -0.2461
  200MPD1    C5 3096   0.737   0.288  15.408 -0.5553  0.4717  0.5785
  200MPD1     H 3097   0.681   0.625  15.242 -2.5472  0.8662  2.1045
  200MPD1    H1 3098   0.804   0.402  15.576  1.6139  0.7444 -0.5894
  200MPD1    H2 3099   0.690   0.197  15.225  0.1979 -0.2082  2.1021
  200MPD1    H3 3100   0.761   0.193  15.453 -2.2806  1.0241  2.6549
  200MPD1     N 3101   0.753   0.644  15.478  0.1641 -0.8879  0.0466
  200MPD1    H5 3102   0.741   0.725  15.419  0.6488 -0.1898  0.8961
  200MPD1    N1 3103   0.641   0.410  15.076 -0.1675 -0.2190  0.7282
  200MPD1    H6 3104   0.638   0.503  15.035 -0.8476 -1.1295 -1.2754
  200MPD1    H7 3105   0.678   0.337  15.015  1.2447  1.5205 -0.4872
  201MPD1     C 3106   3.452   3.653  12.366 -0.5455 -0.6402  0.9042
  201MPD1    C1 3107   3.476   3.638  12.497 -0.2050  0.9255  0.1192
  201MPD1    C2 3108   3.525   3.516  12.532 -0.4095  0.3640  0.6431
  201MPD1    C3 3109   3.521   3.399  12.452 -0.6560  0.1740  0.1058
  201MPD1    C4 3110   3.476   3.411  12.324  0.2319  0.9513  1.1569
  201MPD1    C5 3111   3.454   3.545  12.283  0.6760 -0.1896 -0.4554
  201MPD1     H 3112   3.563   3.503  12.633 -0.1644 -1.7526  0.2759
  201MPD1    H1 3113   3.470   3.326  12.257 -0.4979 -0.4299  2.9841
  201MPD1    H2 3114   3.422   3.747  12.321 -0.4346 -1.3812 -0.7270
  201MPD1    H3 3115   3.429   3.557  12.178  0.4468 -2.8043 -0.6887
  201MPD1     N 3116   3.540   3.275  12.517  0.4910  0.2323 -0.1737
  201MPD1    H5 3117   3.539   3.275  12.618 -0.8562 -0.3411 -0.1846
  201MPD1    N1 3118   3.496   3.754  12.578  0.1023 -0.1324 -0.2716
  201MPD1    H6 3119   3.457   3.836  12.531 -0.2396 -0.3935 -0.4447
  201MPD1    H7 3120   3.460   3.723  12.669  0.5543 -0.1266 -0.0917
  202MPD1     C 3121   3.080   2.303   9.108 -0.0330 -0.0029 -0.6186
  202MPD1    C1 3122   3.033   2.432   9.089  0.7585 -0.1585 -0.8923
  202MPD1    C2 3123   3.070   2.513   9.202 -0.8739  0.8835 -0.3018
  202MPD1    C3 3124   3.183   2.491   9.276 -0.5512 -0.3818  0.0102
  202MPD1    C4 3125   3.243   2.371   9.252 -0.3064  0.3803  0.1186
  202MPD1    C5 3126   3.193   2.276   9.173 -0.0679 -0.3322 -0.3776
  202MPD1     H 3127   3.027   2.613   9.199 -3.1426 -0.0790 -0.1638
  202MPD1    H1 3128   3.331   2.340   9.308 -0.6155 -0.8135 -0.0696
  202MPD1    H2 3129   3.041   2.218   9.054  1.2674 -0.3036 -1.0979
  202MPD1    H3 3130   3.237   2.178   9.159  0.1260 -0.2057 -0.6582
  202MPD1     N 3131   3.233   2.578   9.375  0.2301 -0.0183  0.2527
  202MPD1    H5 3132   3.321   2.557   9.422 -0.6968  1.6035  2.7001
  202MPD1    N1 3133   2.900   2.438   9.030  0.6477  0.3505 -0.0664
  202MPD1    H6 3134   2.874   2.536   9.015 -0.5291  0.1718  0.8365
  202MPD1    H7 3135   2.896   2.386   8.943  0.5781 -0.5110  0.4540
  203MPD1     C 3136   2.475   4.260  12.118  0.4900  0.3618  0.0307
  203MPD1    C1 3137   2.461   4.169  12.020  0.2664  0.6712 -0.6878
  203MPD1    C2 3138   2.396   4.050  12.041 -0.2457 -0.0970 -0.3260
  203MPD1    C3 3139   2.345   4.025  12.171  0.5606  0.3082 -0.0493
  203MPD1    C4 3140   2.355   4.129  12.262 -0.2455 -0.1369 -0.5156
  203MPD1    C5 3141   2.430   4.235  12.241 -0.0151 -0.7345 -0.0328
  203MPD1     H 3142   2.406   3.965  11.974  1.4163  0.0708 -0.2771
  203MPD1    H1 3143   2.317   4.106  12.360  0.1246  0.6802 -0.1761
  203MPD1    H2 3144   2.522   4.354  12.091 -0.4804  0.8365 -0.0201
  203MPD1    H3 3145   2.428   4.312  12.316 -1.7507 -0.1446 -0.6980
  203MPD1     N 3146   2.279   3.898  12.199 -0.0105 -0.5263  0.7233
  203MPD1    H5 3147   2.269   3.828  12.126  0.0031  0.1464  0.0743
  203MPD1    N1 3148   2.527   4.196  11.896  0.6402  0.3951  0.0814
  203MPD1    H6 3149   2.627   4.211  11.909  0.3316  0.8022  1.9711
  203MPD1    H7 3150   2.520   4.112  11.839 -0.0852  0.4735  0.0575
  204MPD1     C 3151   0.136   0.375  17.364 -0.1212  0.6599 -0.6055
  204MPD1    C1 3152   0.221   0.340  17.262  0.1941  0.2898  0.4429
  204MPD1    C2 3153   0.352   0.302  17.293 -0.2582 -0.0112  0.4055
  204MPD1    C3 3154   0.397   0.286  17.421 -0.4568 -0.5297 -0.1269
  204MPD1    C4 3155   0.312   0.312  17.523  0.1106 -0.3253  0.1868
  204MPD1    C5 3156   0.186   0.358  17.495 -0.2606  0.3481  0.5808
  204MPD1     H 3157   0.409   0.274  17.205  0.2664 -0.4835  0.8927
  204MPD1    H1 3158   0.350   0.297  17.623 -0.9308  1.1228  0.8121
  204MPD1    H2 3159   0.034   0.411  17.354  0.1364  1.4442 -0.3991
  204MPD1    H3 3160   0.119   0.385  17.575 -0.3587  0.3492  0.4976
  204MPD1     N 3161   0.524   0.234  17.437 -0.1984 -0.3356  0.1056
  204MPD1    H5 3162   0.579   0.222  17.353  0.8648  0.8144  0.6282
  204MPD1    N1 3163   0.176   0.364  17.131  0.1515  0.3668  0.3997
  204MPD1    H6 3164   0.231   0.322  17.056 -0.1763  1.2050 -0.3230
  204MPD1    H7 3165   0.080   0.333  17.116  0.2327  1.8005 -3.1208
  205MPD1     C 3166   1.754   3.899  17.095  0.1280 -0.0811 -0.1838
  205MPD1    C1 3167   1.641   3.968  17.077  0.2862 -0.3319 -0.1366
  205MPD1    C2 3168   1.547   3.963  17.180  0.2079  0.6829  0.1537
  205MPD1    C3 3169   1.571   3.887  17.295  0.3903 -0.1689  0.0126
  205MPD1    C4 3170   1.688   3.811  17.307 -0.4182  0.0139 -0.4441
  205MPD1    C5 3171   1.785   3.825  17.208  0.8500  0.6168  0.4746
  205MPD1     H 3172   1.452   4.014  17.169  1.6808  3.5202  0.5371
  205MPD1    H1 3173   1.710   3.745  17.389  2.3638  0.6499 -0.6884
  205MPD1    H2 3174   1.830   3.896  17.018  1.2248  1.1451  0.8464
  205MPD1    H3 3175   1.875   3.764  17.206 -1.0624 -2.2417  1.2646
  205MPD1     N 3176   1.473   3.876  17.397  0.2809  0.1516  0.2102
  205MPD1    H5 3177   1.492   3.806  17.469 -0.3362 -0.2748 -0.0435
  205MPD1    N1 3178   1.608   4.014  16.949 -0.5306  0.4299 -0.1178
  205MPD1    H6 3179   1.690   4.053  16.902 -1.1541  0.7614 -0.9182
  205MPD1    H7 3180   1.581   3.936  16.890  2.8491  0.1414 -1.3095
  206MPD1     C 3181   1.502   2.121  16.836 -0.7578  0.4773 -0.6480
  206MPD1    C1 3182   1.568   2.035  16.756  0.3925  0.2921  0.5015
  206MPD1    C2 3183   1.507   1.991  16.642 -0.0830  0.4080  0.3470
  206MPD1    C3 3184   1.379   2.046  16.611  0.1812  0.2085 -0.1406
  206MPD1    C4 3185   1.319   2.146  16.684  0.3520  0.5177  0.2361
  206MPD1    C5 3186   1.383   2.186  16.798 -0.1547 -0.4184 -0.3102
  206MPD1     H 3187   1.560   1.920  16.579 -2.6899  0.2447 -1.6599
  206MPD1    H1 3188   1.231   2.194  16.644  1.2432  1.0349 -1.0893
  206MPD1    H2 3189   1.541   2.153  16.932 -0.1536  1.8100 -1.3439
  206MPD1    H3 3190   1.337   2.269  16.850  1.3059  0.3551 -0.2861
  206MPD1     N 3191   1.319   2.013  16.488  0.2096  0.0549  0.6068
  206MPD1    H5 3192   1.245   2.079  16.466 -0.0206 -0.3556  0.1588
  206MPD1    N1 3193   1.694   1.980  16.800  0.3698 -0.4985  0.1386
  206MPD1    H6 3194   1.748   2.034  16.867 -1.2612  0.7291  0.4662
  206MPD1    H7 3195   1.755   1.939  16.729  1.1180  2.2459 -0.8081
  207MPD1     C 3196   4.320   4.419   9.759 -0.1427 -0.4830  0.6040
  207MPD1    C1 3197   4.339   4.288   9.769 -0.5202  0.3492  0.0331
  207MPD1    C2 3198   4.414   4.231   9.872 -0.0011  0.3648 -0.5598
  207MPD1    C3 3199   4.489   4.322   9.958 -0.5072 -0.1980  0.1818
  207MPD1    C4 3200   4.454   4.458   9.956  0.4780  0.4917 -0.5857
  207MPD1    C5 3201   4.373   4.501   9.858 -0.7861 -0.5926 -0.1437
  207MPD1     H 3202   4.424   4.123   9.874 -2.5026  0.1866  2.0347
  207MPD1    H1 3203   4.511   4.527  10.016 -0.2689  1.1101 -0.5872
  207MPD1    H2 3204   4.260   4.457   9.677 -1.4095  0.6744  2.0581
  207MPD1    H3 3205   4.363   4.609   9.850 -1.2112 -0.8739 -3.2054
  207MPD1     N 3206   4.578   4.275  10.056 -0.2083  0.6487  0.0838
  207MPD1    H5 3207   4.601   4.342  10.129  3.7923  0.9802 -1.5077
  207MPD1    N1 3208   4.264   4.207   9.685 -0.5650  0.3046 -0.2542
  207MPD1    H6 3209   4.312   4.119   9.672 -1.0820  0.2082 -1.4437
  207MPD1    H7 3210   4.264   4.247   9.592  0.3676  0.1855 -0.3060
  208MPD1     C 3211   1.615   2.376  17.180 -0.0754 -0.7307 -0.0029
  208MPD1    C1 3212   1.516   2.397  17.266  0.2301  0.5590  0.5745
  208MPD1    C2 3213   1.542   2.477  17.375  0.4607 -0.3708  1.1601
  208MPD1    C3 3214   1.666   2.535  17.395 -0.1994  0.6166 -0.2515
  208MPD1    C4 3215   1.769   2.499  17.311 -0.1659  0.4255  0.5235
  208MPD1    C5 3216   1.739   2.428  17.201  0.7769  0.2355  1.0081
  208MPD1     H 3217   1.462   2.499  17.445  0.7108 -0.6625  1.5401
  208MPD1    H1 3218   1.864   2.551  17.313  0.8074 -1.4486  2.6355
  208MPD1    H2 3219   1.592   2.313  17.095  0.7999  0.3012 -1.0033
  208MPD1    H3 3220   1.817   2.411  17.128  0.3252 -0.8694  0.7786
  208MPD1     N 3221   1.679   2.625  17.501 -0.4063 -0.2507 -0.7827
  208MPD1    H5 3222   1.599   2.641  17.561  0.6331  0.1758  0.5063
  208MPD1    N1 3223   1.387   2.377  17.236 -0.3511 -0.1857  0.0327
  208MPD1    H6 3224   1.371   2.294  17.178 -0.3888 -0.2248  0.0986
  208MPD1    H7 3225   1.332   2.373  17.322 -0.2855  0.6829  0.1137
  209MPD1     C 3226   4.437   2.566  10.848 -0.1680 -1.1073 -0.1992
  209MPD1    C1 3227   4.444   2.641  10.954  0.6015 -0.0537  0.2987
  209MPD1    C2 3228   4.536   2.743  10.956 -0.1732 -0.4706  0.4082
  209MPD1    C3 3229   4.620   2.773  10.847 -0.0676  0.4862  0.1804
  209MPD1    C4 3230   4.599   2.701  10.729  0.1520  0.3596  0.0097
  209MPD1    C5 3231   4.506   2.599  10.734 -0.0087 -0.2694  0.6694
  209MPD1     H 3232   4.555   2.806  11.043 -0.4071  0.9980 -0.6058
  209MPD1    H1 3233   4.657   2.706  10.637  1.3975  1.5974  0.8638
  209MPD1    H2 3234   4.390   2.469  10.835 -0.0061 -0.8980 -2.3632
  209MPD1    H3 3235   4.511   2.535  10.647  2.3868 -0.5338  1.0205
  209MPD1     N 3236   4.723   2.867  10.860 -0.0956 -0.5499  0.0791
  209MPD1    H5 3237   4.720   2.915  10.950 -0.8436  0.3992 -0.4618
  209MPD1    N1 3238   4.380   2.612  11.078  0.4416 -0.0066  0.3974
  209MPD1    H6 3239   4.287   2.575  11.059  0.6627  0.4467 -1.5613
  209MPD1    H7 3240   4.379   2.683  11.152 -1.4021  0.8680 -0.4658
  210MPD1     C 3241   0.416   3.519  11.467 -0.1238  0.5464 -0.3324
  210MPD1    C1 3242   0.317   3.425  11.462  0.2907  0.0098 -0.4729
  210MPD1    C2 3243   0.292   3.363  11.340 -0.1067 -0.4999  0.3473
  210MPD1    C3 3244   0.363   3.392  11.228  0.0499 -0.0563  0.2762
  210MPD1    C4 3245   0.463   3.489  11.236 -0.5776 -0.6512  0.3353
  210MPD1    C5 3246   0.485   3.550  11.354 -0.3938 -0.4766 -0.0474
  210MPD1     H 3247   0.214   3.287  11.346 -0.2070 -0.4411 -0.2933
  210MPD1    H1 3248   0.532   3.504  11.153  2.9858  1.0479  3.6233
  210MPD1    H2 3249   0.440   3.554  11.566  0.2211 -0.9133  0.0924
  210MPD1    H3 3250   0.577   3.605  11.368 -0.9108  0.6977 -1.2552
  210MPD1     N 3251   0.330   3.334  11.100  0.0190  0.2624 -0.3635
  210MPD1    H5 3252   0.383   3.374  11.024 -1.7101  0.2967 -1.5435
  210MPD1    N1 3253   0.263   3.382  11.583  0.7578  0.1563  0.0044
  210MPD1    H6 3254   0.173   3.334  11.577 -0.4000  2.2035  0.7555
  210MPD1    H7 3255   0.247   3.455  11.653  0.1761 -1.1845  1.2685
  211MPD1     C 3256   1.982   3.445  16.873  0.3401 -0.7692  0.1028
  211MPD1    C1 3257   1.899   3.483  16.771 -0.8774 -0.7885  0.0706
  211MPD1    C2 3258   1.778   3.541  16.802  0.0710 -0.4341  0.3972
  211MPD1    C3 3259   1.726   3.527  16.932  0.4098  0.7141  0.5226
  211MPD1    C4 3260   1.817   3.491  17.034  0.0477 -0.3630  0.1245
  211MPD1    C5 3261   1.946   3.452  17.001  0.1193 -0.6438  0.6931
  211MPD1     H 3262   1.720   3.582  16.719 -0.5561  1.6495  1.8517
  211MPD1    H1 3263   1.789   3.486  17.139  1.4188  1.3905  0.5690
  211MPD1    H2 3264   2.079   3.405  16.846  1.3194  0.9405  1.1116
  211MPD1    H3 3265   2.004   3.420  17.087 -0.4579 -0.2468  1.2334
  211MPD1     N 3266   1.589   3.559  16.956  0.6249 -0.3312 -0.3379
  211MPD1    H5 3267   1.533   3.591  16.878  1.3054  0.8278 -0.3432
  211MPD1    N1 3268   1.947   3.478  16.639  1.3399  0.9185  0.1712
  211MPD1    H6 3269   2.005   3.396  16.622 -1.0904 -1.1920  2.0491
  211MPD1    H7 3270   1.879   3.485  16.564  1.3856 -0.7676 -0.0156
  212MPD1     C 3271   1.124   1.081  16.919  0.6313  0.1417 -0.3794
  212MPD1    C1 3272   1.077   1.186  16.994  0.5870 -0.4232 -0.1171
  212MPD1    C2 3273   0.940   1.212  17.010  0.1201 -0.5554 -0.1669
  212MPD1    C3 3274   0.848   1.146  16.925  0.7154  0.8080 -0.7036
  212MPD1    C4 3275   0.895   1.049  16.834 -0.5712  0.2079 -0.2088
  212MPD1    C5 3276   1.028   1.017  16.846 -0.1682 -0.9601  0.4806
  212MPD1     H 3277   0.891   1.274  17.085 -0.4238 -0.1843 -0.8300
  212MPD1    H1 3278   0.826   0.982  16.784 -1.3635 -0.8079  2.2525
  212MPD1    H2 3279   1.228   1.052  16.924 -0.1394 -2.5862  0.0109
  212MPD1    H3 3280   1.059   0.944  16.772 -0.7340  0.9495 -1.6480
  212MPD1     N 3281   0.712   1.150  16.938  0.5292 -0.2965  0.1587
  212MPD1    H5 3282   0.658   1.091  16.876  0.5183  1.1620 -1.2030
  212MPD1    N1 3283   1.169   1.250  17.072 -0.1650 -0.7754  0.2468
  212MPD1    H6 3284   1.256   1.267  17.022 -0.6903 -1.5360 -0.9391
  212MPD1    H7 3285   1.144   1.345  17.098  0.1307 -0.7108  0.2892
  213MPD1     C 3286   3.580   2.288  15.792 -0.0123 -0.4668  1.0229
  213MPD1    C1 3287   3.483   2.231  15.715 -0.1520 -0.2074 -0.0400
  213MPD1    C2 3288   3.477   2.290  15.588  0.6578  0.1262  0.1113
  213MPD1    C3 3289   3.499   2.423  15.570  0.0130  0.5802  0.1157
  213MPD1    C4 3290   3.574   2.488  15.665  0.2957  0.0841 -0.5902
  213MPD1    C5 3291   3.618   2.415  15.769  0.8038 -0.2596 -0.4471
  213MPD1     H 3292   3.429   2.231  15.511  0.5286 -0.3986  0.5956
  213MPD1    H1 3293   3.594   2.594  15.659  0.9987 -0.1672 -2.6892
  213MPD1    H2 3294   3.602   2.239  15.885 -1.5725 -1.1989  1.0181
  213MPD1    H3 3295   3.688   2.458  15.840  1.5288 -2.0785 -0.0518
  213MPD1     N 3296   3.465   2.472  15.436 -0.4073 -0.1183 -0.8862
  213MPD1    H5 3297   3.433   2.405  15.367 -0.2193 -1.6628  0.5400
  213MPD1    N1 3298   3.464   2.092  15.726  0.6484 -0.0978 -0.0522
  213MPD1    H6 3299   3.374   2.070  15.683  0.3726 -0.1698  0.5574
  213MPD1    H7 3300   3.465   2.061  15.823  0.7976 -3.8880 -1.2864
  214MPD1     C 3301   2.723   2.402  15.024  0.0304 -0.5987 -0.0667
  214MPD1    C1 3302   2.800   2.476  14.941 -0.4058 -0.1649 -0.1362
  214MPD1    C2 3303   2.934   2.495  14.968  0.3070  0.5001  0.2835
  214MPD1    C3 3304   2.991   2.432  15.081  0.6388 -0.1745  0.5522
  214MPD1    C4 3305   2.908   2.355  15.167 -0.3562  0.3135  0.7124
  214MPD1    C5 3306   2.779   2.337  15.135 -0.5372 -0.7050 -0.3212
  214MPD1     H 3307   2.989   2.563  14.904 -0.4996  1.3269  0.4700
  214MPD1    H1 3308   2.942   2.321  15.264 -1.3320 -2.0504  0.2346
  214MPD1    H2 3309   2.614   2.396  15.023 -0.0122  0.2061  0.0053
  214MPD1    H3 3310   2.721   2.282  15.208  0.3079 -0.9846  0.1321
  214MPD1     N 3311   3.126   2.452  15.117  0.1558  1.0991 -0.2787
  214MPD1    H5 3312   3.154   2.406  15.202 -0.4300  1.8923  0.3439
  214MPD1    N1 3313   2.749   2.515  14.813 -0.1838  0.0361 -1.2452
  214MPD1    H6 3314   2.789   2.598  14.771  1.1643  0.2133  0.3947
  214MPD1    H7 3315   2.648   2.528  14.809 -0.0420  1.5109 -0.2385
  215MPD1     C 3316   4.366   3.041  10.130 -0.1309 -0.4718 -0.4201
  215MPD1    C1 3317   4.349   3.177  10.139 -0.4892 -0.0343  0.1342
  215MPD1    C2 3318   4.397   3.249  10.241  0.2947  0.4883  1.0974
  215MPD1    C3 3319   4.455   3.182  10.351 -0.5283 -0.2779  0.6346
  215MPD1    C4 3320   4.465   3.049  10.350  0.0569  0.4432 -0.2544
  215MPD1    C5 3321   4.427   2.983  10.237 -0.0162 -0.5703 -0.6242
  215MPD1     H 3322   4.411   3.356  10.232  1.7504  0.0458 -1.6655
  215MPD1    H1 3323   4.497   2.994  10.439 -1.8619 -1.3430 -0.6762
  215MPD1    H2 3324   4.323   2.977  10.054  1.3917 -2.3404  0.3226
  215MPD1    H3 3325   4.426   2.875  10.224 -3.1603 -0.6971  0.5849
  215MPD1     N 3326   4.502   3.268  10.455 -0.3223  0.2504 -0.1902
  215MPD1    H5 3327   4.454   3.357  10.460 -1.8172 -0.5179 -0.8446
  215MPD1    N1 3328   4.305   3.240  10.022  0.2658 -0.6339 -0.0025
  215MPD1    H6 3329   4.231   3.200   9.965  0.3609 -0.3078 -0.3524
  215MPD1    H7 3330   4.282   3.335  10.050 -0.4883 -0.7172 -0.3441
  216MPD1     C 3331   0.320   1.304  17.468 -0.2135 -0.3242  0.4826
  216MPD1    C1 3332   0.453   1.330  17.463 -0.1377 -0.2491  0.2983
  216MPD1    C2 3333   0.541   1.244  17.401  1.1901  0.1961 -0.3896
  216MPD1    C3 3334   0.503   1.122  17.356 -0.0585 -0.1920  0.1540
  216MPD1    C4 3335   0.363   1.110  17.345 -0.0419  0.7000 -0.8452
  216MPD1    C5 3336   0.276   1.192  17.410 -0.0623 -0.0107 -0.7289
  216MPD1     H 3337   0.645   1.274  17.407  1.5021 -1.0646  0.6198
  216MPD1    H1 3338   0.328   1.017  17.302 -0.0730  0.0124  0.6599
  216MPD1    H2 3339   0.257   1.376  17.519  0.5247  0.5782  0.1323
  216MPD1    H3 3340   0.168   1.182  17.399 -0.3102 -0.3139  1.9822
  216MPD1     N 3341   0.592   1.031  17.297  0.7551  0.6551  0.4880
  216MPD1    H5 3342   0.692   1.050  17.292  0.4328  2.1879 -0.0000
  216MPD1    N1 3343   0.510   1.443  17.529 -0.7282 -0.5217 -0.0562
  216MPD1    H6 3344   0.589   1.485  17.480  0.3600 -2.1708  0.3094
  216MPD1    H7 3345   0.446   1.519  17.555  0.5151  1.8159 -3.8257
  217MPD1     C 3346   1.186   1.792   9.198  0.4646  0.4243  0.2139
  217MPD1    C1 3347   1.286   1.827   9.114  0.9761 -0.0553 -0.0905
  217MPD1    C2 3348   1.392   1.906   9.166  0.0395  0.1955  0.4251
  217MPD1    C3 3349   1.399   1.934   9.300  0.8906 -0.3148 -0.2720
  217MPD1    C4 3350   1.296   1.901   9.379  0.1026  0.2439  0.3328
  217MPD1    C5 3351   1.206   1.808   9.334  0.2148 -0.0996 -0.0806
  217MPD1     H 3352   1.467   1.930   9.091  1.0641  0.8554  1.6762
  217MPD1    H1 3353   1.301   1.933   9.483 -2.8398  0.4434  0.4163
  217MPD1    H2 3354   1.104   1.734   9.159  0.7025 -1.3340  2.3661
  217MPD1    H3 3355   1.141   1.756   9.403 -1.1927 -2.1130 -2.8964
  217MPD1     N 3356   1.506   2.020   9.349 -0.0690  0.8793 -0.5087
  217MPD1    H5 3357   1.503   2.042   9.448  1.5547  1.6611 -0.6245
  217MPD1    N1 3358   1.263   1.824   8.973  0.3761 -0.0572 -0.2653
  217MPD1    H6 3359   1.199   1.753   8.938  1.1529 -0.7379 -0.2937
  217MPD1    H7 3360   1.338   1.844   8.907  0.9155 -2.3921 -0.3365
  218MPD1     C 3361   3.151   4.318  13.234  0.4695  0.3404 -0.2011
  218MPD1    C1 3362   3.153   4.317  13.095 -0.3396  0.0827 -0.1327
  218MPD1    C2 3363   3.232   4.228  13.025  0.1870  0.3493  0.2427
  218MPD1    C3 3364   3.332   4.167  13.091 -0.0442 -0.2290  0.3378
  218MPD1    C4 3365   3.349   4.190  13.227  0.1733  0.1296 -0.2094
  218MPD1    C5 3366   3.255   4.265  13.298 -0.5168  0.7575  0.6535
  218MPD1     H 3367   3.214   4.203  12.921  1.3379 -0.9849  0.3715
  218MPD1    H1 3368   3.426   4.140  13.284 -0.3665 -0.2938  0.1459
  218MPD1    H2 3369   3.073   4.360  13.297  0.3148  0.3124 -0.3725
  218MPD1    H3 3370   3.260   4.283  13.404 -0.8150  2.2650  0.4000
  218MPD1     N 3371   3.416   4.091  13.009 -0.1553  0.0672 -0.2875
  218MPD1    H5 3372   3.388   4.097  12.911  1.2031 -1.5086 -0.7696
  218MPD1    N1 3373   3.037   4.363  13.023 -0.9041  0.0140  0.6124
  218MPD1    H6 3374   3.067   4.401  12.934  0.2304 -2.1927  0.0345
  218MPD1    H7 3375   2.976   4.426  13.074 -0.1763  1.4681 -0.3124
  219MPD1     C 3376   4.148   4.279  12.328 -0.4565  0.0207 -0.3344
  219MPD1    C1 3377   4.009   4.285  12.320  0.0915 -0.0412  0.5214
  219MPD1    C2 3378   3.937   4.223  12.419 -0.6645  0.2026  0.3895
  219MPD1    C3 3379   3.997   4.152  12.520 -0.2656 -0.6488  0.2922
  219MPD1    C4 3380   4.134   4.154  12.532  0.4210  0.4085  0.5223
  219MPD1    C5 3381   4.206   4.218  12.441 -0.3279  0.1413 -0.0646
  219MPD1     H 3382   3.829   4.217  12.414 -0.5291 -1.9424 -0.1697
  219MPD1    H1 3383   4.185   4.113  12.618 -1.0764 -1.8625  0.3117
  219MPD1    H2 3384   4.210   4.326  12.252  1.3520 -0.1187  1.0371
  219MPD1    H3 3385   4.313   4.216  12.451 -0.3569 -0.1589  0.1636
  219MPD1     N 3386   3.924   4.086  12.622  0.1597  0.1893 -0.7953
  219MPD1    H5 3387   3.979   4.026  12.683 -1.6048 -0.2171  0.3808
  219MPD1    N1 3388   3.940   4.374  12.235 -0.2452 -0.0331  0.6593
  219MPD1    H6 3389   3.840   4.358  12.228 -0.2719  0.7973 -0.8716
  219MPD1    H7 3390   3.971   4.383  12.138 -0.8817  1.9238  0.6400
  220MPD1     C 3391   4.262   3.260   9.709 -0.4622  0.1588 -0.7319
  220MPD1    C1 3392   4.133   3.278   9.773 -0.0711 -0.0202 -0.0655
  220MPD1    C2 3393   4.097   3.410   9.796 -0.2834 -0.2066 -0.2310
  220MPD1    C3 3394   4.173   3.516   9.753 -0.4401  0.1324  0.3095
  220MPD1    C4 3395   4.284   3.491   9.680 -0.6769  0.4063 -0.1434
  220MPD1    C5 3396   4.324   3.361   9.659  0.0821 -0.1585 -0.7108
  220MPD1     H 3397   4.013   3.423   9.863 -0.3541 -0.5672 -0.2492
  220MPD1    H1 3398   4.347   3.565   9.632  2.7562 -1.1687  1.9427
  220MPD1    H2 3399   4.297   3.162   9.679 -0.3118 -0.3689  1.1554
  220MPD1    H3 3400   4.413   3.336   9.602  0.8471  0.8749  0.0331
  220MPD1     N 3401   4.120   3.648   9.783  0.2963 -0.0999 -0.0530
  220MPD1    H5 3402   4.021   3.652   9.804  0.1116  2.3417 -1.2439
  220MPD1    N1 3403   4.074   3.171   9.841 -0.6284 -0.2318 -0.3406
  220MPD1    H6 3404   4.102   3.079   9.807 -2.7841 -1.4804  1.2433
  220MPD1    H7 3405   3.973   3.179   9.855 -0.5385  2.1158 -1.0338
  221MPD1     C 3406   2.228   3.170  17.488 -0.0572  0.2976  0.1706
  221MPD1    C1 3407   2.257   3.084  17.377  0.5895 -0.5321  0.5315
  221MPD1    C2 3408   2.160   3.089  17.278 -0.0680 -0.4353 -0.4113
  221MPD1    C3 3409   2.032   3.140  17.299  0.6629  0.3986 -0.1044
  221MPD1    C4 3410   2.004   3.189  17.423 -0.0652 -0.6008 -0.2890
  221MPD1    C5 3411   2.099   3.206  17.513  0.5506  0.0373 -0.8135
  221MPD1     H 3412   2.191   3.034  17.189  1.7519 -0.4277  0.2081
  221MPD1    H1 3413   1.900   3.209  17.445  0.8018  0.1411  3.1363
  221MPD1    H2 3414   2.301   3.196  17.563  0.8331  0.6768 -0.8318
  221MPD1    H3 3415   2.086   3.256  17.608  0.5818 -1.3957 -0.0644
  221MPD1     N 3416   1.933   3.139  17.199 -0.3170  0.1831 -0.7321
  221MPD1    H5 3417   1.839   3.171  17.222  0.2822  1.0303  0.5463
  221MPD1    N1 3418   2.386   3.038  17.347 -0.5403  0.2974  0.2692
  221MPD1    H6 3419   2.443   3.039  17.431 -0.4288  0.3234  0.1942
  221MPD1    H7 3420   2.384   2.955  17.288  0.8780  0.7523 -0.4166
  222MPD1     C 3421   1.171   1.644  16.927 -0.1249 -0.3741 -0.6097
  222MPD1    C1 3422   1.180   1.624  17.060 -0.0078  0.7103 -0.3716
  222MPD1    C2 3423   1.277   1.686  17.131 -0.3444 -0.9646  0.2829
  222MPD1    C3 3424   1.363   1.786  17.072 -0.3122  0.8599  0.7187
  222MPD1    C4 3425   1.340   1.809  16.935 -0.4461  0.1215 -0.7994
  222MPD1    C5 3426   1.244   1.745  16.868 -0.4441  0.1084  0.3725
  222MPD1     H 3427   1.289   1.657  17.234 -2.1146  2.0029  1.3428
  222MPD1    H1 3428   1.388   1.885  16.875  0.6326 -0.8937 -1.2336
  222MPD1    H2 3429   1.106   1.588  16.861 -0.0974 -1.9556  0.7122
  222MPD1    H3 3430   1.248   1.757  16.761 -0.3743 -0.9827  0.2541
  222MPD1     N 3431   1.458   1.863  17.139 -0.5111 -0.5032 -0.1836
  222MPD1    H5 3432   1.485   1.931  17.069  1.1704 -0.0569  0.8991
  222MPD1    N1 3433   1.101   1.528  17.117 -0.3502 -0.5188  0.3785
  222MPD1    H6 3434   1.101   1.541  17.218 -0.5970 -1.7409  0.5405
  222MPD1    H7 3435   1.006   1.525  17.079  0.4585  2.3439 -1.8793
  223MPD1     C 3436   2.261   2.391  16.920 -0.4581  0.1953  0.6757
  223MPD1    C1 3437   2.264   2.414  17.054 -0.6311 -0.2739  0.4488
  223MPD1    C2 3438   2.171   2.351  17.128  0.0270  0.4253 -0.4552
  223MPD1    C3 3439   2.073   2.263  17.080 -0.5170  0.6477  0.1446
  223MPD1    C4 3440   2.077   2.241  16.943  0.6708  0.1732  0.9440
  223MPD1    C5 3441   2.169   2.306  16.868  0.7235 -0.3417  0.1554
  223MPD1     H 3442   2.168   2.368  17.235 -2.6581  0.0684 -0.4649
  223MPD1    H1 3443   2.012   2.168  16.896  0.0842  1.1241  0.2933
  223MPD1    H2 3444   2.329   2.440  16.851 -1.1441 -0.0615 -0.1771
  223MPD1    H3 3445   2.175   2.284  16.762  1.8046 -1.7624  0.5093
  223MPD1     N 3446   1.979   2.194  17.162 -0.1269 -0.0818  0.2956
  223MPD1    H5 3447   1.983   2.219  17.260 -0.2054 -0.9650  0.5172
  223MPD1    N1 3448   2.356   2.507  17.103  0.0436  0.2680  0.3623
  223MPD1    H6 3449   2.361   2.498  17.205 -0.8537  3.4093  0.6787
  223MPD1    H7 3450   2.443   2.514  17.051  0.4623 -1.4878  0.8065
  224MPD1     C 3451   1.320   2.786   9.443  0.0650 -0.4756  0.0784
  224MPD1    C1 3452   1.280   2.883   9.535  0.5333 -0.1488 -0.3377
  224MPD1    C2 3453   1.380   2.973   9.565 -0.4996  0.2425 -0.5322
  224MPD1    C3 3454   1.509   2.970   9.513 -0.4351 -0.0185 -0.1831
  224MPD1    C4 3455   1.539   2.885   9.413  0.0925  0.0570  0.0333
  224MPD1    C5 3456   1.440   2.797   9.374 -0.1129  0.4173  0.4347
  224MPD1     H 3457   1.364   3.037   9.652 -0.4134  1.0230 -1.0920
  224MPD1    H1 3458   1.632   2.876   9.358  0.3112 -0.8467  0.5369
  224MPD1    H2 3459   1.256   2.702   9.417  1.4207 -0.6875 -2.6103
  224MPD1    H3 3460   1.469   2.718   9.306 -1.8645 -1.2437  1.6398
  224MPD1     N 3461   1.618   3.056   9.546 -0.2792 -0.0474 -0.5435
  224MPD1    H5 3462   1.687   3.057   9.472 -0.8222  0.1729 -1.0399
  224MPD1    N1 3463   1.164   2.869   9.606  0.3634 -0.0955 -0.0361
  224MPD1    H6 3464   1.088   2.830   9.549  2.5028 -1.2690 -2.0691
  224MPD1    H7 3465   1.119   2.961   9.611 -0.1879 -0.3527 -0.1801
  225MPD1     C 3466   2.928   3.569  13.244  0.2214 -0.0163 -1.1853
  225MPD1    C1 3467   2.983   3.466  13.173 -0.1736 -0.9378 -0.6400
  225MPD1    C2 3468   3.015   3.485  13.040 -0.5570 -0.0994 -0.2095
  225MPD1    C3 3469   2.966   3.604  12.982  0.4451  0.2912  0.5163
  225MPD1    C4 3470   2.903   3.703  13.056 -0.6113 -0.0430 -0.4737
  225MPD1    C5 3471   2.890   3.686  13.187  1.1618  0.7948 -0.4275
  225MPD1     H 3472   3.080   3.408  13.001  0.7876  0.5211  0.8245
  225MPD1    H1 3473   2.863   3.793  13.009 -2.3196 -0.9799 -0.8237
  225MPD1    H2 3474   2.923   3.546  13.349 -1.7147  0.6085 -1.1396
  225MPD1    H3 3475   2.853   3.771  13.244  4.7141  1.3121  1.0871
  225MPD1     N 3476   2.984   3.630  12.846  0.0818 -0.0526  0.8347
  225MPD1    H5 3477   2.962   3.725  12.816 -0.6320 -1.0338 -1.7990
  225MPD1    N1 3478   3.038   3.362  13.240 -0.8629 -0.5511 -0.2851
  225MPD1    H6 3479   3.036   3.270  13.197 -1.3042 -1.3266  1.3724
  225MPD1    H7 3480   2.993   3.349  13.331 -0.9266 -0.1196 -0.2542
  226MPD1     C 3481   1.512   3.306   9.298  0.4595  0.2058  0.4967
  226MPD1    C1 3482   1.629   3.380   9.299  0.2118 -0.4957  0.2067
  226MPD1    C2 3483   1.619   3.506   9.336  0.2508  0.4961 -0.1425
  226MPD1    C3 3484   1.503   3.559   9.382  0.0397 -0.0162 -0.3959
  226MPD1    C4 3485   1.389   3.486   9.388  0.5671  0.0355 -0.5190
  226MPD1    C5 3486   1.394   3.358   9.345  0.0442 -0.5706  0.5419
  226MPD1     H 3487   1.706   3.571   9.341  1.5568 -1.2745  0.0071
  226MPD1    H1 3488   1.297   3.524   9.431  0.5496 -0.0891 -0.4459
  226MPD1    H2 3489   1.507   3.205   9.257 -1.2260  0.5390 -0.1047
  226MPD1    H3 3490   1.312   3.288   9.347 -1.1362  0.7794  0.0157
  226MPD1     N 3491   1.515   3.696   9.429 -0.0403 -0.1220  0.8443
  226MPD1    H5 3492   1.609   3.733   9.435 -0.8089  2.3523 -2.3220
  226MPD1    N1 3493   1.741   3.337   9.220 -0.8771 -0.7998  0.0630
  226MPD1    H6 3494   1.762   3.241   9.245  1.5309  0.1178  1.5178
  226MPD1    H7 3495   1.819   3.386   9.262 -1.5920 -0.8075  1.4007
  227MPD1     C 3496   1.127   4.697   9.558 -0.1513 -0.6215 -0.3035
  227MPD1    C1 3497   1.190   4.663   9.673 -0.2466  0.3101  0.1565
  227MPD1    C2 3498   1.236   4.533   9.689  0.0241 -0.0562 -0.2263
  227MPD1    C3 3499   1.261   4.446   9.583 -0.1260  0.0790  0.4910
  227MPD1    C4 3500   1.211   4.492   9.456  0.7618 -0.8165  0.1837
  227MPD1    C5 3501   1.142   4.610   9.450  0.2247  0.9672 -0.2075
  227MPD1     H 3502   1.272   4.489   9.781 -0.3636  0.2415  0.0613
  227MPD1    H1 3503   1.216   4.437   9.363  0.3252 -0.0478 -0.2986
  227MPD1    H2 3504   1.086   0.061   9.540 -0.2523 -0.7952 -1.0412
  227MPD1    H3 3505   1.094   4.638   9.358  1.5220  3.0621 -0.2415
  227MPD1     N 3506   1.323   4.322   9.610  0.5113  0.7404  0.0969
  227MPD1    H5 3507   1.355   4.301   9.704 -0.2264 -0.7816  0.0079
  227MPD1    N1 3508   1.171   0.007   9.788  0.2752 -0.2128 -0.0106
  227MPD1    H6 3509   1.253   4.730   9.846 -0.4014 -2.8132  0.4821
  227MPD1    H7 3510   1.151   0.103   9.762  2.7513  0.0575 -0.8602
  228MPD1     C 3511   0.685   2.358  12.278 -0.2659  0.6411  0.4865
  228MPD1    C1 3512   0.585   2.447  12.290  0.8217  0.2705  0.5225
  228MPD1    C2 3513   0.471   2.397  12.356  0.0228 -0.3082 -0.0615
  228MPD1    C3 3514   0.474   2.275  12.421 -0.3742 -0.3038  0.6498
  228MPD1    C4 3515   0.586   2.193  12.415 -0.5544  0.1700 -0.6706
  228MPD1    C5 3516   0.693   2.233  12.343  0.5934 -0.1867  0.6378
  228MPD1     H 3517   0.373   2.443  12.356  0.3600  0.4113 -0.3455
  228MPD1    H1 3518   0.593   2.091  12.450 -1.1020  1.1239  2.1672
  228MPD1    H2 3519   0.772   2.383  12.219  0.5050 -1.6661  0.6504
  228MPD1    H3 3520   0.774   2.163  12.324  1.6541  1.5111 -1.0364
  228MPD1     N 3521   0.352   2.236  12.485 -0.1624  0.2287  0.1829
  228MPD1    H5 3522   0.270   2.296  12.488  0.0768  0.6691 -1.9042
  228MPD1    N1 3523   0.604   2.566  12.210  0.3811 -0.1468  0.1032
  228MPD1    H6 3524   0.700   2.594  12.192  0.8736 -1.9619 -0.0896
  228MPD1    H7 3525   0.549   2.641  12.254 -2.6813 -1.4604 -1.5177
  229MPD1     C 3526   4.177   1.217  14.026 -0.6983 -0.7451 -0.5562
  229MPD1    C1 3527   4.255   1.103  14.010 -0.4416 -1.3291  0.0773
  229MPD1    C2 3528   4.356   1.074  14.104  0.6948  0.5071 -0.5296
  229MPD1    C3 3529   4.376   1.160  14.216 -0.6209 -0.8685  0.3249
  229MPD1    C4 3530   4.289   1.263  14.232 -0.1522 -0.2653 -0.0962
  229MPD1    C5 3531   4.187   1.290  14.146  0.1645 -0.3878 -0.2816
  229MPD1     H 3532   4.423   0.989  14.090  2.9714  1.8311  2.5400
  229MPD1    H1 3533   4.291   1.329  14.318 -1.3590 -0.7204  0.2754
  229MPD1    H2 3534   4.086   1.234  13.969 -0.6669 -0.4500 -0.5186
  229MPD1    H3 3535   4.111   1.361  14.175  1.6223  0.5682  1.1978
  229MPD1     N 3536   4.484   1.134  14.309  0.7217 -0.0879  0.2121
  229MPD1    H5 3537   4.497   1.201  14.384 -1.8938 -1.1388  1.6110
  229MPD1    N1 3538   4.236   1.024  13.900 -0.6462  0.0127 -0.1224
  229MPD1    H6 3539   4.151   1.046  13.849  0.9020  4.0540 -0.9734
  229MPD1    H7 3540   4.215   0.936  13.946 -2.1122  0.4426  0.0064
  230MPD1     C 3541   0.178   1.498  15.094  0.6148  0.0673  0.7007
  230MPD1    C1 3542   0.286   1.434  15.049  0.0845  0.0908  0.4514
  230MPD1    C2 3543   0.274   1.351  14.941 -1.0563 -0.1869  0.4443
  230MPD1    C3 3544   0.154   1.335  14.873 -0.4359  0.1637 -0.1669
  230MPD1    C4 3545   0.044   1.401  14.922  0.4693  0.0500  0.0608
  230MPD1    C5 3546   0.058   1.490  15.030  0.0239  0.0232  0.3294
  230MPD1     H 3547   0.357   1.295  14.899  0.2778  2.3326 -0.2730
  230MPD1    H1 3548   4.680   1.391  14.876  0.1357  1.5954  0.4345
  230MPD1    H2 3549   0.189   1.546  15.191  2.1418 -2.7956  1.9529
  230MPD1    H3 3550   4.706   1.536  15.077  1.3953  1.2705  1.6419
  230MPD1     N 3551   0.156   1.252  14.764  0.5790 -0.0197 -0.3335
  230MPD1    H5 3552   0.235   1.190  14.749  0.9341  0.5397 -0.7667
  230MPD1    N1 3553   0.401   1.449  15.131  0.2455 -0.6935  0.4185
  230MPD1    H6 3554   0.405   1.539  15.179 -0.0967 -0.7260  0.5036
  230MPD1    H7 3555   0.486   1.442  15.075  0.0303 -1.0420  0.1414
  231MPD1     C 3556   2.969   2.715  15.507 -0.4176  0.0134  0.3132
  231MPD1    C1 3557   2.904   2.700  15.390 -0.4921 -0.7245  0.5864
  231MPD1    C2 3558   2.964   2.722  15.269  0.0733 -0.0801 -0.0053
  231MPD1    C3 3559   3.097   2.769  15.257  0.1467 -0.4723  0.2258
  231MPD1    C4 3560   3.160   2.782  15.376 -0.6424 -0.6066  0.0524
  231MPD1    C5 3561   3.100   2.754  15.496 -0.1363  0.2025  0.2964
  231MPD1     H 3562   2.904   2.717  15.179  1.4611  1.2674 -0.9949
  231MPD1    H1 3563   3.266   2.804  15.385 -0.7239 -0.6181  0.9612
  231MPD1    H2 3564   2.920   2.695  15.601  0.1426 -0.1811  0.5648
  231MPD1    H3 3565   3.161   2.772  15.584  0.0170 -3.4144  0.9070
  231MPD1     N 3566   3.142   2.817  15.134  0.1700 -0.8450 -0.0848
  231MPD1    H5 3567   3.076   2.804  15.058 -0.0416 -3.5865  0.5553
  231MPD1    N1 3568   2.776   2.639  15.390 -0.0109 -0.1372 -0.3073
  231MPD1    H6 3569   2.730   2.622  15.300 -1.4989  0.2188  0.3912
  231MPD1    H7 3570   2.712   2.675  15.461  0.6789  0.9731 -0.2494
  232MPD1     C 3571   4.461   0.812   0.168 -0.2774 -0.2359  0.2779
  232MPD1    C1 3572   4.391   0.922   0.122 -0.6612  0.4088 -0.3406
  232MPD1    C2 3573   4.269   0.899   0.071  0.4024 -0.1551 -0.0771
  232MPD1    C3 3574   4.203   0.780   0.070 -0.2091 -0.2526  0.4421
  232MPD1    C4 3575   4.267   0.670   0.130 -0.3051  0.1239  0.1787
  232MPD1    C5 3576   4.395   0.692   0.176 -0.0744 -0.7320 -0.2475
  232MPD1     H 3577   4.225   0.984   0.020  1.3824  0.4865  0.1597
  232MPD1    H1 3578   4.220   0.573   0.138 -0.0041  0.1448  2.2355
  232MPD1    H2 3579   4.566   0.823   0.193 -0.1974 -0.9995  0.2729
  232MPD1    H3 3580   4.453   0.607   0.209 -0.3521 -1.4053 -1.5001
  232MPD1     N 3581   4.065   0.780   0.023  0.4562 -0.0415  0.5411
  232MPD1    H5 3582   4.027   0.868  17.724  2.9404  0.2961 -1.2904
  232MPD1    N1 3583   4.455   1.045   0.099 -0.2482 -0.5094 -0.0134
  232MPD1    H6 3584   4.400   1.130   0.091  1.0344  0.3449  0.3192
  232MPD1    H7 3585   4.529   1.054   0.168  0.5518  0.6359 -1.0154
  233MPD1     C 3586   0.526   3.317   1.058  0.0566 -0.3327  0.2531
  233MPD1    C1 3587   0.555   3.233   1.164  0.7833  0.0069  0.5013
  233MPD1    C2 3588   0.675   3.253   1.230  0.8245  0.0811 -0.0113
  233MPD1    C3 3589   0.756   3.363   1.197  0.6974 -0.2862 -0.4938
  233MPD1    C4 3590   0.727   3.441   1.087  0.5460  0.6778 -0.3398
  233MPD1    C5 3591   0.610   3.421   1.017  0.3398 -0.7700  0.1106
  233MPD1     H 3592   0.712   3.188   1.308 -0.7154 -1.3322 -0.4601
  233MPD1    H1 3593   0.796   3.518   1.055  1.8816 -0.0369  0.7825
  233MPD1    H2 3594   0.434   3.299   1.003  0.6696 -2.5867 -0.0616
  233MPD1    H3 3595   0.592   3.477   0.926  1.9405 -2.3030 -1.1441
  233MPD1     N 3596   0.878   3.400   1.256  0.0892 -0.2668  0.5443
  233MPD1    H5 3597   0.934   3.473   1.214  0.9508 -1.9554 -1.2700
  233MPD1    N1 3598   0.484   3.111   1.186  0.1664  0.2978 -0.5702
  233MPD1    H6 3599   0.477   3.096   1.286  1.9650  0.5727 -0.4032
  233MPD1    H7 3600   0.387   3.111   1.155 -0.1915 -0.2451  0.5527
  234MPD1     C 3601   3.249   2.083   9.626 -0.4951 -0.2214 -0.0009
  234MPD1    C1 3602   3.166   2.068   9.512  0.4352  0.1414 -0.5477
  234MPD1    C2 3603   3.075   2.169   9.493 -0.0424 -0.1503  0.0450
  234MPD1    C3 3604   3.052   2.271   9.576 -0.4256  0.6305 -0.1059
  234MPD1    C4 3605   3.132   2.278   9.688  0.5317 -0.4135 -0.1401
  234MPD1    C5 3606   3.239   2.192   9.709 -0.1824  0.2012 -0.0574
  234MPD1     H 3607   3.023   2.177   9.398  0.7828  2.1309 -0.2095
  234MPD1    H1 3608   3.124   2.364   9.753  0.2316 -0.4267 -0.1556
  234MPD1    H2 3609   3.330   2.013   9.643  0.5366  1.7423  3.0136
  234MPD1    H3 3610   3.310   2.219   9.787 -1.2432 -1.1428  1.3811
  234MPD1     N 3611   2.958   2.371   9.538 -0.4289 -0.0391 -0.0491
  234MPD1    H5 3612   2.910   2.354   9.450  1.3650  0.1082 -1.0639
  234MPD1    N1 3613   3.177   1.967   9.419  0.6881 -0.2590  0.1072
  234MPD1    H6 3614   3.095   1.936   9.366 -0.7485  0.6148  1.8078
  234MPD1    H7 3615   3.214   1.882   9.460  1.8326 -0.7187 -1.8712
  235MPD1     C 3616   4.645   4.160  11.008 -0.7689 -0.2639 -0.4628
  235MPD1    C1 3617   4.699   4.285  11.040  0.1568  0.3251  1.2336
  235MPD1    C2 3618   4.711   4.379  10.940  0.1691 -0.6207  1.0725
  235MPD1    C3 3619   4.670   4.362  10.810 -0.6568 -0.5196  0.4919
  235MPD1    C4 3620   4.610   4.242  10.784 -0.6083  0.0155  0.6331
  235MPD1    C5 3621   4.600   4.143  10.881  0.1842  0.0889  0.2077
  235MPD1     H 3622   0.029   4.469  10.968 -0.4193 -0.6817  2.3742
  235MPD1    H1 3623   4.576   4.213  10.685 -0.9003  0.2210  0.6717
  235MPD1    H2 3624   4.657   4.079  11.079 -0.0567  0.3561  0.1177
  235MPD1    H3 3625   4.571   4.041  10.859 -1.1476  0.7459 -1.0647
  235MPD1     N 3626   4.694   4.471  10.724  0.6904 -1.1437 -0.3658
  235MPD1    H5 3627   4.730   4.561  10.754 -1.2190 -1.0746  1.6747
  235MPD1    N1 3628   0.038   4.300  11.155  0.0423  0.0138 -0.0621
  235MPD1    H6 3629   0.038   4.398  11.183  0.0268  0.4059 -1.4359
  235MPD1    H7 3630   0.015   4.237  11.232 -0.5185  0.3747  0.0694
  236MPD1     C 3631   3.545   1.292  10.167  0.0527 -0.3763  0.5111
  236MPD1    C1 3632   3.646   1.376  10.131  0.6100  1.0023 -0.5320
  236MPD1    C2 3633   3.775   1.327  10.146  0.3554  0.0382 -0.1251
  236MPD1    C3 3634   3.793   1.211  10.215 -0.2107 -0.0562  0.0538
  236MPD1    C4 3635   3.686   1.131  10.258 -0.5037  0.3266  0.2854
  236MPD1    C5 3636   3.558   1.169  10.224  0.1619 -1.4736 -0.7077
  236MPD1     H 3637   3.859   1.388  10.113 -0.8115  1.0488 -1.2021
  236MPD1    H1 3638   3.698   1.047  10.324  0.6665 -1.9525 -2.8577
  236MPD1    H2 3639   3.442   1.326  10.160  0.4867  0.4231 -1.9300
  236MPD1    H3 3640   3.473   1.108  10.253  0.4713  0.1306  3.5515
  236MPD1     N 3641   3.921   1.167  10.252  0.0747 -0.5225  0.0580
  236MPD1    H5 3642   3.916   1.072  10.288  2.7595 -0.4790  0.5207
  236MPD1    N1 3643   3.620   1.503  10.070  0.4801 -0.8162 -0.1334
  236MPD1    H6 3644   3.531   1.541  10.103  0.2207 -0.1150 -1.6383
  236MPD1    H7 3645   3.688   1.578  10.080  0.8499 -1.0192 -1.1540
  237MPD1     C 3646   3.658   4.085  14.977 -0.1538 -0.3058 -0.3255
  237MPD1    C1 3647   3.666   3.999  15.083 -0.0193 -0.1797  0.0846
  237MPD1    C2 3648   3.559   3.910  15.101 -0.4425 -0.0895  0.3271
  237MPD1    C3 3649   3.468   3.890  14.997  0.1511 -0.2169  0.0640
  237MPD1    C4 3650   3.472   3.976  14.889 -0.5882 -0.1919 -0.4155
  237MPD1    C5 3651   3.560   4.077  14.885 -1.0467  0.0751  0.3674
  237MPD1     H 3652   3.557   3.835  15.179  1.4238  1.1308  1.5374
  237MPD1    H1 3653   3.400   3.967  14.808  0.6715  2.7031 -1.8472
  237MPD1    H2 3654   3.736   4.154  14.949 -0.2343 -0.2023 -0.2921
  237MPD1    H3 3655   3.555   4.146  14.802 -4.8338 -2.0657 -1.1456
  237MPD1     N 3656   3.364   3.792  14.991  0.9013 -0.3736 -0.0143
  237MPD1    H5 3657   3.308   3.799  14.907 -0.5870 -0.2310  0.9866
  237MPD1    N1 3658   3.759   4.008  15.186  0.2661  0.0000  0.5722
  237MPD1    H6 3659   3.842   4.059  15.157 -0.1251  0.6324  0.5735
  237MPD1    H7 3660   3.792   3.919  15.223  1.5896 -0.5424 -1.8868
  238MPD1     C 3661   0.771   2.203  15.269 -0.7563 -0.0713  0.0820
  238MPD1    C1 3662   0.665   2.123  15.326  0.1847  0.7600  0.9503
  238MPD1    C2 3663   0.533   2.139  15.279 -0.1935  0.2939  0.3195
  238MPD1    C3 3664   0.516   2.223  15.169 -0.7873 -0.0749  0.3757
  238MPD1    C4 3665   0.621   2.283  15.106  0.4005  0.3396 -0.0454
  238MPD1    C5 3666   0.749   2.280  15.158 -0.2699  0.4965  0.2196
  238MPD1     H 3667   0.444   2.082  15.304  1.5282 -2.2461  0.5673
  238MPD1    H1 3668   0.613   2.351  15.021 -2.0498  1.3165  0.9832
  238MPD1    H2 3669   0.874   2.196  15.302 -0.7888 -1.3167 -0.0622
  238MPD1    H3 3670   0.832   2.335  15.115  0.7409 -0.2086  1.2615
  238MPD1     N 3671   0.387   2.252  15.118  0.6252 -0.3819  0.4752
  238MPD1    H5 3672   0.382   2.318  15.041  3.0522 -2.9071 -1.8242
  238MPD1    N1 3673   0.689   2.069  15.457 -0.1195  0.6681 -0.3453
  238MPD1    H6 3674   0.789   2.059  15.476  0.0180  0.4129 -1.1775
  238MPD1    H7 3675   0.647   1.979  15.478 -1.0732  0.6979 -2.0745
  239MPD1     C 3676   0.460   3.714  14.747  0.3799  0.3679 -0.5567
  239MPD1    C1 3677   0.463   3.636  14.634  0.4246  0.2399 -0.2160
  239MPD1    C2 3678   0.355   3.649  14.545  0.0830  0.1926  0.5796
  239MPD1    C3 3679   0.252   3.737  14.566 -0.3211  1.2446 -1.1337
  239MPD1    C4 3680   0.254   3.815  14.674 -0.6844 -0.4122  0.1110
  239MPD1    C5 3681   0.363   3.810  14.763 -0.5770  0.2589 -0.3069
  239MPD1     H 3682   0.367   3.588  14.456 -0.3373 -1.1408  1.4388
  239MPD1    H1 3683   0.178   3.888  14.697  1.5397  1.8267  0.3842
  239MPD1    H2 3684   0.539   3.718  14.821 -0.1341 -2.1551  0.1300
  239MPD1    H3 3685   0.378   3.876  14.848  1.3465  0.8314 -1.0847
  239MPD1     N 3686   0.145   3.759  14.477 -0.1192  0.7108  0.4404
  239MPD1    H5 3687   0.081   3.831  14.507  0.7585  1.6409  0.0924
  239MPD1    N1 3688   0.577   3.563  14.594  0.0508  0.3507  0.7301
  239MPD1    H6 3689   0.545   3.490  14.530  1.1952  1.1083 -0.6944
  239MPD1    H7 3690   0.619   3.526  14.679 -0.0934  1.3072  1.2235
  240MPD1     C 3691   4.320   3.477  14.006  0.0366  0.7613 -0.1309
  240MPD1    C1 3692   4.211   3.445  14.082  1.0486  0.8351  0.4503
  240MPD1    C2 3693   4.221   3.335  14.163 -0.5421 -0.0763  0.0088
  240MPD1    C3 3694   4.354   3.283  14.198 -0.1112 -0.2125 -0.6438
  240MPD1    C4 3695   4.467   3.345  14.145  0.1278 -0.1893  0.1305
  240MPD1    C5 3696   4.447   3.434  14.038  0.4275 -0.0070 -0.4831
  240MPD1     H 3697   4.133   3.282  14.198  0.4490 -0.8996  1.2842
  240MPD1    H1 3698   4.566   3.301  14.154 -0.8851 -2.4572  0.3727
  240MPD1    H2 3699   4.313   3.544  13.921  1.6233  0.2378 -0.6730
  240MPD1    H3 3700   4.537   3.449  13.980  1.4607 -2.4555  0.4784
  240MPD1     N 3701   4.361   3.179  14.287 -0.6058 -0.1572 -0.1236
  240MPD1    H5 3702   4.273   3.156  14.331 -0.7145  1.6429  0.6295
  240MPD1    N1 3703   4.087   3.506  14.060  0.1501  0.1755 -0.2028
  240MPD1    H6 3704   4.028   3.511  14.143 -0.1880  1.3090 -0.5184
  240MPD1    H7 3705   4.089   3.593  14.007 -2.0173  0.9958  1.0585
  241MPD1     C 3706   0.059   2.671  15.148  0.3376  0.2646 -0.4400
  241MPD1    C1 3707   0.131   2.720  15.043  0.0861 -0.1238  0.4204
  241MPD1    C2 3708   0.065   2.765  14.930 -0.5852  0.2821 -0.1372
  241MPD1    C3 3709   4.663   2.750  14.916  0.5583  0.1152 -0.7373
  241MPD1    C4 3710   4.595   2.693  15.019  0.8685 -0.0019  0.0213
  241MPD1    C5 3711   4.653   2.660  15.137  0.2034  0.3910  0.0680
  241MPD1     H 3712   0.125   2.812  14.852  1.5505 -1.5406  0.4183
  241MPD1    H1 3713   4.488   2.678  15.008  1.0585  0.7828 -2.8312
  241MPD1    H2 3714   0.109   2.643  15.240 -0.0765 -0.1529 -0.3423
  241MPD1    H3 3715   4.595   2.615  15.217  1.0124  1.8736  1.4840
  241MPD1     N 3716   4.593   2.773  14.798  0.2982 -0.5874 -0.0999
  241MPD1    H5 3717   4.494   2.752  14.788  0.1832  0.3114 -0.8492
  241MPD1    N1 3718   0.269   2.745  15.057 -0.0549 -0.0161  0.1597
  241MPD1    H6 3719   0.320   2.678  15.114 -3.4469 -2.5134  0.2855
  241MPD1    H7 3720   0.319   2.761  14.970 -1.2006  0.9276 -0.3266
  242MPD1     C 3721   4.104   1.525  16.133 -0.4483 -0.2971 -0.5647
  242MPD1    C1 3722   4.225   1.577  16.101  0.0601  0.0375  0.4822
  242MPD1    C2 3723   4.241   1.631  15.969 -0.4484  0.2723 -0.0364
  242MPD1    C3 3724   4.140   1.610  15.878  0.6163 -0.6391  0.5585
  242MPD1    C4 3725   4.020   1.548  15.910 -0.7976  0.5960  0.5434
  242MPD1    C5 3726   4.010   1.499  16.036 -0.1901  0.1111 -0.1594
  242MPD1     H 3727   4.336   1.673  15.938  0.4307 -1.1577  0.7648
  242MPD1    H1 3728   3.946   1.545  15.831 -0.5363  0.2868  0.3079
  242MPD1    H2 3729   4.080   1.504  16.237  1.0741 -1.5240 -0.4685
  242MPD1    H3 3730   3.913   1.463  16.069  0.0936  0.1327  0.6862
  242MPD1     N 3731   4.169   1.623  15.737  0.1978  0.0500 -0.3413
  242MPD1    H5 3732   4.092   1.598  15.675 -0.1544  1.0720 -0.3172
  242MPD1    N1 3733   4.321   1.591  16.208 -0.7181  1.0456 -0.1955
  242MPD1    H6 3734   4.417   1.605  16.179 -0.2867 -0.4213  0.5293
  242MPD1    H7 3735   4.334   1.517  16.276  2.3717  1.1718 -0.6480
  243MPD1     C 3736   0.698   4.443  17.525  0.1936  0.4813 -0.5580
  243MPD1    C1 3737   0.807   4.385  17.468  0.4289 -0.2760  0.4421
  243MPD1    C2 3738   0.842   4.415  17.335 -0.2225  0.9889 -0.4302
  243MPD1    C3 3739   0.760   4.496  17.261  0.2737 -0.0657 -0.2554
  243MPD1    C4 3740   0.655   4.558  17.322  0.5690  0.1725 -0.7988
  243MPD1    C5 3741   0.622   4.535  17.455 -0.2555  0.5163 -0.0132
  243MPD1     H 3742   0.927   4.365  17.289 -0.0556  1.4273 -0.6008
  243MPD1    H1 3743   0.597   4.637  17.277 -0.8509 -1.2138 -1.4019
  243MPD1    H2 3744   0.670   4.412  17.625  0.5876  0.9177 -0.3062
  243MPD1    H3 3745   0.544   4.589  17.506 -0.2587  0.3554  0.1517
  243MPD1     N 3746   0.794   4.503  17.125  0.2409  0.3459  0.0027
  243MPD1    H5 3747   0.878   4.455  17.094  0.2308  2.1016 -2.8140
  243MPD1    N1 3748   0.883   4.287  17.538 -0.1345 -0.1692 -0.3963
  243MPD1    H6 3749   0.961   4.253  17.483 -0.4866 -2.8809  0.7796
  243MPD1    H7 3750   0.919   4.325  17.626  1.8664  0.9691 -1.7160
  244MPD1     C 3751   1.368   4.078  16.440 -0.2908 -0.4355 -0.6153
  244MPD1    C1 3752   1.279   4.132  16.347 -0.0176  1.0938  0.7833
  244MPD1    C2 3753   1.184   4.216  16.403 -0.0578 -0.1923 -0.4851
  244MPD1    C3 3754   1.171   4.235  16.536 -0.4288 -0.4103  0.5429
  244MPD1    C4 3755   1.258   4.177  16.624  0.0903  0.6270  0.0162
  244MPD1    C5 3756   1.357   4.098  16.574  0.7740  0.1852 -0.4082
  244MPD1     H 3757   1.115   4.256  16.330 -0.4195  0.4538  0.1993
  244MPD1    H1 3758   1.265   4.183  16.732  0.2573  0.9696 -0.0149
  244MPD1    H2 3759   1.448   4.018  16.399 -0.0956 -1.1905  0.8550
  244MPD1    H3 3760   1.435   4.058  16.638 -1.3538 -0.4551  1.7718
  244MPD1     N 3761   1.065   4.311  16.581  0.0256 -0.3846 -0.5625
  244MPD1    H5 3762   1.015   4.372  16.517 -0.4756 -1.8533 -1.5838
  244MPD1    N1 3763   1.290   4.100  16.209  0.7879 -0.0549  0.0438
  244MPD1    H6 3764   1.318   4.002  16.211 -0.0418 -0.3400 -3.1966
  244MPD1    H7 3765   1.194   4.104  16.175  0.5912 -2.4840  0.2424
  245MPD1     C 3766   3.106   0.345  12.863 -0.5166  0.4377  0.0194
  245MPD1    C1 3767   3.050   0.462  12.842 -0.0766 -0.4833  0.1344
  245MPD1    C2 3768   3.095   0.568  12.919 -0.3425  0.3017 -0.0870
  245MPD1    C3 3769   3.206   0.556  13.008 -0.3594  0.3789  0.2000
  245MPD1    C4 3770   3.262   0.434  13.014 -0.3669  0.1126 -0.0328
  245MPD1    C5 3771   3.219   0.330  12.936 -0.0724 -0.4783 -0.1864
  245MPD1     H 3772   3.041   0.662  12.917 -0.3402  0.2862 -0.9815
  245MPD1    H1 3773   3.339   0.412  13.087 -1.8522  0.1410  1.5472
  245MPD1    H2 3774   3.074   0.249  12.825  0.0988 -0.3510  1.5221
  245MPD1    H3 3775   3.261   0.230  12.946 -1.1265 -0.8656  0.3153
  245MPD1     N 3776   3.255   0.660  13.085 -0.1899  0.0563 -0.0572
  245MPD1    H5 3777   3.340   0.638  13.135  0.5167  0.4940 -1.0602
  245MPD1    N1 3778   2.926   0.471  12.781 -0.2660  0.4340 -0.3622
  245MPD1    H6 3779   2.903   0.556  12.730 -0.6376 -0.3037 -1.4217
  245MPD1    H7 3780   2.909   0.389  12.722 -1.0976 -0.4500  1.1051
  246MPD1     C 3781   3.328   2.994   9.196  0.4233 -0.4918 -0.1680
  246MPD1    C1 3782   3.356   2.861   9.174  0.6956 -0.0563  0.0617
  246MPD1    C2 3783   3.462   2.809   9.242  0.3120 -0.4531 -0.0977
  246MPD1    C3 3784   3.540   2.888   9.328  0.0876  0.3089 -0.4727
  246MPD1    C4 3785   3.503   3.022   9.349 -0.2881 -0.2258 -0.6227
  246MPD1    C5 3786   3.402   3.074   9.272 -0.3048 -0.3395 -0.1226
  246MPD1     H 3787   3.492   2.709   9.215  0.9174 -0.8101  1.9120
  246MPD1    H1 3788   3.566   3.095   9.398  1.6603 -3.3568  1.5056
  246MPD1    H2 3789   3.249   3.036   9.134  1.0068 -2.6406 -2.3942
  246MPD1    H3 3790   3.370   3.177   9.286  1.8990  0.3610 -0.2571
  246MPD1     N 3791   3.640   2.822   9.396  0.1417 -0.8421 -0.4065
  246MPD1    H5 3792   3.639   2.724   9.373 -4.1625 -0.9965  0.2754
  246MPD1    N1 3793   3.286   2.795   9.071 -0.8942 -0.0349 -0.8225
  246MPD1    H6 3794   3.186   2.811   9.076 -0.8741 -0.1720  0.0033
  246MPD1    H7 3795   3.303   2.695   9.065 -0.4944 -0.1151  1.5070
  247MPD1     C 3796   2.305   1.626  15.846  0.8623 -0.0419  0.2264
  247MPD1    C1 3797   2.171   1.606  15.836 -0.1165 -0.8670  0.0879
  247MPD1    C2 3798   2.126   1.480  15.789  0.0571  0.3272  0.1276
  247MPD1    C3 3799   2.216   1.388  15.746  0.5076 -0.1759  0.7283
  247MPD1    C4 3800   2.353   1.410  15.768  0.4034 -0.0285  0.3199
  247MPD1    C5 3801   2.395   1.526  15.823  0.0811 -0.1711 -0.3760
  247MPD1     H 3802   2.018   1.473  15.783  0.0280  1.5277 -0.8024
  247MPD1    H1 3803   2.430   1.337  15.743  0.8056  0.3511  0.4417
  247MPD1    H2 3804   2.344   1.722  15.878 -2.9584  0.9639  1.9406
  247MPD1    H3 3805   2.500   1.545  15.845  0.0934  2.0015 -2.2188
  247MPD1     N 3806   2.173   1.266  15.689  0.1574 -0.2389 -0.5372
  247MPD1    H5 3807   2.251   1.205  15.664 -1.2963 -2.5177  0.4940
  247MPD1    N1 3808   2.083   1.718  15.854 -0.4459  0.1445  0.5027
  247MPD1    H6 3809   1.985   1.701  15.880 -1.0875  0.2804 -1.8535
  247MPD1    H7 3810   2.110   1.768  15.939  0.3143 -0.2100  0.4674
  248MPD1     C 3811   2.342   1.735  17.320  0.4432 -0.0250 -0.4328
  248MPD1    C1 3812   2.323   1.787  17.445  1.0695  0.9724  0.2534
  248MPD1    C2 3813   2.221   1.718  17.515 -0.7026 -0.1853  0.0830
  248MPD1    C3 3814   2.169   1.593  17.477  0.0953  0.1231 -0.5768
  248MPD1    C4 3815   2.217   1.535  17.361  0.9665  0.3658 -0.3649
  248MPD1    C5 3816   2.298   1.614  17.281  0.8224 -0.0595  0.1766
  248MPD1     H 3817   2.183   1.765  17.605  1.6236  2.5495 -0.3680
  248MPD1    H1 3818   2.191   1.434  17.330 -0.7367  1.0132 -1.0554
  248MPD1    H2 3819   2.401   1.800  17.257  0.2315  1.7521  1.1904
  248MPD1    H3 3820   2.323   1.591  17.178 -0.1354 -0.4575  0.0283
  248MPD1     N 3821   2.069   1.541  17.562 -0.0177  0.4966 -0.0833
  248MPD1    H5 3822   2.036   1.597  17.640 -2.6199  1.0229 -1.5602
  248MPD1    N1 3823   2.372   1.913  17.484 -0.3063  0.8113  0.0715
  248MPD1    H6 3824   2.463   1.925  17.442  1.2605 -0.0119  3.2385
  248MPD1    H7 3825   2.378   1.923  17.585 -0.1207  3.3373 -0.2141
  249MPD1     C 3826   0.091   4.184   9.602  0.4471  0.3319  0.4197
  249MPD1    C1 3827   0.070   4.127   9.722 -0.7618 -0.2520  0.7461
  249MPD1    C2 3828   0.174   4.131   9.817  0.1163  1.1361 -0.3144
  249MPD1    C3 3829   0.282   4.209   9.801  0.0700  0.2793 -0.3487
  249MPD1    C4 3830   0.295   4.266   9.677 -0.8849  0.0360  0.2601
  249MPD1    C5 3831   0.204   4.252   9.578  0.1465  0.0193  1.4848
  249MPD1     H 3832   0.153   4.080   9.910  2.2485  1.1838  0.1968
  249MPD1    H1 3833   0.377   4.328   9.644 -0.8483 -0.2835 -0.2587
  249MPD1    H2 3834   0.018   4.179   9.522  0.7723 -0.7263  0.1988
  249MPD1    H3 3835   0.214   4.299   9.481  0.3430  0.3732  1.6749
  249MPD1     N 3836   0.363   4.234   9.909 -0.3684 -0.5275 -0.0416
  249MPD1    H5 3837   0.340   4.185   9.995  2.9735 -1.5193  0.2896
  249MPD1    N1 3838   4.682   4.059   9.745 -0.0547  0.3726  0.4034
  249MPD1    H6 3839   4.603   4.079   9.684  0.7456  0.7924 -0.4782
  249MPD1    H7 3840   4.642   4.062   9.839 -1.7212  0.4398 -0.3048
  250MPD2     C 3841   1.773   4.063  13.099 -0.1240 -0.3410  0.1983
  250MPD2    C1 3842   1.677   4.103  13.012  0.3859 -0.4507  0.4492
  250MPD2    C2 3843   1.561   4.029  12.980  0.8721 -0.1224 -0.2266
  250MPD2    C3 3844   1.558   3.907  13.048 -0.2919  0.1634  0.0345
  250MPD2    C4 3845   1.654   3.861  13.134  0.1709 -1.0473 -0.3305
  250MPD2    C5 3846   1.765   3.938  13.155  0.4359 -0.1554 -0.3626
  250MPD2     H 3847   1.488   4.046  12.901  1.7373  1.4792 -0.6781
  250MPD2    H1 3848   1.650   3.762  13.178  0.2357 -1.6312 -1.6216
  250MPD2    H2 3849   1.863   4.120  13.118 -0.7865  0.8702 -0.3560
  250MPD2    H3 3850   1.840   3.904  13.225  0.4089 -0.5819 -0.5441
  250MPD2     N 3851   1.451   3.813  13.025  0.3405 -0.1991 -0.0218
  250MPD2    H5 3852   1.450   3.728  13.080 -0.4953  0.7118  1.3649
  250MPD2    N1 3853   1.693   4.232  12.953  0.1785  0.3746 -0.6426
  250MPD2    H7 3854   1.775   4.281  12.987 -2.0352  2.2839  2.0417
  251TMC3    C1 3855   1.625   4.436  12.851 -0.7062  0.1368  0.5597
  251TMC3    C2 3856   1.522   4.488  12.777  0.0512  0.2195  0.0705
  251TMC3    C3 3857   1.454   4.585  12.843 -0.6745  0.4082 -0.1030
  251TMC3    C4 3858   1.681   4.509  12.952 -0.0258 -0.1766 -0.0504
  251TMC3    C5 3859   1.618   4.625  12.999 -0.0842  0.2565 -0.0082
  251TMC3    C6 3860   1.499   4.663  12.946  0.4602  0.1882 -0.3119
  251TMC3     C 3861   1.602   4.294  12.872 -0.4397  0.7257 -0.6753
  251TMC3     O 3862   1.508   4.259  12.807 -0.5640  0.3704  0.2043
  251TMC3     H 3863   1.487   4.436  12.689  0.8507  0.8683 -0.6289
  251TMC3    H1 3864   1.747   4.465  13.025 -1.5555 -1.2289  0.7106
  251TMC3    H2 3865   1.431   0.000  12.991  2.3101  0.5485  1.8458
  251TMC3    C7 3866   1.674   4.692  13.110  0.0588 -0.1830 -0.8098
  251TMC3    C8 3867   1.312   4.558  12.843  0.4313  0.0802  0.0528
  251TMC3    O1 3868   1.608   0.040  13.174 -0.1122  0.7061 -0.4218
  251TMC3    O2 3869   1.241   4.658  12.874 -0.2307  0.5088  0.4656
  252TMC3    C1 3870   1.864   0.941   9.622 -0.2436 -0.3538 -0.2779
  252TMC3    C2 3871   1.992   0.975   9.640  0.3849 -0.5006  0.5947
  252TMC3    C3 3872   2.043   1.036   9.752 -0.1454 -0.1496  0.6942
  252TMC3    C4 3873   1.776   0.949   9.732  0.1250 -0.2196 -0.0922
  252TMC3    C5 3874   1.827   1.011   9.848 -0.2957 -0.3618 -0.0705
  252TMC3    C6 3875   1.958   1.059   9.856 -0.5367 -0.5471 -0.4135
  252TMC3     C 3876   1.823   0.924   9.482  0.6274  0.1491  0.0764
  252TMC3     O 3877   1.911   0.939   9.396  0.5382  0.3933 -0.4751
  252TMC3     H 3878   2.062   0.959   9.559 -0.5084 -1.6484  0.0389
  252TMC3    H1 3879   1.675   0.912   9.723  0.1982 -0.5693  0.5302
  252TMC3    H2 3880   1.980   1.123   9.940  0.1076 -1.4992  0.1320
  252TMC3    C7 3881   1.758   0.999   9.972  0.1356 -0.2969  0.1468
  252TMC3    C8 3882   2.175   1.100   9.750  0.1382 -0.4729  0.1629
  252TMC3    O1 3883   1.801   1.067  10.067  0.2513  0.2361  0.0762
  252TMC3    O2 3884   2.236   1.118   9.645 -0.0936  0.0754  0.1864
  253MPD2     C 3885   2.269   3.876  15.231 -0.2176  0.3446  0.6252
  253MPD2    C1 3886   2.135   3.907  15.259  0.3246 -0.2035 -0.1942
  253MPD2    C2 3887   2.104   3.929  15.387  0.1343 -0.3750  0.9546
  253MPD2    C3 3888   2.193   3.890  15.490  0.2260  0.6042  1.1024
  253MPD2    C4 3889   2.318   3.853  15.457  0.3758  0.0305 -0.6463
  253MPD2    C5 3890   2.356   3.840  15.327 -0.1841 -0.1973 -0.3735
  253MPD2     H 3891   2.000   3.943  15.415 -0.4973 -0.3405 -1.3768
  253MPD2    H1 3892   2.393   3.852  15.536  1.5618  0.8911 -1.7723
  253MPD2    H2 3893   2.317   3.874  15.134  0.6164  0.3877  1.0348
  253MPD2    H3 3894   2.456   3.807  15.301 -0.6409 -0.5209 -1.7343
  253MPD2     N 3895   2.171   3.909  15.622 -0.8596  0.4123 -0.5131
  253MPD2    H5 3896   2.247   3.897  15.688 -1.9834 -0.6821  0.5703
  253MPD2    N1 3897   2.031   3.932  15.163  0.3650  0.1908 -0.1769
  253MPD2    H7 3898   1.934   3.945  15.192  0.7725  1.1612  0.7617
  254TMC3    C1 3899   2.063   3.977  15.814 -0.0118 -0.8198 -0.1307
  254TMC3    C2 3900   1.988   4.073  15.870  0.4978 -0.4588  0.6419
  254TMC3    C3 3901   1.986   4.080  16.006  0.4185  0.0079  0.0340
  254TMC3    C4 3902   2.146   3.894  15.890 -0.5529  0.1492  0.5105
  254TMC3    C5 3903   2.138   3.908  16.028  0.7405 -0.2706  0.2338
  254TMC3    C6 3904   2.065   4.004  16.087 -0.0038  0.4376 -0.0452
  254TMC3     C 3905   2.057   3.968  15.672  0.4664 -0.1113  0.0010
  254TMC3     O 3906   1.966   4.037  15.622  0.3872 -0.1191 -0.3224
  254TMC3     H 3907   1.921   4.138  15.816  0.1540  0.7755  2.5644
  254TMC3    H1 3908   2.207   3.816  15.845 -2.3511 -0.5449 -0.7122
  254TMC3    H2 3909   2.067   4.020  16.194 -0.5943  1.2398 -0.1506
  254TMC3    C7 3910   2.204   3.802  16.109  1.5971  0.0939  0.5480
  254TMC3    C8 3911   1.906   4.179  16.066  0.4975 -0.5115 -0.4737
  254TMC3    O1 3912   2.207   3.833  16.229  0.7210  0.3594 -0.3700
  254TMC3    O2 3913   1.870   4.152  16.179  0.4172  0.7450  0.0217
  255MPD2     C 3914   1.193   2.258  10.809 -0.6664 -0.3476 -0.0124
  255MPD2    C1 3915   1.119   2.196  10.710  0.2047 -0.0845  0.0727
  255MPD2    C2 3916   1.188   2.151  10.596  0.2653  0.5380  0.6488
  255MPD2    C3 3917   1.328   2.143  10.589 -0.0646  0.2612  0.1798
  255MPD2    C4 3918   1.403   2.190  10.697 -0.1123  0.3879  0.0071
  255MPD2    C5 3919   1.329   2.253  10.796 -0.5856 -0.4908  0.1652
  255MPD2     H 3920   1.143   2.104  10.509 -1.1133  2.9932  0.0261
  255MPD2    H1 3921   1.511   2.175  10.699 -0.3071 -1.6454 -3.8375
  255MPD2    H2 3922   1.150   2.308  10.896 -0.8985 -1.0278  0.2684
  255MPD2    H3 3923   1.376   2.294  10.885 -0.3663  1.6532 -0.9459
  255MPD2     N 3924   1.381   2.074  10.484  0.1808 -0.4142 -0.1374
  255MPD2    H5 3925   1.320   2.022  10.422 -1.5591  0.5412  0.7896
  255MPD2    N1 3926   0.980   2.181  10.716  0.4243 -0.0137  0.2949
  255MPD2    H7 3927   0.924   2.223  10.790 -0.8372  0.8147 -1.1244
  256TMC3    C1 3928   0.766   2.101  10.636  0.5353  0.0309  0.0886
  256TMC3    C2 3929   0.717   2.225  10.663  0.5475  0.0777  0.0802
  256TMC3    C3 3930   0.627   2.276  10.576 -0.1354  0.4516 -0.2873
  256TMC3    C4 3931   0.710   2.014  10.549 -0.4419  0.4211 -0.3215
  256TMC3    C5 3932   0.608   2.068  10.466  0.1340 -0.6615  0.1775
  256TMC3    C6 3933   0.565   2.198  10.481  0.4074 -0.2197 -0.5663
  256TMC3     C 3934   0.914   2.087  10.639  0.1765 -0.4924  0.4022
  256TMC3     O 3935   0.956   1.995  10.571 -0.7581  0.1623 -0.2769
  256TMC3     H 3936   0.763   2.298  10.729  1.0629 -0.3377  0.1779
  256TMC3    H1 3937   0.764   1.925  10.520 -0.7618 -0.1411  0.8240
  256TMC3    H2 3938   0.488   2.238  10.416  1.6744  0.8546 -1.4084
  256TMC3    C7 3939   0.617   2.032  10.323 -0.6118  0.6040 -0.1139
  256TMC3    C8 3940   0.666   2.406  10.515  0.2133 -0.9486 -0.9123
  256TMC3    O1 3941   0.637   1.916  10.295 -0.0965  0.0519  0.1127
  256TMC3    O2 3942   0.677   2.397  10.393  0.5575  0.2265  0.0656
  257MPD2     C 3943   4.513   3.861  13.037 -0.0050  0.4673  0.3804
  257MPD2    C1 3944   4.628   3.803  12.998  0.4941 -0.0963 -0.1386
  257MPD2    C2 3945   4.681   3.708  13.085  0.4870 -0.3992  0.7157
  257MPD2    C3 3946   4.608   3.666  13.198  0.0364 -0.8650 -0.6111
  257MPD2    C4 3947   4.484   3.711  13.220 -0.5402  0.3886  0.0898
  257MPD2    C5 3948   4.435   3.814  13.143  0.2289  0.1412 -0.6486
  257MPD2     H 3949   0.042   3.661  13.063  0.9551  1.0791 -0.4625
  257MPD2    H1 3950   4.417   3.676  13.298 -0.8530 -0.3397 -0.5048
  257MPD2    H2 3951   4.465   3.937  12.977 -0.1700  0.5746  0.6473
  257MPD2    H3 3952   4.332   3.844  13.161  0.0933  0.2001 -1.5069
  257MPD2     N 3953   4.664   3.561  13.276  0.2510 -0.1205 -0.3630
  257MPD2    H5 3954   0.026   3.537  13.255 -0.5982 -2.4115 -1.5910
  257MPD2    N1 3955   4.690   3.857  12.885  0.2240 -0.4804 -0.6111
  257MPD2    H7 3956   4.647   3.934  12.835  2.1159 -1.1712 -3.3035
  258TMC3    C1 3957   4.716   3.435  13.468 -0.4428  0.7051  0.3677
  258TMC3    C2 3958   0.082   3.369  13.400  0.8757  0.1550 -0.4499
  258TMC3    C3 3959   0.180   3.305  13.468 -0.2896 -0.1503 -0.5433
  258TMC3    C4 3960   4.722   3.442  13.604  0.8690 -0.4173  0.0023
  258TMC3    C5 3961   0.087   3.369  13.671 -0.1750 -0.3982  0.7375
  258TMC3    C6 3962   0.179   3.298  13.601  0.0467  0.6953  0.5375
  258TMC3     C 3963   4.618   3.514  13.400 -0.1665  0.0682  0.5607
  258TMC3     O 3964   4.515   3.546  13.457  0.2774 -0.7014  0.2944
  258TMC3     H 3965   0.077   3.349  13.294  1.7566 -2.2395 -0.0350
  258TMC3    H1 3966   4.649   3.495  13.664  0.5091 -0.2515 -0.5820
  258TMC3    H2 3967   0.255   3.232  13.642  1.0581  0.8268 -1.1395
  258TMC3    C7 3968   0.085   3.357  13.817  0.0247 -0.6589  0.5217
  258TMC3    C8 3969   0.291   3.254  13.402 -0.0472 -0.1549  0.6269
  258TMC3    O1 3970   4.707   3.362  13.864  0.5019 -0.0776 -0.3675
  258TMC3    O2 3971   0.397   3.252  13.463  0.3067 -0.3146  0.3633
  259MPD2     C 3972   3.116   1.450   0.376 -0.6934 -0.0062 -0.6152
  259MPD2    C1 3973   3.182   1.352   0.317 -0.5530 -0.9130 -0.5903
  259MPD2    C2 3974   3.194   1.349   0.180  0.4636 -0.6773 -0.0115
  259MPD2    C3 3975   3.132   1.445   0.106  0.4628  0.6909 -0.5084
  259MPD2    C4 3976   3.051   1.544   0.165 -0.7965 -0.1336 -0.4314
  259MPD2    C5 3977   3.043   1.544   0.304  0.1806  0.4799 -0.1003
  259MPD2     H 3978   3.242   1.264   0.132 -0.6497 -1.4045  0.1591
  259MPD2    H1 3979   2.999   1.619   0.106 -1.2612 -0.0940  0.0228
  259MPD2    H2 3980   3.106   1.452   0.484  0.4340  0.8121 -0.5231
  259MPD2    H3 3981   2.971   1.611   0.349  2.1117  3.1429 -0.9636
  259MPD2     N 3982   3.144   1.432  17.703 -0.0804 -0.5259  0.4136
  259MPD2    H5 3983   3.178   1.346  17.663  0.8817 -0.7137  1.6144
  259MPD2    N1 3984   3.239   1.253   0.398 -0.0431  0.2963  0.4689
  259MPD2    H7 3985   3.213   1.246   0.496 -0.4009 -1.3610  0.2532
  260TMC3    C1 3986   3.099   1.488  17.477 -0.2164  0.1961  0.2116
  260TMC3    C2 3987   3.197   1.539  17.399 -0.5042  0.1128  0.1284
  260TMC3    C3 3988   3.242   1.464  17.289  0.0130  0.4615 -0.7792
  260TMC3    C4 3989   3.052   1.364  17.459 -0.0557 -0.0967 -0.5169
  260TMC3    C5 3990   3.093   1.298  17.352 -0.7381  0.3369  0.4141
  260TMC3    C6 3991   3.187   1.340  17.267 -0.5478  0.1482 -0.1123
  260TMC3     C 3992   3.099   1.528  17.614  0.1839 -0.0259 -0.2014
  260TMC3     O 3993   3.086   1.650  17.631 -0.1290 -0.0314 -0.0668
  260TMC3     H 3994   3.223   1.641  17.425 -0.8119  0.1869  0.1405
  260TMC3    H1 3995   2.972   1.325  17.520  0.3162  2.0808  1.3666
  260TMC3    H2 3996   3.219   1.286  17.178 -1.9797  1.3224 -1.3390
  260TMC3    C7 3997   3.068   1.152  17.349  0.5346 -0.1916  0.5203
  260TMC3    C8 3998   3.388   1.478  17.260  0.6040 -0.1120 -0.5965
  260TMC3    O1 3999   3.146   1.083  17.288  0.1950  0.4751 -0.2963
  260TMC3    O2 4000   3.435   1.590  17.285 -0.1743  0.0640  0.1353
  261MPD2     C 4001   0.803   3.408  12.499  0.5549  0.1572  0.1357
  261MPD2    C1 4002   0.877   3.520  12.537  0.2971 -0.8363 -0.3790
  261MPD2    C2 4003   0.851   3.637  12.464 -0.5080 -0.5537  0.6793
  261MPD2    C3 4004   0.765   3.630  12.355  0.0508 -0.1385 -0.1653
  261MPD2    C4 4005   0.697   3.518  12.319 -0.2340 -0.7609  0.6285
  261MPD2    C5 4006   0.718   3.406  12.395  0.3369 -0.0526  0.7279
  261MPD2     H 4007   0.878   3.738  12.493  1.4884 -0.1757 -2.4475
  261MPD2    H1 4008   0.633   3.516  12.232 -0.4382  0.2346  0.7570
  261MPD2    H2 4009   0.809   3.317  12.557  1.3252  0.6225  0.7896
  261MPD2    H3 4010   0.661   3.315  12.380  1.3187 -0.7419  1.1516
  261MPD2     N 4011   0.763   3.743  12.270 -0.5022  0.0614  0.2907
  261MPD2    H5 4012   0.831   3.815  12.296  2.4456 -2.2254 -1.0885
  261MPD2    N1 4013   0.949   3.513  12.658  0.2144 -0.2255  0.1317
  261MPD2    H7 4014   0.952   3.425  12.709 -2.3765  0.0760  0.8087
  262TMC3    C1 4015   0.736   3.893  12.103  0.0378  0.1201 -0.1682
  262TMC3    C2 4016   0.668   4.015  12.098  0.2827  0.1600  0.0471
  262TMC3    C3 4017   0.738   4.133  12.100  0.5334 -0.8595  0.6472
  262TMC3    C4 4018   0.872   3.898  12.109  0.1863  0.5126 -0.0308
  262TMC3    C5 4019   0.935   4.020  12.113  0.6712  0.2973 -0.4113
  262TMC3    C6 4020   0.874   4.144  12.101 -0.6941  0.9228  0.4922
  262TMC3     C 4021   0.680   3.780  12.173  0.5489 -0.0166  0.7002
  262TMC3     O 4022   0.562   3.782  12.171 -0.5951 -0.1116  0.0981
  262TMC3     H 4023   0.564   4.005  12.127 -0.0180  0.7981 -0.8295
  262TMC3    H1 4024   0.933   3.808  12.115  1.3958  1.3646  0.2657
  262TMC3    H2 4025   0.922   4.240  12.120  1.2865 -0.5494  2.8578
  262TMC3    C7 4026   1.079   4.008  12.142  0.5007  0.0245 -0.0641
  262TMC3    C8 4027   0.643   4.245  12.090 -0.7615  0.0390  0.6188
  262TMC3    O1 4028   1.117   3.907  12.187  0.4483 -0.8341  0.3902
  262TMC3    O2 4029   0.520   4.229  12.092 -0.0977 -0.1008  0.1185
  263MPD2     C 4030   2.187   3.578  11.321  0.1597  0.5062  0.0492
  263MPD2    C1 4031   2.249   3.473  11.253 -0.9201 -0.2059  0.4966
  263MPD2    C2 4032   2.210   3.445  11.121  0.4276 -0.3014  0.1426
  263MPD2    C3 4033   2.115   3.530  11.062  0.1156 -0.5800 -0.1226
  263MPD2    C4 4034   2.069   3.643  11.124 -0.1960 -0.1463 -0.8425
  263MPD2    C5 4035   2.103   3.663  11.254  0.9601  0.3946 -0.9379
  263MPD2     H 4036   2.268   3.371  11.068  1.2859  0.7899 -0.4462
  263MPD2    H1 4037   2.008   3.720  11.077 -1.5873 -1.5267 -1.3065
  263MPD2    H2 4038   2.213   3.604  11.423  1.5212 -0.0763 -0.1508
  263MPD2    H3 4039   2.070   3.754  11.301  1.5109  0.1289 -0.0431
  263MPD2     N 4040   2.088   3.512  10.922  0.2092 -0.0968 -0.3467
  263MPD2    H5 4041   2.144   3.439  10.880 -0.0344  0.7348 -2.0751
  263MPD2    N1 4042   2.326   3.384  11.332 -0.1852 -0.8036 -0.4712
  263MPD2    H7 4043   2.328   3.398  11.432  0.3694 -0.7352 -0.4932
  264TMC3    C1 4044   2.037   3.573  10.695  0.4028 -0.2342 -0.3793
  264TMC3    C2 4045   1.922   3.594  10.628  0.1142 -0.0611  0.7825
  264TMC3    C3 4046   1.944   3.641  10.498  0.2805  0.1597  1.1916
  264TMC3    C4 4047   2.163   3.576  10.644  0.0864 -0.0064  0.0750
  264TMC3    C5 4048   2.171   3.616  10.516  1.5372 -0.7121 -0.1099
  264TMC3    C6 4049   2.065   3.634  10.435  0.0705  0.6785 -0.3023
  264TMC3     C 4050   2.011   3.592  10.838  0.2639 -0.3368 -0.3989
  264TMC3     O 4051   1.929   3.675  10.875 -0.4956  0.3939 -0.2117
  264TMC3     H 4052   1.822   3.583  10.668 -0.1342  0.6263  0.3551
  264TMC3    H1 4053   2.246   3.574  10.714  1.9610  2.0178 -2.0960
  264TMC3    H2 4054   2.069   3.666  10.331  1.3955 -0.3053 -0.5474
  264TMC3    C7 4055   2.297   3.661  10.466 -0.2205  0.2144  0.2400
  264TMC3    C8 4056   1.912   3.783  10.485 -0.3115  0.3181 -0.1573
  264TMC3    O1 4057   2.398   3.599  10.493  0.4896  0.6561  0.1657
  264TMC3    O2 4058   1.996   3.852  10.432 -0.2343 -0.0882 -0.2271
  265MPD2     C 4059   3.618   3.508  15.627 -0.2553  0.2345 -0.1529
  265MPD2    C1 4060   3.626   3.630  15.554  0.3433 -0.3769 -0.1356
  265MPD2    C2 4061   3.705   3.634  15.439 -0.9313  0.6824  0.6103
  265MPD2    C3 4062   3.788   3.525  15.398 -0.0096  0.7608  0.3235
  265MPD2    C4 4063   3.778   3.408  15.472  0.5528 -0.2110 -0.4800
  265MPD2    C5 4064   3.696   3.399  15.580 -0.6456  0.4209  0.0512
  265MPD2     H 4065   3.689   3.720  15.375 -0.3418  1.4233  1.4563
  265MPD2    H1 4066   3.837   3.322  15.441  0.3176 -1.1422  1.7002
  265MPD2    H2 4067   3.556   3.498  15.715 -1.1722  4.4343 -0.3151
  265MPD2    H3 4068   3.691   3.306  15.635 -1.1642  0.2602 -0.2698
  265MPD2     N 4069   3.878   3.522  15.284  0.2231  0.1579  0.7999
  265MPD2    H5 4070   3.911   3.429  15.260 -3.1952 -0.3441 -1.9277
  265MPD2    N1 4071   3.575   3.754  15.600  0.4023 -0.5789  0.1519
  265MPD2    H7 4072   3.603   3.829  15.537  0.5997 -0.6300  0.1781
  266TMC3    C1 4073   3.462   3.904  15.741  0.3245  0.2583 -0.5996
  266TMC3    C2 4074   3.385   3.917  15.854  0.4845  0.2631  0.0323
  266TMC3    C3 4075   3.341   4.047  15.881 -0.1171 -0.2296  0.3810
  266TMC3    C4 4076   3.495   4.010  15.668  0.0302  1.0971 -1.0431
  266TMC3    C5 4077   3.448   4.138  15.700 -0.2100  0.2046  0.1888
  266TMC3    C6 4078   3.379   4.162  15.816 -0.0917 -0.3564  0.1777
  266TMC3     C 4079   3.509   3.769  15.721 -0.3107  0.2257  0.4244
  266TMC3     O 4080   3.462   3.681  15.796 -0.1669  0.5538  0.6562
  266TMC3     H 4081   3.361   3.837  15.923 -2.3088  2.2291  1.3618
  266TMC3    H1 4082   3.536   4.007  15.568  2.6504  0.8196  0.0516
  266TMC3    H2 4083   3.324   4.253  15.837 -2.3410 -1.5281 -0.7149
  266TMC3    C7 4084   3.479   4.258  15.613  0.1852 -0.5810 -0.0466
  266TMC3    C8 4085   3.237   4.055  15.978 -0.6088  0.0320  0.1462
  266TMC3    O1 4086   3.497   4.230  15.498 -0.4292 -0.0402 -0.5563
  266TMC3    O2 4087   3.172   3.957  15.998 -0.1435 -0.2800  0.4362
  267MPD2     C 4088   1.295   0.501  17.529  0.4768 -0.4203 -0.1226
  267MPD2    C1 4089   1.265   0.635  17.548 -0.4884 -0.1977 -0.4690
  267MPD2    C2 4090   1.183   0.697  17.453  0.6511 -0.4353  0.1522
  267MPD2    C3 4091   1.144   0.626  17.341 -0.8571  0.1469  0.6116
  267MPD2    C4 4092   1.158   0.486  17.329  0.1151  0.3131 -0.6103
  267MPD2    C5 4093   1.248   0.431  17.421  0.4969 -0.0458  0.4036
  267MPD2     H 4094   1.176   0.805  17.463 -1.0868 -0.6928  1.6410
  267MPD2    H1 4095   1.113   0.437  17.244 -1.2499  1.8068 -0.7480
  267MPD2    H2 4096   1.364   0.455  17.599  1.5333  0.5003 -0.5495
  267MPD2    H3 4097   1.287   0.333  17.394 -2.3038 -1.3705  1.1463
  267MPD2     N 4098   1.059   0.686  17.241  0.1844  0.2760 -0.4672
  267MPD2    H5 4099   1.025   0.626  17.166 -0.0933  0.1792 -0.2612
  267MPD2    N1 4100   1.315   0.693  17.666 -0.2131  0.1683 -0.6973
  267MPD2    H7 4101   1.381   0.630  17.711  1.1671  2.0309 -0.1258
  268TMC3    C1 4102   1.325   0.840   0.116 -0.0353 -0.5441 -0.0809
  268TMC3    C2 4103   1.333   0.969   0.155  0.0151 -0.4495 -0.1557
  268TMC3    C3 4104   1.373   1.002   0.280 -0.3635  0.1080  0.8620
  268TMC3    C4 4105   1.370   0.736   0.201 -0.4930 -0.0938  0.2326
  268TMC3    C5 4106   1.413   0.776   0.325 -0.0065 -0.0127  0.0291
  268TMC3    C6 4107   1.421   0.908   0.370 -0.1124  0.0966 -0.5882
  268TMC3     C 4108   1.269   0.814  17.719  0.9531  0.4900 -0.6140
  268TMC3     O 4109   1.177   0.888  17.679 -0.1757  0.7969  0.3197
  268TMC3     H 4110   1.299   1.045   0.086 -1.7812  1.0140  2.3531
  268TMC3    H1 4111   1.372   0.630   0.178 -2.6625 -0.2944  0.9256
  268TMC3    H2 4112   1.453   0.937   0.469  1.6594 -0.5983 -0.9656
  268TMC3    C7 4113   1.427   0.688   0.437 -0.8283  1.1065  0.2018
  268TMC3    C8 4114   1.416   1.134   0.292  0.2854  0.3053  0.9607
  268TMC3    O1 4115   1.483   0.722   0.541  0.1412 -0.0221  0.1824
  268TMC3    O2 4116   1.436   1.176   0.405  0.7154  0.1316 -0.3588
  269MPD2     C 4117   1.747   4.450  15.536 -0.9613 -0.0880  0.2897
  269MPD2    C1 4118   1.617   4.482  15.576  0.5062  0.6184 -0.0258
  269MPD2    C2 4119   1.568   4.612  15.565 -0.0208  0.4086  0.2847
  269MPD2    C3 4120   1.652   4.705  15.522 -1.2252  0.4104 -0.6588
  269MPD2    C4 4121   1.776   4.674  15.482  0.3400 -0.2819  0.3527
  269MPD2    C5 4122   1.826   4.549  15.490  0.1840  0.4838 -0.0180
  269MPD2     H 4123   1.479   4.643  15.620 -0.9068 -0.4092 -0.6934
  269MPD2    H1 4124   1.846   0.011  15.439 -0.7261  0.0640 -0.8160
  269MPD2    H2 4125   1.789   4.350  15.544 -0.9623 -0.2956 -2.3379
  269MPD2    H3 4126   1.930   4.530  15.465  0.2127  0.4011  0.1652
  269MPD2     N 4127   1.599   0.105  15.521 -0.0635  0.2378  0.4616
  269MPD2    H5 4128   1.510   0.119  15.567  0.0683  1.4404  0.3635
  269MPD2    N1 4129   1.544   4.383  15.639  0.6470  0.0933 -0.8152
  269MPD2    H7 4130   1.595   4.297  15.657 -0.4535  0.2307  2.9005
  270TMC3    C1 4131   1.370   4.278  15.761 -0.0440 -0.3088  0.6781
  270TMC3    C2 4132   1.235   4.241  15.774 -0.5422  1.0824 -0.3777
  270TMC3    C3 4133   1.211   4.111  15.818  0.0221  0.0537 -0.3762
  270TMC3    C4 4134   1.464   4.203  15.825 -0.1401  0.6248 -0.3469
  270TMC3    C5 4135   1.431   4.083  15.878 -0.7168 -0.4741  0.4677
  270TMC3    C6 4136   1.306   4.032  15.877  0.5426 -0.3944  0.0168
  270TMC3     C 4137   1.411   4.391  15.684 -0.3386 -0.5619  0.3771
  270TMC3     O 4138   1.322   4.458  15.639 -0.4390 -0.0940  0.5651
  270TMC3     H 4139   1.154   4.287  15.719 -2.8074 -0.3033  1.8211
  270TMC3    H1 4140   1.563   4.241  15.843  0.7948 -0.9393 -2.2266
  270TMC3    H2 4141   1.290   3.932  15.917 -1.8325 -0.4049 -0.9432
  270TMC3    C7 4142   1.547   3.996  15.896  0.3416  0.0750 -0.0359
  270TMC3    C8 4143   1.096   4.042  15.764  0.5670 -0.2197 -0.3021
  270TMC3    O1 4144   1.647   4.013  15.827 -0.5924  0.6626  0.4472
  270TMC3    O2 4145   0.990   4.103  15.765 -0.6033  0.3559  0.0883
  271MPD2     C 4146   0.531   3.765  14.076 -0.7268 -0.2331  0.1536
  271MPD2    C1 4147   0.486   3.824  14.188 -0.4869  0.5858 -0.7009
  271MPD2    C2 4148   0.372   3.905  14.184  0.1714 -0.3094 -0.6799
  271MPD2    C3 4149   0.309   3.928  14.063  0.6703  0.5292  0.3120
  271MPD2    C4 4150   0.353   3.865  13.946 -0.2343 -0.3250  0.6645
  271MPD2    C5 4151   0.463   3.780  13.959 -0.1184  0.1059  0.2878
  271MPD2     H 4152   0.339   3.948  14.278  1.1451  1.0942 -0.9737
  271MPD2    H1 4153   0.318   3.876  13.844  0.4505 -0.4117  0.4214
  271MPD2    H2 4154   0.626   3.714  14.066 -0.0080  0.5593  3.0901
  271MPD2    H3 4155   0.510   3.735  13.872  1.4312  2.0641  0.1179
  271MPD2     N 4156   0.212   4.030  14.043  0.1369 -0.2666  0.0917
  271MPD2    H5 4157   0.184   4.056  13.949 -0.0164 -0.0606  0.1944
  271MPD2    N1 4158   0.561   3.826  14.307  0.0750 -0.7044 -0.1445
  271MPD2    H7 4159   0.522   3.870  14.390 -0.0336  0.5662 -0.8722
  272TMC3    C1 4160   0.731   3.803  14.468 -0.3981 -0.6076  0.0554
  272TMC3    C2 4161   0.869   3.797  14.492 -0.0062  0.4276  0.3153
  272TMC3    C3 4162   0.928   3.894  14.567  0.1002  0.0411 -0.0384
  272TMC3    C4 4163   0.658   3.891  14.545  0.7972  0.1286 -0.6596
  272TMC3    C5 4164   0.718   3.969  14.632  0.2342 -0.2125  0.0872
  272TMC3    C6 4165   0.849   3.976  14.643  0.3615 -0.2836 -0.1696
  272TMC3     C 4166   0.679   3.763  14.333  0.7785  0.2862  0.8008
  272TMC3     O 4167   0.749   3.695  14.260 -0.1521 -0.0706 -0.0106
  272TMC3     H 4168   0.928   3.734  14.427  1.0555  0.2724  1.4390
  272TMC3    H1 4169   0.550   3.879  14.546  0.8175 -0.1369 -1.4181
  272TMC3    H2 4170   0.904   4.054  14.695 -0.0045 -0.0021 -0.2048
  272TMC3    C7 4171   0.639   4.087  14.676  0.3426  0.1436  1.1660
  272TMC3    C8 4172   1.065   3.895  14.577  0.2448 -0.0693 -0.6992
  272TMC3    O1 4173   0.526   4.109  14.626  0.0530  0.2557 -0.0508
  272TMC3    O2 4174   1.116   4.006  14.578  0.3460  0.5350 -0.6878
  273MPD2     C 4175   2.588   2.240  10.846  0.7987 -0.0919  0.3466
  273MPD2    C1 4176   2.685   2.187  10.937 -0.1052 -0.3129 -0.6526
  273MPD2    C2 4177   2.820   2.224  10.909 -0.0696  0.0563  0.8505
  273MPD2    C3 4178   2.853   2.303  10.796 -0.0811  0.3911  0.1952
  273MPD2    C4 4179   2.752   2.340  10.713  0.3824  0.0372  0.5004
  273MPD2    C5 4180   2.622   2.313  10.735  0.5693 -0.2224  0.0854
  273MPD2     H 4181   2.904   2.199  10.974  1.0341 -1.7085 -1.2661
  273MPD2    H1 4182   2.768   2.404  10.627 -0.6428 -2.0108 -1.2025
  273MPD2    H2 4183   2.481   2.230  10.861  1.2055 -1.3445  2.3940
  273MPD2    H3 4184   2.540   2.342  10.671 -0.6946 -0.9572  1.3575
  273MPD2     N 4185   2.983   2.358  10.768  0.7547 -0.2358  0.3026
  273MPD2    H5 4186   2.978   2.404  10.678 -0.6599 -0.5124  0.2354
  273MPD2    N1 4187   2.638   2.116  11.043  0.1682  0.2180 -0.5025
  273MPD2    H7 4188   2.539   2.102  11.059  0.2242 -0.6219 -0.9046
  274TMC3    C1 4189   3.172   2.483  10.834  0.0906  0.2607  0.2302
  274TMC3    C2 4190   3.139   2.557  10.730 -0.1448 -0.4753  0.2931
  274TMC3    C3 4191   3.152   2.695  10.744  0.0184  0.1421  0.1964
  274TMC3    C4 4192   3.213   2.532  10.959  0.3093  0.0197 -0.6714
  274TMC3    C5 4193   3.215   2.667  10.972  0.4806  0.1437 -0.4718
  274TMC3    C6 4194   3.201   2.753  10.863  0.1025 -0.0046 -0.0580
  274TMC3     C 4195   3.088   2.368  10.853 -0.4364  0.1591  0.0768
  274TMC3     O 4196   3.112   2.301  10.955  0.1893  0.4246 -0.0341
  274TMC3     H 4197   3.110   2.522  10.632 -0.7717 -2.4327  1.1755
  274TMC3    H1 4198   3.237   2.467  11.043 -2.7858  0.5748  0.6265
  274TMC3    H2 4199   3.183   2.859  10.878 -0.5462 -0.3639  1.7065
  274TMC3    C7 4200   3.131   2.710  11.084 -0.1457  0.0027  0.1156
  274TMC3    C8 4201   3.068   2.782  10.663 -0.4683 -0.1747 -0.3493
  274TMC3    O1 4202   3.079   2.819  11.075  0.1167 -0.1182  0.1438
  274TMC3    O2 4203   3.016   2.870  10.727 -0.1737 -0.5813 -0.1449
  275MPD2     C 4204   2.384   4.370  14.360 -0.1317  0.1795  0.0427
  275MPD2    C1 4205   2.344   4.479  14.438 -0.5650 -0.2821  0.4488
  275MPD2    C2 4206   2.210   4.498  14.465 -0.6283 -0.2227 -0.5502
  275MPD2    C3 4207   2.108   4.424  14.409 -0.6955 -0.1870 -0.6031
  275MPD2    C4 4208   2.149   4.333  14.315  0.5625 -0.0679  0.0742
  275MPD2    C5 4209   2.283   4.299  14.298 -0.3175  0.1182 -0.1490
  275MPD2     H 4210   2.188   4.563  14.548  1.2422  1.1974 -1.1728
  275MPD2    H1 4211   2.083   4.290  14.241 -0.6971  0.9487  0.6157
  275MPD2    H2 4212   2.488   4.345  14.341 -0.2012  0.2351 -0.4185
  275MPD2    H3 4213   2.306   4.238  14.212  0.2355  2.4312 -1.6429
  275MPD2     N 4214   1.976   4.440  14.435  0.2599 -0.0473  0.9303
  275MPD2    H5 4215   1.910   4.379  14.388 -0.8124  0.4780  1.7591
  275MPD2    N1 4216   2.429   4.540  14.526 -0.0085  0.1494 -0.1466
  275MPD2    H7 4217   2.392   4.592  14.605 -1.6079  0.5368 -1.1475
  276TMC3    C1 4218   2.612   4.576  14.657  0.0240 -0.9026 -0.3693
  276TMC3    C2 4219   2.522   4.547  14.755  0.0250  0.9808 -0.1902
  276TMC3    C3 4220   2.537   4.623  14.872 -0.2908 -0.4819 -0.0522
  276TMC3    C4 4221   2.712   4.670  14.662  0.2172  0.0944 -1.1740
  276TMC3    C5 4222   2.720   0.003  14.776 -0.5859 -0.5459 -0.0336
  276TMC3    C6 4223   2.637   4.715  14.884 -0.1609 -0.1719  0.1407
  276TMC3     C 4224   2.563   4.531  14.530 -0.0954  0.5484  0.0703
  276TMC3     O 4225   2.642   4.522  14.437  0.2007 -0.4672  0.2520
  276TMC3     H 4226   2.457   4.460  14.746  0.4558  0.7659 -1.1890
  276TMC3    H1 4227   2.779   4.687  14.579 -0.9250  0.3181 -2.0475
  276TMC3    H2 4228   2.639   0.052  14.965 -0.6601 -1.2077  1.0622
  276TMC3    C7 4229   2.794   0.125  14.781 -0.3177 -1.2744 -0.0005
  276TMC3    C8 4230   2.423   4.642  14.965  1.0908 -0.0997 -0.1834
  276TMC3    O1 4231   2.740   0.210  14.849 -0.8638  0.0185 -0.5366
  276TMC3    O2 4232   2.439   4.725  15.053  0.3588 -0.1493  0.2909
  277MPD2     C 4233   3.867   4.330  12.919 -0.3753  0.3186  0.8097
  277MPD2    C1 4234   3.782   4.347  13.024 -0.2788  0.1071 -0.6160
  277MPD2    C2 4235   3.780   4.256  13.132  0.1590  0.1423  0.0329
  277MPD2    C3 4236   3.856   4.138  13.131  0.0822 -1.0230  0.7968
  277MPD2    C4 4237   3.945   4.116  13.018  0.0298 -0.2251 -0.4308
  277MPD2    C5 4238   3.951   4.211  12.921  0.7195 -0.1870  0.0207
  277MPD2     H 4239   3.731   4.272  13.227  1.5212  1.5814  0.4928
  277MPD2    H1 4240   4.019   4.037  13.012 -0.2317 -0.6787  2.0770
  277MPD2    H2 4241   3.873   4.399  12.836  1.1174 -0.2409  0.4643
  277MPD2    H3 4242   4.028   4.202  12.845  1.2760  1.5325  0.3679
  277MPD2     N 4243   3.845   4.050  13.241 -0.2590  0.6741  0.0422
  277MPD2    H5 4244   3.770   4.072  13.306 -1.5456  2.9270 -2.1887
  277MPD2    N1 4245   3.702   4.460  13.029  0.4067 -0.6072  0.0130
  277MPD2    H7 4246   3.700   4.527  12.952  1.9578 -0.5076  0.0605
  278TMC3    C1 4247   3.841   3.842  13.350  0.2469  0.8495 -0.2626
  278TMC3    C2 4248   3.799   3.722  13.294 -0.3045 -0.1863  0.1014
  278TMC3    C3 4249   3.689   3.671  13.356 -0.5759 -0.0121 -0.3065
  278TMC3    C4 4250   3.776   3.911  13.443 -0.2493  0.2162  0.1477
  278TMC3    C5 4251   3.657   3.859  13.498  0.6506 -0.0486  0.1820
  278TMC3    C6 4252   3.611   3.734  13.453  0.3416 -0.4469 -0.3134
  278TMC3     C 4253   3.904   3.925  13.251 -0.6599 -0.3978 -0.6529
  278TMC3     O 4254   3.998   3.878  13.188  0.0058  0.0211  0.2270
  278TMC3     H 4255   3.863   3.665  13.228 -2.6582  0.0457 -2.3643
  278TMC3    H1 4256   3.805   4.014  13.465  1.4465 -0.7488  2.4011
  278TMC3    H2 4257   3.531   3.687  13.508  1.3803 -2.6918 -0.6881
  278TMC3    C7 4258   3.579   3.963  13.565  0.0527  0.0227  0.3152
  278TMC3    C8 4259   3.665   3.531  13.349  0.0703 -0.0990 -1.4481
  278TMC3    O1 4260   3.638   4.041  13.638 -0.0056 -0.1282 -0.4060
  278TMC3    O2 4261   3.602   3.474  13.436  0.0051  0.1874 -1.2297
  279MPD2     C 4262   2.930   3.795   0.208 -0.4473 -0.2960  0.1733
  279MPD2    C1 4263   2.831   3.894   0.229 -0.1764 -0.5880 -0.1023
  279MPD2    C2 4264   2.806   3.984   0.127  0.5777 -0.2727 -0.0479
  279MPD2    C3 4265   2.876   3.978   0.007  0.4720  0.1392  0.2192
  279MPD2    C4 4266   2.976   3.883  17.723  0.0551  0.3477 -0.0433
  279MPD2    C5 4267   3.003   3.798   0.085  0.4677 -0.5147 -0.0294
  279MPD2     H 4268   2.732   4.062   0.135  1.2659  0.2617  1.1859
  279MPD2    H1 4269   3.039   3.868  17.636 -1.9628 -0.9624 -1.2770
  279MPD2    H2 4270   2.947   3.721   0.284 -3.0077 -0.9578  0.0899
  279MPD2    H3 4271   3.079   3.720   0.082 -1.4546 -2.3391 -1.1265
  279MPD2     N 4272   2.832   4.054  17.627 -0.3644 -0.4673  0.1112
  279MPD2    H5 4273   2.867   4.033  17.534 -3.1724 -0.8432 -0.8659
  279MPD2    N1 4274   2.748   3.885   0.349  0.2008  0.4180 -0.6437
  279MPD2    H7 4275   2.763   3.809   0.414 -0.6067 -0.6602 -1.7060
  280TMC3    C1 4276   2.588   3.934   0.504 -0.3283  0.5392 -0.0633
  280TMC3    C2 4277   2.601   3.813   0.562  0.0520 -0.4226  0.1790
  280TMC3    C3 4278   2.526   3.784   0.672 -0.2321 -0.4230 -0.4693
  280TMC3    C4 4279   2.489   4.026   0.551  0.1672  0.2026  0.1731
  280TMC3    C5 4280   2.426   3.997   0.666 -0.1793 -0.4752  0.0904
  280TMC3    C6 4281   2.440   3.878   0.729  0.0891  0.2791  0.1983
  280TMC3     C 4282   2.662   3.977   0.390  0.0010  0.1908 -0.6405
  280TMC3     O 4283   2.630   4.088   0.342  0.1584 -0.1283  0.8440
  280TMC3     H 4284   2.671   3.742   0.519  2.1909  0.9227  1.4733
  280TMC3    H1 4285   2.482   4.123   0.502  2.6200  0.5803  0.5709
  280TMC3    H2 4286   2.382   3.863   0.820 -0.1146  2.9837  0.5366
  280TMC3    C7 4287   2.346   4.099   0.726 -0.3894  0.7691  0.6232
  280TMC3    C8 4288   2.506   3.642   0.705 -0.4038  0.1559  0.2470
  280TMC3    O1 4289   2.371   4.122   0.841 -0.4621 -0.1009  0.2951
  280TMC3    O2 4290   2.403   3.605   0.763  0.2924  0.4260 -0.1224
  281TMC3    C1 4291   1.670   0.155  13.952 -0.1683 -0.6715  0.6915
  281TMC3    C2 4292   1.726   0.147  13.829  0.2662  0.5361  0.6182
  281TMC3    C3 4293   1.690   0.044  13.755  0.6917 -0.0213 -0.4171
  281TMC3    C4 4294   1.571   0.075  14.001  0.3439 -0.2018  0.3047
  281TMC3    C5 4295   1.534   4.708  13.918  0.4932 -0.1713  0.3147
  281TMC3    C6 4296   1.589   4.697  13.791  0.0573  0.4253 -0.0527
  281TMC3     C 4297   1.747   0.209  14.064  0.4644  0.4672  0.5232
  281TMC3     O 4298   1.684   0.217  14.173 -0.0165 -0.3499 -0.7248
  281TMC3     H 4299   1.785   0.228  13.788  0.7592  0.1300  0.5219
  281TMC3    H1 4300   1.535   0.075  14.103 -2.9659 -1.0957 -0.8493
  281TMC3    H2 4301   1.545   4.638  13.712  0.6640  1.3313 -1.0669
  281TMC3    C7 4302   1.437   4.607  13.961 -0.0558 -0.0341  0.4877
  281TMC3    C8 4303   1.726   0.045  13.616 -0.8366  0.0877  0.7812
  281TMC3    O1 4304   1.372   4.628  14.064  0.4315  0.2941  0.4350
  281TMC3    O2 4305   1.636   0.020  13.540 -0.3532  0.0698  0.0891
  282MPD2     C 4306   3.748   0.748  14.751  0.3802  0.4368 -0.5423
  282MPD2    C1 4307   3.615   0.713  14.765 -0.0635  0.4288  0.1821
  282MPD2    C2 4308   3.560   0.629  14.671  0.5689 -0.4377  0.4570
  282MPD2    C3 4309   3.633   0.584  14.561 -0.4577  1.3996 -0.2663
  282MPD2    C4 4310   3.767   0.622  14.549 -0.0875 -0.0163  0.0276
  282MPD2    C5 4311   3.818   0.704  14.640  0.2355  0.2821 -0.2111
  282MPD2     H 4312   3.460   0.591  14.681 -0.4087  2.0468  0.0967
  282MPD2    H1 4313   3.828   0.606  14.460 -1.6661  0.8233 -1.2121
  282MPD2    H2 4314   3.799   0.814  14.820  1.3280 -1.5363  0.6506
  282MPD2    H3 4315   3.919   0.734  14.616  0.6761  0.8653  2.3214
  282MPD2     N 4316   3.576   0.487  14.467 -0.4777 -0.6332  0.2392
  282MPD2    H5 4317   3.478   0.461  14.476 -0.0125 -2.2018  0.8381
  282MPD2    N1 4318   3.541   0.736  14.886  0.1821 -0.0754 -0.3815
  282MPD2    H7 4319   3.441   0.722  14.876  0.0838  0.8326 -0.7180
  283TMC3    C1 4320   3.509   0.790  15.119  0.2831 -0.4987  0.0409
  283TMC3    C2 4321   3.559   0.859  15.222  0.4991  0.1919  0.2622
  283TMC3    C3 4322   3.511   0.832  15.351 -0.3120  0.0376 -0.0980
  283TMC3    C4 4323   3.422   0.681  15.133 -0.0240 -0.0487  0.2010
  283TMC3    C5 4324   3.395   0.650  15.259 -0.4596  0.3025  0.2989
  283TMC3    C6 4325   3.426   0.729  15.374 -0.1360  0.5147 -0.4618
  283TMC3     C 4326   3.588   0.796  14.999  0.6179 -0.2432 -0.2553
  283TMC3     O 4327   3.703   0.833  15.021 -0.4165 -0.7560 -0.6668
  283TMC3     H 4328   3.644   0.923  15.202 -0.1891  0.4430 -1.8727
  283TMC3    H1 4329   3.390   0.620  15.049 -2.1161 -0.5223  1.3538
  283TMC3    H2 4330   3.398   0.696  15.473 -0.6345  0.2622 -0.6870
  283TMC3    C7 4331   3.270   0.573  15.270 -0.0289 -0.2223  0.0233
  283TMC3    C8 4332   3.559   0.913  15.464 -0.5922 -0.4896  0.6970
  283TMC3    O1 4333   3.194   0.607  15.357  0.1383  0.1332  0.2631
  283TMC3    O2 4334   3.583   0.859  15.569  0.9787 -0.6307 -0.2523
  284MPD2     C 4335   2.281   4.694  12.289  0.4893  0.2168 -0.2247
  284MPD2    C1 4336   2.392   4.685  12.202  0.3401 -0.3919 -0.2537
  284MPD2    C2 4337   2.505   4.621  12.238 -0.1636 -0.4981  0.0192
  284MPD2    C3 4338   2.509   4.558  12.362  0.2684  0.4910  0.0404
  284MPD2    C4 4339   2.401   4.558  12.445  0.5898  0.3570 -0.0869
  284MPD2    C5 4340   2.289   4.631  12.408  0.4741  0.1263  0.4994
  284MPD2     H 4341   2.588   4.602  12.170 -0.4014 -2.2395  0.2146
  284MPD2    H1 4342   2.394   4.501  12.537 -1.8646  0.6995 -0.0427
  284MPD2    H2 4343   2.198   0.027  12.267 -0.6598 -0.7228  1.1910
  284MPD2    H3 4344   2.203   4.640  12.473  0.5232  1.7273  0.3456
  284MPD2     N 4345   2.623   4.483  12.410  0.0190  0.1374  0.0214
  284MPD2    H5 4346   2.621   4.410  12.480 -2.9632  0.8676  0.6674
  284MPD2    N1 4347   2.375   4.723  12.069 -0.2689 -0.4703 -0.5314
  284MPD2    H7 4348   2.439   4.679  12.004 -1.2749 -1.4557 -0.8591
  285TMC3    C1 4349   2.262   0.103  11.881 -0.1986  0.0300 -0.3562
  285TMC3    C2 4350   2.288   4.728  11.796  1.0376 -0.6522 -0.1466
  285TMC3    C3 4351   2.269   0.004  11.661  0.1121  0.4543 -0.3562
  285TMC3    C4 4352   2.201   0.212  11.828 -0.4951  0.3515 -0.3157
  285TMC3    C5 4353   2.178   0.215  11.691  0.8832  0.1097 -0.2936
  285TMC3    C6 4354   2.208   0.114  11.604  0.1643 -0.1239 -0.2103
  285TMC3     C 4355   2.277   0.080  12.024  0.1677  0.1545 -0.5553
  285TMC3     O 4356   2.210   0.154  12.090 -0.1101  0.4389 -0.3878
  285TMC3     H 4357   2.341   4.644  11.839  0.2577 -1.9988 -1.8014
  285TMC3    H1 4358   2.171   0.288  11.899  0.5633  0.5298 -0.0562
  285TMC3    H2 4359   2.197   0.118  11.497  0.0176 -1.1944 -0.2322
  285TMC3    C7 4360   2.115   0.336  11.645 -0.2354 -0.0303 -0.0810
  285TMC3    C8 4361   2.292   4.619  11.578  0.0753 -0.3972 -0.0537
  285TMC3    O1 4362   2.125   0.444  11.707 -0.2587  0.6451  0.6304
  285TMC3    O2 4363   2.246   4.618  11.461  0.0391  0.6440 -0.2274
  286MPD2     C 4364   2.166   3.844   1.418 -0.8772 -0.5701  0.6284
  286MPD2    C1 4365   2.087   3.738   1.386 -0.1223 -0.2985 -0.0403
  286MPD2    C2 4366   2.129   3.607   1.412  1.0886 -0.2889 -0.2164
  286MPD2    C3 4367   2.244   3.592   1.483  0.0099  0.5844 -0.0559
  286MPD2    C4 4368   2.318   3.701   1.522  0.3741 -0.6980 -0.1721
  286MPD2    C5 4369   2.281   3.829   1.498  0.4636  0.6726  0.2168
  286MPD2     H 4370   2.066   3.522   1.387  0.0697  0.0873  1.0621
  286MPD2    H1 4371   2.408   3.686   1.580  0.3784  1.0309  0.2684
  286MPD2    H2 4372   2.135   3.945   1.392 -1.1387 -0.7067  0.4130
  286MPD2    H3 4373   2.347   3.912   1.520  1.0141  0.6080 -1.1755
  286MPD2     N 4374   2.302   3.464   1.505  0.0220 -0.3014 -0.3190
  286MPD2    H5 4375   2.389   3.467   1.558 -0.9777 -0.2619  1.2910
  286MPD2    N1 4376   1.964   3.764   1.320 -0.1151 -0.1110  0.3251
  286MPD2    H7 4377   1.899   3.686   1.317  0.4493 -0.6151  1.3942
  287TMC3    C1 4378   2.343   3.228   1.491 -0.1051 -0.2487  0.4922
  287TMC3    C2 4379   2.398   3.158   1.386 -0.0063 -0.1687 -0.5357
  287TMC3    C3 4380   2.487   3.060   1.419  0.1518  0.5589  0.2336
  287TMC3    C4 4381   2.400   3.232   1.614  0.0715  0.1158 -0.6408
  287TMC3    C5 4382   2.485   3.129   1.640  0.4283 -0.4306  0.3710
  287TMC3    C6 4383   2.531   3.037   1.546  0.1589 -0.6877 -0.2219
  287TMC3     C 4384   2.263   3.343   1.457  0.3961 -0.1486 -1.0688
  287TMC3     O 4385   2.169   3.315   1.379 -0.0743 -0.8106 -0.2138
  287TMC3     H 4386   2.354   3.159   1.287 -0.8354  2.4563 -0.1626
  287TMC3    H1 4387   2.382   3.299   1.697  0.4367 -0.2855 -0.2369
  287TMC3    H2 4388   2.581   2.947   1.578 -1.5990 -1.2055  1.0911
  287TMC3    C7 4389   2.575   3.156   1.749 -0.4677  0.3876 -0.3520
  287TMC3    C8 4390   2.542   2.977   1.321 -0.2877  0.0145 -0.7333
  287TMC3    O1 4391   2.536   3.215   1.850 -0.1266  0.0002  0.7811
  287TMC3    O2 4392   2.560   2.856   1.336  0.1686  0.1802  0.0351
  288TMC3    C1 4393   4.223   3.563  14.458 -0.2639 -1.3136 -0.4778
  288TMC3    C2 4394   4.117   3.534  14.541  0.2975 -0.2132 -0.1573
  288TMC3    C3 4395   4.002   3.612  14.536  0.4511 -0.1775 -0.3447
  288TMC3    C4 4396   4.215   3.665  14.370 -0.7969  0.6134  0.7771
  288TMC3    C5 4397   4.100   3.744  14.368 -0.0871  0.7959 -0.2007
  288TMC3    C6 4398   3.992   3.719  14.445 -0.7165  0.4810 -0.1227
  288TMC3     C 4399   4.360   3.519  14.488 -0.2770 -0.3556 -0.3158
  288TMC3     O 4400   4.446   3.602  14.457 -0.5874 -0.5081 -0.2970
  288TMC3     H 4401   4.130   3.457  14.617  1.4124  0.3296  0.2037
  288TMC3    H1 4402   4.297   3.689  14.305  0.0425  0.1890  1.6717
  288TMC3    H2 4403   3.906   3.785  14.450 -1.6449 -0.8666  1.5432
  288TMC3    C7 4404   4.051   3.819  14.253 -0.1146 -0.5542 -0.4354
  288TMC3    C8 4405   3.903   3.626  14.638  0.0419  0.0653  0.5724
  288TMC3    O1 4406   3.939   3.869  14.253 -0.1664 -0.1712  0.0066
  288TMC3    O2 4407   3.833   3.727  14.642  0.4850  0.1484 -0.2654
  289MPD2     C 4408   4.057   2.490  14.671  0.1708 -0.1279 -0.4038
  289MPD2    C1 4409   4.076   2.551  14.552 -0.2402 -0.1438  0.7140
  289MPD2    C2 4410   3.997   2.509  14.442 -0.3799 -0.3670  0.6008
  289MPD2    C3 4411   3.900   2.418  14.466  0.5620  0.2071  0.0361
  289MPD2    C4 4412   3.894   2.350  14.582  0.0543  0.1176 -0.3390
  289MPD2    C5 4413   3.980   2.380  14.680  0.3690  0.7656  0.1173
  289MPD2     H 4414   4.010   2.547  14.341 -1.5679 -0.3376  0.4581
  289MPD2    H1 4415   3.820   2.275  14.604 -1.3681  1.1239 -1.7169
  289MPD2    H2 4416   4.105   2.524  14.761  1.7518 -2.9207 -0.1961
  289MPD2    H3 4417   3.970   2.334  14.778 -0.5893  0.7850  0.0214
  289MPD2     N 4418   3.794   2.404  14.371  0.1054  0.5100 -0.0739
  289MPD2    H5 4419   3.725   2.332  14.392  0.0705  0.3851 -0.6128
  289MPD2    N1 4420   4.183   2.640  14.550  0.1845 -0.2776  0.1228
  289MPD2    H7 4421   4.237   2.656  14.634 -1.0577  1.3123  0.6215
  290TMC3    C1 4422   3.641   2.462  14.193  0.2931  0.4187  0.3942
  290TMC3    C2 4423   3.581   2.575  14.147 -0.3938  0.1422 -0.1256
  290TMC3    C3 4424   3.459   2.561  14.086 -0.3014 -0.0598  0.0522
  290TMC3    C4 4425   3.566   2.346  14.199 -0.3498  0.2379 -0.3544
  290TMC3    C5 4426   3.446   2.334  14.125  0.5429 -0.0218  1.1420
  290TMC3    C6 4427   3.391   2.446  14.073  0.4079  0.0259 -0.1747
  290TMC3     C 4428   3.765   2.490  14.265  0.1852 -0.5477 -0.1333
  290TMC3     O 4429   3.817   2.598  14.245 -0.0972  0.9721  0.1873
  290TMC3     H 4430   3.632   2.670  14.143 -0.1760  0.0805  1.1578
  290TMC3    H1 4431   3.605   2.259  14.249 -2.7051 -0.1476  0.8215
  290TMC3    H2 4432   3.305   2.448  14.007  1.5382  1.3334 -1.6202
  290TMC3    C7 4433   3.360   2.218  14.129 -0.3553  0.0606 -0.5385
  290TMC3    C8 4434   3.402   2.678  14.023 -0.3806  0.9393 -0.8220
  290TMC3    O1 4435   3.241   2.245  14.107  0.5664 -0.4692  0.1761
  290TMC3    O2 4436   3.340   2.659  13.918  0.0800 -0.4085 -0.0036
  291MPD2     C 4437   2.768   3.005   0.228  0.4829 -0.1093  0.5113
  291MPD2    C1 4438   2.903   2.974   0.230 -0.3999 -0.5025  0.1217
  291MPD2    C2 4439   2.987   3.085   0.198 -0.4106 -0.7212 -0.8152
  291MPD2    C3 4440   2.937   3.209   0.156 -0.6128 -0.2472 -0.4225
  291MPD2    C4 4441   2.800   3.230   0.162  0.8996 -0.3208  0.4103
  291MPD2    C5 4442   2.711   3.126   0.191  0.3760 -0.2661  0.0513
  291MPD2     H 4443   3.091   3.056   0.193 -0.7034 -1.7809 -0.6311
  291MPD2    H1 4444   2.766   3.328   0.130 -0.2006 -1.6471 -2.4892
  291MPD2    H2 4445   2.695   2.926   0.241 -1.2656  1.3612 -0.3033
  291MPD2    H3 4446   2.605   3.146   0.191  0.7734  1.8148  0.4424
  291MPD2     N 4447   3.024   3.309   0.093 -0.0075 -0.7607  0.4566
  291MPD2    H5 4448   2.976   3.382   0.041  2.1359  1.7223  1.9651
  291MPD2    N1 4449   2.952   2.841   0.265  0.0291 -0.3797 -0.1528
  291MPD2    H7 4450   3.052   2.826   0.274  0.2454  0.8490 -0.5624
  292TMC3    C1 4451   2.973   2.616   0.321  0.0126 -0.5914 -0.5332
  292TMC3    C2 4452   3.075   2.646   0.406 -0.6116  0.2504  0.2005
  292TMC3    C3 4453   3.127   2.536   0.471 -0.7056  0.1032  0.8478
  292TMC3    C4 4454   2.934   2.494   0.287  0.4240 -0.5031  0.2685
  292TMC3    C5 4455   2.991   2.389   0.350 -0.2059  0.4992 -0.5069
  292TMC3    C6 4456   3.089   2.406   0.445 -0.4415  0.0149 -0.0900
  292TMC3     C 4457   2.884   2.725   0.281 -0.0031 -0.2866 -0.2556
  292TMC3     O 4458   2.765   2.699   0.269 -0.3274  0.4894  0.1879
  292TMC3     H 4459   3.116   2.742   0.433  0.5190 -0.3342  0.5692
  292TMC3    H1 4460   2.856   2.483   0.212 -0.6925  2.0491  1.0552
  292TMC3    H2 4461   3.134   2.325   0.502  0.0307  0.5624  0.3107
  292TMC3    C7 4462   2.939   2.255   0.313  0.1899 -0.7815  0.0700
  292TMC3    C8 4463   3.215   2.563   0.588 -0.1373  0.3148  0.0688
  292TMC3    O1 4464   2.868   2.251   0.212 -0.2599  0.0551 -0.3034
  292TMC3    O2 4465   3.281   2.670   0.593  0.9699  0.1627 -0.6477
  293MPD2     C 4466   0.602   3.814  12.574  0.6548 -0.5501  0.1464
  293MPD2    C1 4467   0.513   3.715  12.598  0.1260  0.0048  0.6991
  293MPD2    C2 4468   0.507   3.653  12.721 -0.3129  0.3499  0.1705
  293MPD2    C3 4469   0.599   3.674  12.821  0.4204  0.1720  0.0874
  293MPD2    C4 4470   0.690   3.778  12.798 -0.7094 -0.5484 -1.2342
  293MPD2    C5 4471   0.691   3.844  12.679 -0.1076 -0.4753  0.2736
  293MPD2     H 4472   0.429   3.580  12.740 -1.5567  1.9492  1.1840
  293MPD2    H1 4473   0.771   3.804  12.865 -2.4669 -0.3893  0.8215
  293MPD2    H2 4474   0.595   3.872  12.483  1.7498 -0.8646 -0.1384
  293MPD2    H3 4475   0.767   3.921  12.668 -1.4627  0.4249 -2.8112
  293MPD2     N 4476   0.596   3.600  12.939  0.2759 -0.0674  0.6150
  293MPD2    H5 4477   0.535   3.519  12.936 -0.0216  0.1823 -0.3987
  293MPD2    N1 4478   0.420   3.694  12.492 -0.2713  0.0354 -0.2057
  293MPD2    H7 4479   0.443   3.747  12.408  0.4196  0.7086  0.4057
  294TMC3    C1 4480   0.236   3.616  12.366  0.6473 -0.4351 -0.5019
  294TMC3    C2 4481   0.108   3.564  12.375 -0.1725  0.2698  0.1299
  294TMC3    C3 4482   0.007   3.615  12.296 -0.0884 -0.6156 -1.1558
  294TMC3    C4 4483   0.269   3.717  12.277 -0.2327  0.1467  0.0345
  294TMC3    C5 4484   0.162   3.767  12.206  0.9315 -0.4003 -0.2414
  294TMC3    C6 4485   0.036   3.716  12.220  0.6458 -0.0991 -0.0079
  294TMC3     C 4486   0.309   3.608  12.491  0.2199 -0.3239  0.2572
  294TMC3     O 4487   0.277   3.527  12.571 -0.2832  0.6060 -0.1517
  294TMC3     H 4488   0.079   3.499  12.457 -1.2109  2.5123  1.5485
  294TMC3    H1 4489   0.365   3.766  12.269 -1.2016  1.8874 -1.0225
  294TMC3    H2 4490   4.688   3.750  12.158  0.3085 -1.6641 -0.4333
  294TMC3    C7 4491   0.190   3.847  12.089  0.1044  0.2474  0.1276
  294TMC3    C8 4492   4.609   3.541  12.276 -0.9563 -0.5343 -0.4288
  294TMC3    O1 4493   0.089   3.876  12.032  0.0966  0.1511  0.1969
  294TMC3    O2 4494   4.506   3.601  12.246 -0.2759  0.0466 -1.1781
  295MPD2     C 4495   2.075   2.668   0.812  0.8229  0.2263  0.8039
  295MPD2    C1 4496   1.967   2.602   0.761 -0.6708  0.4272 -0.1678
  295MPD2    C2 4497   1.901   2.508   0.842  0.4017  1.0755 -0.2782
  295MPD2    C3 4498   1.951   2.494   0.977  0.2790 -0.1909  0.3796
  295MPD2    C4 4499   2.058   2.575   1.023  0.1895 -0.3511 -0.0035
  295MPD2    C5 4500   2.123   2.660   0.941 -0.1646 -0.1580 -0.3345
  295MPD2     H 4501   1.813   2.460   0.802  1.9606 -1.3736 -0.7855
  295MPD2    H1 4502   2.098   2.564   1.123  2.0600 -0.2214 -0.7436
  295MPD2    H2 4503   2.129   2.730   0.741  3.0363 -1.0434  1.3956
  295MPD2    H3 4504   2.205   2.719   0.981  0.1170 -0.9702  0.2983
  295MPD2     N 4505   1.880   2.423   1.076  0.2967 -0.2821 -0.8341
  295MPD2    H5 4506   1.905   2.443   1.172 -1.3742  0.6074 -0.5883
  295MPD2    N1 4507   1.918   2.633   0.629  0.1482  0.3069  0.9600
  295MPD2    H7 4508   1.842   2.575   0.594  0.4881  1.9022 -2.4650
  296TMC3    C1 4509   1.712   2.294   1.152  0.0537 -0.9779 -0.0200
  296TMC3    C2 4510   1.661   2.398   1.225  0.3423 -0.0398 -0.5148
  296TMC3    C3 4511   1.556   2.366   1.306  0.0613  0.0199  0.6268
  296TMC3    C4 4512   1.666   2.166   1.155 -0.0682  0.1210  0.7606
  296TMC3    C5 4513   1.558   2.140   1.238  0.0720  0.7938  0.1112
  296TMC3    C6 4514   1.503   2.237   1.317  0.1058 -0.0110  0.1932
  296TMC3     C 4515   1.793   2.326   1.038  0.0843 -0.1135  0.3168
  296TMC3     O 4516   1.765   2.274   0.928 -0.5346 -0.1872  0.3815
  296TMC3     H 4517   1.688   2.502   1.211 -1.8594  0.5849 -0.1353
  296TMC3    H1 4518   1.703   2.096   1.082  1.9743  1.0295  0.9335
  296TMC3    H2 4519   1.432   2.214   1.395 -2.2299  0.2491 -1.8661
  296TMC3    C7 4520   1.495   2.003   1.225  0.2080  0.7543 -0.4779
  296TMC3    C8 4521   1.494   2.474   1.382 -0.2700 -0.2092  0.1387
  296TMC3    O1 4522   1.569   1.920   1.181 -0.5705  0.1849  0.0976
  296TMC3    O2 4523   1.567   2.563   1.422 -0.0674 -0.3696 -0.1420
  297MPD2     C 4524   2.238   4.276  16.306  0.4618  0.0179 -0.0644
  297MPD2    C1 4525   2.250   4.413  16.336  0.3481  0.2192  0.4608
  297MPD2    C2 4526   2.364   4.480  16.304 -0.1139 -0.1347 -0.1531
  297MPD2    C3 4527   2.466   4.429  16.235 -0.3963  0.2784 -0.1386
  297MPD2    C4 4528   2.459   4.292  16.205 -0.1421 -0.4015 -0.1740
  297MPD2    C5 4529   2.348   4.215  16.245 -0.9181  0.0139  0.0569
  297MPD2     H 4530   2.364   4.589  16.311 -0.2198 -0.2495  1.6326
  297MPD2    H1 4531   2.543   4.250  16.150  0.5419 -0.5102  0.9502
  297MPD2    H2 4532   2.159   4.208  16.335  0.8523 -0.5980 -0.4312
  297MPD2    H3 4533   2.355   4.109  16.225  0.5959 -0.1651  1.4732
  297MPD2     N 4534   2.570   4.516  16.203 -0.3866  0.1196 -0.2263
  297MPD2    H5 4535   2.575   4.597  16.264  3.7003  0.2363 -0.7519
  297MPD2    N1 4536   2.139   4.494  16.372  0.1639  0.0175  0.2979
  297MPD2    H7 4537   2.138   4.593  16.352  1.1707 -0.0211  0.1024
  298TMC3    C1 4538   1.935   4.557  16.358  0.7443  0.1460  0.1507
  298TMC3    C2 4539   1.955   4.609  16.231 -0.0929  0.0521 -0.1757
  298TMC3    C3 4540   1.876   4.713  16.201  0.1694 -0.6434  0.3645
  298TMC3    C4 4541   1.846   4.599  16.446  0.2719  0.1733 -0.1980
  298TMC3    C5 4542   1.774   4.710  16.410  0.1654  0.3306  0.1575
  298TMC3    C6 4543   1.782   0.029  16.289 -0.5833 -0.2652 -0.1684
  298TMC3     C 4544   2.018   4.448  16.395 -0.7626 -0.2980 -0.1192
  298TMC3     O 4545   1.971   4.344  16.438 -0.4294 -0.1518 -0.5215
  298TMC3     H 4546   2.028   4.564  16.165  0.2353  0.3735 -0.0304
  298TMC3    H1 4547   1.833   4.548  16.541  2.5902 -3.3413 -1.7983
  298TMC3    H2 4548   1.729   0.120  16.262  0.7814  1.0950  1.6357
  298TMC3    C7 4549   1.692   0.036  16.510  0.3069 -0.0269  0.3946
  298TMC3    C8 4550   1.892   0.047  16.077 -0.5634  0.1750 -0.6744
  298TMC3    O1 4551   1.716   0.009  16.628 -0.2427 -0.3147 -0.4585
  298TMC3    O2 4552   1.823   0.146  16.059 -0.0637 -0.2568 -0.0221
  299MPD2     C 4553   4.072   3.998  10.509 -0.2464 -0.0209 -0.1070
  299MPD2    C1 4554   4.052   4.133  10.533 -0.0295 -0.4530 -0.5176
  299MPD2    C2 4555   3.941   4.198  10.481 -0.3956 -0.4467  0.8136
  299MPD2    C3 4556   3.845   4.128  10.414  0.5515  1.2214  0.6375
  299MPD2    C4 4557   3.880   3.996  10.391 -0.4190  0.5874  0.4730
  299MPD2    C5 4558   3.984   3.927  10.445  0.4021 -0.0770  0.8384
  299MPD2     H 4559   3.930   4.305  10.500  2.4271 -0.5242  2.8015
  299MPD2    H1 4560   3.800   3.941  10.344 -0.1138 -1.3084  2.1811
  299MPD2    H2 4561   4.160   3.948  10.549 -0.4260  0.9021  1.4323
  299MPD2    H3 4562   3.996   3.821  10.426 -0.2910 -0.5866  3.2135
  299MPD2     N 4563   3.718   4.174  10.366  0.0619  0.6375 -0.1324
  299MPD2    H5 4564   3.664   4.102  10.320 -0.4732 -0.1147  1.6503
  299MPD2    N1 4565   4.146   4.188  10.619 -1.3235 -0.2778  0.1881
  299MPD2    H7 4566   4.196   4.114  10.668  0.2100  0.1894 -0.6648
  300TMC3    C1 4567   3.535   4.328  10.366  0.0423 -0.5046  0.5178
  300TMC3    C2 4568   3.494   4.459  10.372  1.1448  0.1236  0.1207
  300TMC3    C3 4569   3.365   4.495  10.370  0.4144 -0.7016 -0.3593
  300TMC3    C4 4570   3.444   4.225  10.370 -0.0893  0.7867 -0.0104
  300TMC3    C5 4571   3.311   4.266  10.401  1.0310 -0.1647 -0.4185
  300TMC3    C6 4572   3.273   4.401  10.393  0.2304 -0.5878 -0.1793
  300TMC3     C 4573   3.674   4.301  10.391 -0.1246  0.1873 -0.5681
  300TMC3     O 4574   3.733   4.398  10.438  0.2006 -0.4348 -0.0559
  300TMC3     H 4575   3.565   4.541  10.381 -0.6303  1.3734  2.8379
  300TMC3    H1 4576   3.474   4.120  10.372  2.1796  1.4159 -1.1206
  300TMC3    H2 4577   3.174   4.422  10.431  0.1935 -0.6033 -0.2669
  300TMC3    C7 4578   3.221   4.155  10.418  1.0617  0.3713  0.0105
  300TMC3    C8 4579   3.347   4.624  10.437  0.5685  0.3403 -0.6367
  300TMC3    O1 4580   3.259   4.043  10.383 -0.2915  0.3181  0.0329
  300TMC3    O2 4581   3.440   4.661  10.507  0.1231 -0.0325 -0.7149
  301MPD2     C 4582   0.728   0.763   1.091  0.3162 -0.3795  0.2712
  301MPD2    C1 4583   0.621   0.753   1.001 -1.4999 -0.1077 -0.5044
  301MPD2    C2 4584   0.555   0.631   1.013  1.0072 -0.5059  0.8052
  301MPD2    C3 4585   0.589   0.524   1.102  0.4726  0.3848 -0.2500
  301MPD2    C4 4586   0.704   0.535   1.174  0.4018  0.6517  0.3758
  301MPD2    C5 4587   0.770   0.657   1.164  0.0288 -0.4159  0.5830
  301MPD2     H 4588   0.468   0.610   0.951 -0.0192  1.2536  1.6630
  301MPD2    H1 4589   0.747   0.457   1.237  3.3665  1.8183 -0.1855
  301MPD2    H2 4590   0.779   0.858   1.105 -0.5591 -0.1509  1.8638
  301MPD2    H3 4591   0.869   0.676   1.203  1.8959 -0.4736 -4.0262
  301MPD2     N 4592   0.520   0.401   1.107 -0.1478 -0.1971  0.2044
  301MPD2    H5 4593   0.561   0.333   1.170  0.3397 -0.4221 -0.3560
  301MPD2    N1 4594   0.560   0.852   0.920  0.1675 -0.2687 -0.3450
  301MPD2    H7 4595   0.470   0.831   0.877 -0.9930  1.6754  1.1500
  302TMC3    C1 4596   0.352   0.245   1.038 -0.1145  1.2741  0.1442
  302TMC3    C2 4597   0.409   0.143   1.105  0.1962  0.1749 -0.8432
  302TMC3    C3 4598   0.372   0.012   1.076  1.1731  0.7827 -0.4928
  302TMC3    C4 4599   0.264   0.222   0.935  0.1259  0.6494 -0.0857
  302TMC3    C5 4600   0.242   0.086   0.901  0.1016 -0.1957  0.0838
  302TMC3    C6 4601   0.290   4.719   0.973 -0.0048  0.1841  0.3475
  302TMC3     C 4602   0.393   0.379   1.054 -0.6103  0.3641  0.5085
  302TMC3     O 4603   0.321   0.461   1.011 -0.3133  0.3914  0.5814
  302TMC3     H 4604   0.463   0.158   1.197 -0.0401 -0.3441 -0.6165
  302TMC3    H1 4605   0.230   0.308   0.880 -0.5368  0.5393  0.1457
  302TMC3    H2 4606   0.288   4.616   0.939 -0.1052 -0.1270  1.2868
  302TMC3    C7 4607   0.148   0.052   0.794  0.0938 -0.2318  0.0184
  302TMC3    C8 4608   0.437   4.638   1.160  0.2239  0.1730 -0.6830
  302TMC3    O1 4609   0.154   4.673   0.747  0.2178  0.0034  0.1783
  302TMC3    O2 4610   0.539   4.673   1.216  0.2641 -0.2516 -0.3936
  303MPD2     C 4611   0.834   4.060  10.210  0.0800  0.0290  0.8416
  303MPD2    C1 4612   0.757   3.973  10.148  0.1975 -0.6333 -0.1319
  303MPD2    C2 4613   0.734   3.985  10.014 -0.5587  0.3300  0.2821
  303MPD2    C3 4614   0.787   4.093   9.952  0.0729  0.2815 -0.8331
  303MPD2    C4 4615   0.861   4.190  10.015 -0.4861 -1.3477 -0.2302
  303MPD2    C5 4616   0.888   4.173  10.147 -0.4588 -0.4101  0.0872
  303MPD2     H 4617   0.672   3.917   9.956 -1.3850  0.0307  1.5222
  303MPD2    H1 4618   0.907   4.273   9.961 -0.1696  0.0672  2.2278
  303MPD2    H2 4619   0.858   4.060  10.315  0.1432  0.0344  0.8270
  303MPD2    H3 4620   0.956   4.242  10.196 -0.7723  1.2834 -1.8374
  303MPD2     N 4621   0.756   4.125   9.815 -0.0273  0.0612  0.0667
  303MPD2    H5 4622   0.812   4.200   9.777 -0.7359 -1.1954 -3.4669
  303MPD2    N1 4623   0.712   3.868  10.225  0.3439 -0.1236 -0.0235
  303MPD2    H7 4624   0.738   3.860  10.323 -3.4251 -1.1080  0.8620
  304TMC3    C1 4625   0.585   3.681  10.276  0.6013  0.1919  0.5506
  304TMC3    C2 4626   0.480   3.600  10.247 -0.0912 -0.2805 -0.2495
  304TMC3    C3 4627   0.478   3.467  10.272 -0.3313 -0.0207  0.7441
  304TMC3    C4 4628   0.704   3.623  10.327 -0.2992 -0.9163  0.6780
  304TMC3    C5 4629   0.699   3.492  10.340  0.7589  0.5147  0.3807
  304TMC3    C6 4630   0.589   3.411  10.327 -0.5619 -0.4342  0.0988
  304TMC3     C 4631   0.610   3.787  10.186 -0.6309  0.2363 -0.0329
  304TMC3     O 4632   0.541   3.805  10.086 -0.1630  0.0310 -0.3873
  304TMC3     H 4633   0.385   3.642  10.214  0.5275  0.3924 -1.1536
  304TMC3    H1 4634   0.798   3.674  10.305 -1.3526  0.6553 -0.1648
  304TMC3    H2 4635   0.585   3.305  10.349  1.6466 -0.5746 -0.1063
  304TMC3    C7 4636   0.822   3.432  10.288 -0.6433  0.2771  0.3509
  304TMC3    C8 4637   0.423   3.372  10.171 -0.0387  0.2574 -0.1707
  304TMC3    O1 4638   0.925   3.486  10.311  0.1000 -0.2768 -0.0630
  304TMC3    O2 4639   0.497   3.276  10.142  0.1846  0.4636  0.4776
  305MPD2     C 4640   3.832   1.153  14.033 -0.3465 -0.3484  0.2057
  305MPD2    C1 4641   3.895   1.032  14.055  0.2253 -0.0211 -0.1873
  305MPD2    C2 4642   3.898   0.939  13.954  0.1545 -0.5085 -0.6022
  305MPD2    C3 4643   3.846   0.973  13.829 -0.2406  0.0008 -0.7229
  305MPD2    C4 4644   3.773   1.086  13.812 -0.6574  0.0437 -0.1466
  305MPD2    C5 4645   3.763   1.173  13.918 -0.4448 -0.8218  0.8908
  305MPD2     H 4646   3.934   0.837  13.962  1.1704 -0.3165 -2.7469
  305MPD2    H1 4647   3.718   1.110  13.722 -0.8625  3.4487  0.8577
  305MPD2    H2 4648   3.834   1.239  14.100  2.1533  2.1793 -3.1605
  305MPD2    H3 4649   3.719   1.271  13.905 -0.2311 -0.6069  1.7624
  305MPD2     N 4650   3.858   0.895  13.708 -0.7822 -0.3092 -0.6031
  305MPD2    H5 4651   3.824   0.938  13.623 -0.6348  0.0308 -0.4910
  305MPD2    N1 4652   3.959   1.000  14.178 -0.0561 -0.8894 -0.1356
  305MPD2    H7 4653   3.946   1.067  14.253  0.5676 -1.2828  0.3255
  306TMC3    C1 4654   4.085   0.895  14.340  0.2385  0.6123  0.2104
  306TMC3    C2 4655   4.215   0.840  14.355  0.0522  0.9821 -0.0503
  306TMC3    C3 4656   4.279   0.848  14.475 -0.2670  0.6668 -0.3049
  306TMC3    C4 4657   4.025   0.961  14.441  0.1374  0.7448  0.0100
  306TMC3    C5 4658   4.093   0.974  14.560 -0.2675  0.2705 -0.4082
  306TMC3    C6 4659   4.222   0.925  14.573  0.6163 -0.0978  0.1316
  306TMC3     C 4660   4.024   0.881  14.213 -0.3205 -0.7375 -0.1179
  306TMC3     O 4661   4.066   0.796  14.137 -0.3028  0.2764 -0.0119
  306TMC3     H 4662   4.264   0.797  14.268  0.6872  1.5033  0.0515
  306TMC3    H1 4663   3.923   0.998  14.432 -0.8191 -2.3625 -2.1739
  306TMC3    H2 4664   4.261   0.928  14.674  1.2470 -0.0871 -0.1105
  306TMC3    C7 4665   4.015   1.021  14.678  0.0389 -0.2731  0.5391
  306TMC3    C8 4666   4.386   0.754  14.492 -0.7422 -0.7312  0.0678
  306TMC3    O1 4667   3.892   1.011  14.670 -0.5203  0.1143  0.4630
  306TMC3    O2 4668   4.410   0.670  14.406 -0.9765 -0.0520  0.1201
  307MPD2     C 4669   1.255   4.228   0.633  0.1898  0.3287 -0.5189
  307MPD2    C1 4670   1.153   4.314   0.588 -0.9419 -0.0261  0.3645
  307MPD2    C2 4671   1.026   4.313   0.640  0.1765 -0.2170  0.4537
  307MPD2    C3 4672   0.993   4.221   0.736  0.5734  0.0217 -0.5977
  307MPD2    C4 4673   1.087   4.130   0.778  0.6656 -0.1736 -0.6532
  307MPD2    C5 4674   1.219   4.137   0.730 -0.0407  0.3118  0.1344
  307MPD2     H 4675   0.945   4.370   0.596  1.5509  0.8608 -0.6849
  307MPD2    H1 4676   1.074   4.066   0.864  0.6550  0.2703 -0.3259
  307MPD2    H2 4677   1.356   4.218   0.595 -0.9055  0.5496 -3.4687
  307MPD2    H3 4678   1.299   4.072   0.764  2.6149  1.8988 -3.0709
  307MPD2     N 4679   0.861   4.228   0.781  0.6225 -0.0381 -0.2598
  307MPD2    H5 4680   0.804   4.306   0.752  0.9282 -0.0356 -0.8531
  307MPD2    N1 4681   1.179   4.408   0.480  0.0553 -0.1889 -0.0687
  307MPD2    H7 4682   1.110   4.479   0.461  3.2197  2.2089 -2.5579
  308TMC3    C1 4683   0.479   4.237   0.870  1.0180  0.1742 -0.0076
  308TMC3    C2 4684   0.483   4.372   0.897 -0.3841 -0.1222  0.0990
  308TMC3    C3 4685   0.614   4.415   0.929 -0.9663 -0.5213 -0.1731
  308TMC3    C4 4686   0.579   4.149   0.883  0.6764 -0.1303 -0.1355
  308TMC3    C5 4687   0.698   4.195   0.924  0.5300 -0.4882 -0.5249
  308TMC3    C6 4688   0.715   4.328   0.946 -0.5322  0.2422 -0.0606
  308TMC3     C 4689   0.359   4.169   0.821  0.8726 -0.2442  0.3922
  308TMC3     O 4690   0.343   4.048   0.846  0.4886 -0.1278 -0.5723
  308TMC3     H 4691   0.392   4.430   0.899 -1.2480 -1.4173 -1.7811
  308TMC3    H1 4692   0.577   4.043   0.860 -0.9042  0.1693 -1.4205
  308TMC3    H2 4693   0.808   4.355   0.994  0.5799 -2.8963 -0.4063
  308TMC3    C7 4694   0.815   4.138   0.871  0.0906 -0.3962  0.5994
  308TMC3    C8 4695   0.654   4.552   0.930  0.8883  0.2983  0.3615
  308TMC3    O1 4696   0.857   4.033   0.920  0.0089 -0.2524  0.2485
  308TMC3    O2 4697   0.754   4.579   0.998 -0.3851  0.7239 -0.7508
  309MPD2     C 4698   4.630   4.208  17.205 -0.0404 -0.1346  0.3062
  309MPD2    C1 4699   4.673   4.284  17.102 -0.0274  0.4992 -1.0367
  309MPD2    C2 4700   4.590   4.384  17.048  0.4781 -0.8530  0.3304
  309MPD2    C3 4701   4.469   4.412  17.103  0.4685 -0.1033  0.4871
  309MPD2    C4 4702   4.423   4.331  17.207  0.4447 -0.3708 -0.4876
  309MPD2    C5 4703   4.506   4.234  17.256  0.1164  0.3119  0.3317
  309MPD2     H 4704   4.630   4.438  16.963 -2.4082 -0.0974 -0.5371
  309MPD2    H1 4705   4.322   4.349  17.242  0.0017 -1.2322 -1.3352
  309MPD2    H2 4706   4.685   4.125  17.248 -1.9564 -0.4441  2.1285
  309MPD2    H3 4707   4.474   4.170  17.338 -0.9499 -1.8772 -1.7809
  309MPD2     N 4708   4.400   4.527  17.069 -0.5474  0.1906  0.0492
  309MPD2    H5 4709   4.315   4.544  17.122 -0.4688 -1.0657  0.5757
  309MPD2    N1 4710   0.064   4.272  17.038 -0.7098 -0.3595  0.5666
  309MPD2    H7 4711   0.079   4.320  16.950 -3.7010  0.9227  0.7631
  310TMC3    C1 4712   0.292   4.213  17.011 -0.0568  0.1771  0.7807
  310TMC3    C2 4713   0.294   4.257  16.886  0.3034  0.3658 -0.7168
  310TMC3    C3 4714   0.418   4.272  16.822 -0.2836  0.1190 -0.3403
  310TMC3    C4 4715   0.409   4.193  17.080 -0.4696 -0.8609  1.0344
  310TMC3    C5 4716   0.520   4.230  17.022  0.6385  0.4709  0.0233
  310TMC3    C6 4717   0.528   4.263  16.893 -0.4513 -0.3552 -0.0033
  310TMC3     C 4718   0.170   4.190  17.079  0.0084 -0.4196  0.0113
  310TMC3     O 4719   0.166   4.126  17.182 -0.6407 -0.1859  0.0549
  310TMC3     H 4720   0.213   4.257  16.814  1.1058  2.7232 -1.6218
  310TMC3    H1 4721   0.393   4.164  17.183 -0.0454 -0.2971  1.2570
  310TMC3    H2 4722   0.624   4.296  16.853  0.4798  0.4583  2.9103
  310TMC3    C7 4723   0.646   4.185  17.085  0.0886 -0.8819  0.0067
  310TMC3    C8 4724   0.426   4.291  16.674  0.3969  0.3501 -0.0084
  310TMC3    O1 4725   0.739   4.182  17.009 -0.4462 -0.1989 -0.2003
  310TMC3    O2 4726   0.321   4.314  16.615  0.4571  0.6695  0.3163
  311MPD2     C 4727   2.885   0.723  12.580  0.3741  0.2026 -0.8491
  311MPD2    C1 4728   2.918   0.768  12.705  0.2917  0.1238  0.0871
  311MPD2    C2 4729   2.826   0.769  12.809 -0.0392  0.2910  0.0310
  311MPD2    C3 4730   2.699   0.714  12.782 -0.5644 -0.3971  0.6454
  311MPD2    C4 4731   2.669   0.670  12.655 -0.3548  0.7670  0.8553
  311MPD2    C5 4732   2.760   0.678  12.557  0.1881 -0.8080 -0.3825
  311MPD2     H 4733   2.851   0.805  12.907 -0.3061  0.2154  0.1267
  311MPD2    H1 4734   2.570   0.634  12.630 -0.3595  1.1147  0.3673
  311MPD2    H2 4735   2.952   0.715  12.495 -0.0099 -2.9412 -0.8474
  311MPD2    H3 4736   2.729   0.655  12.455 -0.7875 -0.6035 -0.1336
  311MPD2     N 4737   2.606   0.731  12.888  0.5425 -0.0812 -0.3400
  311MPD2    H5 4738   2.637   0.772  12.975  0.0763 -2.2353  0.8258
  311MPD2    N1 4739   3.048   0.824  12.731  0.3715  0.3571  0.5538
  311MPD2    H7 4740   3.062   0.868  12.821  0.1865 -0.1221  0.8164
  312TMC3    C1 4741   2.401   0.715  13.013  0.0382 -0.4995  0.1367
  312TMC3    C2 4742   2.271   0.659  13.009 -0.1641  0.0154  0.1045
  312TMC3    C3 4743   2.164   0.737  13.054 -0.6823 -0.4939  0.3474
  312TMC3    C4 4744   2.426   0.840  13.067 -0.9104  0.8393 -0.5566
  312TMC3    C5 4745   2.312   0.898  13.126  0.0680 -0.2883  0.5923
  312TMC3    C6 4746   2.186   0.854  13.123  0.2446  0.5007  0.1200
  312TMC3     C 4747   2.479   0.680  12.888 -0.3284 -1.1037  0.1192
  312TMC3     O 4748   2.433   0.592  12.812  0.6269 -0.1552 -0.0271
  312TMC3     H 4749   2.245   0.572  12.950  1.4046  0.0153 -0.5745
  312TMC3    H1 4750   2.515   0.901  13.063  0.9304 -1.6760  1.3344
  312TMC3    H2 4751   2.116   0.900  13.192 -1.3499 -0.9567 -0.5091
  312TMC3    C7 4752   2.340   1.016  13.208  0.2276 -0.2676 -1.1476
  312TMC3    C8 4753   2.029   0.687  13.029 -0.0163 -0.3029 -0.5976
  312TMC3    O1 4754   2.242   1.086  13.230 -0.2440 -0.0598 -0.4251
  312TMC3    O2 4755   2.021   0.566  12.996  0.0040 -0.0804 -0.6136
  313MPD2     C 4756   2.509   0.059  11.288  0.3121  0.3369 -0.3247
  313MPD2    C1 4757   2.434   0.157  11.215  0.0052  0.2185 -0.0893
  313MPD2    C2 4758   2.390   0.131  11.095  0.1700  0.7138  0.1208
  313MPD2    C3 4759   2.423   0.016  11.019 -0.6537  0.1521  0.0642
  313MPD2    C4 4760   2.496   4.654  11.089  0.0036  0.3236  0.4097
  313MPD2    C5 4761   2.527   4.671  11.222 -0.2404  0.3826 -0.6185
  313MPD2     H 4762   2.334   0.209  11.044 -0.9271 -0.3960 -0.3911
  313MPD2    H1 4763   2.518   4.558  11.045  0.8435  0.6053  0.2216
  313MPD2    H2 4764   2.527   0.063  11.395 -2.9005  1.3783  0.1953
  313MPD2    H3 4765   2.585   4.597  11.277 -0.4829 -0.3678 -1.3775
  313MPD2     N 4766   2.373   0.008  10.887 -0.0030 -0.7422 -0.5407
  313MPD2    H5 4767   2.329   0.091  10.849 -0.3174  0.7849  3.1905
  313MPD2    N1 4768   2.397   0.284  11.265 -0.0677 -0.6783  0.7078
  313MPD2    H7 4769   2.345   0.346  11.204 -1.8129 -2.2351  0.6401
  314TMC3    C1 4770   2.393   0.473  11.406  0.3273 -0.4035  0.2971
  314TMC3    C2 4771   2.489   0.560  11.462 -0.1139  0.6094 -0.3114
  314TMC3    C3 4772   2.475   0.692  11.443 -0.3087  0.4354  0.3430
  314TMC3    C4 4773   2.278   0.521  11.350 -0.3507  0.3240 -0.2345
  314TMC3    C5 4774   2.274   0.653  11.316 -0.3943  0.1839 -0.2987
  314TMC3    C6 4775   2.371   0.736  11.362  0.5551 -0.2115 -0.2001
  314TMC3     C 4776   2.432   0.334  11.386 -0.1356  0.0122 -0.0299
  314TMC3     O 4777   2.518   0.294  11.462  0.0113 -0.1818 -0.3595
  314TMC3     H 4778   2.580   0.525  11.511 -0.1393  1.5072  0.3731
  314TMC3    H1 4779   2.212   0.444  11.311  0.1091 -0.0176 -0.3334
  314TMC3    H2 4780   2.370   0.843  11.346  0.4615 -0.4737 -1.9311
  314TMC3    C7 4781   2.191   0.686  11.205 -0.5002  0.0297 -0.2397
  314TMC3    C8 4782   2.596   0.766  11.450  0.3024 -0.0179 -0.4889
  314TMC3    O1 4783   2.107   0.606  11.168 -1.0560 -0.0138  0.2098
  314TMC3    O2 4784   2.605   0.868  11.383 -0.0919 -0.3657 -1.2641
  315MPD2     C 4785   1.640   4.058  17.674  0.6931 -0.2313 -0.2684
  315MPD2    C1 4786   1.621   4.087   0.072  0.2612 -0.2962 -0.1572
  315MPD2    C2 4787   1.648   4.212   0.124 -0.4740 -0.5507  0.1750
  315MPD2    C3 4788   1.691   4.310   0.041 -0.4368 -0.8769 -0.1146
  315MPD2    C4 4789   1.704   4.289  17.642  0.1287  0.5687 -0.9017
  315MPD2    C5 4790   1.671   4.162  17.591  0.1644  0.4626  0.1614
  315MPD2     H 4791   1.632   4.231   0.229 -1.1063  0.1852 -0.0597
  315MPD2    H1 4792   1.748   4.358  17.571  1.4715  0.6015 -0.0377
  315MPD2    H2 4793   1.632   3.958  17.634 -2.5268  0.7235 -2.0023
  315MPD2    H3 4794   1.692   4.139  17.487 -1.5917 -1.9023  0.3550
  315MPD2     N 4795   1.721   4.433   0.099  0.4382 -0.0917  0.0971
  315MPD2    H5 4796   1.702   4.447   0.197 -2.4921 -2.3841 -0.1218
  315MPD2    N1 4797   1.579   3.989   0.166  0.0115 -0.5611  0.2903
  315MPD2    H7 4798   1.572   4.026   0.261 -1.2858 -0.7259  0.2551
  316TMC3    C1 4799   1.788   4.653   0.118  0.1837  0.3252 -0.8179
  316TMC3    C2 4800   1.854   4.619   0.234  0.0246  0.3026  0.3438
  316TMC3    C3 4801   1.941   4.709   0.283 -0.1606 -0.2357  0.8060
  316TMC3    C4 4802   1.799   0.042   0.064  0.4125 -0.1621  0.2987
  316TMC3    C5 4803   1.881   0.136   0.130 -0.4480  0.4218  0.0748
  316TMC3    C6 4804   1.950   0.103   0.246  0.4977 -0.6650  0.5143
  316TMC3     C 4805   1.741   4.549   0.029  0.7039 -0.1291 -0.1091
  316TMC3     O 4806   1.722   4.566  17.645  0.2304  0.7860 -0.3428
  316TMC3     H 4807   1.831   4.527   0.286 -0.6296 -0.0704 -0.6215
  316TMC3    H1 4808   1.756   0.062  17.703 -0.9220 -0.6211  0.7966
  316TMC3    H2 4809   2.031   0.168   0.277 -0.1884  0.5418 -0.2067
  316TMC3    C7 4810   1.877   0.278   0.087  0.1056  0.2566  0.5350
  316TMC3    C8 4811   2.014   4.670   0.397  0.6137  0.7895  0.4362
  316TMC3    O1 4812   1.945   0.355   0.158 -0.5097 -0.5194 -0.6844
  316TMC3    O2 4813   2.018   0.026   0.480 -0.1718 -0.5658 -0.0392
  317MPD2     C 4814   4.049   2.757  13.014 -0.6689  0.4030  0.2966
  317MPD2    C1 4815   4.135   2.691  12.930  0.1606  0.1784 -0.2331
  317MPD2    C2 4816   4.237   2.609  12.989  0.6558 -0.0172 -0.7335
  317MPD2    C3 4817   4.247   2.606  13.124 -0.3197 -0.2213 -0.7218
  317MPD2    C4 4818   4.169   2.689  13.204 -0.1690 -0.3222 -0.0505
  317MPD2    C5 4819   4.071   2.765  13.156 -0.6670  0.4310  0.8848
  317MPD2     H 4820   4.295   2.548  12.920 -1.0474  0.3986 -2.5643
  317MPD2    H1 4821   4.177   2.690  13.312 -0.8714 -1.4324  0.0095
  317MPD2    H2 4822   3.976   2.824  12.971 -1.5860 -0.1622  0.9584
  317MPD2    H3 4823   3.998   2.808  13.224 -1.4730 -1.9358  1.4939
  317MPD2     N 4824   4.345   2.522  13.179  0.1201  0.2537  0.5500
  317MPD2    H5 4825   4.410   2.477  13.116 -1.1853  0.5202 -0.9820
  317MPD2    N1 4826   4.125   2.694  12.788  0.7100  0.2822 -0.6448
  317MPD2    H7 4827   4.176   2.626  12.733 -1.5616 -0.5380 -1.7545
  318TMC3    C1 4828   4.459   2.382  13.331 -0.5243  0.4747  0.2342
  318TMC3    C2 4829   4.383   2.262  13.343  0.1220  0.3192 -0.4652
  318TMC3    C3 4830   4.452   2.158  13.298 -0.0176 -0.2684 -0.2346
  318TMC3    C4 4831   4.579   2.393  13.275 -0.1673  0.2565 -0.0234
  318TMC3    C5 4832   4.647   2.279  13.238  0.6693  0.2255  0.7042
  318TMC3    C6 4833   4.575   2.158  13.241 -0.1120 -0.5977  0.1427
  318TMC3     C 4834   4.370   2.490  13.318 -0.6807  1.0767 -0.1818
  318TMC3     O 4835   4.284   2.499  13.405  0.7998 -0.1683  0.1386
  318TMC3     H 4836   4.281   2.264  13.382  0.2224  0.4062 -0.2055
  318TMC3    H1 4837   4.633   2.486  13.268 -0.7736  0.4753 -1.7947
  318TMC3    H2 4838   4.627   2.074  13.197  1.2046  1.5741 -2.4571
  318TMC3    C7 4839   0.046   2.283  13.180  0.0251  0.2302 -0.5618
  318TMC3    C8 4840   4.391   2.032  13.288  0.0259  0.5234  0.0058
  318TMC3    O1 4841   0.078   2.393  13.137 -0.3289 -0.2732 -0.2444
  318TMC3    O2 4842   4.463   1.933  13.293  0.1694  0.3781 -0.2244
  319MPD2     C 4843   4.708   3.834  17.110 -0.4406 -0.2548 -0.7905
  319MPD2    C1 4844   4.704   3.700  17.146  0.5150  0.3090 -0.4374
  319MPD2    C2 4845   4.638   3.613  17.060  0.4421 -0.0222  0.3956
  319MPD2    C3 4846   4.583   3.655  16.939 -0.2567  0.0276 -0.6052
  319MPD2    C4 4847   4.591   3.789  16.907 -0.3944 -0.3658 -0.2234
  319MPD2    C5 4848   4.656   3.877  16.992 -0.4155  0.1749 -0.6114
  319MPD2     H 4849   4.637   3.508  17.086  1.2311 -1.0958 -3.9233
  319MPD2    H1 4850   4.557   3.835  16.816  0.7680  0.9830  0.0220
  319MPD2    H2 4851   0.031   3.914  17.155 -1.1458  0.0071 -0.3542
  319MPD2    H3 4852   4.674   3.982  16.970 -0.2513  0.3248  0.2047
  319MPD2     N 4853   4.518   3.563  16.850  0.4310  0.3430  0.4262
  319MPD2    H5 4854   4.491   3.612  16.765 -0.2058 -2.0977 -0.7757
  319MPD2    N1 4855   0.017   3.659  17.268  0.2142 -0.2639 -0.0171
  319MPD2    H7 4856   4.714   3.571  17.303  1.1769 -0.0656  1.5101
  320TMC3    C1 4857   4.408   3.367  16.757  0.3582 -0.0671 -0.3793
  320TMC3    C2 4858   4.324   3.455  16.696  0.6575 -0.4956 -0.4759
  320TMC3    C3 4859   4.273   3.418  16.572  0.1918 -0.3160  0.2693
  320TMC3    C4 4860   4.443   3.247  16.703  0.1746 -0.8955 -0.7051
  320TMC3    C5 4861   4.390   3.220  16.578 -0.0159 -0.6146  0.7089
  320TMC3    C6 4862   4.304   3.302  16.511 -0.5536 -0.1591 -0.2532
  320TMC3     C 4863   4.494   3.426  16.863 -0.6950 -0.0741  0.2601
  320TMC3     O 4864   4.520   3.355  16.956 -0.2806  0.2120  0.3321
  320TMC3     H 4865   4.284   3.540  16.748 -1.7436 -1.6743 -0.4263
  320TMC3    H1 4866   4.530   3.193  16.740  0.1253 -1.2955 -1.1881
  320TMC3    H2 4867   4.278   3.278  16.409  0.1636  0.1219 -0.4998
  320TMC3    C7 4868   4.451   3.116  16.500  0.2342  0.0534  0.5249
  320TMC3    C8 4869   4.171   3.506  16.515 -0.7592 -0.3848 -0.7512
  320TMC3    O1 4870   4.460   3.129  16.380  0.8588 -0.1659 -0.7359
  320TMC3    O2 4871   4.146   3.616  16.576 -1.0829  0.2079  0.3845
  321TMC3    C1 4872   0.120   3.694  17.475  0.7129 -0.2460 -0.0038
  321TMC3    C2 4873   0.071   3.571  17.517  0.5341 -0.0385  0.1938
  321TMC3    C3 4874   0.078   3.535  17.650 -0.2682  0.5109 -0.3431
  321TMC3    C4 4875   0.171   3.786  17.558  0.3354 -0.4146  0.7507
  321TMC3    C5 4876   0.170   3.747  17.691  0.3604 -0.0664 -0.2054
  321TMC3    C6 4877   0.119   3.632   0.004 -0.4924 -0.3431  0.4331
  321TMC3     C 4878   0.108   3.731  17.336  0.5651 -0.1999 -0.5034
  321TMC3     O 4879   0.178   3.825  17.300  0.3052 -0.0279  0.2783
  321TMC3     H 4880   0.077   3.483  17.454 -3.5039 -1.6883  2.1021
  321TMC3    H1 4881   0.217   3.878  17.524 -0.9066 -0.0507  0.0562
  321TMC3    H2 4882   0.100   3.611   0.109  0.2723 -1.2823  0.3808
  321TMC3    C7 4883   0.277   3.791   0.036  0.2033  0.0289  0.1092
  321TMC3    C8 4884   0.148   3.410  17.674 -0.6119  0.7366  0.6233
  321TMC3    O1 4885   0.312   3.706   0.116  0.0722  0.0211 -0.0368
  321TMC3    O2 4886   0.123   3.318  17.599  0.1415  0.1712  0.5338
  322MPD2     C 4887   3.838   0.392  13.705 -0.3414 -0.6668 -1.1789
  322MPD2    C1 4888   3.856   0.311  13.818 -0.0376 -0.4295 -0.1563
  322MPD2    C2 4889   3.814   0.181  13.811  0.5954 -0.5177 -0.3033
  322MPD2    C3 4890   3.739   0.137  13.706  0.6315 -0.1095  0.8611
  322MPD2    C4 4891   3.709   0.214  13.598  0.3679 -0.8077  0.0504
  322MPD2    C5 4892   3.760   0.344  13.596 -0.3615 -0.2172  0.2644
  322MPD2     H 4893   3.840   0.115  13.894 -0.8714  0.2613  0.7783
  322MPD2    H1 4894   3.649   0.186  13.513  0.5337 -1.5293  0.1678
  322MPD2    H2 4895   3.878   0.492  13.697 -4.1447  0.9734  0.1384
  322MPD2    H3 4896   3.749   0.412  13.513  0.3310  0.4800  0.7468
  322MPD2     N 4897   3.681   0.004  13.714 -0.2845  0.5602 -0.2509
  322MPD2    H5 4898   3.697   4.693  13.803  1.4651  0.4038 -0.6417
  322MPD2    N1 4899   3.921   0.374  13.932  0.4535  0.2489  0.6303
  322MPD2    H7 4900   3.975   0.457  13.907  0.9810  0.2738  1.8135
  323TMC3    C1 4901   4.028   0.394  14.142  0.2706  0.3098  0.7811
  323TMC3    C2 4902   4.137   0.450  14.082  0.0609  0.2245  0.0392
  323TMC3    C3 4903   4.253   0.481  14.154 -0.1401  0.0641  0.7527
  323TMC3    C4 4904   4.025   0.381  14.277 -0.3243  0.0094 -0.1054
  323TMC3    C5 4905   4.135   0.416  14.351  0.1261 -0.0837  0.1971
  323TMC3    C6 4906   4.253   0.463  14.292  0.7721  0.2696  0.3315
  323TMC3     C 4907   3.927   0.320  14.062 -0.2228 -0.4178 -0.1800
  323TMC3     O 4908   3.877   0.218  14.101  0.2474 -0.2720 -0.2172
  323TMC3     H 4909   4.144   0.447  13.974 -1.3628  0.3684 -0.0582
  323TMC3    H1 4910   3.938   0.350  14.333 -0.5443  0.7130 -0.0592
  323TMC3    H2 4911   4.346   0.464  14.348 -2.5063 -1.1626  5.7412
  323TMC3    C7 4912   4.144   0.332  14.471 -0.3487 -0.3242  0.2143
  323TMC3    C8 4913   4.371   0.484  14.077 -0.1447 -0.1251 -0.1064
  323TMC3    O1 4914   4.065   0.239  14.480  0.3759 -0.2799 -0.2416
  323TMC3    O2 4915   4.368   0.430  13.969  0.0858 -0.2723  0.1170
  324MPD2     C 4916   1.017   1.916  14.218  0.2706 -0.3293 -0.1265
  324MPD2    C1 4917   0.966   1.958  14.339 -0.2333  0.4389  0.0409
  324MPD2    C2 4918   0.834   1.942  14.363 -0.2857 -0.0592 -0.0666
  324MPD2    C3 4919   0.748   1.881  14.266  0.2660 -0.3190  0.3716
  324MPD2    C4 4920   0.808   1.847  14.142  0.2097 -0.7496  0.2446
  324MPD2    C5 4921   0.939   1.864  14.120  0.2194  0.0943  0.5252
  324MPD2     H 4922   0.796   1.972  14.460  1.2531  1.3545  0.0871
  324MPD2    H1 4923   0.744   1.811  14.062 -0.7468 -0.1594  0.7358
  324MPD2    H2 4924   1.122   1.929  14.193 -0.1962 -0.2579 -2.0833
  324MPD2    H3 4925   0.981   1.830  14.026  0.8404 -1.2156  1.2764
  324MPD2     N 4926   0.611   1.860  14.283  0.6547  0.0149  0.2263
  324MPD2    H5 4927   0.565   1.824  14.200 -0.3445  1.7467  0.0210
  324MPD2    N1 4928   1.038   2.033  14.434  0.0875  0.2828 -0.3242
  324MPD2    H7 4929   0.991   2.046  14.523 -0.2888 -0.2473 -0.4456
  325TMC3    C1 4930   0.400   1.855  14.397  0.7489  0.4935  0.5666
  325TMC3    C2 4931   0.363   1.734  14.347  0.6985 -0.1715 -0.1065
  325TMC3    C3 4932   0.231   1.694  14.359  0.3758  0.0406  0.1655
  325TMC3    C4 4933   0.311   1.926  14.473  0.1347 -0.4913  0.3844
  325TMC3    C5 4934   0.186   1.881  14.497  0.1590  0.2276 -0.0988
  325TMC3    C6 4935   0.139   1.764  14.442  0.4353 -0.1664  0.2847
  325TMC3     C 4936   0.537   1.896  14.390 -0.1204  0.0161  0.1046
  325TMC3     O 4937   0.574   1.956  14.494  0.6143  0.3982 -0.6772
  325TMC3     H 4938   0.433   1.677  14.287  0.1274 -0.4856 -0.4723
  325TMC3    H1 4939   0.343   2.016  14.525 -2.9379  0.9824 -0.3286
  325TMC3    H2 4940   0.038   1.727  14.462  0.0399  0.4995 -0.4907
  325TMC3    C7 4941   0.104   1.962  14.591  1.1338  0.0391 -0.2581
  325TMC3    C8 4942   0.184   1.585  14.278 -0.6549  0.4822  0.9345
  325TMC3    O1 4943   0.156   2.036  14.673  0.1067  0.1968 -0.0360
  325TMC3    O2 4944   0.253   1.492  14.256  0.5937  0.3236 -0.1274
  326MPD2     C 4945   2.475   3.522  10.912 -0.4607  0.1799  0.2575
  326MPD2    C1 4946   2.565   3.456  10.834  0.4535  0.9303  0.4888
  326MPD2    C2 4947   2.699   3.460  10.871 -0.0192 -0.5343 -0.4876
  326MPD2    C3 4948   2.747   3.538  10.974 -0.2112 -0.1371  0.2768
  326MPD2    C4 4949   2.657   3.613  11.043  0.3583  0.1699 -0.2971
  326MPD2    C5 4950   2.521   3.606  11.012 -0.3713 -0.6913  0.0409
  326MPD2     H 4951   2.767   3.402  10.810  0.9689 -0.6241  0.7025
  326MPD2    H1 4952   2.689   3.667  11.131  0.1849 -0.3807  0.1004
  326MPD2    H2 4953   2.369   3.506  10.895 -0.4814  0.4277  0.1568
  326MPD2    H3 4954   2.445   3.652  11.075  0.4528  0.5893  0.0918
  326MPD2     N 4955   2.888   3.549  11.000 -0.4009  0.1239  0.4500
  326MPD2    H5 4956   2.916   3.616  11.071  1.6313 -0.5037  0.2422
  326MPD2    N1 4957   2.517   3.366  10.728  0.0520  0.8490  0.2524
  326MPD2    H7 4958   2.587   3.326  10.665 -0.6846 -0.0254 -0.0145
  327TMC3    C1 4959   2.368   3.236  10.593 -0.3228  0.7111  0.6398
  327TMC3    C2 4960   2.238   3.228  10.555 -0.2076  0.2486  0.0751
  327TMC3    C3 4961   2.225   3.151  10.442  0.1127 -0.1706  0.7830
  327TMC3    C4 4962   2.474   3.168  10.541  0.0299  0.6997 -0.6621
  327TMC3    C5 4963   2.449   3.103  10.420 -0.2189 -0.4369 -0.2779
  327TMC3    C6 4964   2.324   3.085  10.370 -0.1243 -0.0693 -0.7736
  327TMC3     C 4965   2.386   3.329  10.707 -0.0928  0.6406 -0.1127
  327TMC3     O 4966   2.290   3.349  10.780 -0.3750 -0.1136  0.3404
  327TMC3     H 4967   2.159   3.262  10.622 -0.8408  0.9102 -0.9921
  327TMC3    H1 4968   2.574   3.164  10.582 -0.2097  1.8495  0.0685
  327TMC3    H2 4969   2.311   3.047  10.270 -1.1286 -1.9970  0.0947
  327TMC3    C7 4970   2.564   3.041  10.348  0.2495 -0.1142 -0.2923
  327TMC3    C8 4971   2.090   3.120  10.397 -0.0642  0.1726 -0.4486
  327TMC3    O1 4972   2.533   2.979  10.249  0.0251 -0.3947  0.1321
  327TMC3    O2 4973   2.007   3.207  10.431  0.2270 -0.5305  0.4279
  328MPD2     C 4974   4.093   2.862  17.536  0.2351 -0.0775  0.4826
  328MPD2    C1 4975   4.047   2.742  17.485  0.6350 -0.1798 -0.3557
  328MPD2    C2 4976   4.049   2.723  17.344  0.1698  0.7321 -0.6141
  328MPD2    C3 4977   4.095   2.824  17.260 -0.5455  0.3028  0.6579
  328MPD2    C4 4978   4.153   2.941  17.317 -0.3391  0.1999 -0.7433
  328MPD2    C5 4979   4.146   2.959  17.448 -1.3557 -0.2380  0.9194
  328MPD2     H 4980   4.009   2.625  17.318 -1.2498  0.9002  0.8819
  328MPD2    H1 4981   4.170   3.030  17.257 -0.3241  2.1778  2.1915
  328MPD2    H2 4982   4.092   2.889  17.641 -3.9287 -1.8039  0.8879
  328MPD2    H3 4983   4.180   3.052  17.492 -0.4479 -0.9542  1.7443
  328MPD2     N 4984   4.082   2.818  17.123  0.1653  0.9465 -0.3136
  328MPD2    H5 4985   4.110   2.900  17.070 -1.2576  1.0118 -0.9561
  328MPD2    N1 4986   3.999   2.641  17.581 -0.1148 -0.0525  0.2264
  328MPD2    H7 4987   3.982   2.677  17.674  0.0065  1.7924 -0.4498
  329TMC3    C1 4988   3.881   2.450  17.651 -0.5082  0.2270  0.3544
  329TMC3    C2 4989   3.763   2.510  17.686 -0.1121  0.3296 -0.0689
  329TMC3    C3 4990   3.658   2.436  17.716 -0.4784 -0.2050 -0.4716
  329TMC3    C4 4991   3.883   2.315  17.635 -0.5452  0.3968  0.5154
  329TMC3    C5 4992   3.771   2.241  17.666  0.3858  0.1125  0.7420
  329TMC3    C6 4993   3.658   2.298  17.717 -0.0250  0.9464  0.3810
  329TMC3     C 4994   3.965   2.512  17.553 -0.2497  0.9180  0.4312
  329TMC3     O 4995   3.983   2.440  17.453 -0.2966 -0.3492  0.3327
  329TMC3     H 4996   3.755   2.619  17.689 -0.1255  0.3680 -1.8105
  329TMC3    H1 4997   3.971   2.260  17.603 -0.8024 -0.8865  2.0105
  329TMC3    H2 4998   3.564   2.244  17.709  1.0597 -0.6404 -1.6656
  329TMC3    C7 4999   3.769   2.099  17.645  0.2921 -1.2984  0.7758
  329TMC3    C8 5000   3.548   2.490  17.647 -0.6533  0.6171 -0.7928
  329TMC3    O1 5001   3.846   2.045  17.561 -0.0353  1.0057  0.1471
  329TMC3    O2 5002   3.502   2.415  17.563 -0.7914 -0.6204 -0.3506
  330TMC3    C1 5003   2.745   1.942   9.439  0.4746  0.2727  0.2126
  330TMC3    C2 5004   2.649   1.849   9.443 -0.1299 -0.3574 -0.5548
  330TMC3    C3 5005   2.568   1.837   9.556  1.3008 -0.1638 -0.3090
  330TMC3    C4 5006   2.753   2.029   9.538 -0.5024 -0.3534 -0.4294
  330TMC3    C5 5007   2.675   2.019   9.648  0.3320  0.1983  0.0373
  330TMC3    C6 5008   2.580   1.925   9.661 -0.1971 -0.6727 -0.2384
  330TMC3     C 5009   2.846   1.921   9.342  0.1255  0.4152 -0.8286
  330TMC3     O 5010   2.858   2.010   9.261  0.2418  0.0752 -0.3937
  330TMC3     H 5011   2.646   1.787   9.354  1.6396 -1.0843 -0.0962
  330TMC3    H1 5012   2.829   2.106   9.533 -0.2950 -0.6080 -1.2150
  330TMC3    H2 5013   2.509   1.933   9.743 -1.2615 -2.1397 -1.0051
  330TMC3    C7 5014   2.741   2.077   9.761 -0.3044  0.5867 -0.8146
  330TMC3    C8 5015   2.446   1.760   9.542  0.2379 -0.2730  0.3573
  330TMC3    O1 5016   2.795   2.186   9.761 -0.6754  0.4651 -0.4317
  330TMC3    O2 5017   2.428   1.731   9.427 -0.0853 -0.1473  0.3496
  331MPD2     C 5018   0.721   0.761  13.007 -0.1950  0.2047  0.2772
  331MPD2    C1 5019   0.608   0.807  12.940  0.2972 -0.1994 -0.2613
  331MPD2    C2 5020   0.494   0.730  12.938  0.1288 -0.0339 -0.4486
  331MPD2    C3 5021   0.485   0.608  13.000  0.7944  0.0200  0.7742
  331MPD2    C4 5022   0.598   0.569  13.065  0.4560  0.5692 -0.3718
  331MPD2    C5 5023   0.714   0.645  13.071  0.4991  0.2633  0.0567
  331MPD2     H 5024   0.412   0.770  12.879  1.6217  1.4599 -1.5142
  331MPD2    H1 5025   0.604   0.472  13.112 -0.9893  0.7904  0.2626
  331MPD2    H2 5026   0.813   0.818  13.013  0.1081 -0.3625  1.0298
  331MPD2    H3 5027   0.797   0.601  13.124  0.5333  1.6495  1.1563
  331MPD2     N 5028   0.390   0.512  12.968 -0.1571  0.4430  0.4003
  331MPD2    H5 5029   0.391   0.425  13.022 -1.3157  0.2975  0.1788
  331MPD2    N1 5030   0.615   0.922  12.863 -0.1220  1.1341 -0.0369
  331MPD2    H7 5031   0.710   0.955  12.849  0.3690  0.2826  1.3084
  332TMC3    C1 5032   0.257   0.394  12.805  0.4538 -0.3420  0.3361
  332TMC3    C2 5033   0.168   0.422  12.697  1.2013  0.4076 -0.3792
  332TMC3    C3 5034   0.178   0.361  12.573 -0.3148 -0.1368  0.1669
  332TMC3    C4 5035   0.344   0.295  12.793 -0.1186 -0.2890 -0.4611
  332TMC3    C5 5036   0.350   0.227  12.670 -0.2094 -0.0242  0.6061
  332TMC3    C6 5037   0.257   0.249  12.568  0.1469  0.4781  0.0630
  332TMC3     C 5038   0.293   0.518  12.874 -0.0360 -0.6755  0.1143
  332TMC3     O 5039   0.255   0.619  12.810  0.1005 -0.7247  0.1192
  332TMC3     H 5040   0.093   0.500  12.704  2.3674  1.4415  0.8345
  332TMC3    H1 5041   0.407   0.267  12.877  1.1795  1.4190 -0.8611
  332TMC3    H2 5042   0.282   0.194  12.478 -0.2582  0.7014 -0.1896
  332TMC3    C7 5043   0.440   0.117  12.644 -0.0878  0.5528  0.2976
  332TMC3    C8 5044   0.201   0.459  12.463 -0.2450  0.0223  0.0107
  332TMC3    O1 5045   0.397   0.019  12.585 -0.1288 -0.4136  0.0931
  332TMC3    O2 5046   0.204   0.430  12.344  0.0378  0.1891 -0.3633
  333MPD2     C 5047   0.640   0.971  11.230  0.0976 -0.3947  0.2313
  333MPD2    C1 5048   0.740   0.881  11.212  0.1329 -0.2732  0.9390
  333MPD2    C2 5049   0.736   0.751  11.265 -0.6735 -0.0528  0.3812
  333MPD2    C3 5050   0.622   0.713  11.342  0.0268  0.0732  0.4365
  333MPD2    C4 5051   0.519   0.800  11.359  0.4109 -0.4410 -1.1928
  333MPD2    C5 5052   0.533   0.929  11.305  0.4297  0.2402 -0.0214
  333MPD2     H 5053   0.815   0.678  11.253  1.2270  1.6731  2.5322
  333MPD2    H1 5054   0.426   0.768  11.405  0.3116  0.2051 -0.9396
  333MPD2    H2 5055   0.646   1.072  11.191 -0.6203 -1.0335 -1.5339
  333MPD2    H3 5056   0.449   0.996  11.318 -0.6763 -0.9323 -1.1611
  333MPD2     N 5057   0.619   0.584  11.393 -0.0369  0.1489 -0.2732
  333MPD2    H5 5058   0.698   0.531  11.357 -0.5565  0.6247 -2.1069
  333MPD2    N1 5059   0.856   0.918  11.140 -0.4849  0.5864  0.7410
  333MPD2    H7 5060   0.862   1.016  11.112 -0.2371  0.5252  0.5780
  334TMC3    C1 5061   1.067   0.924  11.024  0.5416  0.2610  0.6129
  334TMC3    C2 5062   1.196   0.877  11.031 -0.2224  0.6979 -0.0213
  334TMC3    C3 5063   1.295   0.941  10.963  0.2955 -0.2475 -0.5168
  334TMC3    C4 5064   1.033   1.029  10.945 -0.4330  0.1446  0.3401
  334TMC3    C5 5065   1.141   1.095  10.876  0.6954  0.1832  0.4608
  334TMC3    C6 5066   1.270   1.041  10.876 -0.3546 -0.5628 -0.5011
  334TMC3     C 5067   0.974   0.849  11.110  0.3682 -0.2451  0.2568
  334TMC3     O 5068   1.011   0.735  11.128  0.2469 -0.9335 -0.2630
  334TMC3     H 5069   1.222   0.794  11.096 -0.7896  0.6363  0.1239
  334TMC3    H1 5070   0.929   1.056  10.926 -0.8959 -1.9383 -0.0357
  334TMC3    H2 5071   1.355   1.089  10.828  0.2594 -1.3153 -0.1620
  334TMC3    C7 5072   1.127   1.234  10.840 -0.5599  0.2520 -0.7421
  334TMC3    C8 5073   1.429   0.910  11.005  0.2342  0.2540  0.4668
  334TMC3    O1 5074   1.227   1.304  10.835  0.4382 -0.5523  0.2911
  334TMC3    O2 5075   1.442   0.814  11.081  0.0833 -0.3912  0.1584
  335TMC3    C1 5076   0.279   2.542  17.576 -0.6947  0.2469  0.1607
  335TMC3    C2 5077   0.262   2.458  17.469  0.7561 -0.4166 -0.0341
  335TMC3    C3 5078   0.321   2.501  17.351  0.8905  0.1322 -0.2281
  335TMC3    C4 5079   0.365   2.658  17.572 -0.1779 -0.0162 -0.6161
  335TMC3    C5 5080   0.420   2.695  17.449 -0.8951  0.1245  0.0861
  335TMC3    C6 5081   0.401   2.613  17.342  1.3217 -0.4036  0.0799
  335TMC3     C 5082   0.252   2.478  17.702 -0.7054 -0.8677  0.0076
  335TMC3     O 5083   0.143   2.418  17.707 -1.0011  0.0764 -0.1005
  335TMC3     H 5084   0.195   2.374  17.481 -0.8171  0.9034  0.4427
  335TMC3    H1 5085   0.371   2.714  17.665 -0.3297 -1.2469  0.1288
  335TMC3    H2 5086   0.458   2.628  17.251 -0.2993  0.1761 -0.8425
  335TMC3    C7 5087   0.542   2.782  17.435 -0.0544 -0.1983 -0.0160
  335TMC3    C8 5088   0.333   2.411  17.236  1.1350  0.5887  0.3498
  335TMC3    O1 5089   0.587   2.812  17.322 -0.1364 -0.0882  0.3779
  335TMC3    O2 5090   0.401   2.446  17.139 -0.4839 -0.0115 -0.6885
  336MPD2     C 5091   3.749   0.866  16.498 -0.0809  0.4878 -0.0002
  336MPD2    C1 5092   3.793   0.763  16.423  0.0219 -0.6406  0.0726
  336MPD2    C2 5093   3.810   0.638  16.480  0.4742  0.0351 -0.2037
  336MPD2    C3 5094   3.790   0.611  16.614  0.2681  0.5695 -0.2084
  336MPD2    C4 5095   3.757   0.720  16.694  1.1779 -0.5620  0.1223
  336MPD2    C5 5096   3.734   0.842  16.635 -0.3197  0.0889  0.5233
  336MPD2     H 5097   3.836   0.556  16.414 -0.7355 -1.7484  1.5595
  336MPD2    H1 5098   3.742   0.714  16.802  1.9222  2.3442  0.3804
  336MPD2    H2 5099   3.715   0.963  16.463  1.5856  0.9072 -0.4336
  336MPD2    H3 5100   3.712   0.925  16.701 -1.5543  0.2695 -0.1112
  336MPD2     N 5101   3.806   0.485  16.679 -0.0121 -0.7534  0.8233
  336MPD2    H5 5102   3.778   0.478  16.776  1.2964 -1.1249  1.1748
  336MPD2    N1 5103   3.800   0.771  16.283  0.1193  0.2924  0.6180
  336MPD2    H7 5104   3.823   0.685  16.235  0.7770  1.3352 -0.9707
  337TMC3    C1 5105   3.798   0.880  16.071 -0.0028  0.1228 -0.1553
  337TMC3    C2 5106   3.743   0.764  16.021 -0.1159  0.1829  0.8248
  337TMC3    C3 5107   3.768   0.734  15.890  0.2488 -0.0427 -0.0570
  337TMC3    C4 5108   3.893   0.952  16.006  0.2441 -0.6973  0.5069
  337TMC3    C5 5109   3.917   0.914  15.877  0.2097  0.2572  0.0691
  337TMC3    C6 5110   3.853   0.807  15.817 -0.1858 -0.4668  0.0743
  337TMC3     C 5111   3.794   0.893  16.218 -0.5683 -0.2111 -0.7101
  337TMC3     O 5112   3.818   1.006  16.261  0.0804  0.3140  0.0241
  337TMC3     H 5113   3.660   0.713  16.070 -0.4973 -0.7136 -0.7643
  337TMC3    H1 5114   3.955   1.013  16.070 -1.1890  1.6751 -0.3935
  337TMC3    H2 5115   3.877   0.776  15.716  1.3830 -0.2355  0.3668
  337TMC3    C7 5116   4.029   0.975  15.800  0.3284  0.0491 -0.0343
  337TMC3    C8 5117   3.704   0.619  15.836  0.4548  0.3329  0.3626
  337TMC3    O1 5118   4.039   0.949  15.682  0.7647 -0.5505 -0.5728
  337TMC3    O2 5119   3.620   0.561  15.900 -0.1270 -0.5258 -0.1085
  338MPD2     C 5120   4.236   0.199   0.792  0.0303  0.2243  0.2771
  338MPD2    C1 5121   4.169   0.156   0.682  0.4206  1.3309 -0.2171
  338MPD2    C2 5122   4.038   0.144   0.694  0.3024 -0.2144 -0.0477
  338MPD2    C3 5123   3.967   0.181   0.801  0.1208 -0.2508 -0.5309
  338MPD2    C4 5124   4.030   0.235   0.907  0.4289 -0.3031  0.8470
  338MPD2    C5 5125   4.165   0.231   0.900 -0.2328 -0.1344 -0.0195
  338MPD2     H 5126   3.986   0.123   0.602  1.0683  0.9205 -0.7432
  338MPD2    H1 5127   3.979   0.283   0.989 -1.6832 -1.4887  0.2264
  338MPD2    H2 5128   4.343   0.217   0.785  0.5453 -2.2588  1.4409
  338MPD2    H3 5129   4.220   0.268   0.986  0.1370 -1.6670  0.4150
  338MPD2     N 5130   3.828   0.184   0.782  0.0522  0.7337  0.0687
  338MPD2    H5 5131   3.787   0.159   0.693 -0.7077 -0.2232  0.6858
  338MPD2    N1 5132   4.234   0.115   0.562  0.1677 -0.1979  0.1983
  338MPD2    H7 5133   4.170   0.089   0.488 -0.2578 -0.7400  0.7491
  339TMC3    C1 5134   3.601   0.193   0.821  0.0346 -0.0612 -0.1690
  339TMC3    C2 5135   3.503   0.118   0.871  0.4083 -0.3473 -0.1135
  339TMC3    C3 5136   3.398   0.096   0.788 -0.0501 -0.1958  0.1616
  339TMC3    C4 5137   3.601   0.240   0.690  0.3841  0.4855  0.3406
  339TMC3    C5 5138   3.495   0.208   0.613 -0.1399 -0.1582 -0.3127
  339TMC3    C6 5139   3.391   0.136   0.662 -0.2092  0.0846  0.2594
  339TMC3     C 5140   3.736   0.189   0.883 -0.1188 -0.1002  0.1314
  339TMC3     O 5141   3.752   0.154   0.996 -0.1949  0.2865 -0.8114
  339TMC3     H 5142   3.507   0.077   0.971  0.3937 -2.9506 -1.1579
  339TMC3    H1 5143   3.676   0.312   0.660 -0.5662  0.7547 -1.4364
  339TMC3    H2 5144   3.302   0.129   0.600 -0.7324  0.8659  0.9241
  339TMC3    C7 5145   3.490   0.269   0.484  0.3246 -0.4739 -0.7727
  339TMC3    C8 5146   3.286   0.024   0.832  0.1460 -0.0187 -0.1126
  339TMC3    O1 5147   3.571   0.360   0.467  0.4556 -0.2913 -0.3745
  339TMC3    O2 5148   3.188   0.026   0.755  0.1334 -0.0710  0.2108
  340MPD2     C 5149   0.721   2.136   9.835 -0.8369 -0.4906 -0.0707
  340MPD2    C1 5150   0.697   2.021   9.895 -0.1813  0.1584 -0.1061
  340MPD2    C2 5151   0.676   2.035  10.032  0.3053  0.1384 -0.4467
  340MPD2    C3 5152   0.673   2.153  10.105 -0.0444 -0.9263  0.5781
  340MPD2    C4 5153   0.714   2.261  10.042 -0.1011 -0.2640  0.5233
  340MPD2    C5 5154   0.739   2.251   9.904  0.3490 -0.1427  0.7719
  340MPD2     H 5155   0.651   1.938  10.073 -0.9083  0.7383  0.2511
  340MPD2    H1 5156   0.738   2.359  10.082 -0.7702 -0.2494  0.8798
  340MPD2    H2 5157   0.735   2.129   9.728  0.8796 -1.5456  0.2249
  340MPD2    H3 5158   0.774   2.338   9.849 -1.5166 -0.3727 -0.7719
  340MPD2     N 5159   0.633   2.145  10.242 -0.1792  0.1873 -0.1218
  340MPD2    H5 5160   0.641   2.237  10.282  1.6695  0.2555 -0.6377
  340MPD2    N1 5161   0.683   1.902   9.813 -0.8636 -0.6104 -0.2403
  340MPD2    H7 5162   0.699   1.908   9.713  0.5392 -1.2145 -0.0537
  341TMC3    C1 5163   0.625   1.681   9.759 -1.3927  0.7874 -0.4778
  341TMC3    C2 5164   0.517   1.598   9.753  0.2617  0.1097 -0.5161
  341TMC3    C3 5165   0.536   1.495   9.664  0.2687 -0.1784 -0.1767
  341TMC3    C4 5166   0.745   1.672   9.692 -0.7276  0.5609  0.3519
  341TMC3    C5 5167   0.755   1.563   9.616  0.7056  0.4491  0.4245
  341TMC3    C6 5168   0.652   1.477   9.594  0.0569  0.6006 -0.3671
  341TMC3     C 5169   0.617   1.790   9.855  0.0805 -0.1735 -0.6117
  341TMC3     O 5170   0.580   1.760   9.966  0.0891 -0.3230 -0.0843
  341TMC3     H 5171   0.434   1.603   9.823 -0.5450 -1.3770 -1.3701
  341TMC3    H1 5172   0.830   1.739   9.704  0.3140 -0.3744 -1.7588
  341TMC3    H2 5173   0.672   1.375   9.561  1.0692  0.7915 -0.3368
  341TMC3    C7 5174   0.876   1.542   9.542  0.1418 -0.5747  0.6017
  341TMC3    C8 5175   0.434   1.392   9.656  0.4718 -0.0417  0.5863
  341TMC3    O1 5176   0.982   1.578   9.593  0.3688 -0.0455  0.0723
  341TMC3    O2 5177   0.377   1.366   9.760 -0.6382 -0.5876  0.4314
  342MPD2     C 5178   2.103   1.049   0.163 -0.1388  0.0201  0.3342
  342MPD2    C1 5179   2.145   1.048   0.029  0.0752  0.1856 -0.0271
  342MPD2    C2 5180   2.206   1.158  17.717 -0.3524 -0.0526 -0.2369
  342MPD2    C3 5181   2.238   1.270   0.062 -0.4689  0.3738 -0.8019
  342MPD2    C4 5182   2.197   1.272   0.194 -0.1624  0.2725  0.2016
  342MPD2    C5 5183   2.126   1.158   0.233  0.6984  0.7464 -0.2942
  342MPD2     H 5184   2.239   1.143  17.615  0.9083  1.0423  0.0015
  342MPD2    H1 5185   2.204   1.362   0.255  1.3800  1.1409 -1.2549
  342MPD2    H2 5186   2.042   0.967   0.200  1.3056 -0.8363  0.8015
  342MPD2    H3 5187   2.071   1.170   0.326  1.3871 -0.8655  0.3188
  342MPD2     N 5188   2.308   1.381   0.016 -0.6606  0.2099 -0.6996
  342MPD2    H5 5189   2.338   1.452   0.082 -1.1981 -1.0938  0.9351
  342MPD2    N1 5190   2.133   0.941  17.674  0.4411  0.7730  0.6970
  342MPD2    H7 5191   2.137   0.964  17.575 -0.3855  0.4746  0.5911
  343TMC3    C1 5192   2.126   0.715  17.607  0.5361  0.3665  0.4859
  343TMC3    C2 5193   2.134   0.740  17.478 -0.1789  1.1133  0.6628
  343TMC3    C3 5194   2.120   0.639  17.389 -0.1350 -0.0501 -1.2243
  343TMC3    C4 5195   2.114   0.584  17.651  0.5356 -0.5453 -0.1825
  343TMC3    C5 5196   2.097   0.487  17.555 -0.3678 -0.1848  0.3612
  343TMC3    C6 5197   2.094   0.508  17.425 -0.8183 -0.4621  0.2119
  343TMC3     C 5198   2.100   0.816  17.711  0.4612 -0.9745 -0.5383
  343TMC3     O 5199   2.076   0.774   0.091 -0.4499 -0.2325  0.0337
  343TMC3     H 5200   2.156   0.840  17.445  0.0550  0.4784 -1.0822
  343TMC3    H1 5201   2.084   0.563   0.017 -1.5011  1.6616 -0.3232
  343TMC3    H2 5202   2.081   0.425  17.357 -0.9178 -0.5246  0.3090
  343TMC3    C7 5203   2.135   0.350  17.585 -0.3781  0.1033  0.8028
  343TMC3    C8 5204   2.181   0.675  17.256 -0.5436 -0.0508 -0.0793
  343TMC3    O1 5205   2.106   0.267  17.506  0.1779 -0.1816  0.7888
  343TMC3    O2 5206   2.205   0.791  17.226 -0.4033 -0.1612 -0.5030
  344MPD2     C 5207   4.558   0.154  10.892  0.0074  0.5022  0.0779
  344MPD2    C1 5208   4.505   0.105  10.777  0.0446 -0.3268  0.6764
  344MPD2    C2 5209   4.505   0.173  10.658  0.0363  0.6770 -0.4819
  344MPD2    C3 5210   4.563   0.302  10.649 -0.4212 -0.2938  0.3340
  344MPD2    C4 5211   4.615   0.360  10.768 -0.0687 -0.1841  0.6262
  344MPD2    C5 5212   4.609   0.281  10.885 -0.0996 -0.0262  0.0623
  344MPD2     H 5213   4.464   0.133  10.566  1.0578 -1.5834  0.0207
  344MPD2    H1 5214   4.668   0.454  10.770  1.1685 -0.9108  1.7557
  344MPD2    H2 5215   4.561   0.103  10.987  0.2459 -0.2597 -0.3355
  344MPD2    H3 5216   4.647   0.314  10.982 -0.8227 -0.4344  0.4824
  344MPD2     N 5217   4.561   0.383  10.531 -0.3386 -0.0082  0.0152
  344MPD2    H5 5218   4.607   0.474  10.533  2.3087 -1.3182 -1.3854
  344MPD2    N1 5219   4.441   4.707  10.783 -0.2677 -0.1012  0.2917
  344MPD2    H7 5220   4.383   4.684  10.703  1.3966  0.2253 -1.0025
  345TMC3    C1 5221   4.510   0.475  10.332 -0.6736  0.5114 -0.1360
  345TMC3    C2 5222   4.645   0.480  10.295  0.4285  0.4177 -0.1708
  345TMC3    C3 5223   4.675   0.551  10.185  0.4814 -0.0825  0.3889
  345TMC3    C4 5224   4.409   0.535  10.262 -0.2333 -0.0286  0.2180
  345TMC3    C5 5225   4.449   0.616  10.161 -0.7181 -0.4632 -0.3984
  345TMC3    C6 5226   4.578   0.622  10.123 -0.3185  0.2000 -0.2688
  345TMC3     C 5227   4.482   0.370  10.422 -0.2174 -0.1153 -0.4617
  345TMC3     O 5228   4.377   0.306  10.411 -0.0741  0.0079 -0.1611
  345TMC3     H 5229   4.729   0.449  10.356 -0.5397 -0.7825  0.5569
  345TMC3    H1 5230   4.304   0.516  10.285 -0.2469 -0.0209  0.1619
  345TMC3    H2 5231   4.607   0.690  10.044  0.9925  0.1571  0.1724
  345TMC3    C7 5232   4.358   0.726  10.111  0.2573  0.1313 -0.5228
  345TMC3    C8 5233   0.086   0.597  10.183  0.5516 -0.0438  0.8710
  345TMC3    O1 5234   4.420   0.824  10.084 -0.1451 -0.0609 -0.1750
  345TMC3    O2 5235   0.151   0.602  10.287 -0.9755  0.5072  0.9354
  346MPD2     C 5236   3.961   1.505  13.847 -0.5165 -0.5021 -0.0461
  346MPD2    C1 5237   4.072   1.555  13.912 -0.1188 -0.6210 -0.0738
  346MPD2    C2 5238   4.060   1.607  14.041 -0.3982  1.3076 -0.0011
  346MPD2    C3 5239   3.937   1.614  14.108  0.3864  0.1468  0.0694
  346MPD2    C4 5240   3.827   1.558  14.042  0.2844  0.0527  0.4458
  346MPD2    C5 5241   3.842   1.507  13.918 -0.0397 -0.1227 -0.2386
  346MPD2     H 5242   4.146   1.655  14.086  0.4681 -0.0268 -0.2287
  346MPD2    H1 5243   3.730   1.557  14.091  0.9600 -0.3096  1.7958
  346MPD2    H2 5244   3.970   1.471  13.744  1.0529  0.2799 -0.1731
  346MPD2    H3 5245   3.754   1.465  13.873 -0.3715 -0.3466  0.6172
  346MPD2     N 5246   3.934   1.673  14.233  0.0921 -0.0682  0.4473
  346MPD2    H5 5247   4.025   1.697  14.270  0.6257 -1.0780 -0.2130
  346MPD2    N1 5248   4.198   1.589  13.850 -0.0386  0.8596  0.3970
  346MPD2    H7 5249   4.254   1.656  13.902 -0.0022  2.1963 -1.3741
  347TMC3    C1 5250   3.882   1.737  14.449  0.0970  1.3807 -1.0797
  347TMC3    C2 5251   4.015   1.775  14.446 -0.2634 -1.3797  0.2325
  347TMC3    C3 5252   4.045   1.869  14.538  1.0963 -0.5717 -0.7934
  347TMC3    C4 5253   3.794   1.776  14.540 -0.3051  0.9321  0.7290
  347TMC3    C5 5254   3.840   1.860  14.643 -0.0736  1.3910  0.2813
  347TMC3    C6 5255   3.964   1.910  14.644 -0.2841 -0.1778  0.3744
  347TMC3     C 5256   3.831   1.687  14.321  0.2038 -0.2426  0.3829
  347TMC3     O 5257   3.713   1.667  14.302  0.6519  0.1949 -0.2413
  347TMC3     H 5258   4.097   1.729  14.393  0.3692  1.5136 -1.2725
  347TMC3    H1 5259   3.692   1.741  14.531 -0.6957  1.6644  2.3577
  347TMC3    H2 5260   3.994   1.997  14.701  0.2238 -1.4076  1.9871
  347TMC3    C7 5261   3.753   1.870  14.760 -0.2945 -0.5086 -0.6916
  347TMC3    C8 5262   4.191   1.890  14.550  0.1056  0.2467 -0.3686
  347TMC3    O1 5263   3.645   1.815  14.743  0.0870  0.1857 -0.3007
  347TMC3    O2 5264   4.265   1.812  14.488  0.2801  0.3478 -0.7262
  348MPD2     C 5265   3.402   1.337  11.541  0.3032  0.2687  0.2692
  348MPD2    C1 5266   3.268   1.379  11.527 -0.6990  0.0153 -0.5062
  348MPD2    C2 5267   3.235   1.486  11.447  0.7686  0.1548 -0.2452
  348MPD2    C3 5268   3.333   1.558  11.385  0.1690 -0.2850  0.1079
  348MPD2    C4 5269   3.468   1.522  11.402 -0.4797  0.0519  0.1723
  348MPD2    C5 5270   3.498   1.411  11.476 -0.1971 -0.0997  1.0784
  348MPD2     H 5271   3.128   1.505  11.437  0.2399 -3.0349 -0.6273
  348MPD2    H1 5272   3.551   1.585  11.370 -0.6870  0.6428  0.8120
  348MPD2    H2 5273   3.433   1.251  11.601  0.7397 -0.0219 -0.3761
  348MPD2    H3 5274   3.606   1.397  11.478 -0.2101 -0.5025 -0.8722
  348MPD2     N 5275   3.298   1.674  11.306  0.1954  0.2028  0.2811
  348MPD2    H5 5276   3.198   1.688  11.292  0.0985 -0.3964  0.3545
  348MPD2    N1 5277   3.164   1.297  11.579 -0.6197 -0.4494 -0.4245
  348MPD2    H7 5278   3.067   1.321  11.558 -1.3951 -1.7614  1.6104
  349TMC3    C1 5279   3.062   1.150  11.736  0.0123 -0.0792 -0.0210
  349TMC3    C2 5280   3.079   1.088  11.856  0.0692  0.4419 -0.1410
  349TMC3    C3 5281   2.975   1.022  11.920  0.7717 -0.1087 -0.0192
  349TMC3    C4 5282   2.931   1.172  11.697 -0.3715 -0.1404 -0.2608
  349TMC3    C5 5283   2.826   1.124  11.769  0.5378  0.3030 -0.3428
  349TMC3    C6 5284   2.844   1.041  11.878  0.1960  0.3633  0.0612
  349TMC3     C 5285   3.180   1.194  11.675 -0.0500  0.1411 -0.7984
  349TMC3     O 5286   3.279   1.148  11.732  0.1629 -0.0331 -0.4855
  349TMC3     H 5287   3.175   1.056  11.895 -0.2967  0.6792  0.9687
  349TMC3    H1 5288   2.924   1.211  11.596 -0.2826 -1.2203 -0.6860
  349TMC3    H2 5289   2.757   0.982  11.904 -0.3217  0.6444 -1.0162
  349TMC3    C7 5290   2.684   1.131  11.714  0.2344  0.4581 -0.6264
  349TMC3    C8 5291   3.011   0.919  12.023 -0.0849  0.5941 -0.2702
  349TMC3    O1 5292   2.602   1.056  11.763  0.1338  0.1056 -0.0080
  349TMC3    O2 5293   3.127   0.908  12.063 -0.2283 -0.2900 -0.5375
  350MPD2     C 5294   1.543   4.556  10.413  0.0047  0.0476  0.1443
  350MPD2    C1 5295   1.627   4.483  10.334 -0.2306 -0.5489  0.2187
  350MPD2    C2 5296   1.759   4.510  10.327 -0.2807 -0.2413  0.7160
  350MPD2    C3 5297   1.821   4.605  10.410 -0.2131 -0.2669  0.2734
  350MPD2    C4 5298   1.731   4.676  10.497  0.7662 -0.1355  0.3757
  350MPD2    C5 5299   1.597   4.647  10.497 -0.2543 -0.4188  0.6869
  350MPD2     H 5300   1.818   4.439  10.271 -0.5378 -0.4019  0.6480
  350MPD2    H1 5301   1.764   0.021  10.563  1.2775 -0.0597  0.0262
  350MPD2    H2 5302   1.438   4.538  10.428 -0.0653 -0.8264 -1.3661
  350MPD2    H3 5303   1.532   4.704  10.562  0.3097  0.7585  0.2076
  350MPD2     N 5304   1.960   4.627  10.408 -0.0591  0.5100 -0.2317
  350MPD2    H5 5305   2.013   4.574  10.339  1.9651  0.2675  1.5047
  350MPD2    N1 5306   1.570   4.382  10.248 -0.3265 -0.4344  0.3378
  350MPD2    H7 5307   1.637   4.341  10.184  0.7871  1.2781  0.4007
  351TMC3    C1 5308   1.413   4.245  10.137  0.1752 -0.5110 -0.4182
  351TMC3    C2 5309   1.511   4.149  10.117 -0.3357  0.5136  0.2483
  351TMC3    C3 5310   1.481   4.054  10.024 -0.6809 -0.2079  0.4002
  351TMC3    C4 5311   1.304   4.257  10.059  0.0451  0.3306  0.1855
  351TMC3    C5 5312   1.285   4.155   9.967  0.1350  0.2843 -0.2351
  351TMC3    C6 5313   1.368   4.046   9.957  0.0470  0.0186 -0.0382
  351TMC3     C 5314   1.438   4.355  10.226 -0.1932  0.3012 -0.4986
  351TMC3     O 5315   1.332   4.407  10.257 -0.3636  0.1731 -0.5599
  351TMC3     H 5316   1.603   4.155  10.173  1.0595 -2.6071 -1.7404
  351TMC3    H1 5317   1.220   4.323  10.075 -1.6821 -1.4895 -1.3507
  351TMC3    H2 5318   1.354   3.973   9.878 -0.5926 -1.5482  1.5266
  351TMC3    C7 5319   1.163   4.158   9.885 -0.2046  0.8477 -0.1418
  351TMC3    C8 5320   1.573   3.941   9.991 -0.0833 -0.3482 -0.1339
  351TMC3    O1 5321   1.118   4.268   9.863  1.1789  0.3813  0.6116
  351TMC3    O2 5322   1.545   3.865   9.900  0.2684  0.1339  0.2008
  352MPD2     C 5323   0.525   1.861   1.052  0.5937 -0.0571 -0.2847
  352MPD2    C1 5324   0.409   1.798   1.014 -0.1973 -0.1385  0.2404
  352MPD2    C2 5325   0.413   1.671   0.958  0.2189  0.5362  0.2364
  352MPD2    C3 5326   0.525   1.602   0.925 -0.0258 -0.3194 -0.0929
  352MPD2    C4 5327   0.643   1.672   0.957  0.2894  0.2037  0.1890
  352MPD2    C5 5328   0.641   1.795   1.020  0.4196 -0.5985 -0.3249
  352MPD2     H 5329   0.328   1.604   0.967  0.9818 -0.2204  1.6918
  352MPD2    H1 5330   0.743   1.637   0.937  0.8295  0.9554  1.5148
  352MPD2    H2 5331   0.538   1.962   1.089 -1.0144 -0.2411  0.7974
  352MPD2    H3 5332   0.732   1.849   1.043 -1.5396  1.8503  1.6555
  352MPD2     N 5333   0.531   1.472   0.870  0.1539  0.5841  0.1466
  352MPD2    H5 5334   0.626   1.443   0.849 -0.3506 -0.8935 -0.1221
  352MPD2    N1 5335   0.285   1.862   1.035  0.5384 -0.4890  0.0329
  352MPD2    H7 5336   0.290   1.958   1.069  2.5803 -1.3821  2.2336
  353TMC3    C1 5337   0.467   1.283   0.748 -0.4469 -0.1394 -0.2057
  353TMC3    C2 5338   0.547   1.200   0.825  0.6735 -0.4810  0.5688
  353TMC3    C3 5339   0.534   1.062   0.810  0.0050 -0.1497 -0.5480
  353TMC3    C4 5340   0.375   1.236   0.659  0.1353 -0.2167  0.4016
  353TMC3    C5 5341   0.361   1.095   0.655 -0.2718 -0.2879 -0.7497
  353TMC3    C6 5342   0.440   1.010   0.730 -0.0653  0.4894 -0.7199
  353TMC3     C 5343   0.429   1.399   0.816 -0.0864 -0.4085  0.3866
  353TMC3     O 5344   0.308   1.426   0.796 -0.0414  0.3283  0.4174
  353TMC3     H 5345   0.615   1.241   0.898  0.2846 -2.1533  1.8720
  353TMC3    H1 5346   0.303   1.304   0.614 -1.6366 -1.5872  1.1840
  353TMC3    H2 5347   0.423   0.903   0.729 -1.1605  0.6511  1.2158
  353TMC3    C7 5348   0.227   1.045   0.624  0.0801 -0.4143 -0.8879
  353TMC3    C8 5349   0.612   0.981   0.903  0.3496 -0.4853 -1.1399
  353TMC3    O1 5350   0.213   0.930   0.591  0.1328 -0.2496  0.7092
  353TMC3    O2 5351   0.711   1.029   0.952  0.4162 -0.3757  0.2447
  354TMC3    C1 5352   2.020   2.930  13.403  0.0081  0.0228 -0.2494
  354TMC3    C2 5353   2.042   3.062  13.366  0.2776  0.1914  0.3645
  354TMC3    C3 5354   2.088   3.090  13.242 -0.5548 -0.3565  0.2962
  354TMC3    C4 5355   2.036   2.833  13.312  0.6342  0.5507 -0.1011
  354TMC3    C5 5356   2.087   2.870  13.189  0.2711  0.0948  0.1548
  354TMC3    C6 5357   2.112   2.996  13.151 -0.3307  0.1368  0.1016
  354TMC3     C 5358   1.987   2.905  13.537  0.3468 -0.1388  0.4408
  354TMC3     O 5359   1.911   2.977  13.598  0.5027 -0.3404  0.7737
  354TMC3     H 5360   2.029   3.144  13.435 -3.4722  0.4627 -0.6722
  354TMC3    H1 5361   2.019   2.729  13.338 -0.1371  1.1599  1.8093
  354TMC3    H2 5362   2.141   3.014  13.049 -1.7352  0.3883 -0.2453
  354TMC3    C7 5363   2.094   2.766  13.089 -0.2269 -0.2742 -0.7765
  354TMC3    C8 5364   2.046   3.218  13.202  0.0614  0.0368  0.7191
  354TMC3    O1 5365   1.998   2.688  13.077 -0.0181  0.0106  0.0151
  354TMC3    O2 5366   1.970   3.279  13.278  0.0106 -0.3616  0.5856
  355MPD2     C 5367   2.716   3.879  11.962  0.3373  0.3993 -0.2531
  355MPD2    C1 5368   2.805   3.895  11.854  0.5635  0.0669 -0.7763
  355MPD2    C2 5369   2.833   3.775  11.779  0.2088  1.0824  0.6016
  355MPD2    C3 5370   2.773   3.654  11.808 -0.6804  0.0935  0.1638
  355MPD2    C4 5371   2.677   3.646  11.911  0.3524 -0.3010 -0.5261
  355MPD2    C5 5372   2.644   3.762  11.974 -0.2527 -0.4913  0.1523
  355MPD2     H 5373   2.910   3.779  11.703 -0.7418 -0.2528 -0.4278
  355MPD2    H1 5374   2.617   3.557  11.927  0.7948 -0.2948  1.1587
  355MPD2    H2 5375   2.686   3.963  12.023  1.5149 -0.2510  1.2130
  355MPD2    H3 5376   2.565   3.766  12.048  0.4598  2.1086  0.7787
  355MPD2     N 5377   2.790   3.547  11.723 -0.4309 -0.2343  0.0355
  355MPD2    H5 5378   2.752   3.460  11.760  0.0390 -1.0926 -1.4845
  355MPD2    N1 5379   2.869   4.019  11.831  0.0245  0.4833 -0.2245
  355MPD2    H7 5380   2.863   4.097  11.896 -2.7297  0.4394 -0.4363
  356TMC3    C1 5381   2.890   3.412  11.551 -0.2075 -0.7428 -0.0169
  356TMC3    C2 5382   2.943   3.404  11.427  0.4878 -0.4610  0.2713
  356TMC3    C3 5383   3.026   3.297  11.402  0.1797 -0.4003  0.4078
  356TMC3    C4 5384   2.909   3.310  11.642 -0.0462  0.4967 -0.5680
  356TMC3    C5 5385   2.992   3.203  11.612  0.1431 -0.1359 -0.1772
  356TMC3    C6 5386   3.054   3.195  11.489  0.7209  0.3958 -0.4140
  356TMC3     C 5387   2.863   3.542  11.608  0.0070  0.6092 -0.2859
  356TMC3     O 5388   2.921   3.632  11.546  0.0064  0.8722  0.0605
  356TMC3     H 5389   2.933   3.479  11.350 -0.9108  2.0869  2.9723
  356TMC3    H1 5390   2.868   3.325  11.742 -1.3816 -2.8304 -0.6201
  356TMC3    H2 5391   3.122   3.113  11.465  0.7646 -0.6410  3.3447
  356TMC3    C7 5392   3.061   3.144  11.735 -0.2724 -0.3229  0.0973
  356TMC3    C8 5393   3.146   3.340  11.337  0.0074 -0.2606  0.6243
  356TMC3    O1 5394   3.064   3.024  11.744 -0.9260 -0.0711 -0.7047
  356TMC3    O2 5395   3.216   3.245  11.310 -0.2477  0.1596 -0.6572
  357MPD2     C 5396   1.643   3.648   0.875 -0.1483  0.5375 -0.3751
  357MPD2    C1 5397   1.668   3.526   0.933  0.7503  0.5728  0.7680
  357MPD2    C2 5398   1.575   3.492   1.029 -0.1763 -0.3103  0.4230
  357MPD2    C3 5399   1.454   3.566   1.051  0.0333 -0.5361 -0.4851
  357MPD2    C4 5400   1.433   3.672   0.971 -0.4452  0.3862 -0.5729
  357MPD2    C5 5401   1.526   3.718   0.886  0.2083 -1.0744  0.2691
  357MPD2     H 5402   1.607   3.406   1.087  0.6830 -1.0132 -1.0891
  357MPD2    H1 5403   1.338   3.723   0.983 -0.3827  0.4387 -0.3148
  357MPD2    H2 5404   1.728   3.688   0.821  0.5378 -0.4868 -0.0724
  357MPD2    H3 5405   1.513   3.809   0.828 -1.4502 -0.7557  1.1280
  357MPD2     N 5406   1.368   3.520   1.151 -0.0421  0.2122 -0.2051
  357MPD2    H5 5407   1.276   3.563   1.158  0.8028  1.6071  2.0896
  357MPD2    N1 5408   1.792   3.471   0.909  0.3573 -0.0800  0.5939
  357MPD2    H7 5409   1.842   3.507   0.828  2.6789  0.0319  2.0556
  358TMC3    C1 5410   1.977   3.334   0.948  0.3593 -0.4107 -0.1579
  358TMC3    C2 5411   1.981   3.309   0.813 -0.3239  0.2099  0.4592
  358TMC3    C3 5412   2.066   3.209   0.764 -0.2070 -0.3556 -0.3006
  358TMC3    C4 5413   2.041   3.249   1.036  0.0377  0.2009  0.0455
  358TMC3    C5 5414   2.114   3.148   0.988  0.3787  0.3585  1.0499
  358TMC3    C6 5415   2.131   3.128   0.853  0.3616 -0.1184 -0.2615
  358TMC3     C 5416   1.854   3.385   0.997 -0.4482  0.0170  0.3822
  358TMC3     O 5417   1.823   3.363   1.114 -0.4708 -0.5748  0.0946
  358TMC3     H 5418   1.921   3.360   0.739  0.5901 -0.4441 -0.7342
  358TMC3    H1 5419   2.027   3.264   1.143 -1.2835 -2.0917  0.1896
  358TMC3    H2 5420   2.168   3.029   0.825  0.5647 -0.3611  0.8586
  358TMC3    C7 5421   2.161   3.048   1.086 -0.4462 -0.1053 -0.0845
  358TMC3    C8 5422   2.068   3.169   0.626  0.6264 -1.0780  0.0889
  358TMC3    O1 5423   2.222   2.952   1.040 -0.2948  0.5270 -0.2706
  358TMC3    O2 5424   1.981   3.210   0.550 -0.4439 -0.5227  0.1442
  359MPD2     C 5425   2.156   2.261  11.633  0.1501 -0.1561 -0.0332
  359MPD2    C1 5426   2.201   2.139  11.659 -0.5867 -0.0180 -0.2858
  359MPD2    C2 5427   2.165   2.072  11.772 -0.2434  0.0238  0.1917
  359MPD2    C3 5428   2.082   2.125  11.870  0.5374 -0.5288 -0.3471
  359MPD2    C4 5429   2.046   2.256  11.848 -0.0080  0.5078 -0.1091
  359MPD2    C5 5430   2.082   2.318  11.732 -0.5703 -0.0454 -0.2058
  359MPD2     H 5431   2.203   1.971  11.784  1.9296  0.7814 -0.2575
  359MPD2    H1 5432   1.994   2.313  11.923  1.2305  1.7106 -0.1545
  359MPD2    H2 5433   2.191   2.323  11.551 -0.3756 -0.3855 -0.4282
  359MPD2    H3 5434   2.063   2.424  11.736 -1.8015 -0.2114 -1.4937
  359MPD2     N 5435   2.036   2.066  11.987  0.3125 -0.1103 -0.2967
  359MPD2    H5 5436   1.970   2.119  12.043  0.1316 -2.3636  1.6676
  359MPD2    N1 5437   2.308   2.084  11.590  0.1805 -0.7519 -0.2892
  359MPD2    H7 5438   2.351   1.997  11.619  2.6196  0.4613 -0.2013
  360TMC3    C1 5439   2.462   2.034  11.411  0.4018 -0.6514  0.4487
  360TMC3    C2 5440   2.512   1.930  11.487 -0.0289  0.0323  0.3758
  360TMC3    C3 5441   2.639   1.893  11.458 -0.0922 -0.4932  0.1913
  360TMC3    C4 5442   2.528   2.078  11.297 -0.4796 -0.2329 -0.1133
  360TMC3    C5 5443   2.655   2.020  11.262  0.3550  0.0672 -0.2054
  360TMC3    C6 5444   2.710   1.924  11.341 -0.1172 -0.3339  0.2894
  360TMC3     C 5445   2.355   2.124  11.462  0.1049 -1.2630  0.3542
  360TMC3     O 5446   2.336   2.232  11.411  0.5005 -0.4421  0.2059
  360TMC3     H 5447   2.476   1.907  11.586 -0.2306 -0.2062  0.2467
  360TMC3    H1 5448   2.486   2.155  11.234  0.4132  0.4047  0.0645
  360TMC3    H2 5449   2.806   1.883  11.313 -1.0652 -0.9362 -2.0864
  360TMC3    C7 5450   2.725   2.071  11.142  0.4745  0.1494 -0.3487
  360TMC3    C8 5451   2.697   1.792  11.556  0.6227  0.5164  0.1781
  360TMC3    O1 5452   2.845   2.050  11.141 -0.1346 -0.2826  0.1832
  360TMC3    O2 5453   2.614   1.710  11.602 -0.2333  0.3258 -0.2074
  361MPD2     C 5454   3.340   1.071  17.003 -0.3940  0.8107  0.0829
  361MPD2    C1 5455   3.375   1.113  16.877 -0.0804  0.1783 -0.0221
  361MPD2    C2 5456   3.506   1.134  16.845  0.1846 -0.1885  0.2610
  361MPD2    C3 5457   3.607   1.121  16.940 -0.9983 -0.1182  0.9387
  361MPD2    C4 5458   3.574   1.085  17.069 -0.6623  0.1782  0.0140
  361MPD2    C5 5459   3.440   1.059  17.096 -0.1647 -0.2620 -0.2015
  361MPD2     H 5460   3.526   1.150  16.740  0.7434  1.0691  0.5527
  361MPD2    H1 5461   3.652   1.067  17.142 -2.4665  0.0855  1.9013
  361MPD2    H2 5462   3.244   1.045  17.046 -0.1613  0.2002  0.2459
  361MPD2    H3 5463   3.416   1.023  17.195  1.0123 -1.0215 -0.1878
  361MPD2     N 5464   3.744   1.146  16.913  0.1493 -0.2270 -0.1439
  361MPD2    H5 5465   3.809   1.116  16.985 -0.9077 -1.5615  0.2574
  361MPD2    N1 5466   3.280   1.131  16.781  0.6204  0.1323 -0.4503
  361MPD2    H7 5467   3.314   1.150  16.687  1.3807 -0.3397 -0.2664
  362TMC3    C1 5468   3.069   1.146  16.668 -0.2184  0.2289  0.1889
  362TMC3    C2 5469   2.929   1.158  16.666 -0.4099  0.6589 -0.1806
  362TMC3    C3 5470   2.867   1.205  16.552 -0.3382  0.0312  0.3362
  362TMC3    C4 5471   3.140   1.184  16.554 -0.8578  0.3035 -0.1492
  362TMC3    C5 5472   3.075   1.221  16.444 -0.1281 -0.5270  0.0544
  362TMC3    C6 5473   2.937   1.233  16.438 -0.1902 -0.1353 -0.7945
  362TMC3     C 5474   3.142   1.109  16.789 -0.7673 -0.2253 -0.2972
  362TMC3     O 5475   3.071   1.068  16.878 -0.3479 -0.2321 -0.5529
  362TMC3     H 5476   2.867   1.121  16.747 -0.7446 -0.2650 -0.8584
  362TMC3    H1 5477   3.242   1.156  16.532 -0.3890 -0.4696  2.9387
  362TMC3    H2 5478   2.890   1.287  16.357  1.1613  0.9407 -0.8644
  362TMC3    C7 5479   3.160   1.299  16.353 -0.5505  0.3296 -0.3934
  362TMC3    C8 5480   2.763   1.305  16.572  0.2191  0.8868  0.1994
  362TMC3    O1 5481   3.264   1.353  16.393 -0.2336 -0.1336  0.4301
  362TMC3    O2 5482   2.749   1.394  16.494  0.0276  0.0152  0.7867
  363TMC3    C1 5483   2.442   3.389   9.302 -0.0489 -0.2100  0.1361
  363TMC3    C2 5484   2.571   3.420   9.324  0.4708 -0.3511 -0.2575
  363TMC3    C3 5485   2.589   3.527   9.405  0.6498  0.2908  0.8195
  363TMC3    C4 5486   2.337   3.462   9.352 -0.0617  0.3554 -0.3592
  363TMC3    C5 5487   2.364   3.565   9.444  0.1124 -0.7645 -0.1382
  363TMC3    C6 5488   2.492   3.605   9.459 -0.1847  0.4526 -0.0428
  363TMC3     C 5489   2.413   3.291   9.196  0.4315  0.0659  0.8997
  363TMC3     O 5490   2.510   3.256   9.129 -0.4801 -0.7350 -0.1221
  363TMC3     H 5491   2.650   3.361   9.280  0.4752 -1.7809  1.6993
  363TMC3    H1 5492   2.231   3.456   9.329 -0.7821  0.9962  2.7661
  363TMC3    H2 5493   2.506   3.704   9.500 -0.2243  1.4211 -2.4139
  363TMC3    C7 5494   2.251   3.630   9.507  0.4342 -1.1619 -0.0028
  363TMC3    C8 5495   2.718   3.552   9.469  0.8037  0.3964  0.0108
  363TMC3    O1 5496   2.141   3.588   9.474 -0.5746  0.1357 -0.1216
  363TMC3    O2 5497   2.713   3.629   9.565  0.4102  0.4480  0.1349
  364MPD2     C 5498   1.739   2.825  10.200  0.2612  0.4925 -0.0610
  364MPD2    C1 5499   1.732   2.956  10.239  0.0908 -0.1471  0.7741
  364MPD2    C2 5500   1.845   3.016  10.284  0.2632 -0.1043  0.2547
  364MPD2    C3 5501   1.966   2.950  10.288 -0.6256  0.9178  0.1988
  364MPD2    C4 5502   1.966   2.815  10.254 -0.3357  0.1863 -0.5648
  364MPD2    C5 5503   1.855   2.751  10.206 -0.5657 -0.4870  0.7325
  364MPD2     H 5504   1.840   3.123  10.301  2.8695  0.1648 -0.5632
  364MPD2    H1 5505   2.057   2.756  10.263 -0.8053  0.0754  3.2686
  364MPD2    H2 5506   1.657   2.779  10.147 -0.7399  3.7493 -1.3694
  364MPD2    H3 5507   1.862   2.653  10.160  0.6533  1.1931 -2.7087
  364MPD2     N 5508   2.084   2.997  10.338  0.7003  0.0636 -0.7927
  364MPD2    H5 5509   2.166   2.939  10.352  0.7245  0.9439  2.7721
  364MPD2    N1 5510   1.608   3.016  10.217  0.1537 -0.6119 -0.1261
  364MPD2    H7 5511   1.547   2.977  10.145  1.9386 -1.9997 -0.9026
  365TMC3    C1 5512   1.455   3.183  10.200 -0.3563  0.5096  0.5099
  365TMC3    C2 5513   1.502   3.215  10.073  0.7620  0.0065  0.1785
  365TMC3    C3 5514   1.512   3.346  10.039  0.1063  0.3067 -0.2121
  365TMC3    C4 5515   1.412   3.280  10.288  0.4586  0.1045 -0.1624
  365TMC3    C5 5516   1.391   3.406  10.235  0.0120 -0.6342 -0.2050
  365TMC3    C6 5517   1.444   3.442  10.113 -0.1245 -0.2623  0.2236
  365TMC3     C 5518   1.557   3.122  10.283  0.8756 -0.3245 -0.6568
  365TMC3     O 5519   1.595   3.185  10.378 -0.2082  0.9518 -0.2810
  365TMC3     H 5520   1.544   3.140  10.007 -2.6743 -2.5786  0.8964
  365TMC3    H1 5521   1.366   3.252  10.381 -0.6411 -0.3500 -0.8422
  365TMC3    H2 5522   1.439   3.548  10.093  2.6106 -0.6497 -2.5062
  365TMC3    C7 5523   1.390   3.505  10.339 -0.1405 -0.7470  0.0188
  365TMC3    C8 5524   1.645   3.391  10.023  0.4084 -0.0227  0.4560
  365TMC3    O1 5525   1.338   3.611  10.309  0.4998 -0.1239  0.1858
  365TMC3    O2 5526   1.660   3.502  10.070 -0.5348  0.0838  0.3620
  366MPD2     C 5527   3.881   3.848  15.713 -0.4553 -0.0665  0.5738
  366MPD2    C1 5528   3.913   3.959  15.785  0.0447  0.0701  0.1551
  366MPD2    C2 5529   3.976   3.944  15.911 -0.1660  0.1771 -0.5438
  366MPD2    C3 5530   3.992   3.816  15.964  0.3501 -0.0991 -0.1764
  366MPD2    C4 5531   3.957   3.706  15.897  0.8675  0.3957  0.2084
  366MPD2    C5 5532   3.905   3.719  15.770 -0.3206  0.4192  0.6581
  366MPD2     H 5533   4.002   4.031  15.970 -0.5005 -1.1835  1.5980
  366MPD2    H1 5534   3.972   3.604  15.930  1.5462  0.4388  0.0424
  366MPD2    H2 5535   3.842   3.849  15.612 -0.4120 -0.5742  0.5511
  366MPD2    H3 5536   3.890   3.627  15.715 -1.8341  1.2882 -0.3921
  366MPD2     N 5537   4.068   3.794  16.082  0.1720 -0.0117  0.0839
  366MPD2    H5 5538   4.044   3.713  16.138  3.0858 -2.1941 -1.8639
  366MPD2    N1 5539   3.877   4.089  15.740 -0.4296  0.3853  0.0436
  366MPD2    H7 5540   3.921   4.164  15.793  0.7345  0.8128 -1.5381
  367TMC3    C1 5541   3.835   4.263  15.591  0.4233  0.2778 -0.3725
  367TMC3    C2 5542   3.832   4.349  15.697 -0.9479 -0.2959 -0.4089
  367TMC3    C3 5543   3.879   4.478  15.680  0.2419 -0.0990  0.0396
  367TMC3    C4 5544   3.868   4.301  15.462 -0.0406 -0.4962  0.3843
  367TMC3    C5 5545   3.912   4.429  15.452 -0.5699 -0.0072  1.1071
  367TMC3    C6 5546   3.925   4.516  15.557 -0.4457  0.1871  0.6092
  367TMC3     C 5547   3.828   4.120  15.614  0.4490 -0.4281  0.3653
  367TMC3     O 5548   3.780   4.052  15.528 -0.2469  0.1421 -0.0851
  367TMC3     H 5549   3.786   4.321  15.791 -0.9849 -0.2547 -0.4150
  367TMC3    H1 5550   3.849   4.232  15.380 -0.1043  0.8947 -0.7815
  367TMC3    H2 5551   3.959   4.617  15.536 -0.0991  0.0679  0.5992
  367TMC3    C7 5552   3.944   4.476  15.318  0.2713  0.0373  0.0586
  367TMC3    C8 5553   3.945   4.541  15.794  0.6022 -0.5539 -0.7176
  367TMC3    O1 5554   4.030   4.562  15.316  0.1852  0.2870 -0.1555
  367TMC3    O2 5555   3.899   4.512  15.902 -1.1191 -0.0846  0.2117
  368MPD2     C 5556   1.300   1.336  13.635 -1.0953  1.0280  0.1256
  368MPD2    C1 5557   1.334   1.283  13.518 -0.2407  0.1261  0.3832
  368MPD2    C2 5558   1.445   1.328  13.447  0.1891 -0.3649 -0.3638
  368MPD2    C3 5559   1.534   1.420  13.503 -0.2264 -0.1539  0.4158
  368MPD2    C4 5560   1.505   1.469  13.629 -0.5593  0.3252 -0.0567
  368MPD2    C5 5561   1.387   1.432  13.692 -0.0592 -0.3324 -0.9147
  368MPD2     H 5562   1.452   1.289  13.346 -0.3630 -1.2431 -0.0653
  368MPD2    H1 5563   1.568   1.543  13.677 -0.9720  0.6982 -0.0858
  368MPD2    H2 5564   1.217   1.302  13.696  1.0689 -2.8790  0.9053
  368MPD2    H3 5565   1.368   1.455  13.796 -2.3545 -0.0664 -1.3887
  368MPD2     N 5566   1.638   1.485  13.440  0.3074  0.5236 -0.0671
  368MPD2    H5 5567   1.670   1.572  13.481 -0.3645  0.4919  0.5153
  368MPD2    N1 5568   1.242   1.210  13.455  0.5246  0.1184  0.5886
  368MPD2    H7 5569   1.264   1.158  13.371  0.7062  2.6874 -0.9335
  369TMC3    C1 5570   1.050   1.135  13.367 -1.1725  0.1869  0.3792
  369TMC3    C2 5571   1.091   1.172  13.240  0.2071  0.0934  0.2092
  369TMC3    C3 5572   0.999   1.149  13.139  0.0238 -0.4537  0.0272
  369TMC3    C4 5573   0.932   1.073  13.395 -0.1832  0.0189  0.3130
  369TMC3    C5 5574   0.852   1.047  13.287  0.4440 -0.2543 -0.1734
  369TMC3    C6 5575   0.880   1.084  13.160 -0.0239  0.1874  0.5907
  369TMC3     C 5576   1.112   1.191  13.487 -0.2652 -0.2252 -0.3974
  369TMC3     O 5577   1.042   1.229  13.576  0.1447  0.4223  0.0339
  369TMC3     H 5578   1.181   1.228  13.215 -1.0490  1.0432 -2.2162
  369TMC3    H1 5579   0.912   1.041  13.497  1.3443  3.0567  1.5780
  369TMC3    H2 5580   0.814   1.083  13.073  1.0111  0.4492 -0.2062
  369TMC3    C7 5581   0.714   1.027  13.334  0.1375 -0.4049  0.4917
  369TMC3    C8 5582   1.041   1.210  13.015  0.0600  0.1350 -0.1168
  369TMC3    O1 5583   0.698   1.058  13.451 -0.2177 -0.2656 -0.3021
  369TMC3    O2 5584   0.956   1.258  12.943 -0.3356 -0.1102  0.2759
  370TMC3    C1 5585   0.337   1.780  16.569  0.4353 -0.5795 -0.8123
  370TMC3    C2 5586   0.251   1.683  16.623  0.1729  0.9445 -0.8140
  370TMC3    C3 5587   0.195   1.596  16.534 -0.4317 -0.3130 -0.9661
  370TMC3    C4 5588   0.365   1.773  16.436  0.0935  0.1657 -0.3662
  370TMC3    C5 5589   0.300   1.681  16.354 -0.2807  0.5802 -0.2106
  370TMC3    C6 5590   0.221   1.578  16.403  0.1010  0.3332  0.0013
  370TMC3     C 5591   0.412   1.877  16.660 -0.2079 -0.2552  0.0631
  370TMC3     O 5592   0.436   1.840  16.772 -0.3379 -0.3866 -0.2322
  370TMC3     H 5593   0.230   1.682  16.730  1.4699  1.5788 -0.5562
  370TMC3    H1 5594   0.432   1.844  16.389 -3.5817  1.6190 -3.4968
  370TMC3    H2 5595   0.169   1.502  16.346  0.2735 -0.4676  0.9021
  370TMC3    C7 5596   0.369   1.663  16.225  0.9955 -0.0453 -0.3837
  370TMC3    C8 5597   0.102   1.498  16.588 -0.3152  0.4081 -0.5388
  370TMC3    O1 5598   0.426   1.757  16.170  0.1580  0.4653 -0.0066
  370TMC3    O2 5599   0.069   1.406  16.516  0.2620 -0.3202  0.1363
  371TMC3    C1 5600   1.595   0.335  15.504  0.1496  0.1684  0.2762
  371TMC3    C2 5601   1.478   0.331  15.575 -0.3210  0.4877  0.2417
  371TMC3    C3 5602   1.383   0.428  15.551  0.1219 -0.3208 -0.7278
  371TMC3    C4 5603   1.617   0.432  15.409  0.1107  0.3070  0.3988
  371TMC3    C5 5604   1.524   0.530  15.387  0.3880 -0.1920  0.1417
  371TMC3    C6 5605   1.400   0.526  15.454  0.1830 -0.7554  0.8371
  371TMC3     C 5606   1.673   0.215  15.490  0.0156 -0.1805  0.4220
  371TMC3     O 5607   1.796   0.226  15.463 -0.2083 -0.4715 -0.6913
  371TMC3     H 5608   1.455   0.255  15.649  1.2334  0.1899  0.4111
  371TMC3    H1 5609   1.721   0.440  15.380  0.0945 -0.1908  0.2036
  371TMC3    H2 5610   1.339   0.615  15.444  0.9910  0.1513  3.8418
  371TMC3    C7 5611   1.567   0.661  15.340  0.4433  0.3041 -0.7057
  371TMC3    C8 5612   1.283   0.443  15.654  0.9929  0.3676  0.5026
  371TMC3    O1 5613   1.496   0.756  15.357 -0.0560 -0.2289 -0.0484
  371TMC3    O2 5614   1.195   0.520  15.616  0.0401  0.1403 -0.2313
  372MPD2     C 5615   0.753   0.861  13.682 -0.0049  0.1376  0.4956
  372MPD2    C1 5616   0.871   0.870  13.739 -0.1269  0.0590  0.0505
  372MPD2    C2 5617   0.964   0.765  13.731  0.2056 -0.3369  0.2156
  372MPD2    C3 5618   0.933   0.650  13.661  0.0422 -0.3955 -0.0793
  372MPD2    C4 5619   0.816   0.651  13.597 -0.0376 -0.2796 -0.4891
  372MPD2    C5 5620   0.722   0.751  13.606  0.0805 -0.6223 -0.2724
  372MPD2     H 5621   1.054   0.772  13.791 -0.8183  1.5125  1.5228
  372MPD2    H1 5622   0.768   0.565  13.550 -1.6868 -0.7092  1.9905
  372MPD2    H2 5623   0.675   0.937  13.682 -1.5098 -1.4108 -1.6127
  372MPD2    H3 5624   0.620   0.746  13.569 -0.1841  1.3851  0.1922
  372MPD2     N 5625   1.025   0.548  13.655 -0.2960  0.5405  0.3533
  372MPD2    H5 5626   1.116   0.560  13.699 -0.4047 -0.0490  0.7447
  372MPD2    N1 5627   0.918   0.986  13.805  0.3089  0.2235 -0.0658
  372MPD2    H7 5628   1.014   0.983  13.839  0.1114  1.3931  0.6047
  373TMC3    C1 5629   1.108   0.331  13.618 -0.5119 -0.1200 -0.1071
  373TMC3    C2 5630   1.091   0.197  13.624 -0.2889 -0.1380 -0.0896
  373TMC3    C3 5631   1.204   0.123  13.656 -0.1648 -0.7386 -0.2831
  373TMC3    C4 5632   1.232   0.390  13.629 -0.1156 -0.2290 -0.2635
  373TMC3    C5 5633   1.341   0.306  13.641  0.0937 -0.3771 -0.0964
  373TMC3    C6 5634   1.332   0.169  13.663 -0.2559 -0.3321  0.7002
  373TMC3     C 5635   0.994   0.415  13.614 -0.2494  0.0735 -0.5154
  373TMC3     O 5636   0.890   0.361  13.579  0.3477  0.1655  0.7792
  373TMC3     H 5637   0.995   0.152  13.603 -1.2784  1.3340  1.3097
  373TMC3    H1 5638   1.253   0.492  13.598  0.7318  0.5657  2.9889
  373TMC3    H2 5639   1.417   0.105  13.684  0.1044 -0.0681  0.0414
  373TMC3    C7 5640   1.467   0.364  13.677  0.3990  0.2745  0.0150
  373TMC3    C8 5641   1.193   4.712  13.660  0.2695  0.3464 -0.6298
  373TMC3    O1 5642   1.569   0.309  13.632 -0.0131 -0.6503 -0.1351
  373TMC3    O2 5643   1.248   4.651  13.571 -0.1153 -0.5095 -0.2436
  374TMC3    C1 5644   1.914   1.760   9.859 -0.0821  0.7734  0.0846
  374TMC3    C2 5645   2.023   1.840   9.848  0.3251  0.3293 -0.8728
  374TMC3    C3 5646   2.072   1.873   9.724 -0.3882 -0.7756 -0.0051
  374TMC3    C4 5647   1.848   1.714   9.747 -0.2266  0.6736 -0.0705
  374TMC3    C5 5648   1.886   1.764   9.626  0.9233  0.8442 -0.3036
  374TMC3    C6 5649   1.993   1.849   9.617 -0.1418 -0.0460 -0.3901
  374TMC3     C 5650   1.868   1.723   9.989 -0.5645 -0.8225 -0.0139
  374TMC3     O 5651   1.799   1.623  10.003 -0.5009 -0.1153 -0.0305
  374TMC3     H 5652   2.088   1.858   9.933  0.7428 -0.5381 -1.0163
  374TMC3    H1 5653   1.761   1.650   9.758  0.3525 -0.2535 -0.9077
  374TMC3    H2 5654   2.029   1.876   9.519  1.7575  0.6650  0.5035
  374TMC3    C7 5655   1.841   1.706   9.500  0.3675 -0.3379  0.5646
  374TMC3    C8 5656   2.179   1.968   9.696 -0.3775 -0.6201 -0.0342
  374TMC3    O1 5657   1.923   1.718   9.411  0.2908 -0.2227  0.0730
  374TMC3    O2 5658   2.218   1.978   9.579  0.1551 -0.4277  0.2357
  375MPD2     C 5659   1.824   2.778  17.127  0.2589 -0.1853  0.2936
  375MPD2    C1 5660   1.705   2.735  17.070  0.7292  0.3988  0.5132
  375MPD2    C2 5661   1.701   2.651  16.958 -0.0157  0.6145 -0.4713
  375MPD2    C3 5662   1.819   2.599  16.914 -1.4319  0.0468 -0.1003
  375MPD2    C4 5663   1.934   2.632  16.978 -0.6809 -0.5896 -0.2852
  375MPD2    C5 5664   1.940   2.717  17.089 -0.2357  0.3279 -0.2294
  375MPD2     H 5665   1.608   2.607  16.925  1.4436 -2.0958 -0.9428
  375MPD2    H1 5666   2.029   2.586  16.953 -0.6956 -0.8588  0.1415
  375MPD2    H2 5667   1.839   2.834  17.218 -1.8372  1.4647 -0.3670
  375MPD2    H3 5668   2.027   2.747  17.147 -0.1934  0.8496 -0.5623
  375MPD2     N 5669   1.827   2.512  16.811  0.9579  0.5442 -0.5073
  375MPD2    H5 5670   1.912   2.456  16.812  1.5872  1.4996  0.1760
  375MPD2    N1 5671   1.580   2.769  17.126 -0.1393 -0.1778  0.6912
  375MPD2    H7 5672   1.499   2.721  17.091  0.5636  0.9358 -2.4623
  376TMC3    C1 5673   1.765   2.382  16.620  0.5327 -0.3625 -0.0248
  376TMC3    C2 5674   1.891   2.324  16.627  0.5936  0.7084  0.0518
  376TMC3    C3 5675   1.903   2.208  16.561  0.5301  0.0264 -0.3921
  376TMC3    C4 5676   1.664   2.328  16.551 -0.6608 -0.6713  0.1340
  376TMC3    C5 5677   1.689   2.227  16.473 -0.5032 -0.4410  0.1757
  376TMC3    C6 5678   1.810   2.163  16.476  0.5161 -0.3540 -0.0306
  376TMC3     C 5679   1.729   2.480  16.718  0.2549 -0.1552  0.1067
  376TMC3     O 5680   1.614   2.510  16.720  0.5006 -0.0507 -0.2473
  376TMC3     H 5681   1.979   2.369  16.672  1.3515  1.0322 -1.7659
  376TMC3    H1 5682   1.564   2.369  16.563  0.8526  2.1396  3.0719
  376TMC3    H2 5683   1.815   2.076  16.412 -2.3502  1.7287 -3.1097
  376TMC3    C7 5684   1.578   2.189  16.378  0.2023 -0.6224  0.7663
  376TMC3    C8 5685   2.034   2.173  16.521  0.2372  0.9456  0.2773
  376TMC3    O1 5686   1.491   2.276  16.366 -0.9252  0.0014  0.1396
  376TMC3    O2 5687   2.103   2.264  16.475  0.0081 -0.1722 -0.4748
  377MPD2     C 5688   0.782   1.435  13.187  0.3921  0.0680 -0.4234
  377MPD2    C1 5689   0.669   1.415  13.105 -0.7916 -0.5550  0.3924
  377MPD2    C2 5690   0.555   1.362  13.162 -0.3143 -1.1685  0.3858
  377MPD2    C3 5691   0.544   1.341  13.294 -0.4356  0.1822 -0.2319
  377MPD2    C4 5692   0.651   1.375  13.374  0.2500  0.6469  0.7284
  377MPD2    C5 5693   0.773   1.413  13.320  0.5282  0.3379 -0.3513
  377MPD2     H 5694   0.469   1.346  13.099 -1.4626  3.1327  0.8719
  377MPD2    H1 5695   0.645   1.344  13.477  0.8028 -2.4707 -0.1576
  377MPD2    H2 5696   0.879   1.466  13.149  1.4274  0.1396  2.2643
  377MPD2    H3 5697   0.859   1.422  13.386 -0.0477 -0.2502  0.4844
  377MPD2     N 5698   0.423   1.301  13.359 -0.1107 -0.0288  0.0884
  377MPD2    H5 5699   0.433   1.299  13.460 -1.4928  1.7130  0.2573
  377MPD2    N1 5700   0.690   1.452  12.971 -0.4475  0.2304  0.7129
  377MPD2    H7 5701   0.783   1.486  12.948 -0.3125 -0.1797  0.6659
  378TMC3    C1 5702   0.620   1.598  12.536 -0.6731 -0.2924 -0.7196
  378TMC3    C2 5703   0.573   1.569  12.660 -0.0711 -0.1110 -0.4795
  378TMC3    C3 5704   0.651   1.481  12.737 -0.0501 -0.1521  0.0813
  378TMC3    C4 5705   0.737   1.554  12.488 -0.7579  0.3356  0.2727
  378TMC3    C5 5706   0.806   1.471  12.568 -0.6402 -0.0037  0.2032
  378TMC3    C6 5707   0.772   1.433  12.694 -0.4030  0.1002  0.0244
  378TMC3     C 5708   0.539   1.700  12.456 -0.0724  0.3638  0.0516
  378TMC3     O 5709   0.415   1.710  12.478 -0.2790  0.4447  0.1371
  378TMC3     H 5710   0.477   1.602  12.696  0.4096 -0.8603  1.5052
  378TMC3    H1 5711   0.755   1.554  12.381  0.0938  0.9192  0.4151
  378TMC3    H2 5712   0.832   1.360  12.747 -1.6509 -0.5696  0.5073
  378TMC3    C7 5713   0.906   1.391  12.503  0.1383  0.7457 -0.2888
  378TMC3    C8 5714   0.596   1.446  12.872 -0.0851 -0.3073 -0.4413
  378TMC3    O1 5715   0.916   1.272  12.531 -0.3453 -0.0911  0.0783
  378TMC3    O2 5716   0.474   1.451  12.881 -0.1639  0.0020 -0.2172
  379MPD2     C 5717   0.647   4.236  16.214  0.1421 -0.0350 -0.4133
  379MPD2    C1 5718   0.515   4.262  16.247 -0.5570  0.1368 -0.3581
  379MPD2    C2 5719   0.484   4.283  16.382  0.8614  0.5864  0.2577
  379MPD2    C3 5720   0.573   4.248  16.484  0.8464 -0.2543 -0.3509
  379MPD2    C4 5721   0.704   4.221  16.441  0.5893 -0.1495 -0.4560
  379MPD2    C5 5722   0.744   4.221  16.315  0.3380  0.9565  0.2004
  379MPD2     H 5723   0.384   4.319  16.400  0.0463 -2.3147  1.4981
  379MPD2    H1 5724   0.773   4.199  16.522 -0.3494  1.2763  0.7422
  379MPD2    H2 5725   0.674   4.251  16.110  1.7176 -0.1361 -0.0165
  379MPD2    H3 5726   0.844   4.194  16.283  0.6594  3.5528 -1.0142
  379MPD2     N 5727   0.547   4.257  16.617  0.5028  0.2938 -0.3991
  379MPD2    H5 5728   0.619   4.221  16.679 -0.6887 -0.0680  0.7794
  379MPD2    N1 5729   0.426   4.287  16.138 -0.5906 -0.0220 -0.5240
  379MPD2    H7 5730   0.463   4.288  16.043 -2.3946 -0.5683 -1.2167
  380TMC3    C1 5731   0.225   4.349  16.023  0.2695  0.7435 -0.3831
  380TMC3    C2 5732   0.290   4.450  15.952  0.2184  0.0857 -0.3175
  380TMC3    C3 5733   0.212   4.528  15.868  0.5425  0.0186 -0.2099
  380TMC3    C4 5734   0.087   4.339  16.004 -0.4842 -0.0306 -0.5843
  380TMC3    C5 5735   0.009   4.414  15.917 -0.3592  0.0804 -0.4371
  380TMC3    C6 5736   0.077   4.511  15.843  0.2639  0.3292 -0.0057
  380TMC3     C 5737   0.288   4.312  16.150 -0.4147  0.0255 -0.0417
  380TMC3     O 5738   0.207   4.318  16.243  0.1060  0.4292  0.2386
  380TMC3     H 5739   0.396   4.460  15.975  0.2000  0.8004 -0.5403
  380TMC3    H1 5740   0.026   4.268  16.058  0.1488  1.0222  1.4961
  380TMC3    H2 5741   0.031   4.583  15.776  0.2350  0.2024 -0.1229
  380TMC3    C7 5742   4.610   4.459  15.976  0.0847 -0.8780  0.6226
  380TMC3    C8 5743   0.282   4.636  15.795  0.1493 -0.4537 -0.1397
  380TMC3    O1 5744   4.593   4.424  16.090 -1.3652  0.3053  0.0218
  380TMC3    O2 5745   0.220   4.696  15.709 -0.0421  0.0726 -0.0201
  381TMC3    C1 5746   4.723   1.008  16.060  0.1901 -0.1331  0.8331
  381TMC3    C2 5747   0.105   0.993  16.136 -0.1708  0.4178  0.3845
  381TMC3    C3 5748   0.106   1.044  16.262 -0.1638  0.5268  0.3561
  381TMC3    C4 5749   4.599   1.057  16.107 -0.1652  0.2616 -0.4909
  381TMC3    C5 5750   4.614   1.107  16.231 -0.3246 -0.3138 -0.4124
  381TMC3    C6 5751   4.730   1.112  16.309 -0.4066  0.1365 -0.0026
  381TMC3     C 5752   4.731   0.954  15.925 -0.1617  0.4056 -0.6587
  381TMC3     O 5753   4.666   1.017  15.841 -0.0568 -0.3440 -0.2154
  381TMC3     H 5754   0.195   0.957  16.088 -0.0352  0.1478  0.8446
  381TMC3    H1 5755   4.508   1.058  16.048 -0.8661  2.7806  0.6319
  381TMC3    H2 5756   4.730   1.157  16.408  0.0877  0.9525 -0.3702
  381TMC3    C7 5757   4.490   1.163  16.280  0.0234 -0.0216 -0.4413
  381TMC3    C8 5758   0.243   1.080  16.306 -0.4807 -0.0772  0.2050
  381TMC3    O1 5759   4.387   1.112  16.233 -0.1298  0.5115  0.1253
  381TMC3    O2 5760   0.322   1.074  16.213 -0.6237 -0.1470 -0.7853
  382MPD2     C 5761   3.763   3.837  17.014  0.2527  0.4381  0.1593
  382MPD2    C1 5762   3.761   3.823  17.151 -0.0232  0.5791  0.5031
  382MPD2    C2 5763   3.751   3.700  17.203  0.1184 -0.3312 -0.0785
  382MPD2    C3 5764   3.736   3.584  17.124  0.2784  0.3863  0.2051
  382MPD2    C4 5765   3.722   3.601  16.989 -0.7003 -0.2354 -0.0287
  382MPD2    C5 5766   3.745   3.724  16.934 -0.0163 -0.6603 -0.2518
  382MPD2     H 5767   3.764   3.691  17.310 -2.3844 -0.3955  0.2187
  382MPD2    H1 5768   3.720   3.516  16.922 -0.0226  1.0117 -1.6529
  382MPD2    H2 5769   3.769   3.929  16.958  0.5867  1.5707  2.0578
  382MPD2    H3 5770   3.747   3.731  16.826  1.2804  0.7394 -0.1327
  382MPD2     N 5771   3.715   3.451  17.176  0.3171  0.5045  0.3654
  382MPD2    H5 5772   3.713   3.376  17.108 -0.3239  0.4275  0.4702
  382MPD2    N1 5773   3.773   3.930  17.246 -0.4951 -0.0778 -0.0370
  382MPD2    H7 5774   3.758   3.913  17.345 -2.2831  0.0707 -0.2851
  383TMC3    C1 5775   3.729   3.270  17.331  0.3485 -0.0829 -0.1662
  383TMC3    C2 5776   3.694   3.179  17.237 -0.1669  0.3064 -0.3210
  383TMC3    C3 5777   3.726   3.045  17.258 -0.2670  0.0500 -0.6237
  383TMC3    C4 5778   3.773   3.225  17.454 -0.2894  0.2616 -0.7539
  383TMC3    C5 5779   3.786   3.089  17.470  0.3344  0.3792 -0.2874
  383TMC3    C6 5780   3.767   2.997  17.378  0.0140 -0.1647  0.1689
  383TMC3     C 5781   3.722   3.414  17.304 -0.1720  0.0754  0.3228
  383TMC3     O 5782   3.697   3.485  17.397 -0.2265  0.3520 -0.3966
  383TMC3     H 5783   3.669   3.213  17.137 -3.4301  1.2922  0.8498
  383TMC3    H1 5784   3.804   3.293  17.532 -1.1548 -1.9207  1.4942
  383TMC3    H2 5785   3.807   2.899  17.397  2.8270  0.7776 -0.8460
  383TMC3    C7 5786   3.832   3.046  17.600  0.0565  0.1953 -0.4589
  383TMC3    C8 5787   3.726   2.960  17.141 -0.4796  0.4841  0.3125
  383TMC3    O1 5788   3.796   2.932  17.631 -0.0374  0.1721 -0.0672
  383TMC3    O2 5789   3.778   3.006  17.041 -0.3081 -0.0999  0.0306
  384MPD2     C 5790   1.599   4.386  12.384 -0.0558 -0.0157  0.5636
  384MPD2    C1 5791   1.566   4.261  12.419  0.3166  0.0720 -0.0566
  384MPD2    C2 5792   1.655   4.159  12.394 -0.6289 -0.0350  0.1174
  384MPD2    C3 5793   1.768   4.173  12.323  0.0135 -0.4812  0.3283
  384MPD2    C4 5794   1.808   4.302  12.297 -1.1792  0.1714  0.1604
  384MPD2    C5 5795   1.727   4.412  12.338 -0.4483 -0.2853 -0.2261
  384MPD2     H 5796   1.621   4.057  12.405  0.5697 -0.0860  3.5605
  384MPD2    H1 5797   1.900   4.330  12.248 -1.3296  1.1334  0.4056
  384MPD2    H2 5798   1.526   4.465  12.390  0.9856  1.0438 -0.5360
  384MPD2    H3 5799   1.756   4.510  12.302  1.2668 -2.0940 -3.7542
  384MPD2     N 5800   1.859   4.071  12.280  0.0664  0.3706 -0.0948
  384MPD2    H5 5801   1.930   4.100  12.213 -0.5747 -0.6001 -1.1957
  384MPD2    N1 5802   1.444   4.229  12.483 -0.1348 -0.0433  0.9850
  384MPD2    H7 5803   1.430   4.133  12.512  1.8284 -1.0340 -1.3580
  385TMC3    C1 5804   1.908   3.844  12.229  0.7634 -0.7729  0.6172
  385TMC3    C2 5805   1.885   3.866  12.094 -0.8726  0.2844  0.0637
  385TMC3    C3 5806   1.858   3.761  12.006 -0.5053  0.3032  0.2203
  385TMC3    C4 5807   1.899   3.716  12.281  0.4934  0.1535  0.6429
  385TMC3    C5 5808   1.870   3.617  12.191 -0.2075  0.3358  0.8314
  385TMC3    C6 5809   1.852   3.637  12.058 -0.4632 -0.7528  0.7456
  385TMC3     C 5810   1.857   3.943  12.325  0.3550  0.3427 -0.8960
  385TMC3     O 5811   1.788   3.886  12.408 -0.3646  0.0976 -0.0816
  385TMC3     H 5812   1.868   3.967  12.059  3.2974  1.1137  0.4407
  385TMC3    H1 5813   1.904   3.698  12.387  0.3746 -0.5201  0.5318
  385TMC3    H2 5814   1.799   3.562  12.000 -0.5101  0.6962 -1.1000
  385TMC3    C7 5815   1.759   3.527  12.235  0.1190  0.1485 -0.5278
  385TMC3    C8 5816   1.794   3.782  11.883  0.1511  0.0043  0.3345
  385TMC3    O1 5817   1.731   3.422  12.175  0.2179 -0.0035 -0.0096
  385TMC3    O2 5818   1.748   3.891  11.860  0.1868  0.2923  0.9380
  386TMC3    C1 5819   1.976   1.569  11.777  0.0915 -0.2018  0.0312
  386TMC3    C2 5820   2.024   1.640  11.668  0.5797  0.4619 -0.7221
  386TMC3    C3 5821   1.980   1.768  11.643  0.9985 -0.6028 -0.2938
  386TMC3    C4 5822   1.887   1.622  11.863  0.3776 -0.2460 -0.4018
  386TMC3    C5 5823   1.844   1.751  11.837  0.0888 -0.3557  0.2851
  386TMC3    C6 5824   1.885   1.818  11.725  0.1370  0.3529 -0.0633
  386TMC3     C 5825   2.022   1.440  11.801  0.1634  0.6064  0.4254
  386TMC3     O 5826   2.139   1.424  11.839 -0.0472  0.0727 -0.3407
  386TMC3     H 5827   2.102   1.593  11.611  0.9276  0.0650  0.0787
  386TMC3    H1 5828   1.864   1.563  11.951  2.3061 -1.3213 -0.6249
  386TMC3    H2 5829   1.839   1.912  11.699  0.4372  0.6651  0.5405
  386TMC3    C7 5830   1.717   1.782  11.906 -0.2220  0.5152 -0.3521
  386TMC3    C8 5831   1.955   1.785  11.501 -0.3880 -0.0046  0.3103
  386TMC3    O1 5832   1.690   1.706  11.998 -0.2723  0.3224 -0.3450
  386TMC3    O2 5833   1.908   1.895  11.471  0.0476  0.3293 -0.2153
  387MPD2     C 5834   3.908   2.202   9.822  0.0226 -0.3080  0.1997
  387MPD2    C1 5835   4.019   2.151   9.888 -0.5905  0.3463 -0.4379
  387MPD2    C2 5836   4.030   2.017   9.908 -0.1454  0.7360  0.2361
  387MPD2    C3 5837   3.943   1.930   9.858 -0.4452 -0.4887  0.1960
  387MPD2    C4 5838   3.836   1.971   9.784  0.3399  0.2501  0.5901
  387MPD2    C5 5839   3.823   2.107   9.758  0.2227 -0.4185  0.2371
  387MPD2     H 5840   4.111   1.977   9.968 -0.5788  0.6920  0.7877
  387MPD2    H1 5841   3.787   1.898   9.721  0.6290 -0.1725  0.8435
  387MPD2    H2 5842   3.890   2.308   9.806  0.5694 -0.0668  1.2124
  387MPD2    H3 5843   3.749   2.153   9.694  1.4651  0.0913 -0.8300
  387MPD2     N 5844   3.990   1.795   9.860  0.4197  0.6542 -0.2401
  387MPD2    H5 5845   4.074   1.767   9.910  0.2255  0.3789 -0.0676
  387MPD2    N1 5846   4.123   2.217   9.954  0.0970  0.5277  0.0661
  387MPD2    H7 5847   4.194   2.159   9.995 -1.4135 -1.5559 -0.2765
  388TMC3    C1 5848   4.309   2.365   9.936 -0.0574 -0.6886 -0.6797
  388TMC3    C2 5849   4.355   2.491   9.963 -0.5276  0.5801 -0.5066
  388TMC3    C3 5850   4.488   2.505   9.997 -0.6392 -0.7473  0.1831
  388TMC3    C4 5851   4.392   2.258   9.949 -0.0722 -0.8144  0.2747
  388TMC3    C5 5852   4.515   2.270   9.996  0.0307  0.2299 -0.4155
  388TMC3    C6 5853   4.568   2.395  10.009 -0.4033 -0.4722  0.1128
  388TMC3     C 5854   4.165   2.342   9.919  0.1056 -0.1254 -0.6599
  388TMC3     O 5855   4.100   2.437   9.889 -0.1723  0.4060 -0.1199
  388TMC3     H 5856   4.294   2.582   9.962 -0.8106  0.3823 -1.9457
  388TMC3    H1 5857   4.364   2.162   9.907 -2.7919  0.9816 -2.0200
  388TMC3    H2 5858   4.663   2.388  10.060 -0.7081  0.1174  0.7751
  388TMC3    C7 5859   4.608   2.163  10.038  0.3458  0.1415  0.3707
  388TMC3    C8 5860   4.547   2.631  10.003  0.6125  0.3366  0.2524
  388TMC3    O1 5861   4.726   2.180  10.014 -0.1058 -0.2756  0.0801
  388TMC3    O2 5862   4.472   2.726  10.032  0.5961 -0.0951 -0.4359
  389MPD2     C 5863   3.751   0.683  11.342  0.9375 -0.3872 -0.1752
  389MPD2    C1 5864   3.630   0.626  11.313 -0.0612 -0.7129 -0.8268
  389MPD2    C2 5865   3.545   0.596  11.416  0.1173 -0.0292  0.3106
  389MPD2    C3 5866   3.579   0.629  11.546  0.0694 -0.4316  0.9773
  389MPD2    C4 5867   3.696   0.702  11.573 -0.2242 -0.3928  0.0332
  389MPD2    C5 5868   3.785   0.716  11.470  0.3358 -0.3174 -0.4599
  389MPD2     H 5869   3.449   0.552  11.393 -0.0726  0.0474  0.9640
  389MPD2    H1 5870   3.735   0.720  11.672  1.6662 -1.8477 -0.4588
  389MPD2    H2 5871   3.816   0.709  11.259 -0.7848  0.9662 -1.1073
  389MPD2    H3 5872   3.882   0.759  11.492  1.0694 -1.3186 -1.7065
  389MPD2     N 5873   3.494   0.594  11.656 -0.8840  0.2223 -0.2146
  389MPD2    H5 5874   3.522   0.606  11.752  1.3565 -4.0828 -0.3460
  389MPD2    N1 5875   3.611   0.596  11.177  0.6962  0.3072  0.2711
  389MPD2    H7 5876   3.688   0.622  11.117 -0.6521  1.7890 -0.8269
  390TMC3    C1 5877   3.313   0.503  11.778 -0.1887 -0.8407  0.4306
  390TMC3    C2 5878   3.394   0.440  11.869 -0.6849 -0.2891  0.3147
  390TMC3    C3 5879   3.341   0.377  11.979  0.7526  0.5870  0.6423
  390TMC3    C4 5880   3.181   0.473  11.777  0.2884 -0.1205  0.0959
  390TMC3    C5 5881   3.129   0.403  11.881 -0.2336 -0.8787 -0.6929
  390TMC3    C6 5882   3.207   0.374  11.990  0.0610  0.2621 -0.3777
  390TMC3     C 5883   3.364   0.550  11.649  0.8439 -0.4673  0.0035
  390TMC3     O 5884   3.284   0.543  11.558  0.3215 -0.4629  0.1401
  390TMC3     H 5885   3.497   0.423  11.840 -0.6869 -2.7278  1.7296
  390TMC3    H1 5886   3.114   0.508  11.699  0.2831 -1.1867 -0.3692
  390TMC3    H2 5887   3.160   0.319  12.072  0.8346  0.0591 -0.0686
  390TMC3    C7 5888   3.063   0.289  11.823  0.0148  0.2328  0.7023
  390TMC3    C8 5889   3.388   0.237  12.005 -0.0766 -0.2764  0.0417
  390TMC3    O1 5890   3.046   0.306  11.702  0.5145  0.0985  0.3280
  390TMC3    O2 5891   3.448   0.181  11.912  0.2370  0.3065 -0.1023
  391MPD2     C 5892   2.792   1.785  10.964 -0.2528  0.3275  0.2702
  391MPD2    C1 5893   2.901   1.812  10.881 -0.0913  1.1514  0.5135
  391MPD2    C2 5894   2.874   1.858  10.752  0.1573  0.5695  0.1426
  391MPD2    C3 5895   2.747   1.897  10.713  0.6410 -0.5247  0.6175
  391MPD2    C4 5896   2.644   1.855  10.789  0.0215  0.2588 -0.4017
  391MPD2    C5 5897   2.662   1.789  10.909 -0.4849  0.8551 -0.3861
  391MPD2     H 5898   2.948   1.893  10.681  0.5619 -0.2144  0.1769
  391MPD2    H1 5899   2.544   1.878  10.754 -0.4081  1.2623  1.4569
  391MPD2    H2 5900   2.808   1.763  11.069 -1.1739  0.9481  0.5442
  391MPD2    H3 5901   2.580   1.750  10.969 -0.7090  3.2552  0.9030
  391MPD2     N 5902   2.740   1.981  10.597  0.7293  0.4960 -0.6249
  391MPD2    H5 5903   2.820   1.995  10.537  1.8672  2.4688  1.3536
  391MPD2    N1 5904   3.033   1.813  10.938 -0.8554 -0.1236  0.1602
  391MPD2    H7 5905   3.034   1.818  11.040  3.8118  5.1210 -0.1474
  392TMC3    C1 5906   2.656   2.136  10.435 -0.4253  0.2024  0.1729
  392TMC3    C2 5907   2.547   2.188  10.369 -0.1622 -0.5389  0.1276
  392TMC3    C3 5908   2.573   2.284  10.278  0.0014 -0.9532  0.5805
  392TMC3    C4 5909   2.789   2.180  10.413 -0.3058  0.0100  0.2462
  392TMC3    C5 5910   2.809   2.286  10.326 -0.1416 -0.4917 -0.1286
  392TMC3    C6 5911   2.701   2.335  10.251  0.4522  0.2027  0.2955
  392TMC3     C 5912   2.626   2.043  10.546 -0.2064 -0.1603  0.7868
  392TMC3     O 5913   2.506   2.029  10.576  0.0262  0.4873  0.4070
  392TMC3     H 5914   2.446   2.151  10.385 -1.5277  2.5971 -1.3893
  392TMC3    H1 5915   2.871   2.136  10.468 -1.5558  0.8355  2.7656
  392TMC3    H2 5916   2.719   2.413  10.177 -0.4995  0.8403  0.7494
  392TMC3    C7 5917   2.943   2.342  10.316 -0.6736 -1.1883 -0.2376
  392TMC3    C8 5918   2.471   2.293  10.171 -0.1278 -0.4221 -0.5928
  392TMC3    O1 5919   3.019   2.334  10.406  0.3046  0.2194 -0.3699
  392TMC3    O2 5920   2.357   2.255  10.195  0.5978  0.8295 -0.3854
  393TMC3    C1 5921   1.763   4.361  10.693  0.6181 -0.0453 -0.0058
  393TMC3    C2 5922   1.635   4.319  10.709  0.0169  0.4949  0.3347
  393TMC3    C3 5923   1.592   4.225  10.624  0.0366 -0.3990 -0.4280
  393TMC3    C4 5924   1.849   4.316  10.599  0.4413 -0.4285 -0.1281
  393TMC3    C5 5925   1.799   4.210  10.533 -0.4254  0.1075  0.3953
  393TMC3    C6 5926   1.670   4.164  10.532  0.0755  0.0543  0.1347
  393TMC3     C 5927   1.821   4.446  10.792 -0.7807  0.2796 -0.6429
  393TMC3     O 5928   1.933   4.425  10.833  0.2191  0.5957  0.1708
  393TMC3     H 5929   1.570   4.356  10.787  1.0459  1.1750  0.8636
  393TMC3    H1 5930   1.953   4.346  10.590  0.6956 -1.1598  0.3603
  393TMC3    H2 5931   1.664   4.069  10.479  0.2527 -0.3934  0.9054
  393TMC3    C7 5932   1.868   4.177  10.411 -1.0523  0.0034 -0.0459
  393TMC3    C8 5933   1.460   4.173  10.639  0.3427 -0.3476 -0.1098
  393TMC3    O1 5934   1.803   4.159  10.310 -0.4869  0.6120 -0.0278
  393TMC3    O2 5935   1.403   4.184  10.745  0.7397  0.0606  0.0310
  394TMC3    C1 5936   3.499   0.540  10.971  0.3780 -0.4903  0.2241
  394TMC3    C2 5937   3.377   0.515  10.908  0.2186  0.3587  0.2981
  394TMC3    C3 5938   3.369   0.531  10.772  0.2358  0.1847  0.1788
  394TMC3    C4 5939   3.616   0.551  10.902  0.9595  0.7456 -0.7500
  394TMC3    C5 5940   3.600   0.550  10.762  0.0233  0.0165  0.4013
  394TMC3    C6 5941   3.480   0.558  10.693  0.1087  0.6652  0.4367
  394TMC3     C 5942   3.497   0.543  11.119 -0.3218 -0.3448 -0.1095
  394TMC3     O 5943   3.391   0.533  11.176  0.5492  0.2474  0.1556
  394TMC3     H 5944   3.288   0.486  10.961  0.0907 -0.8254 -0.5846
  394TMC3    H1 5945   3.710   0.557  10.956  1.8664  0.9244 -2.3404
  394TMC3    H2 5946   3.477   0.562  10.585  0.6329  0.9922  0.4346
  394TMC3    C7 5947   3.724   0.553  10.688 -0.1102  0.5871  0.4425
  394TMC3    C8 5948   3.253   0.465  10.719 -0.7427 -0.5514 -0.1181
  394TMC3    O1 5949   3.708   0.595  10.573  0.1197  0.6331  0.2081
  394TMC3    O2 5950   3.144   0.501  10.766  0.1817 -1.3190  0.7260
  395TMC3    C1 5951   2.701   2.051  14.905  0.3610 -0.6002 -0.2881
  395TMC3    C2 5952   2.591   2.098  14.838  0.1389  0.3457  0.4936
  395TMC3    C3 5953   2.606   2.157  14.710  0.8716 -0.0513  0.1592
  395TMC3    C4 5954   2.825   2.082  14.852  0.1155  0.2862  0.4624
  395TMC3    C5 5955   2.842   2.150  14.735  1.1280 -0.7192 -0.1525
  395TMC3    C6 5956   2.731   2.185  14.660  0.7309  0.0955  0.3715
  395TMC3     C 5957   2.675   2.030  15.050 -0.3607 -0.7652  0.0788
  395TMC3     O 5958   2.561   2.058  15.088  0.5176  0.3931  0.4254
  395TMC3     H 5959   2.497   2.059  14.877  0.0996  1.2950  1.3302
  395TMC3    H1 5960   2.918   2.049  14.898  2.2902  2.2045 -2.5769
  395TMC3    H2 5961   2.735   2.245  14.569 -0.8908  0.3400  0.4551
  395TMC3    C7 5962   2.973   2.217  14.717  0.4402  1.0150 -0.2321
  395TMC3    C8 5963   2.490   2.193  14.635 -0.1624 -0.1138 -0.4087
  395TMC3    O1 5964   3.044   2.236  14.818  0.0265 -0.0179  0.4874
  395TMC3    O2 5965   2.508   2.219  14.516 -0.6353 -0.2640  0.3982
  396MPD2     C 5966   2.952   2.904  16.970 -0.4514  1.0713  0.4994
  396MPD2    C1 5967   2.847   2.919  17.058 -0.1546  1.0606 -0.6980
  396MPD2    C2 5968   2.753   3.016  17.044  0.2956  0.3275  0.8774
  396MPD2    C3 5969   2.760   3.096  16.928  0.1611 -0.2884  0.6431
  396MPD2    C4 5970   2.867   3.090  16.841  0.1925 -0.7281 -0.1153
  396MPD2    C5 5971   2.955   2.987  16.859 -0.4489 -0.2080 -0.8553
  396MPD2     H 5972   2.667   3.019  17.109 -1.5313  2.1824 -1.6097
  396MPD2    H1 5973   2.878   3.139  16.745  0.9856  1.7388  1.2476
  396MPD2    H2 5974   3.018   2.819  16.978 -3.0145 -1.0422 -0.8560
  396MPD2    H3 5975   3.026   2.973  16.778 -0.2059  0.9059 -0.8296
  396MPD2     N 5976   2.643   3.169  16.901  0.5110 -0.0788  1.2316
  396MPD2    H5 5977   2.577   3.168  16.978  1.3755 -1.3071  1.9586
  396MPD2    N1 5978   2.842   2.830  17.170  0.2918 -0.9975  0.0162
  396MPD2    H7 5979   2.920   2.765  17.177 -0.8382 -2.2028  1.4338
  397TMC3    C1 5980   2.765   2.722  17.366 -0.8676 -0.4168 -0.3084
  397TMC3    C2 5981   2.824   2.606  17.313  0.1249 -0.0106 -0.2307
  397TMC3    C3 5982   2.739   2.503  17.280  1.0113 -0.4821  0.8747
  397TMC3    C4 5983   2.643   2.712  17.433 -0.2713 -0.4022  0.3170
  397TMC3    C5 5984   2.571   2.596  17.418 -0.2228  0.6902  0.2965
  397TMC3    C6 5985   2.616   2.496  17.339  0.2400 -0.4813  0.0897
  397TMC3     C 5986   2.760   2.836  17.280  0.1070  0.3190  0.0067
  397TMC3     O 5987   2.667   2.911  17.301 -0.5769 -0.4612 -0.2893
  397TMC3     H 5988   2.921   2.620  17.268 -0.7881 -0.0772 -2.2084
  397TMC3    H1 5989   2.590   2.791  17.486  0.6160 -2.1779  3.8836
  397TMC3    H2 5990   2.545   2.415  17.328 -0.1289 -0.0546 -0.6250
  397TMC3    C7 5991   2.442   2.580  17.486  0.0023 -0.1097  0.0005
  397TMC3    C8 5992   2.743   2.453  17.139 -0.3690  0.1586 -0.9698
  397TMC3    O1 5993   2.351   2.538  17.410 -0.6218  0.2341 -0.4945
  397TMC3    O2 5994   2.635   2.441  17.090 -0.2815  0.0562 -0.4444
  398MPD2     C 5995   4.713   4.669  17.701  0.1011  0.0134  0.1022
  398MPD2    C1 5996   0.093   4.652   0.038 -0.0894  1.1065 -0.5912
  398MPD2    C2 5997   0.159   0.019   0.106 -0.1604  0.0963 -0.4535
  398MPD2    C3 5998   0.107   0.142   0.099  0.3209  0.2060 -0.2884
  398MPD2    C4 5999   4.717   0.167   0.030 -0.5076 -0.6743 -0.2620
  398MPD2    C5 6000   4.666   0.067  17.688  0.0902 -0.3487 -0.1706
  398MPD2     H 6001   0.243   0.005   0.173  0.3644 -1.2180 -1.3814
  398MPD2    H1 6002   4.663   0.261   0.022 -1.3679 -1.0517  1.1338
  398MPD2    H2 6003   4.658   4.593  17.647 -2.2004  0.4123  1.8781
  398MPD2    H3 6004   4.570   0.074  17.638  0.7548 -0.4529 -1.4569
  398MPD2     N 6005   0.165   0.239   0.175  0.4776  0.7524 -0.5003
  398MPD2    H5 6006   0.243   0.225   0.238 -0.1755 -1.7380 -0.2276
  398MPD2    N1 6007   0.132   4.516   0.065  0.6378  0.1167 -0.4442
  398MPD2    H7 6008   0.070   4.445   0.029 -0.5857  1.1419 -0.3414
  399TMC3    C1 6009   0.250   4.336   0.160 -0.0666 -0.1951 -0.6988
  399TMC3    C2 6010   0.354   4.298   0.250  0.1792 -0.1122  0.1774
  399TMC3    C3 6011   0.346   4.179   0.306 -0.6745 -0.5953  0.1590
  399TMC3    C4 6012   0.142   4.250   0.137 -0.0512  0.8652 -0.4046
  399TMC3    C5 6013   0.144   4.125   0.201 -0.7340  0.0862 -0.3734
  399TMC3    C6 6014   0.245   4.086   0.285 -0.1442 -0.2781 -0.4134
  399TMC3     C 6015   0.237   4.478   0.147  0.4128 -0.0758  0.0811
  399TMC3     O 6016   0.326   4.544   0.208 -0.0707  0.0711 -0.5544
  399TMC3     H 6017   0.442   4.356   0.276 -0.4296  0.5774  0.6621
  399TMC3    H1 6018   0.050   4.282   0.089 -0.6272  0.7004  0.5941
  399TMC3    H2 6019   0.242   3.987   0.329  1.3734  0.6578  1.8139
  399TMC3    C7 6020   0.041   4.025   0.157 -0.2746 -0.1485 -0.1073
  399TMC3    C8 6021   0.455   4.156   0.403 -0.4053  0.3815  1.0723
  399TMC3    O1 6022   0.040   3.919   0.211  0.6352 -0.0179  0.4423
  399TMC3    O2 6023   0.530   4.244   0.426  0.2584  0.4608  0.7395
  400TMC3    C1 6024   4.027   2.734  16.913 -0.1668  0.0446 -0.0081
  400TMC3    C2 6025   4.019   2.624  16.828 -0.1673 -0.1955 -0.3781
  400TMC3    C3 6026   3.973   2.643  16.701 -0.3180  0.4982  0.1069
  400TMC3    C4 6027   4.006   2.856  16.868  0.6404  0.3657  0.0730
  400TMC3    C5 6028   3.995   2.869  16.731  0.4273  0.0566  0.1123
  400TMC3    C6 6029   3.963   2.767  16.646 -0.1080  0.5490 -0.3436
  400TMC3     C 6030   4.040   2.704  17.053 -0.3235 -0.2417 -0.1894
  400TMC3     O 6031   4.012   2.594  17.096  0.2031 -0.2575 -0.1930
  400TMC3     H 6032   4.047   2.532  16.877 -0.2967  0.6178  1.2013
  400TMC3    H1 6033   4.004   2.945  16.929  1.7531  0.3760  0.0864
  400TMC3    H2 6034   3.923   2.780  16.546  1.2710 -0.6968 -1.0714
  400TMC3    C7 6035   3.956   3.002  16.682 -0.2940  0.9554 -0.6560
  400TMC3    C8 6036   3.888   2.541  16.644 -1.2235  0.4607  0.3077
  400TMC3    O1 6037   4.010   3.031  16.574 -0.2235  0.0973 -0.5147
  400TMC3    O2 6038   3.826   2.571  16.542 -1.0680  0.1968 -0.2712
  401MPD2     C 6039   2.606   1.894   1.559  0.9238 -0.8729  0.7300
  401MPD2    C1 6040   2.665   1.919   1.437 -0.0340 -0.4284 -0.2000
  401MPD2    C2 6041   2.623   1.854   1.321  0.2103  0.1644 -0.0120
  401MPD2    C3 6042   2.526   1.753   1.332 -0.5022 -0.6569 -0.3755
  401MPD2    C4 6043   2.486   1.718   1.462 -0.1544 -0.1230 -0.5012
  401MPD2    C5 6044   2.517   1.790   1.568 -0.9766 -0.2268  0.6179
  401MPD2     H 6045   2.663   1.890   1.227  0.5471 -0.9324 -0.2953
  401MPD2    H1 6046   2.416   1.637   1.475 -0.0957 -0.2886 -1.1886
  401MPD2    H2 6047   2.635   1.946   1.650 -0.7974 -2.3204  2.0973
  401MPD2    H3 6048   2.472   1.765   1.664 -1.9955 -0.9041 -0.0440
  401MPD2     N 6049   2.497   1.683   1.215  0.6372 -0.1693 -0.2361
  401MPD2    H5 6050   2.515   1.726   1.125  1.8243  1.0768  0.6021
  401MPD2    N1 6051   2.771   2.007   1.420  0.0068 -0.0932 -0.1587
  401MPD2    H7 6052   2.807   2.022   1.326  2.1963 -0.8647  0.5717
  402TMC3    C1 6053   2.412   1.523   1.070 -0.2991 -0.5413 -0.1299
  402TMC3    C2 6054   2.439   1.391   1.036 -0.8596  0.1477  0.3456
  402TMC3    C3 6055   2.368   1.343   0.927  0.3123  0.4957  0.1398
  402TMC3    C4 6056   2.315   1.600   1.015 -0.2598 -0.1377 -0.3698
  402TMC3    C5 6057   2.253   1.544   0.907  0.1951 -0.2818 -0.9829
  402TMC3    C6 6058   2.283   1.422   0.864  0.4345  0.1103  0.7107
  402TMC3     C 6059   2.462   1.550   1.204  0.9885  0.0670  0.2825
  402TMC3     O 6060   2.470   1.469   1.296  0.1365  0.7878 -0.4870
  402TMC3     H 6061   2.502   1.325   1.095 -1.2956  0.4460  1.1387
  402TMC3    H1 6062   2.296   1.699   1.054 -1.1743 -1.9601  3.8500
  402TMC3    H2 6063   2.218   1.382   0.786 -0.2364  0.2289  1.2077
  402TMC3    C7 6064   2.181   1.644   0.836  0.1894  0.1180  0.9205
  402TMC3    C8 6065   2.399   1.208   0.883 -0.0834 -1.0081 -0.5202
  402TMC3    O1 6066   2.164   1.757   0.877  0.4799  0.1127 -0.0387
  402TMC3    O2 6067   2.442   1.134   0.973  0.2952 -0.2241 -0.2206
  403MPD2     C 6068   0.803   3.973  13.471 -0.4088  0.3227  0.0973
  403MPD2    C1 6069   0.810   3.848  13.529 -0.5433  0.0181  0.3412
  403MPD2    C2 6070   0.832   3.841  13.667  0.0557  0.4772  0.2664
  403MPD2    C3 6071   0.851   3.956  13.742  0.1767 -0.4499 -1.1003
  403MPD2    C4 6072   0.857   4.077  13.679  0.1625  0.1562 -0.1782
  403MPD2    C5 6073   0.844   4.079  13.549  0.0091 -0.1244 -0.1532
  403MPD2     H 6074   0.811   3.744  13.711  2.1823  1.3759  3.2164
  403MPD2    H1 6075   0.864   4.172  13.732 -0.2339 -0.9963  1.9505
  403MPD2    H2 6076   0.793   3.991  13.365 -2.9157 -1.5165  0.0159
  403MPD2    H3 6077   0.837   4.174  13.496 -0.1222 -0.1712 -0.2193
  403MPD2     N 6078   0.865   3.955  13.880 -0.0159 -0.9206 -0.5953
  403MPD2    H5 6079   0.849   4.043  13.927  0.9886 -0.3310 -1.3691
  403MPD2    N1 6080   0.775   3.733  13.448  0.4153 -0.0506 -0.8003
  403MPD2    H7 6081   0.730   3.756  13.360  1.2852  0.8666 -0.9997
  404TMC3    C1 6082   0.687   3.525  13.387 -0.0149 -0.0816 -0.7251
  404TMC3    C2 6083   0.557   3.517  13.420 -0.3157 -0.0070 -0.6156
  404TMC3    C3 6084   0.463   3.538  13.315 -0.0233  0.7665  0.4600
  404TMC3    C4 6085   0.718   3.552  13.257  0.0900 -0.4712 -0.7873
  404TMC3    C5 6086   0.633   3.545  13.149 -0.3147 -0.1698  0.5346
  404TMC3    C6 6087   0.499   3.541  13.179  0.0891  0.3594 -0.5708
  404TMC3     C 6088   0.762   3.601  13.487 -0.1301 -0.5876  0.4528
  404TMC3     O 6089   0.804   3.542  13.585 -0.5865  0.4043  0.3147
  404TMC3     H 6090   0.532   3.489  13.522 -0.8099 -0.5703 -0.8912
  404TMC3    H1 6091   0.822   3.565  13.229 -0.0162 -0.3251 -1.1151
  404TMC3    H2 6092   0.423   3.534  13.103  0.2627  1.3413 -0.8400
  404TMC3    C7 6093   0.666   3.635  13.047 -0.1311  0.5279  0.5612
  404TMC3    C8 6094   0.333   3.591  13.340  0.4051  0.6001 -0.2909
  404TMC3    O1 6095   0.739   3.727  13.073  0.1889 -0.2455 -0.2754
  404TMC3    O2 6096   0.257   3.618  13.244 -0.1577  0.1498  0.1186
  405MPD2     C 6097   0.685   1.255  15.147  0.1283 -0.4840 -0.8235
  405MPD2    C1 6098   0.714   1.130  15.183 -0.1482  0.4622 -0.1474
  405MPD2    C2 6099   0.737   1.026  15.096  0.2780  0.6958 -0.0582
  405MPD2    C3 6100   0.734   1.049  14.964  0.4368  0.0904  0.9107
  405MPD2    C4 6101   0.703   1.179  14.918  0.6342  0.2748 -0.3208
  405MPD2    C5 6102   0.682   1.276  15.013  0.0035 -0.2891  0.4491
  405MPD2     H 6103   0.764   0.925  15.124  0.8826  0.8856  0.0443
  405MPD2    H1 6104   0.691   1.194  14.811 -2.6512  0.6356  0.1068
  405MPD2    H2 6105   0.651   1.325  15.223  2.2674  0.0660 -0.3778
  405MPD2    H3 6106   0.656   1.375  14.976  1.2093  0.1673  0.8487
  405MPD2     N 6107   0.750   0.947  14.869  0.1128 -0.2276 -0.3209
  405MPD2    H5 6108   0.774   0.857  14.908 -1.6496 -0.3985  0.4091
  405MPD2    N1 6109   0.749   1.115  15.313  0.0429 -0.2340 -0.0407
  405MPD2    H7 6110   0.780   1.198  15.362  3.3480 -1.2310 -0.4319
  406TMC3    C1 6111   0.834   0.696  14.520  0.3339  0.1053  0.3678
  406TMC3    C2 6112   0.915   0.607  14.591  0.3426  0.3413 -0.3886
  406TMC3    C3 6113   0.957   0.656  14.710 -0.5545  0.2756 -0.6464
  406TMC3    C4 6114   0.809   0.827  14.554  0.1956 -0.0790 -0.4086
  406TMC3    C5 6115   0.850   0.863  14.675 -0.1846 -0.8905  0.6571
  406TMC3    C6 6116   0.920   0.779  14.757  0.3372 -0.3053  0.5499
  406TMC3     C 6117   0.776   0.666  14.394 -0.2397  0.1631 -0.6811
  406TMC3     O 6118   0.772   0.750  14.307 -0.4095  0.2474 -0.8362
  406TMC3     H 6119   0.933   0.505  14.557  2.5773  0.0041  1.8427
  406TMC3    H1 6120   0.729   0.880  14.504  0.0503  0.7667  0.7203
  406TMC3    H2 6121   0.948   0.816  14.855 -2.0702  1.2212  0.6759
  406TMC3    C7 6122   0.761   0.961  14.735  0.1464  0.5846  0.2017
  406TMC3    C8 6123   0.991   0.557  14.807 -0.4488  0.6103 -0.4833
  406TMC3    O1 6124   0.726   1.047  14.661  0.0090  0.4889 -0.1895
  406TMC3    O2 6125   0.959   0.440  14.785  0.8339  0.2460 -0.0664
  407MPD2     C 6126   3.317   1.794   9.834  0.4716 -0.0375  0.1521
  407MPD2    C1 6127   3.448   1.760   9.838 -0.2899  0.5566  0.1228
  407MPD2    C2 6128   3.526   1.785   9.956 -0.4027 -0.8234 -0.1364
  407MPD2    C3 6129   3.466   1.855  10.056 -0.1799 -0.4032  0.2067
  407MPD2    C4 6130   3.337   1.883  10.051  0.0276 -0.3395  0.9285
  407MPD2    C5 6131   3.257   1.851   9.938  0.1076  0.1534  0.0406
  407MPD2     H 6132   3.632   1.765   9.942 -0.4108 -1.5688  0.8708
  407MPD2    H1 6133   3.287   1.940  10.128 -1.7744  0.2217 -0.6356
  407MPD2    H2 6134   3.254   1.772   9.748  1.5902 -0.2938 -0.6045
  407MPD2    H3 6135   3.154   1.882   9.921  0.3954  1.3710  0.5070
  407MPD2     N 6136   3.550   1.924  10.152  0.0539  0.6622 -0.5173
  407MPD2    H5 6137   3.495   1.994  10.200 -1.9590 -1.0647 -0.3093
  407MPD2    N1 6138   3.514   1.730   9.723 -0.1130 -0.3139 -0.0462
  407MPD2    H7 6139   3.615   1.725   9.735  0.3330  1.3092 -2.9280
  408TMC3    C1 6140   3.566   1.701   9.503 -0.6119  0.4623 -0.2711
  408TMC3    C2 6141   3.647   1.595   9.539 -0.2775 -0.0341 -0.7069
  408TMC3    C3 6142   3.775   1.587   9.484  0.2660 -0.0595  0.3659
  408TMC3    C4 6143   3.621   1.805   9.436 -0.3908  0.2158  0.0470
  408TMC3    C5 6144   3.750   1.802   9.391  0.1182 -0.6844 -0.0820
  408TMC3    C6 6145   3.830   1.688   9.412 -0.4999 -0.6554 -0.4727
  408TMC3     C 6146   3.462   1.734   9.594 -0.2327  0.3194  0.2492
  408TMC3     O 6147   3.349   1.751   9.546  0.2012 -0.3148  0.0590
  408TMC3     H 6148   3.597   1.516   9.595 -2.2955  0.9169 -1.1647
  408TMC3    H1 6149   3.569   1.900   9.428  0.9354  0.7732 -2.0368
  408TMC3    H2 6150   3.928   1.679   9.367  0.2104  0.9702  0.7467
  408TMC3    C7 6151   3.806   1.933   9.362  0.5711 -0.4940 -0.0393
  408TMC3    C8 6152   3.848   1.455   9.500  1.0728 -0.6781  0.4510
  408TMC3    O1 6153   3.734   2.033   9.360  0.2620  0.6120 -0.4332
  408TMC3    O2 6154   3.780   1.353   9.524  0.2879  0.1318  0.5943
  409MPD2     C 6155   2.787   2.384  16.226  0.3031 -0.0405  0.2851
  409MPD2    C1 6156   2.886   2.330  16.307 -0.2171  0.5320 -0.2872
  409MPD2    C2 6157   3.006   2.397  16.311  0.5254  0.3765 -0.0368
  409MPD2    C3 6158   3.020   2.522  16.261  0.9589 -0.1210 -0.3088
  409MPD2    C4 6159   2.923   2.565  16.172 -0.1600  0.0225 -0.6577
  409MPD2    C5 6160   2.799   2.501  16.153 -0.6223  0.5715 -0.1240
  409MPD2     H 6161   3.084   2.345  16.366  0.4642  0.7203  0.3791
  409MPD2    H1 6162   2.927   2.657  16.114  0.9524  1.5914  1.9106
  409MPD2    H2 6163   2.691   2.333  16.215  2.1310 -3.6564  0.9366
  409MPD2    H3 6164   2.727   2.550  16.088 -1.1004 -0.0108 -0.0338
  409MPD2     N 6165   3.139   2.596  16.283  0.4136 -0.2619  0.1339
  409MPD2    H5 6166   3.146   2.689  16.241 -2.2612 -0.6811 -1.2452
  409MPD2    N1 6167   2.879   2.213  16.384 -0.0028  0.0547 -0.3012
  409MPD2    H7 6168   2.969   2.174  16.407 -1.0572 -1.1309  1.8127
  410TMC3    C1 6169   3.341   2.669  16.385  0.2417 -0.2014  0.4547
  410TMC3    C2 6170   3.421   2.652  16.490  0.2534  0.3898 -0.1631
  410TMC3    C3 6171   3.534   2.734  16.500  0.2251  0.6756  0.1380
  410TMC3    C4 6172   3.372   2.758  16.286 -0.2205  0.0282  0.4259
  410TMC3    C5 6173   3.475   2.844  16.301 -0.4676  0.6729  0.2282
  410TMC3    C6 6174   3.563   2.827  16.406  0.3497  0.0678 -0.2956
  410TMC3     C 6175   3.244   2.558  16.370  0.3515 -0.2505 -0.9382
  410TMC3     O 6176   3.260   2.443  16.423 -0.4638 -0.4730 -0.1107
  410TMC3     H 6177   3.388   2.607  16.583  0.9649 -0.9153 -0.5385
  410TMC3    H1 6178   3.328   2.739  16.189  0.9681  1.8230 -0.4820
  410TMC3    H2 6179   3.635   2.904  16.430 -0.4822  0.3531  1.2879
  410TMC3    C7 6180   3.496   2.959  16.218  0.3691  0.0763 -0.0474
  410TMC3    C8 6181   3.599   2.762  16.628 -0.2038  0.3725  0.1439
  410TMC3    O1 6182   3.611   2.998  16.212 -0.0234  0.3596  0.5921
  410TMC3    O2 6183   3.647   2.873  16.649 -0.3692  0.0531 -0.2685
  411MPD2     C 6184   3.106   2.949  14.142 -0.0562  0.2832 -0.0327
  411MPD2    C1 6185   3.083   2.972  14.278  0.4518 -0.2505  0.1507
  411MPD2    C2 6186   3.027   2.870  14.352 -0.8039  0.1104 -0.2226
  411MPD2    C3 6187   2.984   2.753  14.297  0.5581 -0.7289 -0.1107
  411MPD2    C4 6188   3.018   2.729  14.162 -0.2219 -0.0144  0.3319
  411MPD2    C5 6189   3.079   2.827  14.091  0.1250  0.1013  0.5541
  411MPD2     H 6190   3.015   2.894  14.457 -1.6719 -1.1119 -0.0431
  411MPD2    H1 6191   2.982   2.642  14.109 -1.3434  0.1648  0.8026
  411MPD2    H2 6192   3.135   3.031  14.078  0.9602  0.6784  0.9276
  411MPD2    H3 6193   3.087   2.819  13.983 -2.5240  2.3811  0.1893
  411MPD2     N 6194   2.899   2.662  14.371 -0.5080  0.5552  0.2526
  411MPD2    H5 6195   2.854   2.593  14.312 -0.4873  1.9455 -1.3866
  411MPD2    N1 6196   3.116   3.101  14.328  0.2310 -0.4253 -0.0447
  411MPD2    H7 6197   3.156   3.170  14.265 -2.7047  1.2106 -0.1451
  412TMC3    C1 6198   2.736   2.593  14.517 -0.0029 -0.0140 -0.6904
  412TMC3    C2 6199   2.629   2.672  14.536  0.5908 -0.4566  0.4432
  412TMC3    C3 6200   2.503   2.636  14.489  0.5434  0.3411 -0.6938
  412TMC3    C4 6201   2.732   2.483  14.436 -0.1354 -0.1892 -0.4325
  412TMC3    C5 6202   2.604   2.459  14.381 -1.0594 -0.0068 -0.8019
  412TMC3    C6 6203   2.494   2.511  14.432  0.3946  0.1437  0.1925
  412TMC3     C 6204   2.852   2.677  14.499  0.5469  0.1543 -0.6286
  412TMC3     O 6205   2.870   2.752  14.591 -0.2296  0.5788 -0.3685
  412TMC3     H 6206   2.639   2.771  14.579 -0.3191 -0.5931  0.9715
  412TMC3    H1 6207   2.824   2.431  14.412  1.6680  1.8630  1.9938
  412TMC3    H2 6208   2.403   2.481  14.383 -0.6654  0.0233  2.2587
  412TMC3    C7 6209   2.599   2.438  14.238  0.2400 -0.7817 -0.2805
  412TMC3    C8 6210   2.454   2.743  14.401 -0.1834 -0.7825  0.6892
  412TMC3    O1 6211   2.499   2.478  14.179 -0.0720 -0.0191 -0.1090
  412TMC3    O2 6212   2.550   2.808  14.359  0.3365  0.0434 -0.7248
  413MPD2     C 6213   4.731   1.886  15.121 -0.2688  0.3181 -0.1626
  413MPD2    C1 6214   4.729   1.825  15.251  0.4624  0.2710 -0.3618
  413MPD2    C2 6215   0.117   1.799  15.300 -0.0631  0.1982 -0.0586
  413MPD2    C3 6216   0.245   1.815  15.235 -0.3727 -0.0460  0.1209
  413MPD2    C4 6217   0.238   1.877  15.118 -0.2887 -1.0292 -0.2339
  413MPD2    C5 6218   0.118   1.905  15.058 -0.0670 -0.1966  0.4016
  413MPD2     H 6219   0.113   1.757  15.400 -2.1704 -0.4843 -0.4388
  413MPD2    H1 6220   0.330   1.902  15.065 -0.1182  0.8585  0.9313
  413MPD2    H2 6221   4.637   1.919  15.078  0.6677  0.0754 -2.4037
  413MPD2    H3 6222   0.124   1.951  14.960  1.3498 -0.7248  0.2404
  413MPD2     N 6223   0.358   1.772  15.301  0.3219 -0.1106 -0.3749
  413MPD2    H5 6224   0.350   1.754  15.400 -0.6019 -0.0117 -0.4292
  413MPD2    N1 6225   4.607   1.779  15.313  0.7678 -0.0397  0.0841
  413MPD2    H7 6226   4.609   1.765  15.413  1.3580 -3.1084 -0.3472
  414TMC3    C1 6227   0.596   1.708  15.324 -0.6048 -0.7318  0.2100
  414TMC3    C2 6228   0.565   1.627  15.433  0.6321 -0.2674 -0.5206
  414TMC3    C3 6229   0.666   1.545  15.486 -0.1051 -0.0646 -0.4415
  414TMC3    C4 6230   0.713   1.698  15.259  0.3818 -0.2822 -0.4078
  414TMC3    C5 6231   0.809   1.618  15.316  0.4562 -0.9149 -0.3593
  414TMC3    C6 6232   0.797   1.544  15.432  0.2605 -0.0562  0.8702
  414TMC3     C 6233   0.485   1.763  15.243 -0.4433 -0.2003 -0.5142
  414TMC3     O 6234   0.519   1.796  15.130  0.6722  0.1497  0.2499
  414TMC3     H 6235   0.468   1.636  15.480  1.4150 -0.9512  1.2229
  414TMC3    H1 6236   0.739   1.767  15.179 -0.5189  2.0598  1.3519
  414TMC3    H2 6237   0.865   1.468  15.467 -0.0096  0.0010  1.5247
  414TMC3    C7 6238   0.924   1.589  15.235  0.7586 -0.4451  0.0327
  414TMC3    C8 6239   0.619   1.414  15.527  0.4320  0.3207  0.2989
  414TMC3    O1 6240   1.026   1.572  15.297  0.3500  0.0060  0.1439
  414TMC3    O2 6241   0.687   1.316  15.493  0.4728 -0.3287  0.0567
  415TMC3    C1 6242   0.653   4.128   9.602  0.3127 -0.3547 -0.0707
  415TMC3    C2 6243   0.693   4.259   9.584 -0.0657  0.4753 -0.1729
  415TMC3    C3 6244   0.684   4.310   9.454 -0.3115 -0.0202 -0.0983
  415TMC3    C4 6245   0.605   4.045   9.506  0.3486 -0.5901 -0.1003
  415TMC3    C5 6246   0.595   4.105   9.378  0.4337 -0.0690  0.4423
  415TMC3    C6 6247   0.630   4.234   9.352 -0.2204 -0.3039 -0.0799
  415TMC3     C 6248   0.661   4.065   9.733  0.0637 -0.6309  0.2021
  415TMC3     O 6249   0.587   3.970   9.753 -0.0174 -0.0994  0.1737
  415TMC3     H 6250   0.688   4.318   9.675  2.8165 -1.0506  0.9577
  415TMC3    H1 6251   0.599   3.940   9.529 -0.9502 -0.6133 -0.5836
  415TMC3    H2 6252   0.620   4.271   9.251  1.4707 -0.4801 -0.3141
  415TMC3    C7 6253   0.635   4.016   9.268  0.3763  0.5882 -0.1293
  415TMC3    C8 6254   0.709   4.451   9.425  0.6020  0.6256  1.0637
  415TMC3    O1 6255   0.697   4.062   9.171  0.3646 -0.6304  0.3121
  415TMC3    O2 6256   0.686   4.484   9.309 -0.4038  0.1065 -0.2565
  416MPD2     C 6257   2.881   2.651  11.522  0.3061  1.0267  0.0841
  416MPD2    C1 6258   2.867   2.747  11.428 -0.3338 -0.2536 -0.6159
  416MPD2    C2 6259   2.954   2.736  11.320  0.5453  0.8282  0.4354
  416MPD2    C3 6260   3.048   2.632  11.302  0.1734  0.0705 -0.2312
  416MPD2    C4 6261   3.052   2.538  11.399  0.6135  0.2742 -0.2985
  416MPD2    C5 6262   2.965   2.542  11.504 -0.2062 -0.2058  0.5481
  416MPD2     H 6263   2.956   2.812  11.242  0.5423 -0.1441 -0.5098
  416MPD2    H1 6264   3.117   2.452  11.387 -1.0049 -1.0678  0.4363
  416MPD2    H2 6265   2.819   2.658  11.611  1.8574  0.1050  1.2305
  416MPD2    H3 6266   2.985   2.472  11.585  1.7647  0.5354  0.7096
  416MPD2     N 6267   3.135   2.621  11.191 -0.1742 -0.4518 -0.4998
  416MPD2    H5 6268   3.202   2.545  11.195 -0.0842 -0.4261 -1.6507
  416MPD2    N1 6269   2.777   2.859  11.448 -0.3218  0.5791 -0.3697
  416MPD2    H7 6270   2.733   2.863  11.540  1.3485 -1.7257  0.5431
  417TMC3    C1 6271   2.666   3.064  11.408 -0.1859 -0.4053  0.1299
  417TMC3    C2 6272   2.675   3.082  11.545  0.0561  0.1296  0.1462
  417TMC3    C3 6273   2.585   3.178  11.588 -0.3172  0.2383  0.8743
  417TMC3    C4 6274   2.578   3.119  11.322  0.6198 -0.4565 -0.4001
  417TMC3    C5 6275   2.479   3.194  11.378  0.0668  0.3966 -0.8448
  417TMC3    C6 6276   2.486   3.236  11.507  0.0235  0.3370 -0.0480
  417TMC3     C 6277   2.754   2.958  11.358  0.2512  0.5558 -0.2317
  417TMC3     O 6278   2.785   2.963  11.240  0.2235  0.4004  0.2373
  417TMC3     H 6279   2.749   3.039  11.611 -0.6409 -1.1971  0.0459
  417TMC3    H1 6280   2.570   3.085  11.219 -2.7036 -0.6121 -0.1174
  417TMC3    H2 6281   2.409   3.304  11.542 -0.1284  0.5899 -0.8919
  417TMC3    C7 6282   2.406   3.282  11.280  0.1187  0.3192 -0.0854
  417TMC3    C8 6283   2.591   3.235  11.727 -0.1449  0.5759  0.0961
  417TMC3    O1 6284   2.436   3.263  11.162 -0.3420 -0.2146 -0.1558
  417TMC3    O2 6285   2.546   3.347  11.743  0.3867  0.6146 -0.7409
  418TMC3    C1 6286   0.447   0.464   0.231  1.0440 -0.9053  0.2291
  418TMC3    C2 6287   0.320   0.494   0.190  0.0381  0.1605 -0.9411
  418TMC3    C3 6288   0.216   0.440   0.261  0.4947  0.2473 -0.2640
  418TMC3    C4 6289   0.472   0.413   0.356 -0.1978  0.0537  1.0821
  418TMC3    C5 6290   0.361   0.373   0.429  0.5109 -0.9426  0.3991
  418TMC3    C6 6291   0.235   0.364   0.372 -0.4078  0.2779  0.1001
  418TMC3     C 6292   0.553   0.486   0.132  0.4707 -0.4590 -0.1397
  418TMC3     O 6293   0.531   0.557   0.037  0.2107  0.0694 -0.1314
  418TMC3     H 6294   0.312   0.532   0.089 -0.8063  1.0671 -0.5313
  418TMC3    H1 6295   0.572   0.402   0.395 -0.0438  0.5159  0.8271
  418TMC3    H2 6296   0.148   0.338   0.431  1.3597 -1.2186  2.0671
  418TMC3    C7 6297   0.375   0.286   0.540  0.6819 -0.6519  0.2249
  418TMC3    C8 6298   0.132   0.371   0.169  0.4079  0.1842  0.3535
  418TMC3    O1 6299   0.327   0.171   0.530 -0.0938  0.5970  0.0826
  418TMC3    O2 6300   0.078   0.445   0.084 -0.0556 -0.3192 -0.2880
  419MPD2     C 6301   0.026   2.490  12.710  0.0972  0.6305  0.6861
  419MPD2    C1 6302   4.680   2.582  12.643 -0.1098 -0.7966 -0.9373
  419MPD2    C2 6303   4.599   2.668  12.708  0.0057  0.3358  0.4017
  419MPD2    C3 6304   4.591   2.665  12.847  0.3285 -0.2289 -0.7450
  419MPD2    C4 6305   4.667   2.568  12.913 -0.4427 -0.2614 -0.5451
  419MPD2    C5 6306   0.018   2.494  12.841 -0.5848 -0.3135  0.0090
  419MPD2     H 6307   4.565   2.748  12.644  0.2861 -0.3735 -0.6273
  419MPD2    H1 6308   4.679   2.570  13.021  0.5933  1.1445 -0.6843
  419MPD2    H2 6309   0.087   2.417  12.658 -1.7377 -0.9539  0.7340
  419MPD2    H3 6310   0.085   2.432  12.899 -0.3090 -0.3563 -0.3569
  419MPD2     N 6311   4.524   2.759  12.927  0.4901 -0.1139 -0.0581
  419MPD2    H5 6312   4.516   2.739  13.026 -0.8595  0.8180  0.0140
  419MPD2    N1 6313   4.670   2.596  12.502  0.1175  0.0374  0.0559
  419MPD2    H7 6314   4.592   2.649  12.465 -0.0368  0.3889  0.8949
  420TMC3    C1 6315   4.367   2.928  12.972  0.1776 -0.2281  0.0026
  420TMC3    C2 6316   4.279   3.027  12.936 -0.6127  0.3765  0.1117
  420TMC3    C3 6317   4.224   3.113  13.033 -0.5251 -0.2035 -0.1236
  420TMC3    C4 6318   4.396   2.906  13.107  0.7187 -0.3166  0.1115
  420TMC3    C5 6319   4.330   2.978  13.201 -0.5021 -0.1828  0.4804
  420TMC3    C6 6320   4.243   3.079  13.167  0.4799 -0.0948 -0.0194
  420TMC3     C 6321   4.447   2.859  12.871 -0.7736 -0.0611 -0.2782
  420TMC3     O 6322   4.412   2.888  12.758  0.1043  0.2036  0.0278
  420TMC3     H 6323   4.274   3.046  12.829 -0.6999  0.9395  0.2162
  420TMC3    H1 6324   4.464   2.827  13.139  0.8570 -0.4961 -0.6080
  420TMC3    H2 6325   4.168   3.123  13.232 -1.2042  1.5505 -3.0430
  420TMC3    C7 6326   4.376   2.976  13.341  0.2917 -0.0187 -0.0373
  420TMC3    C8 6327   4.118   3.209  13.001 -0.2411 -0.0454 -0.9400
  420TMC3    O1 6328   4.451   2.883  13.372 -0.2158 -0.2155 -0.4635
  420TMC3    O2 6329   4.076   3.291  13.082 -0.3533  0.3960 -0.2035
  421TMC3    C1 6330   0.951   3.871  14.082 -0.2671 -0.2508  0.1461
  421TMC3    C2 6331   0.905   3.983  14.146  0.0230  0.7974  0.2101
  421TMC3    C3 6332   0.987   4.038  14.246  0.5017  0.7942 -0.0319
  421TMC3    C4 6333   1.065   3.810  14.115 -0.1452 -0.3813  0.5236
  421TMC3    C5 6334   1.138   3.875  14.212  0.0626  0.6341 -0.3352
  421TMC3    C6 6335   1.107   3.990  14.274 -0.3346 -0.0080 -0.5148
  421TMC3     C 6336   0.901   3.840  13.952  0.5370 -0.4152 -0.0918
  421TMC3     O 6337   0.915   3.727  13.918  0.0541  0.0156  0.0009
  421TMC3     H 6338   0.818   4.038  14.112 -0.4344 -0.3622 -0.4987
  421TMC3    H1 6339   1.105   3.729  14.055 -0.8176  1.5797 -2.5956
  421TMC3    H2 6340   1.181   4.036  14.337  0.0810 -0.6760 -0.5232
  421TMC3    C7 6341   1.281   3.845  14.207 -0.0788 -0.4813  0.2175
  421TMC3    C8 6342   0.944   4.167  14.297 -0.2801  0.3314  0.6384
  421TMC3    O1 6343   1.349   3.946  14.204  0.1348 -0.1297 -0.1927
  421TMC3    O2 6344   0.865   4.231  14.227  0.7933  0.1387  0.3053
  422TMC3    C1 6345   3.443   1.068  12.611  0.4088 -0.2815  0.3133
  422TMC3    C2 6346   3.450   1.125  12.732  0.3322  0.0978 -1.0479
  422TMC3    C3 6347   3.354   1.093  12.821 -0.0137 -0.0296 -0.4940
  422TMC3    C4 6348   3.338   0.977  12.580  0.8024 -0.6658 -0.5537
  422TMC3    C5 6349   3.254   0.931  12.682  0.1191  0.1187 -0.1969
  422TMC3    C6 6350   3.249   1.000  12.799 -0.0419 -0.0027  0.0664
  422TMC3     C 6351   3.554   1.099  12.521 -1.1088  0.0723  0.2224
  422TMC3     O 6352   3.651   1.144  12.577 -0.1164  0.4774 -0.3564
  422TMC3     H 6353   3.526   1.195  12.762  1.6220 -1.3411 -0.9588
  422TMC3    H1 6354   3.344   0.923  12.487  0.5361  0.7512 -1.3957
  422TMC3    H2 6355   3.166   0.998  12.869  1.8590  0.7719  2.3194
  422TMC3    C7 6356   3.146   0.848  12.637  0.6422  0.5469  0.3068
  422TMC3    C8 6357   3.334   1.191  12.923  0.4111  0.3950 -0.4394
  422TMC3    O1 6358   3.141   0.829  12.517 -0.3468 -0.0888  0.2010
  422TMC3    O2 6359   3.437   1.236  12.973  0.0220 -0.4905  0.4274
  423MPD2     C 6360   4.215   1.705   0.778 -0.4425  0.0637 -0.2133
  423MPD2    C1 6361   4.338   1.729   0.727 -0.0596  0.0359 -0.0584
  423MPD2    C2 6362   4.363   1.681   0.598 -0.5315  0.9499  0.4429
  423MPD2    C3 6363   4.261   1.627   0.517  0.5195  0.4067 -0.7543
  423MPD2    C4 6364   4.137   1.608   0.578  0.6395  0.1641 -0.4062
  423MPD2    C5 6365   4.110   1.652   0.708  0.3675  0.1080  0.1415
  423MPD2     H 6366   4.464   1.678   0.558 -0.0152  0.6000  1.7900
  423MPD2    H1 6367   4.047   1.567   0.533  3.0162 -2.2524 -2.9604
  423MPD2    H2 6368   4.191   1.727   0.882 -0.6257  1.6190 -0.5954
  423MPD2    H3 6369   4.017   1.627   0.759  0.0397  1.2261  0.0863
  423MPD2     N 6370   4.281   1.584   0.377 -0.2552  0.5346  0.2666
  423MPD2    H5 6371   4.197   1.547   0.334 -0.3859  2.0424 -0.7789
  423MPD2    N1 6372   4.444   1.790   0.801  0.2542  0.0182  0.8514
  423MPD2    H7 6373   4.539   1.765   0.777 -0.9122 -3.6491  0.0447
  424TMC3    C1 6374   4.552   1.904   0.981  0.4025 -1.0248 -0.5363
  424TMC3    C2 6375   4.676   1.858   0.944 -0.2419  0.1648  0.4054
  424TMC3    C3 6376   0.052   1.901   1.009 -1.2409  1.0148  0.0418
  424TMC3    C4 6377   4.542   1.988   1.090  0.7785 -0.1554  0.5223
  424TMC3    C5 6378   4.653   2.023   1.159 -0.2914  0.5487  0.2162
  424TMC3    C6 6379   0.042   1.971   1.124  0.1856 -0.0029 -0.0055
  424TMC3     C 6380   4.429   1.875   0.906 -0.3733 -0.0838  0.0681
  424TMC3     O 6381   4.326   1.939   0.934 -1.0739 -0.1801  0.1394
  424TMC3     H 6382   4.688   1.801   0.853  0.4953  2.5954 -1.0109
  424TMC3    H1 6383   4.446   2.016   1.131  0.5884  0.9796 -0.7127
  424TMC3    H2 6384   0.132   1.989   1.182  0.3180 -1.1664  0.1555
  424TMC3    C7 6385   4.646   2.126   1.264  0.4138  0.0903  0.0561
  424TMC3    C8 6386   0.167   1.815   0.988  0.0904  0.0976 -0.1059
  424TMC3    O1 6387   0.009   2.129   1.336  0.4081  0.4797  0.2947
  424TMC3    O2 6388   0.143   1.712   0.927 -0.7018 -0.0873 -0.2856
  425MPD2     C 6389   2.941   1.343  17.045 -0.4708 -0.2845  0.0815
  425MPD2    C1 6390   2.858   1.258  17.117  0.6836  0.0272  0.4972
  425MPD2    C2 6391   2.787   1.314  17.224  0.1019  0.4786  0.2767
  425MPD2    C3 6392   2.800   1.448  17.256 -0.1699 -0.3549  0.3972
  425MPD2    C4 6393   2.878   1.529  17.181  0.4335  0.5332  0.1292
  425MPD2    C5 6394   2.952   1.473  17.085 -0.0991  0.0801 -0.0747
  425MPD2     H 6395   2.722   1.252  17.285  1.8358  0.5866  2.2467
  425MPD2    H1 6396   2.888   1.635  17.201  0.6416  0.7935 -1.4117
  425MPD2    H2 6397   3.000   1.300  16.964 -1.0216 -3.8048  1.5434
  425MPD2    H3 6398   3.017   1.540  17.031  0.6490 -1.7766 -1.4940
  425MPD2     N 6399   2.725   1.486  17.372 -1.0299  0.3631 -0.4555
  425MPD2    H5 6400   2.664   1.418  17.416 -1.0051 -0.6222 -1.9370
  425MPD2    N1 6401   2.839   1.123  17.079  0.5324 -0.7069 -0.0950
  425MPD2    H7 6402   2.889   1.081  17.002  0.8488  0.5205 -0.5482
  426TMC3    C1 6403   2.760   0.895  17.101  0.4553 -0.2848 -0.1323
  426TMC3    C2 6404   2.882   0.841  17.051 -0.1250  0.5589  0.1612
  426TMC3    C3 6405   2.890   0.701  17.048  0.2624  0.6587  0.3998
  426TMC3    C4 6406   2.659   0.816  17.155 -1.1040 -0.0262 -0.2560
  426TMC3    C5 6407   2.688   0.676  17.162  0.1015  0.8506 -0.7154
  426TMC3    C6 6408   2.799   0.623  17.110 -0.3594 -0.0303 -0.0973
  426TMC3     C 6409   2.744   1.039  17.133  0.3347 -0.0209  0.0134
  426TMC3     O 6410   2.642   1.070  17.191  0.0273 -0.4277  0.7484
  426TMC3     H 6411   2.962   0.908  17.021  1.8452 -1.9598 -0.2382
  426TMC3    H1 6412   2.569   0.862  17.194 -1.2935 -2.0296  1.6280
  426TMC3    H2 6413   2.831   0.526  17.145  1.5464  0.9754  0.9658
  426TMC3    C7 6414   2.634   0.615  17.287 -0.2074  0.2790 -0.4053
  426TMC3    C8 6415   2.998   0.635  16.975 -0.3301  0.0468  0.3196
  426TMC3    O1 6416   2.682   0.508  17.316  0.9145  0.5000 -0.1994
  426TMC3    O2 6417   2.992   0.516  16.977 -0.5147  0.4182 -0.5530
  427MPD2     C 6418   2.313   3.055  14.528  0.2135 -0.2484  0.0500
  427MPD2    C1 6419   2.283   3.038  14.661  0.4849  0.2917  0.6186
  427MPD2    C2 6420   2.159   3.078  14.704  0.3727  0.0521  0.2457
  427MPD2    C3 6421   2.058   3.127  14.624  0.0490  0.0795  0.1966
  427MPD2    C4 6422   2.097   3.129  14.494  0.4270  0.2365  0.2790
  427MPD2    C5 6423   2.216   3.097  14.444 -0.1908 -0.1005 -0.4096
  427MPD2     H 6424   2.132   3.065  14.808  0.2986 -0.6023  0.1479
  427MPD2    H1 6425   2.026   3.163  14.419  0.2252 -0.2246  0.2648
  427MPD2    H2 6426   2.409   3.023  14.487 -0.3632  1.8633 -2.9162
  427MPD2    H3 6427   2.232   3.111  14.338 -0.9732  0.6455 -0.4277
  427MPD2     N 6428   1.925   3.162  14.667 -0.5178  0.4419  0.9580
  427MPD2    H5 6429   1.859   3.190  14.595  1.3911  0.3169 -0.8337
  427MPD2    N1 6430   2.368   2.981  14.758  0.5377  0.4794  0.0078
  427MPD2    H7 6431   2.325   2.959  14.847  2.2699  0.0046  0.7433
  428TMC3    C1 6432   2.554   2.875  14.848  0.0686  0.8564 -0.2043
  428TMC3    C2 6433   2.470   2.791  14.920  0.5140 -0.8602  0.2696
  428TMC3    C3 6434   2.525   2.751  15.046 -0.3377 -0.0075 -0.3402
  428TMC3    C4 6435   2.665   2.937  14.897  0.1008 -0.6785 -0.4657
  428TMC3    C5 6436   2.707   2.898  15.026  0.4720  0.0817  0.1441
  428TMC3    C6 6437   2.633   2.808  15.105 -0.0288 -0.0531  0.4272
  428TMC3     C 6438   2.499   2.948  14.735 -0.4361 -0.4023  0.3071
  428TMC3     O 6439   2.582   2.983  14.650 -0.8930 -0.5964 -0.2847
  428TMC3     H 6440   2.374   2.760  14.880  0.8713 -2.0583  0.3616
  428TMC3    H1 6441   2.730   3.007  14.847  2.2111 -1.3573  1.3186
  428TMC3    H2 6442   2.662   2.777  15.205  2.3387  1.3800  0.2097
  428TMC3    C7 6443   2.807   2.969  15.098 -0.8512  0.1783 -0.9494
  428TMC3    C8 6444   2.457   2.649  15.132  0.4566 -0.4251 -0.3675
  428TMC3    O1 6445   2.801   2.962  15.221 -0.1081  0.7380  0.3340
  428TMC3    O2 6446   2.513   2.622  15.241  0.0527 -0.1992  0.0985
  429MPD2     C 6447   2.947   2.936  17.570  0.1783 -0.9931  0.0049
  429MPD2    C1 6448   3.043   2.883  17.486 -0.0522  0.2351  0.0629
  429MPD2    C2 6449   3.084   2.955  17.377  0.3268 -0.0901 -0.0733
  429MPD2    C3 6450   3.017   3.079  17.350  0.3671 -0.4412  0.0059
  429MPD2    C4 6451   2.922   3.125  17.440 -0.2113 -0.0314 -0.1740
  429MPD2    C5 6452   2.892   3.056  17.553 -0.6264  0.0048  0.0015
  429MPD2     H 6453   3.152   2.918  17.301 -0.4893  1.1125 -1.4118
  429MPD2    H1 6454   2.871   3.220  17.430  2.0299  0.9886 -1.9780
  429MPD2    H2 6455   2.923   2.883  17.662  1.8405  0.6212  1.3699
  429MPD2    H3 6456   2.824   3.100  17.626  0.4110  0.1440  0.8770
  429MPD2     N 6457   3.048   3.146  17.231 -0.0314 -0.4762  0.1380
  429MPD2    H5 6458   3.123   3.107  17.176 -2.2470 -4.2778 -0.1576
  429MPD2    N1 6459   3.102   2.758  17.505  0.0334  0.0456 -0.2939
  429MPD2    H7 6460   3.174   2.736  17.437 -0.5930  0.7042 -1.1661
  430TMC3    C1 6461   3.052   3.303  17.063  0.5282  1.2538  0.0260
  430TMC3    C2 6462   2.977   3.362  16.969 -0.5510  0.6580  0.1504
  430TMC3    C3 6463   3.048   3.394  16.857  0.3423  0.7186 -0.3536
  430TMC3    C4 6464   3.189   3.277  17.053  0.3033  0.6713 -0.4198
  430TMC3    C5 6465   3.249   3.300  16.934  0.3628  0.1738  1.2274
  430TMC3    C6 6466   3.176   3.361  16.834  0.2193  0.1265  0.1542
  430TMC3     C 6467   2.985   3.258  17.185 -0.4686  0.4257 -0.1628
  430TMC3     O 6468   2.883   3.312  17.227 -1.0519  0.6519 -0.5283
  430TMC3     H 6469   2.870   3.367  16.988 -0.4493 -1.0765  1.1457
  430TMC3    H1 6470   3.249   3.238  17.134 -0.1106  0.1376 -0.3755
  430TMC3    H2 6471   3.212   3.380  16.733 -0.2767 -0.9054 -0.2208
  430TMC3    C7 6472   3.382   3.244  16.902  0.0205 -0.1644  0.3395
  430TMC3    C8 6473   2.972   3.433  16.742  0.1759  0.3180  0.1967
  430TMC3    O1 6474   3.413   3.149  16.967  0.6209  0.2006  0.1552
  430TMC3    O2 6475   3.019   3.405  16.636 -0.1453  0.3932  0.3534
  431MPD2     C 6476   4.389   3.339  12.259 -0.0850 -0.4637 -0.0688
  431MPD2    C1 6477   4.524   3.314  12.254  0.6746 -0.5951  0.0006
  431MPD2    C2 6478   4.563   3.180  12.229  0.3579  0.0828  0.0562
  431MPD2    C3 6479   4.472   3.084  12.212  0.1720 -0.0944 -1.1030
  431MPD2    C4 6480   4.337   3.108  12.217  0.5728 -0.2530 -0.4775
  431MPD2    C5 6481   4.298   3.233  12.238 -0.0524 -0.2170  0.4219
  431MPD2     H 6482   4.670   3.169  12.217  0.1962 -1.6242  0.1790
  431MPD2    H1 6483   4.275   3.020  12.202 -0.1179  0.1290  0.1699
  431MPD2    H2 6484   4.337   3.434  12.265 -1.5277 -1.2615 -0.0758
  431MPD2    H3 6485   4.191   3.253  12.235  0.3177  1.7583  0.3721
  431MPD2     N 6486   4.509   2.949  12.182 -0.1270 -0.0758  0.0974
  431MPD2    H5 6487   4.438   2.877  12.184 -1.9747  1.7474 -0.2103
  431MPD2    N1 6488   4.632   3.407  12.271 -0.0625 -0.6350 -0.1003
  431MPD2    H7 6489   4.730   3.385  12.278 -0.1637 -1.7629 -2.1743
  432TMC3    C1 6490   4.662   2.768  12.141 -0.1797 -0.1047 -0.0168
  432TMC3    C2 6491   0.024   2.732  12.044 -0.7787 -0.0558 -0.4519
  432TMC3    C3 6492   0.106   2.623  12.067  0.0209 -0.5265 -0.1696
  432TMC3    C4 6493   4.652   2.704  12.262  0.1857  0.2040  0.9237
  432TMC3    C5 6494   0.008   2.595  12.277  0.7126  0.9701  0.1636
  432TMC3    C6 6495   0.092   2.548  12.179 -0.0196 -0.0691  0.7605
  432TMC3     C 6496   4.636   2.909  12.147  0.5644 -0.3553  0.1143
  432TMC3     O 6497   4.722   2.979  12.095  0.4593 -0.1557  0.7529
  432TMC3     H 6498   0.022   2.782  11.948 -1.0701  1.2543  0.2245
  432TMC3    H1 6499   4.585   2.750  12.334  0.6293  1.2013  0.7050
  432TMC3    H2 6500   0.159   2.467  12.203  1.3809  0.9584  0.3508
  432TMC3    C7 6501   0.016   2.528  12.408 -0.2048 -0.5530  0.2030
  432TMC3    C8 6502   0.197   2.574  11.963 -0.4136  0.2214 -0.2445
  432TMC3    O1 6503   0.102   2.443  12.421 -0.5040 -0.5110 -0.6396
  432TMC3    O2 6504   0.213   2.457  11.946 -0.0664 -0.3085 -0.7415
  433MPD2     C 6505   3.811   2.053  10.953  1.0289  0.2010 -0.0004
  433MPD2    C1 6506   3.829   1.924  10.980  0.0623 -0.2277  0.0134
  433MPD2    C2 6507   3.815   1.885  11.116  0.4327  0.0970 -0.2627
  433MPD2    C3 6508   3.783   1.982  11.210  0.9855 -0.5711 -0.0496
  433MPD2    C4 6509   3.781   2.116  11.171  0.6380  0.2000  0.7052
  433MPD2    C5 6510   3.792   2.147  11.047 -0.0666 -0.5906 -0.2708
  433MPD2     H 6511   3.826   1.780  11.139  0.5932 -0.1803 -1.6524
  433MPD2    H1 6512   3.771   2.196  11.244  0.4745 -0.6902  1.6623
  433MPD2    H2 6513   3.809   2.091  10.851 -0.7434 -2.6132 -1.0111
  433MPD2    H3 6514   3.795   2.249  11.009  0.8400 -0.4230  0.2682
  433MPD2     N 6515   3.758   1.944  11.338 -0.0822 -0.2738  0.1197
  433MPD2    H5 6516   3.767   1.846  11.365 -3.7219 -1.0375 -1.4993
  433MPD2    N1 6517   3.849   1.828  10.873  0.0564  0.0265 -0.0280
  433MPD2    H7 6518   3.857   1.865  10.779  3.4207 -1.2187 -0.1998
  434TMC3    C1 6519   3.885   1.610  10.783 -0.4288 -0.0902 -0.6925
  434TMC3    C2 6520   3.932   1.482  10.807 -0.1736  0.1023  0.4379
  434TMC3    C3 6521   4.018   1.423  10.715  0.4161  0.0947  0.0824
  434TMC3    C4 6522   3.889   1.661  10.653 -0.0463 -0.7867  0.4170
  434TMC3    C5 6523   3.972   1.598  10.571  0.7227 -0.0428  0.5214
  434TMC3    C6 6524   4.051   1.489  10.603 -0.4092  0.2011 -0.0572
  434TMC3     C 6525   3.864   1.695  10.898 -1.0763  0.2693  0.7063
  434TMC3     O 6526   3.885   1.633  11.004 -0.1671  0.0082  0.5344
  434TMC3     H 6527   3.923   1.432  10.903  0.8767  0.4118  0.6892
  434TMC3    H1 6528   3.838   1.751  10.619  0.0033 -0.4455  1.2522
  434TMC3    H2 6529   4.106   1.440  10.523 -0.2148 -0.5507  0.5323
  434TMC3    C7 6530   3.955   1.626  10.428 -0.3948 -0.0870 -0.6446
  434TMC3    C8 6531   4.098   1.317  10.772 -0.6452 -0.4591  0.6105
  434TMC3    O1 6532   4.053   1.660  10.364 -0.3470 -0.3308  0.2423
  434TMC3    O2 6533   4.035   1.243  10.842 -0.1369  0.3222 -0.2696
  435MPD2     C 6534   0.757   1.930  15.779 -0.3975 -0.4670 -0.3331
  435MPD2    C1 6535   0.715   1.924  15.916  0.3336 -0.1177 -0.2143
  435MPD2    C2 6536   0.770   1.836  16.000  0.0883  0.6293 -0.1060
  435MPD2    C3 6537   0.861   1.736  15.958 -0.1079 -0.5348 -0.3772
  435MPD2    C4 6538   0.896   1.736  15.828 -0.5371 -0.2461  0.2985
  435MPD2    C5 6539   0.838   1.829  15.739  0.7118 -0.2631  0.1393
  435MPD2     H 6540   0.732   1.827  16.101 -1.6471  0.7931 -0.7289
  435MPD2    H1 6541   0.976   1.673  15.792  0.7167  1.5583 -0.0707
  435MPD2    H2 6542   0.721   2.005  15.709 -2.0743  1.6451  2.7987
  435MPD2    H3 6543   0.881   1.836  15.639  1.1054  3.8998  0.5938
  435MPD2     N 6544   0.880   1.627  16.041 -0.5354 -0.2408 -0.4333
  435MPD2    H5 6545   0.861   1.643  16.139 -0.0737 -0.8597 -0.2522
  435MPD2    N1 6546   0.617   2.016  15.959 -0.4897 -0.2910  0.1756
  435MPD2    H7 6547   0.600   2.011  16.059  0.7329 -2.7202  0.2552
  436TMC3    C1 6548   0.380   2.295  16.148 -0.1007  0.0954 -0.8099
  436TMC3    C2 6549   0.481   2.222  16.078 -0.2052  0.7099  0.6306
  436TMC3    C3 6550   0.456   2.194  15.947  0.2370  0.7320  0.1090
  436TMC3    C4 6551   0.260   2.323  16.091 -0.1098 -1.2201  0.7234
  436TMC3    C5 6552   0.248   2.304  15.957  0.1369  0.5106  0.1300
  436TMC3    C6 6553   0.339   2.235  15.887 -0.1885 -0.2361  0.0292
  436TMC3     C 6554   0.413   2.362  16.271 -0.6148 -0.8038  0.7641
  436TMC3     O 6555   0.525   2.410  16.283 -0.6952 -0.1339  0.0182
  436TMC3     H 6556   0.580   2.216  16.123 -0.6960  0.6620  1.7165
  436TMC3    H1 6557   0.190   2.388  16.143 -0.6844 -0.4456 -1.0348
  436TMC3    H2 6558   0.316   2.199  15.788  2.9898 -0.1185 -0.7498
  436TMC3    C7 6559   0.122   2.330  15.896  0.7779  0.1966 -0.3001
  436TMC3    C8 6560   0.540   2.095  15.879 -0.3405 -0.6013 -0.1975
  436TMC3    O1 6561   0.116   2.323  15.776 -0.1457 -0.0417 -0.0731
  436TMC3    O2 6562   0.533   2.082  15.758 -0.6580  0.2083 -0.4262
  437TMC3    C1 6563   3.757   3.955  11.884 -0.2268 -0.1411 -0.4414
  437TMC3    C2 6564   3.828   4.058  11.839 -0.2583 -0.3106 -0.4834
  437TMC3    C3 6565   3.924   4.112  11.921  0.0614  0.2844  0.1677
  437TMC3    C4 6566   3.772   3.905  12.013  0.1041  0.0213  0.1403
  437TMC3    C5 6567   3.872   3.951  12.093 -0.2537 -0.2309  0.8616
  437TMC3    C6 6568   3.954   4.056  12.043  0.4840 -0.9546 -0.3905
  437TMC3     C 6569   3.684   3.885  11.781 -0.1042  0.0447  0.3481
  437TMC3     O 6570   3.741   3.895  11.674 -0.3867 -0.8964  0.0294
  437TMC3     H 6571   3.818   4.106  11.743 -0.8284 -3.1586 -1.8631
  437TMC3    H1 6572   3.703   3.832  12.055  1.5513 -0.3122  1.9087
  437TMC3    H2 6573   4.025   4.107  12.108  0.2315  2.0574 -2.4788
  437TMC3    C7 6574   3.920   3.876  12.207  0.0974  0.1654 -0.3249
  437TMC3    C8 6575   4.031   4.197  11.872 -0.2979 -0.6093 -0.3063
  437TMC3    O1 6576   3.827   3.814  12.264  0.4659 -0.1349  0.0052
  437TMC3    O2 6577   4.087   4.275  11.946 -0.1057 -0.1958 -0.5092
  438MPD2     C 6578   0.954   0.170  16.766 -0.2867  0.2237 -0.6432
  438MPD2    C1 6579   1.030   0.082  16.841 -0.1337  0.3153 -0.5737
  438MPD2    C2 6580   1.004   0.075  16.972 -0.4468  0.3388 -0.6086
  438MPD2    C3 6581   0.893   0.143  17.026  0.1166  0.8855 -0.6485
  438MPD2    C4 6582   0.805   0.222  16.946  0.2477 -0.1500 -0.2197
  438MPD2    C5 6583   0.839   0.227  16.812 -0.7411 -0.0909  0.3728
  438MPD2     H 6584   1.067   0.003  17.024 -1.5116 -1.4289 -1.7472
  438MPD2    H1 6585   0.713   0.274  16.973  1.0980  2.1836 -1.7285
  438MPD2    H2 6586   0.991   0.194  16.667 -0.4355  3.5920  0.1350
  438MPD2    H3 6587   0.778   0.274  16.735 -0.4782 -3.0450 -1.6276
  438MPD2     N 6588   0.858   0.130  17.164  0.7385 -0.3219  0.1402
  438MPD2    H5 6589   0.771   0.177  17.188  0.6197 -1.1331  1.3254
  438MPD2    N1 6590   1.138   0.013  16.791 -0.1660 -0.2670 -0.3618
  438MPD2    H7 6591   1.204   4.709  16.858  0.8029 -0.6236 -1.5260
  439TMC3    C1 6592   1.272   4.637  16.621 -0.3207 -0.1574  0.1618
  439TMC3    C2 6593   1.285   4.597  16.491 -0.3613  1.2042 -0.3307
  439TMC3    C3 6594   1.393   4.526  16.448 -0.2450 -0.3650 -0.2984
  439TMC3    C4 6595   1.356   4.587  16.717  0.2732 -0.1836  0.0628
  439TMC3    C5 6596   1.475   4.518  16.670 -0.1202  0.1060 -0.1944
  439TMC3    C6 6597   1.493   4.493  16.535  0.2201  0.0269 -0.1387
  439TMC3     C 6598   1.153   4.706  16.656  0.5545 -0.5874 -0.3099
  439TMC3     O 6599   1.078   4.728  16.563  0.2988  0.2094  0.0133
  439TMC3     H 6600   1.211   4.615  16.414  0.5690 -0.5831 -1.6299
  439TMC3    H1 6601   1.335   4.605  16.821 -0.3827  0.7267 -0.2305
  439TMC3    H2 6602   1.590   4.468  16.494 -0.4435 -0.3969 -1.4453
  439TMC3    C7 6603   1.556   4.444  16.770 -0.5506  0.1088  0.4628
  439TMC3    C8 6604   1.423   4.542  16.309 -0.1637  0.0392  0.3681
  439TMC3    O1 6605   1.528   4.464  16.884  0.1641 -0.4795  0.6089
  439TMC3    O2 6606   1.360   4.634  16.254 -0.6857  0.3387 -0.4520
  440MPD2     C 6607   0.283   0.539  14.676  0.1871 -1.2050 -0.3520
  440MPD2    C1 6608   0.251   0.654  14.745  0.1197  0.0924  0.5299
  440MPD2    C2 6609   0.287   0.656  14.880 -0.2324 -0.2994 -0.6496
  440MPD2    C3 6610   0.335   0.545  14.946 -0.1833 -0.0674 -0.3002
  440MPD2    C4 6611   0.357   0.428  14.873 -0.1511 -0.0471 -0.3655
  440MPD2    C5 6612   0.342   0.437  14.741 -0.7918 -0.6982 -0.0966
  440MPD2     H 6613   0.279   0.752  14.930  2.8748  0.2603 -1.1970
  440MPD2    H1 6614   0.403   0.341  14.918 -2.4261  0.4965  2.9645
  440MPD2    H2 6615   0.259   0.512  14.574 -0.4196  1.5671 -0.9469
  440MPD2    H3 6616   0.372   0.351  14.682 -0.6453 -0.2206 -0.7231
  440MPD2     N 6617   0.349   0.540  15.085 -0.2491 -0.1319 -0.0735
  440MPD2    H5 6618   0.384   0.459  15.135  2.0937 -0.5362 -2.4074
  440MPD2    N1 6619   0.214   0.771  14.683  0.2734  0.2356  0.1898
  440MPD2    H7 6620   0.184   0.844  14.746 -1.4924 -0.3548  0.0476
  441TMC3    C1 6621   0.342   0.625  15.307  0.1433 -0.7145  0.2029
  441TMC3    C2 6622   0.365   0.736  15.382  0.3948 -0.1712 -0.1183
  441TMC3    C3 6623   0.393   0.715  15.511  0.3398  0.2136  0.1630
  441TMC3    C4 6624   0.340   0.498  15.351 -0.8580 -0.3297  0.4513
  441TMC3    C5 6625   0.398   0.486  15.475  0.0486  0.3633 -1.0583
  441TMC3    C6 6626   0.422   0.590  15.557  0.3502  0.4500 -0.5690
  441TMC3     C 6627   0.318   0.651  15.171  0.2760 -0.5216 -0.2945
  441TMC3     O 6628   0.274   0.763  15.149 -0.1577 -0.2534 -0.0792
  441TMC3     H 6629   0.347   0.836  15.343 -3.1836 -0.1652  1.6543
  441TMC3    H1 6630   0.325   0.409  15.290 -0.9133 -1.1953  1.7200
  441TMC3    H2 6631   0.424   0.574  15.664 -0.3964 -1.2078 -0.7937
  441TMC3    C7 6632   0.401   0.357  15.534  0.2223 -0.5390  0.2319
  441TMC3    C8 6633   0.399   0.826  15.611 -0.6355 -0.2632 -0.5733
  441TMC3    O1 6634   0.325   0.269  15.504 -0.4069 -0.5034 -0.1185
  441TMC3    O2 6635   0.406   0.796  15.730  0.7226 -0.0887  0.1217
  442MPD2     C 6636   2.629   0.553  16.498  0.1434  0.6067  0.6835
  442MPD2    C1 6637   2.643   0.580  16.366 -0.9817  0.3221 -0.8313
  442MPD2    C2 6638   2.678   0.477  16.280 -0.0791  0.2531 -0.0654
  442MPD2    C3 6639   2.679   0.343  16.325  0.1158 -0.3491 -0.3431
  442MPD2    C4 6640   2.638   0.312  16.455  0.0349 -0.0167  0.5797
  442MPD2    C5 6641   2.629   0.422  16.538 -0.0419 -0.1200  0.4079
  442MPD2     H 6642   2.688   0.496  16.174 -0.7699 -0.3771 -0.2503
  442MPD2    H1 6643   2.618   0.214  16.498 -1.8534  1.2073  2.4243
  442MPD2    H2 6644   2.604   0.635  16.565 -2.0814  1.5822 -1.3091
  442MPD2    H3 6645   2.609   0.400  16.643 -0.0133 -0.5493  0.3213
  442MPD2     N 6646   2.718   0.228  16.253  0.0129  0.1918  0.3112
  442MPD2    H5 6647   2.692   0.140  16.297  2.6724  0.6307  2.7515
  442MPD2    N1 6648   2.642   0.712  16.322 -0.0162  0.0987  0.7208
  442MPD2    H7 6649   2.652   0.727  16.222 -1.3618  1.8672  0.8530
  443TMC3    C1 6650   2.629   0.949  16.324  0.5039 -0.6282  0.1777
  443TMC3    C2 6651   2.627   0.931  16.184 -0.2158 -0.2361  0.5984
  443TMC3    C3 6652   2.554   1.021  16.112 -0.3264 -0.2675  0.2041
  443TMC3    C4 6653   2.547   1.044  16.389 -0.1248 -0.4444 -0.3129
  443TMC3    C5 6654   2.454   1.104  16.308  0.1595 -0.6392 -0.2683
  443TMC3    C6 6655   2.463   1.100  16.171  0.0327  0.4894  0.3530
  443TMC3     C 6656   2.649   0.828  16.400 -0.0280  0.2840 -0.1062
  443TMC3     O 6657   2.681   0.843  16.520 -0.0883  0.0688  0.3922
  443TMC3     H 6658   2.668   0.844  16.133  1.1848 -0.6770  2.4498
  443TMC3    H1 6659   2.548   1.066  16.495 -2.0164  3.5509 -1.1305
  443TMC3    H2 6660   2.394   1.153  16.107  0.0086 -1.1109 -0.9314
  443TMC3    C7 6661   2.323   1.071  16.344 -0.0749 -0.2191 -0.1660
  443TMC3    C8 6662   2.514   0.968  15.984 -0.7882 -0.2206  0.1958
  443TMC3    O1 6663   2.268   0.990  16.267  0.5542 -0.7249 -0.8565
  443TMC3    O2 6664   2.598   0.904  15.919  0.0684 -0.5071  0.0479
  444MPD2     C 6665   2.375   0.656  17.025  0.0962 -0.5230 -0.7353
  444MPD2    C1 6666   2.340   0.551  17.119  0.2316 -0.0378  0.4920
  444MPD2    C2 6667   2.411   0.434  17.099 -0.3114 -0.2625 -0.6313
  444MPD2    C3 6668   2.516   0.419  17.016 -0.2549 -0.5488 -0.2928
  444MPD2    C4 6669   2.544   0.521  16.930 -0.3554 -0.1466 -0.2848
  444MPD2    C5 6670   2.466   0.629  16.934  0.7923  0.4167  0.6818
  444MPD2     H 6671   2.379   0.350  17.160  2.2776 -1.3703 -0.7830
  444MPD2    H1 6672   2.631   0.529  16.866  0.2795 -1.5710  0.3887
  444MPD2    H2 6673   2.343   0.759  17.022  1.0988 -0.2110 -0.5707
  444MPD2    H3 6674   2.484   0.694  16.849 -0.3220 -0.9165 -0.5960
  444MPD2     N 6675   2.590   0.298  17.030  0.2899 -0.4594 -0.3628
  444MPD2    H5 6676   2.556   0.226  17.092 -0.0428 -1.3947 -1.6291
  444MPD2    N1 6677   2.243   0.556  17.220 -0.3793  0.2558 -0.7713
  444MPD2    H7 6678   2.231   0.485  17.292 -0.3248 -0.2416 -1.2507
  445TMC3    C1 6679   2.750   0.132  16.979  0.1795 -0.3092 -0.6650
  445TMC3    C2 6680   2.670   0.025  16.984  0.5357  0.2608  0.2358
  445TMC3    C3 6681   2.731   4.646  17.023 -0.0217  0.0620 -0.3125
  445TMC3    C4 6682   2.883   0.127  17.010  0.4433 -0.3006  0.1368
  445TMC3    C5 6683   2.942   0.013  17.043  0.0701 -0.5859 -0.3578
  445TMC3    C6 6684   2.862   4.631  17.052  0.4174  0.1389  0.0007
  445TMC3     C 6685   2.705   0.267  16.958  0.1461  0.2318 -1.1112
  445TMC3     O 6686   2.762   0.322  16.870 -0.4634  0.1691  0.2127
  445TMC3     H 6687   2.564   0.039  16.967  0.5839 -0.5802 -0.7768
  445TMC3    H1 6688   2.935   0.222  17.014  1.8767 -1.1730  2.6290
  445TMC3    H2 6689   2.909   4.535  17.072 -1.2559 -0.3712  1.4491
  445TMC3    C7 6690   3.083   0.025  17.066 -0.2113  0.2754  0.3703
  445TMC3    C8 6691   2.653   4.520  17.020  0.2607 -0.0566  0.7935
  445TMC3    O1 6692   3.135   0.130  17.026 -0.7208  0.0939  0.6045
  445TMC3    O2 6693   2.688   4.433  17.099 -0.1889 -0.0630 -0.4664
  446MPD2     C 6694   3.767   1.136  11.225  0.4842 -0.0855 -0.3206
  446MPD2    C1 6695   3.715   1.267  11.193  0.0943 -0.0765  0.2827
  446MPD2    C2 6696   3.804   1.370  11.169  0.7238  0.4061  0.1918
  446MPD2    C3 6697   3.942   1.350  11.184  0.0010 -0.1105 -0.4631
  446MPD2    C4 6698   3.986   1.228  11.218  0.0058 -0.4780 -0.0526
  446MPD2    C5 6699   3.904   1.121  11.234 -0.1091 -0.4895 -0.7081
  446MPD2     H 6700   3.774   1.469  11.136  0.2309 -0.0795 -0.7941
  446MPD2    H1 6701   4.090   1.198  11.207  0.0060 -0.4709 -0.0706
  446MPD2    H2 6702   3.709   1.048  11.252  0.5785 -0.1375 -0.2840
  446MPD2    H3 6703   3.949   1.030  11.273 -0.2838  0.0853  0.8196
  446MPD2     N 6704   4.042   1.451  11.149 -0.0884  0.3071 -0.3964
  446MPD2    H5 6705   4.014   1.536  11.100 -0.2463  1.5573  1.8396
  446MPD2    N1 6706   3.570   1.282  11.182 -0.4778 -0.2058 -0.3284
  446MPD2    H7 6707   3.542   1.379  11.169 -1.2019 -0.5456 -1.4019
  447TMC3    C1 6708   4.260   1.543  11.116  0.1167 -0.3581  0.5853
  447TMC3    C2 6709   4.224   1.594  10.999 -0.1474  0.4706  0.1235
  447TMC3    C3 6710   4.323   1.644  10.919 -0.7206 -0.6055  0.1963
  447TMC3    C4 6711   4.391   1.536  11.157  0.3492  0.3822  0.6822
  447TMC3    C5 6712   4.487   1.573  11.063 -0.1772 -0.3565 -0.0510
  447TMC3    C6 6713   4.455   1.639  10.947  0.1264  0.1282  0.3023
  447TMC3     C 6714   4.174   1.448  11.184  0.1475 -0.2907 -0.0268
  447TMC3     O 6715   4.234   1.366  11.256  1.0727  0.1849 -0.2473
  447TMC3     H 6716   4.120   1.600  10.970 -0.4173 -1.5961  0.6763
  447TMC3    H1 6717   4.414   1.498  11.257 -0.0444  1.1260  1.0523
  447TMC3    H2 6718   4.542   1.674  10.893  0.2674 -3.5741 -1.8040
  447TMC3    C7 6719   4.602   1.486  11.068  0.5438 -0.2046 -0.1671
  447TMC3    C8 6720   4.286   1.724  10.803  0.0011  0.0494 -0.5283
  447TMC3    O1 6721   4.664   1.467  10.965 -0.0568 -0.2289 -0.7388
  447TMC3    O2 6722   4.169   1.759  10.795 -0.5083  0.2450 -0.0762
  448TMC3    C1 6723   1.831   1.681  17.231 -0.0218 -0.3312 -0.6016
  448TMC3    C2 6724   1.748   1.604  17.144  0.2406  0.3614  0.0063
  448TMC3    C3 6725   1.637   1.548  17.196  0.7535 -0.1327 -1.0248
  448TMC3    C4 6726   1.810   1.670  17.361  0.3302  0.2271  0.5005
  448TMC3    C5 6727   1.701   1.608  17.412  0.1711 -0.0035  0.3140
  448TMC3    C6 6728   1.614   1.553  17.332 -0.5630  0.0712 -0.6600
  448TMC3     C 6729   1.962   1.750  17.184  0.1700  0.3221 -0.2951
  448TMC3     O 6730   2.009   1.830  17.264 -0.3775  0.1689  0.8498
  448TMC3     H 6731   1.765   1.616  17.038 -0.4135 -0.7179 -0.2206
  448TMC3    H1 6732   1.876   1.714  17.436 -0.2170  1.4642  0.2552
  448TMC3    H2 6733   1.523   1.511  17.372 -0.6356  1.3931  0.5585
  448TMC3    C7 6734   1.664   1.632  17.551  0.4488  0.5362 -0.4875
  448TMC3    C8 6735   1.571   1.445  17.120  0.5757  0.5849  0.7156
  448TMC3    O1 6736   1.712   1.727  17.614  0.3755  0.3105 -0.3590
  448TMC3    O2 6737   1.504   1.368  17.186  0.3870 -0.8725 -0.2418
  449MPD2     C 6738   3.225   4.588  14.036 -0.4256 -0.7991  0.0318
  449MPD2    C1 6739   3.118   4.519  14.002  0.1351 -0.0517 -0.9010
  449MPD2    C2 6740   3.113   4.381  14.015 -0.6934 -0.6408 -0.2802
  449MPD2    C3 6741   3.231   4.312  14.048  0.2841  0.1242  0.3411
  449MPD2    C4 6742   3.341   4.382  14.099 -0.5904  0.4241 -0.7459
  449MPD2    C5 6743   3.336   4.518  14.086  0.2964  0.2348 -0.6081
  449MPD2     H 6744   3.020   4.329  13.994 -1.0197  0.1358 -0.7593
  449MPD2    H1 6745   3.426   4.327  14.137  0.2701  1.0998 -1.6903
  449MPD2    H2 6746   3.237   4.693  14.011  1.6952 -1.4353 -1.5848
  449MPD2    H3 6747   3.431   4.570  14.097  0.2704 -0.5089  3.2188
  449MPD2     N 6748   3.223   4.171  14.047 -0.4397  0.4075  0.2079
  449MPD2    H5 6749   3.141   4.135  13.998  1.7077 -3.9218 -0.2473
  449MPD2    N1 6750   2.994   4.574  13.957 -0.0313 -0.1060 -0.0434
  449MPD2    H7 6751   2.915   4.509  13.957 -0.8515  0.8931  0.8636
  450TMC3    C1 6752   2.837   4.709  13.884 -0.4838  0.3205  0.0621
  450TMC3    C2 6753   2.815   0.011  13.755 -0.0674 -0.0000 -0.2511
  450TMC3    C3 6754   2.713   4.675  13.695  0.1610 -0.7237 -0.7310
  450TMC3    C4 6755   2.760   4.619  13.948  0.2686  0.3081 -0.0029
  450TMC3    C5 6756   2.661   4.557  13.892  1.0285 -0.5676 -0.1073
  450TMC3    C6 6757   2.633   4.581  13.759 -0.0028  0.1377 -0.5187
  450TMC3     C 6758   2.970   4.703  13.927  0.4476  0.6659  0.9989
  450TMC3     O 6759   3.043   0.066  13.912 -0.2037  0.4968  0.7078
  450TMC3     H 6760   2.868   0.099  13.721 -1.4700  0.1390 -2.0688
  450TMC3    H1 6761   2.772   4.600  14.054 -0.6874 -1.4978 -0.2165
  450TMC3    H2 6762   2.570   4.514  13.702  0.8083 -0.8482 -0.2782
  450TMC3    C7 6763   2.692   4.413  13.911 -0.6367 -0.5827 -0.1851
  450TMC3    C8 6764   2.696   4.682  13.551  0.5062 -0.5313 -0.3737
  450TMC3    O1 6765   2.796   4.377  13.962  0.2153 -0.2721  0.1776
  450TMC3    O2 6766   2.584   4.684  13.502 -0.0648  0.5244 -0.0964
  451MPD2     C 6767   4.329   3.028   1.504  0.2602 -0.1575 -0.0640
  451MPD2    C1 6768   4.306   3.066   1.377  0.2818 -0.2531  0.6033
  451MPD2    C2 6769   4.385   3.020   1.280 -0.2079 -0.7036 -0.1213
  451MPD2    C3 6770   4.495   2.938   1.310 -0.0624 -0.4555 -0.3351
  451MPD2    C4 6771   4.517   2.900   1.439 -0.5081  0.1221  0.1024
  451MPD2    C5 6772   4.429   2.941   1.531  0.2544 -0.1402  0.2833
  451MPD2     H 6773   4.368   3.041   1.176  0.9886  0.4858 -0.0812
  451MPD2    H1 6774   4.600   2.834   1.466 -4.3216 -3.9732  1.8505
  451MPD2    H2 6775   4.260   3.058   1.583 -1.1258 -1.1009 -0.9252
  451MPD2    H3 6776   4.431   2.895   1.629 -1.9449  0.8896  0.8193
  451MPD2     N 6777   4.578   2.885   1.211  0.0310 -0.3511  0.0399
  451MPD2    H5 6778   4.646   2.818   1.245  1.1493 -0.6744 -2.8381
  451MPD2    N1 6779   4.193   3.146   1.354  0.8035  0.1140  0.4020
  451MPD2    H7 6780   4.137   3.171   1.435 -0.5744 -0.2308 -0.4496
  452TMC3    C1 6781   4.670   2.853   0.992  0.1216 -0.8511 -0.3499
  452TMC3    C2 6782   4.671   2.713   1.000 -0.5157  0.4556  0.7134
  452TMC3    C3 6783   4.730   2.639   0.901 -0.3778  0.2687  0.3979
  452TMC3    C4 6784   4.722   2.906   0.880  0.3656  0.1507  0.3858
  452TMC3    C5 6785   0.047   2.837   0.779 -0.3216  0.2190 -0.0716
  452TMC3    C6 6786   0.048   2.699   0.789 -0.1557 -0.3206  0.2268
  452TMC3     C 6787   4.586   2.932   1.077 -0.0304 -0.9609 -0.0952
  452TMC3     O 6788   4.537   3.034   1.033 -0.7351  0.2196  0.0188
  452TMC3     H 6789   4.612   2.666   1.078  0.0173 -1.6231 -0.1428
  452TMC3    H1 6790   4.700   3.011   0.864  1.6447  0.3307 -0.2156
  452TMC3    H2 6791   0.052   2.630   0.706  0.5068  0.5765 -0.4955
  452TMC3    C7 6792   0.044   2.899   0.646  0.4066 -0.0154  0.3044
  452TMC3    C8 6793   4.684   2.504   0.889  0.2962  0.1505 -0.4526
  452TMC3    O1 6794   0.004   3.016   0.639 -0.1679  0.2152 -1.2320
  452TMC3    O2 6795   4.564   2.490   0.915 -0.1021  0.3735  1.0448
  453TMC3    C1 6796   1.136   0.289  11.835 -0.4549 -0.1347 -0.6234
  453TMC3    C2 6797   1.026   0.214  11.872 -0.8758  0.6683 -0.0963
  453TMC3    C3 6798   0.905   0.273  11.856 -0.1833  0.6122  0.2506
  453TMC3    C4 6799   1.122   0.414  11.781 -0.0841  0.1234 -0.8477
  453TMC3    C5 6800   0.999   0.472  11.778 -0.4106 -0.2147 -0.7534
  453TMC3    C6 6801   0.889   0.406  11.826 -0.8419 -0.7573 -0.0999
  453TMC3     C 6802   1.270   0.263  11.889 -0.6193  0.0063  0.1291
  453TMC3     O 6803   1.322   0.366  11.931 -0.0852 -0.2782 -0.4031
  453TMC3     H 6804   1.033   0.127  11.936 -1.2931  0.1075 -0.8114
  453TMC3    H1 6805   1.211   0.471  11.756 -0.0170  0.3011 -0.1987
  453TMC3    H2 6806   0.794   0.458  11.827 -0.1724  0.5092 -1.8859
  453TMC3    C7 6807   0.971   0.584  11.695 -0.4993 -0.4696 -0.5270
  453TMC3    C8 6808   0.781   0.199  11.876  0.0663  0.1134  0.4070
  453TMC3    O1 6809   0.852   0.615  11.689  0.2158  0.4522 -0.0298
  453TMC3    O2 6810   0.678   0.264  11.870  0.1707  0.0826  0.1290
  454MPD2     C 6811   3.772   4.306  16.749  0.6010  0.7461  0.4478
  454MPD2    C1 6812   3.739   4.378  16.634  0.4621 -0.4189  0.1060
  454MPD2    C2 6813   3.638   4.468  16.637  0.0232 -0.1588  0.8169
  454MPD2    C3 6814   3.554   4.476  16.742 -0.4380  0.0805  0.3585
  454MPD2    C4 6815   3.571   4.390  16.850 -0.4155  0.1681  0.2214
  454MPD2    C5 6816   3.687   4.316  16.858 -0.8412  0.2000  0.0454
  454MPD2     H 6817   3.618   4.535  16.554  0.0131  0.1010  1.0284
  454MPD2    H1 6818   3.499   4.371  16.929 -0.9400  2.2665  0.2410
  454MPD2    H2 6819   3.859   4.242  16.758 -0.7217 -1.2794 -1.3738
  454MPD2    H3 6820   3.697   4.250  16.943 -1.1408 -1.0991 -0.9326
  454MPD2     N 6821   3.436   4.553  16.736  0.2112 -0.5540 -0.0114
  454MPD2    H5 6822   3.361   4.533  16.801  0.2590  0.3164  0.3173
  454MPD2    N1 6823   3.795   4.353  16.507  0.5411 -0.4160 -0.7215
  454MPD2    H7 6824   3.754   4.401  16.428 -0.6852  0.5615  0.5290
  455TMC3    C1 6825   3.298   4.725  16.659  0.4690 -0.1627  0.1294
  455TMC3    C2 6826   3.297   0.119  16.633  1.0998  0.5032  0.1162
  455TMC3    C3 6827   3.195   0.175  16.556 -0.4080  0.1415  0.2128
  455TMC3    C4 6828   3.203   4.643  16.603  0.4217  0.0508 -0.2946
  455TMC3    C5 6829   3.107   4.691  16.522  1.0639 -0.1275  0.0379
  455TMC3    C6 6830   3.092   0.092  16.511  0.2968 -0.8123 -0.1886
  455TMC3     C 6831   3.430   4.674  16.667  0.4074 -0.0359  1.0787
  455TMC3     O 6832   3.532   4.727  16.623 -0.2655 -0.1818  0.2918
  455TMC3     H 6833   3.373   0.183  16.676  0.8092 -0.0376  1.4335
  455TMC3    H1 6834   3.192   4.537  16.626  1.1939 -0.3530 -1.7792
  455TMC3    H2 6835   3.022   0.123  16.434 -1.6782 -0.7802  1.6314
  455TMC3    C7 6836   3.029   4.593  16.451  0.2650  0.2242 -0.6831
  455TMC3    C8 6837   3.167   0.312  16.572 -0.3528  0.3120  0.6417
  455TMC3    O1 6838   2.908   4.604  16.454  1.0376  0.8328  0.4133
  455TMC3    O2 6839   3.046   0.337  16.576  0.4459 -0.2502  0.5741
  456MPD2     C 6840   1.367   0.193  16.449 -0.2883 -0.2804  0.0067
  456MPD2    C1 6841   1.483   0.170  16.521 -0.1865  0.6594  0.1191
  456MPD2    C2 6842   1.498   0.225  16.645  0.1663 -0.6831  0.8509
  456MPD2    C3 6843   1.401   0.303  16.707 -0.2243  0.5754 -0.3682
  456MPD2    C4 6844   1.283   0.318  16.645 -0.0807  0.2854 -0.6474
  456MPD2    C5 6845   1.263   0.269  16.516 -0.5922  0.0707  0.2150
  456MPD2     H 6846   1.595   0.205  16.688  1.0907  1.2687 -0.2884
  456MPD2    H1 6847   1.188   0.346  16.690 -0.2795  1.2717 -1.6833
  456MPD2    H2 6848   1.349   0.143  16.355  1.0878  0.2176 -0.5239
  456MPD2    H3 6849   1.166   0.274  16.468 -0.3770 -2.4958 -0.5030
  456MPD2     N 6850   1.435   0.390  16.815  0.3138  0.0885  0.0129
  456MPD2    H5 6851   1.523   0.373  16.864 -1.1170 -0.6362  2.3588
  456MPD2    N1 6852   1.588   0.101  16.452  0.0160 -0.0206  0.0250
  456MPD2    H7 6853   1.579   0.095  16.351  1.3177  0.0458 -0.0977
  457TMC3    C1 6854   1.418   0.574  16.976 -0.2080 -0.3604  0.4498
  457TMC3    C2 6855   1.401   0.710  16.962  0.0135 -0.4416  0.0131
  457TMC3    C3 6856   1.448   0.798  17.057 -0.0141 -0.2919  0.5934
  457TMC3    C4 6857   1.471   0.517  17.080  0.6521 -0.1744  0.6819
  457TMC3    C5 6858   1.527   0.600  17.166  0.6403 -0.8663  0.1463
  457TMC3    C6 6859   1.521   0.738  17.159  0.7149 -0.1805 -0.6820
  457TMC3     C 6860   1.358   0.494  16.865  0.3335  0.4525  0.6915
  457TMC3     O 6861   1.250   0.532  16.818  0.0291  0.4917  0.3454
  457TMC3     H 6862   1.348   0.742  16.873  1.6385 -2.4063 -1.6375
  457TMC3    H1 6863   1.479   0.409  17.076  0.2808 -0.1569 -0.4031
  457TMC3    H2 6864   1.594   0.794  17.215  1.3641  0.7131 -2.4398
  457TMC3    C7 6865   1.587   0.538  17.283 -0.0936  0.1276  0.3531
  457TMC3    C8 6866   1.490   0.930  17.025  0.0870 -0.4643 -0.8295
  457TMC3    O1 6867   1.605   0.420  17.268  0.3150 -0.2664  0.3580
  457TMC3    O2 6868   1.517   0.988  17.130 -0.2188  0.1633 -0.3721
  458MPD2     C 6869   4.263   3.674  12.542  1.0365  0.0665 -0.3926
  458MPD2    C1 6870   4.326   3.775  12.469 -0.9374 -0.4746 -0.5023
  458MPD2    C2 6871   4.254   3.831  12.365  0.0547  1.0799  0.5068
  458MPD2    C3 6872   4.122   3.806  12.339  0.3368 -0.2519  0.3648
  458MPD2    C4 6873   4.063   3.712  12.419  0.0691 -0.3685  0.2745
  458MPD2    C5 6874   4.134   3.644  12.516  0.2107 -0.3057  0.2398
  458MPD2     H 6875   4.304   3.905  12.303  0.7242  0.2410  0.0579
  458MPD2    H1 6876   3.959   3.684  12.406 -0.3193  2.0642 -1.8657
  458MPD2    H2 6877   4.327   3.628  12.617  2.7978  1.3027 -1.1247
  458MPD2    H3 6878   4.087   3.563  12.571  1.2027 -1.9076 -1.2939
  458MPD2     N 6879   4.056   3.879  12.234  0.1637 -0.0792  0.2134
  458MPD2    H5 6880   4.115   3.929  12.168  2.0045 -0.9731  1.1916
  458MPD2    N1 6881   4.461   3.801  12.501 -0.1625  0.0336 -0.1633
  458MPD2    H7 6882   4.498   3.750  12.581 -2.2541 -0.5074  0.4638
  459TMC3    C1 6883   4.671   3.919  12.516 -0.1874  0.3319  1.2655
  459TMC3    C2 6884   0.030   4.004  12.463 -0.0279  0.0005  0.2750
  459TMC3    C3 6885   0.150   4.006  12.526 -0.8311  0.2597  0.4113
  459TMC3    C4 6886   4.700   3.830  12.618 -0.9699  0.5801 -0.0178
  459TMC3    C5 6887   0.082   3.841  12.687  0.0416  0.2017  0.3698
  459TMC3    C6 6888   0.186   3.920  12.633  0.2629 -0.1982 -0.4336
  459TMC3     C 6889   4.539   3.906  12.449  0.6797  1.1180 -0.6255
  459TMC3     O 6890   4.514   3.984  12.359  0.5304  0.1675  0.4058
  459TMC3     H 6891   0.009   4.070  12.380 -0.6609  1.2354  1.4240
  459TMC3    H1 6892   4.637   3.748  12.650 -1.0615  1.1336  1.2286
  459TMC3    H2 6893   0.279   3.934  12.685 -0.0265 -1.2814  0.3844
  459TMC3    C7 6894   0.077   3.816  12.827  0.7205  1.1302  0.1415
  459TMC3    C8 6895   0.242   4.100  12.463 -0.4309 -0.4097  0.5553
  459TMC3    O1 6896   0.149   3.726  12.866 -0.4160 -0.8810  0.3160
  459TMC3    O2 6897   0.205   4.164  12.367 -0.5245 -0.2713 -0.1280
  460MPD2     C 6898   4.484   1.794  10.505  0.1887  0.2246 -0.3625
  460MPD2    C1 6899   4.377   1.798  10.591  0.3830 -0.4932 -0.0999
  460MPD2    C2 6900   4.266   1.874  10.558 -0.3490 -0.0753 -0.5886
  460MPD2    C3 6901   4.262   1.935  10.434  0.4749 -0.3905  1.2210
  460MPD2    C4 6902   4.374   1.945  10.352  0.3754  0.4034  0.3712
  460MPD2    C5 6903   4.483   1.878  10.392  0.3166  0.3215 -0.3388
  460MPD2     H 6904   4.174   1.880  10.615 -0.9456 -2.0284 -1.3521
  460MPD2    H1 6905   4.371   2.010  10.265  0.7924  3.2324  2.4728
  460MPD2    H2 6906   4.574   1.742  10.534  0.4402  1.0420  0.3077
  460MPD2    H3 6907   4.576   1.877  10.335  0.6960 -0.6109  0.2873
  460MPD2     N 6908   4.136   1.992  10.399 -0.2100 -0.5585 -0.5473
  460MPD2    H5 6909   4.052   1.968  10.452  1.3786 -1.0648  1.7203
  460MPD2    N1 6910   4.384   1.732  10.716  0.2811 -0.7413  0.7711
  460MPD2    H7 6911   4.465   1.679  10.745  0.3858 -0.5882  0.7553
  461TMC3    C1 6912   3.974   2.100  10.268 -0.5349  0.1164 -0.1327
  461TMC3    C2 6913   3.885   1.989  10.272  0.0002 -0.2932 -0.1120
  461TMC3    C3 6914   3.758   2.001  10.219  0.2464 -0.0554  0.4300
  461TMC3    C4 6915   3.947   2.221  10.204  0.3904 -0.1441  0.1863
  461TMC3    C5 6916   3.817   2.229  10.165  0.1618  0.6995 -0.0850
  461TMC3    C6 6917   3.722   2.124  10.169 -0.3911  0.9428 -0.1761
  461TMC3     C 6918   4.108   2.077  10.296  0.2269  0.0050  0.1304
  461TMC3     O 6919   4.188   2.140  10.225 -0.4038  0.6945 -0.4349
  461TMC3     H 6920   3.922   1.893  10.304  0.1976 -1.2999 -3.3308
  461TMC3    H1 6921   4.019   2.302  10.208  1.8782 -1.3806 -1.8779
  461TMC3    H2 6922   3.626   2.148  10.127 -0.0820 -0.3900 -1.6116
  461TMC3    C7 6923   3.763   2.350  10.110 -0.4579  0.5734  0.1466
  461TMC3    C8 6924   3.680   1.887  10.179  0.1113 -0.5891  0.4495
  461TMC3    O1 6925   3.646   2.353  10.081  0.2326  0.2025 -0.0913
  461TMC3    O2 6926   3.738   1.787  10.144  0.2705 -0.0040  0.0220
  462TMC3    C1 6927   3.202   3.473  17.494 -0.0980 -0.0398 -0.1561
  462TMC3    C2 6928   3.305   3.400  17.443  0.3348  0.1325 -0.2102
  462TMC3    C3 6929   3.374   3.311  17.528  0.3318  0.5566  0.7904
  462TMC3    C4 6930   3.145   3.441  17.619  0.2641 -0.1730  0.6603
  462TMC3    C5 6931   3.218   3.358  17.700  0.2975  0.3971 -0.2779
  462TMC3    C6 6932   3.350   3.307  17.663 -0.1061  0.0714 -0.2763
  462TMC3     C 6933   3.114   3.553  17.403 -0.2793  0.4250 -0.2883
  462TMC3     O 6934   3.002   3.566  17.448 -0.2860 -0.7437 -0.1073
  462TMC3     H 6935   3.342   3.396  17.341 -2.5916 -0.1610 -1.2587
  462TMC3    H1 6936   3.055   3.488  17.656 -1.0539 -1.6186 -0.7716
  462TMC3    H2 6937   3.390   3.228  17.724 -0.4121 -0.0705 -0.2590
  462TMC3    C7 6938   3.160   3.301   0.086 -0.1569  0.1486 -0.3072
  462TMC3    C8 6939   3.402   3.186  17.461 -0.3852 -0.0576  0.2743
  462TMC3    O1 6940   3.242   3.236   0.158  0.2071  0.2592 -0.2495
  462TMC3    O2 6941   3.389   3.195  17.339  0.0715 -0.0430 -0.3056
  463MPD2     C 6942   0.267   1.030   1.110  0.3880 -0.5886  0.1075
  463MPD2    C1 6943   0.211   1.154   1.087 -0.3370  0.0995 -0.0874
  463MPD2    C2 6944   0.285   1.274   1.126  0.4846 -0.0338 -0.1689
  463MPD2    C3 6945   0.387   1.265   1.215 -1.1353 -0.7070  0.1586
  463MPD2    C4 6946   0.432   1.136   1.237  0.4565  0.2530  0.2507
  463MPD2    C5 6947   0.379   1.025   1.185  0.5664 -0.2493  0.2085
  463MPD2     H 6948   0.253   1.372   1.093  1.4289 -0.1454 -1.4271
  463MPD2    H1 6949   0.514   1.114   1.305  0.4136  0.4005  0.3517
  463MPD2    H2 6950   0.227   0.931   1.090 -0.1422 -0.4804  0.6553
  463MPD2    H3 6951   0.418   0.927   1.209 -0.0366 -0.6224 -0.3140
  463MPD2     N 6952   0.455   1.378   1.269 -0.4516 -0.3880  0.1540
  463MPD2    H5 6953   0.535   1.356   1.327 -0.5148  2.3172  1.2543
  463MPD2    N1 6954   0.091   1.164   1.024  0.4435  0.8706  0.2054
  463MPD2    H7 6955   0.053   1.256   1.009 -1.7070 -0.4299 -2.2114
  464TMC3    C1 6956   4.615   1.105   0.933 -0.0337 -0.1009 -0.2736
  464TMC3    C2 6957   4.572   1.229   0.971 -0.3689  0.2036 -0.3693
  464TMC3    C3 6958   4.431   1.251   0.963 -0.5231 -0.1562  1.1467
  464TMC3    C4 6959   4.528   1.005   0.893 -0.3562  0.5951 -0.1726
  464TMC3    C5 6960   4.395   1.023   0.883 -0.0303 -0.6531 -0.5623
  464TMC3    C6 6961   4.343   1.155   0.918 -0.1798 -0.6879  0.5759
  464TMC3     C 6962   0.019   1.064   0.963 -0.5458  0.6843  0.6141
  464TMC3     O 6963   0.040   0.945   0.954 -0.3965  0.1842 -0.1973
  464TMC3     H 6964   4.640   1.306   1.006  0.0176 -0.7413  0.9492
  464TMC3    H1 6965   4.565   0.908   0.861 -1.9675 -0.7301  2.0137
  464TMC3    H2 6966   4.236   1.171   0.915  0.3059  2.6243  1.2746
  464TMC3    C7 6967   4.301   0.916   0.874  0.2170 -0.6539  0.1810
  464TMC3    C8 6968   4.365   1.380   0.999 -1.1989  0.1463 -0.4663
  464TMC3    O1 6969   4.347   0.803   0.887 -0.1739 -0.2657  0.0574
  464TMC3    O2 6970   4.251   1.397   0.957 -0.3456 -0.1681  0.4915
  465MPD2     C 6971   0.868   0.133  16.293 -0.2968  0.1586  0.2874
  465MPD2    C1 6972   0.765   0.074  16.358  0.2774 -1.1042 -0.7580
  465MPD2    C2 6973   0.642   0.107  16.317  0.1804  0.4607 -0.0652
  465MPD2    C3 6974   0.615   0.200  16.221  0.5433  0.2458  0.8569
  465MPD2    C4 6975   0.721   0.266  16.161 -0.0662  0.1779  0.8998
  465MPD2    C5 6976   0.846   0.239  16.207  0.3213  0.0814 -0.8920
  465MPD2     H 6977   0.555   0.057  16.357  2.1735 -1.8041  1.3915
  465MPD2    H1 6978   0.710   0.347  16.090  1.1299  0.0928  0.6070
  465MPD2    H2 6979   0.968   0.125  16.333 -0.7826 -0.8386  1.2963
  465MPD2    H3 6980   0.930   0.273  16.148 -0.0661 -0.5450 -1.8108
  465MPD2     N 6981   0.483   0.221  16.180 -0.2527 -0.1456  0.3642
  465MPD2    H5 6982   0.413   0.159  16.219 -0.4327 -1.1347 -1.5024
  465MPD2    N1 6983   0.790   4.728  16.475 -0.4141 -0.8520 -0.1255
  465MPD2    H7 6984   0.887   4.700  16.488 -0.4064 -0.7008  0.1510
  466TMC3    C1 6985   0.128   0.150  16.042 -0.5137  0.1787  0.1320
  466TMC3    C2 6986   0.039   0.251  16.004  0.7769  0.0967  0.0197
  466TMC3    C3 6987   0.091   0.370  15.992  0.3146 -0.0245 -0.3414
  466TMC3    C4 6988   0.261   0.161  16.057 -0.2282  0.2565 -0.6121
  466TMC3    C5 6989   0.309   0.285  16.042  0.1036  0.4039  0.9072
  466TMC3    C6 6990   0.229   0.387  16.008 -0.2812 -0.5723 -0.0974
  466TMC3     C 6991   0.077   0.057  16.146 -0.0337 -0.4989 -0.2263
  466TMC3     O 6992   0.162   4.716  16.187  0.8399 -0.8025 -0.2901
  466TMC3     H 6993   4.668   0.229  15.991  0.8075  1.7181 -3.0091
  466TMC3    H1 6994   0.329   0.081  16.085 -0.8786  0.0959  0.4909
  466TMC3    H2 6995   0.258   0.491  16.014 -0.6548 -0.3551 -2.0765
  466TMC3    C7 6996   0.447   0.308  16.082  0.1827  0.0683 -0.8082
  466TMC3    C8 6997   0.022   0.478  16.067  0.8024 -0.4061  0.3030
  466TMC3    O1 6998   0.508   0.398  16.026 -0.3608 -0.2785 -0.2289
  466TMC3    O2 6999   0.044   0.470  16.187  0.8189  0.2757 -0.0863
  467TMC3    C1 7000   1.738   3.738  13.587 -0.3288  0.3727  0.4811
  467TMC3    C2 7001   1.680   3.860  13.595 -0.3447 -0.5685  0.2584
  467TMC3    C3 7002   1.566   3.877  13.671 -0.0848 -0.1628  0.1785
  467TMC3    C4 7003   1.673   3.623  13.629 -0.0699  0.6755 -0.8354
  467TMC3    C5 7004   1.552   3.637  13.702 -0.1429 -0.6124  0.7933
  467TMC3    C6 7005   1.503   3.766  13.720 -0.2138  0.3419  0.3150
  467TMC3     C 7006   1.869   3.735  13.524 -0.1361 -0.6684  1.4552
  467TMC3     O 7007   1.911   3.834  13.468 -0.7205 -0.4083  0.4886
  467TMC3     H 7008   1.725   3.951  13.557 -0.5125 -0.0208  1.3633
  467TMC3    H1 7009   1.710   3.523  13.610 -0.6537 -0.2847  3.0835
  467TMC3    H2 7010   1.431   3.779  13.800 -0.3734 -0.6265  0.3264
  467TMC3    C7 7011   1.470   3.517  13.719 -0.1415 -0.6367 -0.1361
  467TMC3    C8 7012   1.513   4.008  13.683  0.0055  0.5729 -0.1238
  467TMC3    O1 7013   1.498   3.412  13.659 -0.2787  0.2329  0.7836
  467TMC3    O2 7014   1.602   4.092  13.670  0.3359  0.1670  0.3482
  468MPD2     C 7015   0.864   1.673  10.821  0.2483  0.3361  0.4519
  468MPD2    C1 7016   0.993   1.645  10.864  0.0562 -0.2930 -0.7447
  468MPD2    C2 7017   1.041   1.516  10.865 -0.2172  0.8381  0.0214
  468MPD2    C3 7018   0.959   1.411  10.823  0.0006  0.2352  0.3701
  468MPD2    C4 7019   0.827   1.442  10.794  0.1284 -0.2979  0.6943
  468MPD2    C5 7020   0.783   1.570  10.786 -0.3145 -0.9034  0.0105
  468MPD2     H 7021   1.143   1.503  10.899  0.0206  2.5496 -0.0173
  468MPD2    H1 7022   0.760   1.362  10.764 -0.6660  0.9978 -0.9643
  468MPD2    H2 7023   0.816   1.770  10.828 -3.3798 -1.4855  0.8552
  468MPD2    H3 7024   0.683   1.589  10.750  0.5080  1.7738 -0.9354
  468MPD2     N 7025   0.997   1.274  10.819  0.8942 -0.3240  0.3994
  468MPD2    H5 7026   0.927   1.200  10.813 -1.0308  1.3923  1.7311
  468MPD2    N1 7027   1.081   1.751  10.914  0.0839 -0.5702  0.3139
  468MPD2    H7 7028   1.178   1.728  10.929 -0.3555 -1.0027  2.4612
  469TMC3    C1 7029   1.160   1.964  10.979  0.1082  0.8500  0.0268
  469TMC3    C2 7030   1.274   1.886  10.969  0.0407 -0.0354 -0.3580
  469TMC3    C3 7031   1.344   1.878  11.086 -0.1268  0.0272 -0.2488
  469TMC3    C4 7032   1.127   2.042  11.078  0.0655  0.0689 -0.0585
  469TMC3    C5 7033   1.214   2.046  11.182  0.7820 -0.1448 -0.0687
  469TMC3    C6 7034   1.330   1.965  11.183  0.5595 -0.1164  0.3642
  469TMC3     C 7035   1.051   1.880  10.935 -0.1610  0.5903  0.1682
  469TMC3     O 7036   0.942   1.935  10.924 -0.4671 -0.3218  0.0726
  469TMC3     H 7037   1.308   1.839  10.878  1.1739 -0.1577  0.1375
  469TMC3    H1 7038   1.035   2.096  11.066 -2.2368 -3.6885  0.6047
  469TMC3    H2 7039   1.368   1.949  11.283 -0.0898  0.1933  0.6630
  469TMC3    C7 7040   1.176   2.123  11.296  0.5026 -0.2406  0.5367
  469TMC3    C8 7041   1.431   1.763  11.103  0.2722 -0.1357 -0.1234
  469TMC3    O1 7042   1.060   2.166  11.302 -0.3477  0.9783  0.2576
  469TMC3    O2 7043   1.403   1.665  11.038  0.5809 -0.3425  0.3657
  470TMC3    C1 7044   2.848   2.533   0.925  0.2188  0.4804  0.2748
  470TMC3    C2 7045   2.927   2.640   0.959 -0.0564  0.8128  0.4597
  470TMC3    C3 7046   2.944   2.667   1.094  0.2862 -0.6274  0.3203
  470TMC3    C4 7047   2.776   2.458   1.015 -0.8139  0.9647 -0.4970
  470TMC3    C5 7048   2.786   2.498   1.142  0.2180  0.7715 -0.6786
  470TMC3    C6 7049   2.870   2.594   1.184  0.6002 -0.3366 -0.3162
  470TMC3     C 7050   2.830   2.515   0.786  0.8432  0.5975  0.5068
  470TMC3     O 7051   2.859   2.608   0.713  0.3145  0.6345  0.3063
  470TMC3     H 7052   2.987   2.695   0.887 -1.2502  1.7814  0.2196
  470TMC3    H1 7053   2.707   2.380   0.985 -0.8498  0.8765 -0.1832
  470TMC3    H2 7054   2.870   2.628   1.286 -0.9894  0.3281 -0.5442
  470TMC3    C7 7055   2.698   2.445   1.242  0.1110 -0.3751 -0.0592
  470TMC3    C8 7056   2.966   2.798   1.138 -0.6964  0.0241 -0.0152
  470TMC3    O1 7057   2.608   2.370   1.204  0.3859  0.1559 -0.4216
  470TMC3    O2 7058   2.952   2.813   1.259  0.5115 -0.8936  1.0443
  471MPD2     C 7059   2.598   3.666  16.463 -0.6130 -0.4970 -0.2382
  471MPD2    C1 7060   2.699   3.581  16.426  0.0081 -0.0187 -0.4465
  471MPD2    C2 7061   2.776   3.516  16.524 -0.4201 -0.7006 -0.0144
  471MPD2    C3 7062   2.768   3.545  16.660 -0.7029 -0.4607  0.0279
  471MPD2    C4 7063   2.671   3.637  16.694 -0.3380 -0.0410  0.2132
  471MPD2    C5 7064   2.584   3.687  16.599 -0.0154  0.6036  0.3366
  471MPD2     H 7065   2.849   3.444  16.490 -1.0793 -1.3448 -0.0756
  471MPD2    H1 7066   2.650   3.659  16.798 -2.6013  1.4391 -0.5619
  471MPD2    H2 7067   2.543   3.717  16.385  1.2421  1.6597 -0.1226
  471MPD2    H3 7068   2.505   3.755  16.628 -1.4208  0.2801 -2.7502
  471MPD2     N 7069   2.858   3.508  16.766 -0.4070 -0.4643 -0.1583
  471MPD2    H5 7070   2.835   3.536  16.861  0.1032 -1.5255  0.2896
  471MPD2    N1 7071   2.711   3.566  16.286 -0.0108 -0.2641 -0.5801
  471MPD2    H7 7072   2.640   3.609  16.228  0.0652 -0.6180 -0.9342
  472TMC3    C1 7073   2.796   3.493  16.078  0.5849 -0.1653  0.1359
  472TMC3    C2 7074   2.675   3.444  16.024 -0.7431  0.2521  0.2987
  472TMC3    C3 7075   2.676   3.368  15.907 -0.2087  0.3348 -0.1894
  472TMC3    C4 7076   2.910   3.473  16.009 -0.5005  0.4526 -1.0227
  472TMC3    C5 7077   2.910   3.410  15.892 -0.5023  0.8369 -0.2181
  472TMC3    C6 7078   2.795   3.362  15.847 -0.6628  1.0759 -0.1069
  472TMC3     C 7079   2.818   3.511  16.219  0.2894 -0.6289 -0.2446
  472TMC3     O 7080   2.926   3.470  16.261  0.3076 -0.2821 -0.1227
  472TMC3     H 7081   2.584   3.435  16.082 -1.0809  3.0715  0.2001
  472TMC3    H1 7082   3.000   3.520  16.047 -0.4067 -0.2794 -0.3480
  472TMC3    H2 7083   2.791   3.302  15.757  0.6156  3.0644 -1.4800
  472TMC3    C7 7084   3.007   3.301  15.908  0.5468 -0.1396  0.9471
  472TMC3    C8 7085   2.581   3.270  15.868 -0.2986 -0.3701  0.1226
  472TMC3    O1 7086   2.978   3.188  15.929 -0.2178 -0.3744 -0.2050
  472TMC3    O2 7087   2.507   3.285  15.770 -0.3272 -0.3206  0.1356
  473MPD2     C 7088   3.583   0.680  13.757 -0.0516  0.3423  0.4951
  473MPD2    C1 7089   3.519   0.802  13.736  0.0473  0.0289  0.4396
  473MPD2    C2 7090   3.507   0.891  13.843 -0.4712  0.2611 -0.5182
  473MPD2    C3 7091   3.552   0.861  13.976  0.3824 -0.0769 -0.0036
  473MPD2    C4 7092   3.617   0.739  13.991 -0.2267 -0.1528 -0.1866
  473MPD2    C5 7093   3.626   0.653  13.888  0.4099  0.2200 -0.2289
  473MPD2     H 7094   3.452   0.984  13.831 -1.9843 -0.3807  1.4139
  473MPD2    H1 7095   3.661   0.714  14.086  1.7698 -0.5474 -1.2187
  473MPD2    H2 7096   3.622   0.615  13.679  0.3255  0.3125  0.7060
  473MPD2    H3 7097   3.683   0.564  13.912  1.4624  1.2835  1.1757
  473MPD2     N 7098   3.543   0.941  14.095 -0.2005 -0.0993 -0.2523
  473MPD2    H5 7099   3.597   0.912  14.176 -1.3382 -0.9656  0.1938
  473MPD2    N1 7100   3.477   0.851  13.613  0.3076 -0.5789  0.1449
  473MPD2    H7 7101   3.456   0.950  13.612 -1.3820 -0.9485 -0.6622
  474TMC3    C1 7102   3.523   1.174  14.173 -0.4841 -0.7130  0.1151
  474TMC3    C2 7103   3.453   1.294  14.165  0.2220 -0.0507 -0.4707
  474TMC3    C3 7104   3.488   1.405  14.238  0.0624 -0.5627  0.1785
  474TMC3    C4 7105   3.627   1.164  14.267  0.0120 -0.1406 -0.3007
  474TMC3    C5 7106   3.655   1.275  14.347 -0.8473  0.4392 -0.9812
  474TMC3    C6 7107   3.586   1.392  14.335 -0.1670 -0.5538  0.2192
  474TMC3     C 7108   3.477   1.067  14.080 -0.1055 -0.1055  0.5091
  474TMC3     O 7109   3.377   1.095  14.016  0.4594  0.1686  0.1982
  474TMC3     H 7110   3.371   1.308  14.095 -0.2356  0.0921  0.0927
  474TMC3    H1 7111   3.685   1.073  14.265  1.8922  1.0291  1.5562
  474TMC3    H2 7112   3.603   1.480  14.396 -1.3010  0.0589 -0.3418
  474TMC3    C7 7113   3.784   1.287  14.402  0.2444 -0.4638 -0.1986
  474TMC3    C8 7114   3.382   1.505  14.254  0.7863  0.6893 -0.5405
  474TMC3    O1 7115   3.870   1.219  14.344  0.4217 -0.1904  0.6023
  474TMC3    O2 7116   3.271   1.473  14.230  0.0796 -0.0333 -0.2166
  475MPD2     C 7117   2.218   4.340  10.088 -0.4959 -0.8446  0.1051
  475MPD2    C1 7118   2.273   4.366  10.216 -0.5369 -0.2328 -0.3982
  475MPD2    C2 7119   2.206   4.309  10.322 -0.1727  0.3674  0.5767
  475MPD2    C3 7120   2.082   4.252  10.305 -1.0960 -0.3026 -0.2578
  475MPD2    C4 7121   2.034   4.232  10.179 -0.3369 -0.3693  1.0608
  475MPD2    C5 7122   2.106   4.270  10.069 -0.2516 -0.4113 -0.0778
  475MPD2     H 7123   2.245   4.304  10.423  0.8243 -1.2770  0.1116
  475MPD2    H1 7124   1.944   4.174  10.161 -1.8191  0.9444  4.1541
  475MPD2    H2 7125   2.274   4.355   9.996 -2.4977 -2.5009 -1.3757
  475MPD2    H3 7126   2.078   4.256   9.965  1.0335 -2.1108 -0.1912
  475MPD2     N 7127   2.003   4.214  10.415 -0.0031  0.0449 -0.0172
  475MPD2    H5 7128   2.052   4.208  10.504 -1.5313  0.0177  0.8224
  475MPD2    N1 7129   2.390   4.446  10.230  0.1595 -0.6046  0.3830
  475MPD2    H7 7130   2.442   4.460  10.143 -1.0820 -1.9252 -0.5607
  476TMC3    C1 7131   2.357   4.548  10.443  0.9869  0.2261 -0.5733
  476TMC3    C2 7132   2.231   4.600  10.420  1.4931 -0.2981  0.0905
  476TMC3    C3 7133   2.167   4.665  10.520 -0.6198  0.0347  0.6140
  476TMC3    C4 7134   2.416   4.566  10.569  0.8120 -0.1734 -0.5277
  476TMC3    C5 7135   2.354   4.642  10.668 -0.0806 -0.1046  0.4881
  476TMC3    C6 7136   2.224   4.684  10.646  0.1289 -0.1421 -0.0531
  476TMC3     C 7137   2.444   4.503  10.343  0.4015 -0.1964  0.2394
  476TMC3     O 7138   2.561   4.542  10.350 -0.2013  0.2546  0.3691
  476TMC3     H 7139   2.186   4.611  10.321  0.1485 -1.6562  0.5677
  476TMC3    H1 7140   2.509   4.514  10.590  1.1575  0.6078 -0.1534
  476TMC3    H2 7141   2.170   0.012  10.716  0.6576  1.9697 -1.5374
  476TMC3    C7 7142   2.414   4.642  10.803 -0.8531  0.0442 -0.0177
  476TMC3    C8 7143   2.026   4.694  10.506 -0.2728 -1.1943 -0.3167
  476TMC3    O1 7144   2.509   4.566  10.816 -0.2851 -0.3443 -0.3160
  476TMC3    O2 7145   1.978   0.013  10.601  0.6665  0.7238 -0.0937
  477MPD2     C 7146   0.004   1.199  11.979 -0.2580 -0.0682  0.5673
  477MPD2    C1 7147   4.682   1.096  11.912  0.7224 -0.3740 -0.0561
  477MPD2    C2 7148   4.687   0.964  11.971 -0.4124 -0.7736 -0.2183
  477MPD2    C3 7149   4.725   0.953  12.105  0.6111  0.5898 -0.0783
  477MPD2    C4 7150   0.034   1.066  12.170  0.3200  0.7894 -0.3298
  477MPD2    C5 7151   0.045   1.183  12.111 -0.0141  0.5133 -0.6464
  477MPD2     H 7152   4.640   0.887  11.910  1.2131 -0.8126 -1.3962
  477MPD2    H1 7153   0.050   1.064  12.277 -2.1353  0.9173  0.0357
  477MPD2    H2 7154   0.003   1.299  11.936  1.5008 -0.9365 -1.5477
  477MPD2    H3 7155   0.059   1.272  12.172  1.7621 -1.5687  1.9224
  477MPD2     N 7156   4.700   0.825  12.165  0.2370 -0.8182 -0.7194
  477MPD2    H5 7157   4.705   0.745  12.103 -1.5169 -1.5973  0.1345
  477MPD2    N1 7158   4.621   1.122  11.781 -0.2679  0.0930 -0.1438
  477MPD2    H7 7159   4.631   1.215  11.740 -2.0356  0.3469  0.0146
  478TMC3    C1 7160   4.509   1.089  11.584 -0.1684  0.3544  0.3065
  478TMC3    C2 7161   4.405   1.176  11.609  0.8271 -0.4157 -0.3729
  478TMC3    C3 7162   4.306   1.181  11.518 -0.7720 -0.2596  0.4288
  478TMC3    C4 7163   4.517   1.023  11.462 -0.8046  0.0790 -0.9987
  478TMC3    C5 7164   4.420   1.041  11.364  0.2472 -0.3094 -0.1316
  478TMC3    C6 7165   4.312   1.118  11.397 -0.0442 -0.0317 -0.6442
  478TMC3     C 7166   4.573   1.029  11.691 -0.4021 -0.3187 -0.0694
  478TMC3     O 7167   4.580   0.911  11.686 -0.5743  0.9372 -0.2699
  478TMC3     H 7168   4.406   1.234  11.700 -0.2752  1.4992 -1.5924
  478TMC3    H1 7169   4.610   0.973  11.440 -0.7581 -0.8733  1.3909
  478TMC3    H2 7170   4.229   1.141  11.332  0.2293  0.2337 -0.8975
  478TMC3    C7 7171   4.458   1.042  11.224  0.7822  0.3244 -0.1045
  478TMC3    C8 7172   4.179   1.246  11.567 -0.4629 -0.1988 -0.5726
  478TMC3    O1 7173   4.561   0.977  11.201  0.4178 -0.8388  0.1418
  478TMC3    O2 7174   4.193   1.342  11.643  0.5045  0.7442  0.1519
  479MPD2     C 7175   3.068   3.175  14.958  0.8125 -0.5774 -0.1698
  479MPD2    C1 7176   2.994   3.114  15.056  0.0233 -0.4066 -0.4147
  479MPD2    C2 7177   3.008   3.147  15.187 -0.1178  1.0776  0.0133
  479MPD2    C3 7178   3.096   3.244  15.224  0.0136  0.4691  0.1748
  479MPD2    C4 7179   3.174   3.305  15.131  0.4493 -0.1271 -0.6303
  479MPD2    C5 7180   3.164   3.271  14.994 -0.3596 -0.2017  0.4253
  479MPD2     H 7181   2.978   3.083  15.268  0.3641  0.4716 -0.2853
  479MPD2    H1 7182   3.248   3.377  15.165 -1.4534  1.0942  0.9159
  479MPD2    H2 7183   3.051   3.159  14.852  0.3540  0.3681 -0.2465
  479MPD2    H3 7184   3.216   3.320  14.912 -2.6796  0.0818 -0.8797
  479MPD2     N 7185   3.130   3.267  15.356 -0.3575  0.2180  0.0113
  479MPD2    H5 7186   3.218   3.316  15.370 -0.3548  0.6962 -1.6693
  479MPD2    N1 7187   2.902   3.019  15.016 -0.0430  0.2145  0.7630
  479MPD2    H7 7188   2.909   2.989  14.919  0.0820  1.9141  0.2457
  480TMC3    C1 7189   2.761   3.068  15.593  0.2047 -0.2092  0.1799
  480TMC3    C2 7190   2.662   3.130  15.524  0.0443 -0.3979  0.1045
  480TMC3    C3 7191   2.713   3.229  15.436  0.0088 -0.8851  0.6262
  480TMC3    C4 7192   2.898   3.088  15.570 -0.6255 -1.2534  0.2733
  480TMC3    C5 7193   2.939   3.183  15.479 -0.1218 -0.1117 -0.5081
  480TMC3    C6 7194   2.843   3.261  15.421 -0.1705  0.3177  1.3386
  480TMC3     C 7195   2.728   2.938  15.645  0.1732 -0.5463 -0.9536
  480TMC3     O 7196   2.806   2.882  15.725 -0.0501  0.1162 -0.2749
  480TMC3     H 7197   2.557   3.106  15.521  0.0978 -0.7463  1.2187
  480TMC3    H1 7198   2.970   3.019  15.612 -0.9610 -4.0710 -3.7355
  480TMC3    H2 7199   2.873   3.346  15.360  0.4016 -0.2508  0.8258
  480TMC3    C7 7200   3.078   3.220  15.475  0.4994  0.6627  0.4485
  480TMC3    C8 7201   2.631   3.249  15.317  1.0352 -0.0166 -0.2616
  480TMC3    O1 7202   3.137   3.199  15.580  0.2293 -0.0684  0.3207
  480TMC3    O2 7203   2.515   3.223  15.333  0.2557  0.1654  0.3629
  481MPD2     C 7204   0.180   2.749  14.417 -0.5217  0.1895 -0.5278
  481MPD2    C1 7205   0.068   2.665  14.427  0.4275  0.0963 -0.0146
  481MPD2    C2 7206   0.053   2.580  14.535 -0.0073  0.1370 -0.6009
  481MPD2    C3 7207   0.146   2.578  14.632  0.8193 -0.7174  0.7167
  481MPD2    C4 7208   0.252   2.666  14.628 -0.3794  0.2346  0.3633
  481MPD2    C5 7209   0.267   2.750  14.522  0.4953 -0.4085 -0.5386
  481MPD2     H 7210   4.696   2.523  14.542 -0.1726  0.0773 -2.9976
  481MPD2    H1 7211   0.325   2.671  14.707  0.1270 -2.3858  0.0435
  481MPD2    H2 7212   0.199   2.811  14.330 -0.3538 -1.0035 -1.3259
  481MPD2    H3 7213   0.361   2.803  14.507  0.4130 -0.0063  0.3911
  481MPD2     N 7214   0.143   2.491  14.747 -0.0104  0.6826  0.0353
  481MPD2    H5 7215   0.227   2.505  14.802 -0.7486  1.6869  0.9125
  481MPD2    N1 7216   4.720   2.682  14.321  0.2272 -0.0541  0.3174
  481MPD2    H7 7217   4.734   2.765  14.265  0.6896  0.1784  0.7819
  482TMC3    C1 7218   4.546   2.620  14.173 -0.1942  0.2372  0.1924
  482TMC3    C2 7219   4.484   2.515  14.116 -0.4201  0.1100 -0.4837
  482TMC3    C3 7220   4.389   2.535  14.025 -0.0032 -0.4192 -0.1936
  482TMC3    C4 7221   4.521   2.749  14.122  0.0983 -0.0599  0.3428
  482TMC3    C5 7222   4.440   2.767  14.020 -0.5153  0.3517  0.5847
  482TMC3    C6 7223   4.367   2.659  13.968  0.0460 -0.0878 -0.0234
  482TMC3     C 7224   4.626   2.591  14.291 -0.3193 -0.0548  0.3745
  482TMC3     O 7225   4.625   2.472  14.329 -0.2525 -0.3105 -0.0274
  482TMC3     H 7226   4.477   2.418  14.164  0.6106  0.5329  0.5215
  482TMC3    H1 7227   4.588   2.826  14.160 -0.1501  1.2894 -1.9698
  482TMC3    H2 7228   4.292   2.676  13.892  2.8240  0.9428 -2.5268
  482TMC3    C7 7229   4.428   2.899  13.968  0.0312 -0.5697  0.0056
  482TMC3    C8 7230   4.326   2.414  13.967 -0.0747  0.1861 -0.8856
  482TMC3    O1 7231   4.448   2.992  14.047 -0.3723  0.0300 -0.7741
  482TMC3    O2 7232   4.363   2.304  14.004  0.0701 -0.0778  0.6875
  483TMC3    C1 7233   2.978   2.109   1.476 -0.2871  0.0811 -1.0250
  483TMC3    C2 7234   2.976   2.169   1.352  0.1054 -0.1805  0.0559
  483TMC3    C3 7235   3.099   2.214   1.309  0.1017  0.1673  0.1932
  483TMC3    C4 7236   3.089   2.071   1.539  0.1682 -0.4422  0.2744
  483TMC3    C5 7237   3.214   2.118   1.491 -0.0812 -0.2494  0.4214
  483TMC3    C6 7238   3.219   2.193   1.375 -0.5340 -0.6858 -0.6426
  483TMC3     C 7239   2.858   2.046   1.525  0.1218 -0.7507 -0.1663
  483TMC3     O 7240   2.858   2.018   1.643  0.2569  0.0443  0.1613
  483TMC3     H 7241   2.889   2.205   1.298  0.8544 -1.3488 -1.9010
  483TMC3    H1 7242   3.081   2.008   1.626 -2.5892  0.3673  0.6124
  483TMC3    H2 7243   3.311   2.245   1.350 -0.1372 -0.7674  0.6839
  483TMC3    C7 7244   3.324   2.026   1.509 -0.1924  0.6574 -0.4420
  483TMC3    C8 7245   3.098   2.288   1.184 -0.1305  0.8663 -0.4051
  483TMC3    O1 7246   3.322   1.961   1.612 -0.4844  0.2799  0.1145
  483TMC3    O2 7247   3.001   2.272   1.109  0.0505  0.3359 -0.0054
  484MPD2     C 7248   0.432   4.332  12.447 -0.0188  0.1265  0.2095
  484MPD2    C1 7249   0.469   4.200  12.474 -0.2023 -0.5749 -0.1109
  484MPD2    C2 7250   0.605   4.173  12.484 -0.9585  0.1040 -1.2926
  484MPD2    C3 7251   0.704   4.262  12.450  0.2581  0.4755 -0.2666
  484MPD2    C4 7252   0.663   4.383  12.403  0.3991  0.1299  0.4495
  484MPD2    C5 7253   0.530   4.419  12.402 -0.3235 -0.2425 -0.1595
  484MPD2     H 7254   0.627   4.071  12.514  0.5688 -0.0202 -2.8341
  484MPD2    H1 7255   0.739   4.456  12.380 -0.5311  0.0685 -2.9229
  484MPD2    H2 7256   0.327   4.357  12.440 -0.0234  0.3881  1.2369
  484MPD2    H3 7257   0.500   4.505  12.342 -0.4547 -0.2463 -0.0997
  484MPD2     N 7258   0.844   4.244  12.456  0.7906 -0.1747 -0.4513
  484MPD2    H5 7259   0.908   4.317  12.428  0.9738 -1.0734 -2.4160
  484MPD2    N1 7260   0.376   4.102  12.517 -0.2650 -0.2052  0.5582
  484MPD2    H7 7261   0.408   4.036  12.587  1.0074 -0.3794 -0.1903
  485TMC3    C1 7262   1.046   4.112  12.474  0.1813  0.0085  0.1363
  485TMC3    C2 7263   1.097   3.986  12.500  1.0912 -0.0973 -0.6269
  485TMC3    C3 7264   1.211   3.986  12.571  0.2703  0.0395 -0.8951
  485TMC3    C4 7265   1.109   4.235  12.504 -0.5146 -0.3950  0.0353
  485TMC3    C5 7266   1.229   4.221  12.557 -0.2584  0.9130 -0.2412
  485TMC3    C6 7267   1.270   4.099  12.612 -0.1044 -0.0846 -0.0145
  485TMC3     C 7268   0.908   4.122  12.436  0.0735  0.5859  0.3975
  485TMC3     O 7269   0.853   4.017  12.399  0.1057  0.3464 -0.0961
  485TMC3     H 7270   1.044   3.895  12.474  0.2333  0.8871 -2.3174
  485TMC3    H1 7271   1.069   4.331  12.474 -0.4853  0.2557  2.0997
  485TMC3    H2 7272   1.364   4.098  12.665 -1.4249  0.0930  2.3457
  485TMC3    C7 7273   1.334   4.306  12.495 -0.9806  0.6709 -0.3273
  485TMC3    C8 7274   1.312   3.896  12.520 -0.4173 -0.7433  0.3672
  485TMC3    O1 7275   1.312   4.411  12.441 -0.0802 -0.2664 -0.6763
  485TMC3    O2 7276   1.426   3.943  12.513 -0.3749 -0.2347 -1.4237
  486MPD2     C 7277   2.840   2.845  13.229  0.3302 -0.1167 -0.6788
  486MPD2    C1 7278   2.854   2.870  13.092 -0.0171 -0.4599  0.6337
  486MPD2    C2 7279   2.806   2.996  13.056  0.5447 -0.6648  0.1502
  486MPD2    C3 7280   2.755   3.092  13.147 -0.4194 -0.3675 -0.3557
  486MPD2    C4 7281   2.741   3.059  13.281 -1.3036  0.6192 -0.1034
  486MPD2    C5 7282   2.789   2.942  13.316 -0.2933 -0.0115  0.3096
  486MPD2     H 7283   2.813   3.019  12.950  0.3885  0.4518  0.3823
  486MPD2    H1 7284   2.694   3.128  13.350  2.1374  1.9105  0.9559
  486MPD2    H2 7285   2.892   2.761  13.274 -0.4732 -1.1885 -1.7783
  486MPD2    H3 7286   2.811   2.931  13.422  0.1669  0.9553  0.3100
  486MPD2     N 7287   2.689   3.204  13.101 -0.8774  0.4080  0.4154
  486MPD2    H5 7288   2.687   3.200  12.999 -0.7209 -0.8716  0.4690
  486MPD2    N1 7289   2.905   2.773  13.000 -0.4407 -0.0145  0.0014
  486MPD2    H7 7290   2.928   2.687  13.048 -2.2650 -0.7122 -0.3814
  487TMC3    C1 7291   2.910   2.640  12.801 -0.0727  1.1139 -0.3681
  487TMC3    C2 7292   2.805   2.596  12.729  0.0168 -0.1500 -0.0292
  487TMC3    C3 7293   2.762   2.464  12.739 -0.0885 -0.0273 -0.1172
  487TMC3    C4 7294   2.963   2.553  12.889  0.1620 -0.4716 -0.1381
  487TMC3    C5 7295   2.904   2.430  12.922  0.0829  0.6815  0.1770
  487TMC3    C6 7296   2.808   2.382  12.834 -0.5865 -0.2461  0.1135
  487TMC3     C 7297   2.877   2.768  12.861 -0.3423 -0.1927 -0.3974
  487TMC3     O 7298   2.817   2.850  12.794  0.2483 -0.2961  0.0333
  487TMC3     H 7299   2.773   2.664  12.651  0.4175  2.5070  2.1181
  487TMC3    H1 7300   3.053   2.569  12.947  1.5724  0.2197 -2.5339
  487TMC3    H2 7301   2.805   2.278  12.802  0.5844 -0.8250  1.8932
  487TMC3    C7 7302   2.837   2.458  13.049 -0.1992 -0.1347  0.0121
  487TMC3    C8 7303   2.625   2.452  12.704 -1.0043 -0.4885  0.2276
  487TMC3    O1 7304   2.899   2.522  13.137 -0.4779  0.4787 -0.0196
  487TMC3    O2 7305   2.580   2.345  12.664 -0.4360 -0.2197  0.0436
  488MPD2     C 7306   2.428   0.019  15.814 -0.4203 -0.3139 -0.2599
  488MPD2    C1 7307   2.415   0.153  15.832 -0.0976 -0.0335 -0.3310
  488MPD2    C2 7308   2.377   0.200  15.950 -0.3539 -0.5109  0.2315
  488MPD2    C3 7309   2.335   0.120  16.054 -0.0135 -0.6135 -0.1616
  488MPD2    C4 7310   2.339   4.718  16.031 -0.4772 -0.2819 -1.0733
  488MPD2    C5 7311   2.391   4.669  15.913  0.6903  0.4349 -0.3617
  488MPD2     H 7312   2.362   0.306  15.960 -0.4358 -0.3673 -1.3785
  488MPD2    H1 7313   2.309   4.652  16.112 -0.4099 -0.4347 -1.1743
  488MPD2    H2 7314   2.451   4.702  15.722 -1.2752 -2.9482  1.0058
  488MPD2    H3 7315   2.381   4.563  15.893  0.5126  0.7046 -1.6565
  488MPD2     N 7316   2.295   0.187  16.176  0.7624  0.6008  0.4752
  488MPD2    H5 7317   2.313   0.286  16.188  1.3743  0.5250  0.1876
  488MPD2    N1 7318   2.444   0.240  15.722 -0.2367  0.3966 -0.2413
  488MPD2    H7 7319   2.419   0.338  15.734 -0.1311  0.4440 -0.4053
  489TMC3    C1 7320   2.222   0.211  16.398 -0.7240  0.0399 -0.1868
  489TMC3    C2 7321   2.222   0.342  16.384 -0.0265 -0.3624  0.1551
  489TMC3    C3 7322   2.259   0.414  16.494 -0.4760 -0.2781 -0.4201
  489TMC3    C4 7323   2.249   0.147  16.522 -0.7183 -0.8058 -0.0332
  489TMC3    C5 7324   2.280   0.221  16.628 -0.1523 -0.1366 -0.0889
  489TMC3    C6 7325   2.287   0.358  16.617  0.1234 -0.5592 -1.1268
  489TMC3     C 7326   2.231   0.127  16.282 -0.1460  0.0380 -0.5552
  489TMC3     O 7327   2.206   0.008  16.300 -0.3996 -0.4226 -0.6560
  489TMC3     H 7328   2.175   0.394  16.302  1.4980  0.9682  0.1225
  489TMC3    H1 7329   2.240   0.039  16.529  1.9545 -0.9156  2.1884
  489TMC3    H2 7330   2.341   0.412  16.695  1.4659 -1.8838 -1.1291
  489TMC3    C7 7331   2.310   0.148  16.750  0.7281  0.0856 -0.3420
  489TMC3    C8 7332   2.255   0.553  16.480  0.2897 -0.1167  0.9527
  489TMC3    O1 7333   2.361   0.040  16.737  0.6068 -0.1765 -0.2875
  489TMC3    O2 7334   2.263   0.599  16.369 -0.8022  0.0551  0.3316
  490MPD2     C 7335   2.432   4.729  17.411 -0.5626 -0.3115 -0.1787
  490MPD2    C1 7336   2.544   4.668  17.376  0.2691  0.7168 -0.2852
  490MPD2    C2 7337   2.659   0.015  17.359  0.2815 -0.0864 -0.6447
  490MPD2    C3 7338   2.658   0.151  17.373 -0.0390  0.8584  0.3866
  490MPD2    C4 7339   2.546   0.211  17.403  0.4632 -0.3473 -0.4133
  490MPD2    C5 7340   2.433   0.132  17.430  0.7800 -0.4733 -0.1312
  490MPD2     H 7341   2.745   4.690  17.329  0.4173 -0.8640  1.2346
  490MPD2    H1 7342   2.543   0.316  17.430  2.2464 -0.6874  1.1319
  490MPD2    H2 7343   2.338   4.676  17.417 -0.8632  0.1587 -0.6733
  490MPD2    H3 7344   2.339   0.187  17.436  0.9068 -0.6529  3.2628
  490MPD2     N 7345   2.777   0.223  17.366  0.6251 -0.2558 -0.3914
  490MPD2    H5 7346   2.766   0.324  17.371 -1.4839 -0.5457  0.6800
  490MPD2    N1 7347   2.554   4.534  17.364  0.3005 -0.6889  0.3875
  490MPD2    H7 7348   2.646   4.498  17.339  1.4543  1.3367  1.6924
  491TMC3    C1 7349   2.520   4.308  17.383  0.4300  0.3507  0.8765
  491TMC3    C2 7350   2.624   4.304  17.476  0.0053 -0.2534  0.2957
  491TMC3    C3 7351   2.667   4.178  17.507  0.4920  0.2555 -0.3343
  491TMC3    C4 7352   2.458   4.197  17.321 -0.0178  0.5752  0.6955
  491TMC3    C5 7353   2.508   4.074  17.360  0.5733 -0.6123 -0.2762
  491TMC3    C6 7354   2.614   4.070  17.446 -0.7076 -0.6371 -0.6551
  491TMC3     C 7355   2.457   4.437  17.366  0.2571 -0.2289  0.0285
  491TMC3     O 7356   2.333   4.439  17.364  0.2554  0.0988 -0.2524
  491TMC3     H 7357   2.664   4.394  17.521 -1.5989  1.0712 -0.9627
  491TMC3    H1 7358   2.378   4.203  17.247  1.0409  1.8307 -0.3457
  491TMC3    H2 7359   2.651   3.970  17.465  1.5027  0.2623 -0.1917
  491TMC3    C7 7360   2.455   3.948  17.303  0.1538  0.0444 -0.8695
  491TMC3    C8 7361   2.750   4.168  17.620  0.0015 -0.1242 -0.3889
  491TMC3    O1 7362   2.412   3.959  17.189  0.1929  0.1085 -0.2871
  491TMC3    O2 7363   2.730   4.243  17.712 -0.2581  0.5138  0.1199
  492MPD2     C 7364   4.501   4.195  11.412  0.2380  0.7255  0.2110
  492MPD2    C1 7365   4.422   4.146  11.312  0.9290 -0.7265 -0.2141
  492MPD2    C2 7366   4.351   4.023  11.331  0.7947  0.7068  0.1777
  492MPD2    C3 7367   4.366   3.962  11.446  0.7420 -0.9247  0.3849
  492MPD2    C4 7368   4.445   4.014  11.547 -0.2111  0.3506  0.1135
  492MPD2    C5 7369   4.512   4.128  11.528 -0.0885  0.5441  0.6465
  492MPD2     H 7370   4.290   3.977  11.254  1.8047 -2.3175  1.1970
  492MPD2    H1 7371   4.452   3.957  11.638 -0.5182 -2.7844 -1.8539
  492MPD2    H2 7372   4.547   4.293  11.408  0.3918  0.4941 -3.2642
  492MPD2    H3 7373   4.568   4.171  11.611 -2.0996  2.3554  1.0465
  492MPD2     N 7374   4.291   3.846  11.477  0.1421  0.2106  0.4532
  492MPD2    H5 7375   4.284   3.816  11.574 -1.4349  1.1420  0.6165
  492MPD2    N1 7376   4.406   4.229  11.195 -0.1750  0.3397  0.4162
  492MPD2    H7 7377   4.472   4.305  11.188  1.0447 -0.7434  0.2693
  493TMC3    C1 7378   4.312   4.301  10.977  0.1778 -0.6965  0.0365
  493TMC3    C2 7379   4.370   4.422  10.988 -0.3802  0.0561 -1.0419
  493TMC3    C3 7380   4.370   4.502  10.883 -0.0362  0.3272  1.0174
  493TMC3    C4 7381   4.258   4.255  10.856  0.4188 -0.1180  0.0081
  493TMC3    C5 7382   4.261   4.339  10.751 -0.3095  0.0443 -0.3127
  493TMC3    C6 7383   4.314   4.465  10.762 -0.1712  0.0031 -0.7077
  493TMC3     C 7384   4.314   4.207  11.091  0.9223  0.0529 -0.4997
  493TMC3     O 7385   4.236   4.116  11.076  0.2615  0.4519  0.1330
  493TMC3     H 7386   4.405   4.462  11.082 -1.2958  0.3823 -0.8354
  493TMC3    H1 7387   4.220   4.154  10.845  2.9433 -1.0256 -0.5531
  493TMC3    H2 7388   4.307   4.538  10.683 -1.1897  0.2062 -0.4267
  493TMC3    C7 7389   4.167   4.314  10.645 -0.3266 -0.1888  0.0688
  493TMC3    C8 7390   4.444   4.624  10.896 -0.0224 -1.0579  0.5622
  493TMC3    O1 7391   4.137   4.416  10.580 -0.4245  0.2121 -0.0516
  493TMC3    O2 7392   4.523   4.619  10.992 -0.4139 -0.5995 -0.7598
  494TMC3    C1 7393   3.722   1.573   0.223  0.2284  0.2925 -0.0209
  494TMC3    C2 7394   3.708   1.439   0.229  0.1618 -0.2191 -0.0538
  494TMC3    C3 7395   3.778   1.358   0.138  0.2299 -0.1101  0.4791
  494TMC3    C4 7396   3.804   1.634   0.134  0.1821 -0.2236  0.8763
  494TMC3    C5 7397   3.880   1.553   0.054 -0.1659 -0.3159  0.5394
  494TMC3    C6 7398   3.862   1.416   0.051 -0.4035 -0.3755  0.4425
  494TMC3     C 7399   3.686   1.643   0.346 -0.4548  0.8541  0.6208
  494TMC3     O 7400   3.775   1.720   0.378 -0.6834  0.3609  0.3985
  494TMC3     H 7401   3.649   1.383   0.300  1.5892 -2.7085 -0.8347
  494TMC3    H1 7402   3.818   1.740   0.152 -2.8465  0.1388  1.1300
  494TMC3    H2 7403   3.921   1.356  17.719 -1.5588 -1.2952  0.2484
  494TMC3    C7 7404   3.978   1.605  17.691 -0.5814  0.3585  0.1277
  494TMC3    C8 7405   3.807   1.218   0.169  0.1279 -0.3517  0.1108
  494TMC3    O1 7406   4.014   1.539  17.595 -0.0657  0.1414 -0.5159
  494TMC3    O2 7407   3.924   1.191   0.158  0.3954  0.4973  0.3280
  495TMC3    C1 7408   3.089   3.302  14.452  0.0593  0.0099 -0.8527
  495TMC3    C2 7409   3.017   3.351  14.353  0.0712  0.4131  0.0481
  495TMC3    C3 7410   2.916   3.447  14.383  0.0723 -0.4275  0.3204
  495TMC3    C4 7411   3.066   3.347  14.575  0.0129  0.0702  0.5106
  495TMC3    C5 7412   2.966   3.432  14.604  0.6170 -0.0180 -0.7429
  495TMC3    C6 7413   2.883   3.484  14.512  0.0328  0.3462  0.3478
  495TMC3     C 7414   3.088   3.155  14.453 -0.3421 -0.5990 -0.4976
  495TMC3     O 7415   3.040   3.106  14.552  0.0647 -0.2901  0.2927
  495TMC3     H 7416   3.028   3.317  14.251  1.6571  0.4757  0.1983
  495TMC3    H1 7417   3.118   3.298  14.657  0.3292 -0.5354 -0.0502
  495TMC3    H2 7418   2.813   3.564  14.535 -0.2020 -0.5801  2.8939
  495TMC3    C7 7419   2.903   3.406  14.730  0.1175  0.1372  0.1891
  495TMC3    C8 7420   2.811   3.469  14.288 -0.0791 -0.5644  0.9904
  495TMC3    O1 7421   2.986   3.413  14.819  0.0958 -0.1695 -0.0921
  495TMC3    O2 7422   2.721   3.545  14.324  0.4554  0.2842 -0.0449
  496MPD2     C 7423   0.026   3.032  15.343  0.1632 -0.5005  0.7580
  496MPD2    C1 7424   0.070   3.108  15.445  0.1112  0.1423 -0.3219
  496MPD2    C2 7425   4.717   3.140  15.548 -0.4238  0.0375  0.7186
  496MPD2    C3 7426   4.583   3.100  15.539 -0.6866 -0.4695 -0.2677
  496MPD2    C4 7427   4.545   3.005  15.440  0.4690  0.6656 -0.2534
  496MPD2    C5 7428   4.635   2.969  15.341  0.4454 -0.2328  0.1031
  496MPD2     H 7429   0.022   3.205  15.625 -1.2036  1.1950  0.1520
  496MPD2    H1 7430   4.448   2.957  15.439  1.3406 -1.0710 -1.1623
  496MPD2    H2 7431   0.092   3.005  15.261  2.5063 -1.6359  3.0207
  496MPD2    H3 7432   4.611   2.893  15.268 -1.3937 -0.1505  0.6201
  496MPD2     N 7433   4.485   3.135  15.639 -0.2481 -0.4845 -0.5973
  496MPD2    H5 7434   4.389   3.106  15.620 -0.3240 -1.1400  0.8380
  496MPD2    N1 7435   0.202   3.167  15.427  0.2438  0.3185  0.2883
  496MPD2    H7 7436   0.260   3.125  15.354 -0.9549 -1.1799  0.2122
  497TMC3    C1 7437   4.385   3.279  15.790  0.0401 -0.1801 -0.1228
  497TMC3    C2 7438   4.259   3.238  15.755 -0.7964  0.0355 -0.5245
  497TMC3    C3 7439   4.163   3.332  15.755 -0.1497  0.8138 -1.3306
  497TMC3    C4 7440   4.399   3.398  15.859  0.3145 -0.1155 -0.2219
  497TMC3    C5 7441   4.299   3.491  15.852 -0.2392  0.8147 -0.2311
  497TMC3    C6 7442   4.183   3.461  15.791 -0.1437  0.3076  0.4882
  497TMC3     C 7443   4.507   3.219  15.743 -0.0227  0.1753  0.5100
  497TMC3     O 7444   4.613   3.272  15.789 -0.2835 -0.3743  0.5693
  497TMC3     H 7445   4.248   3.131  15.741  2.1615  0.0555 -3.0521
  497TMC3    H1 7446   4.490   3.425  15.911 -1.2164  0.0788  2.2970
  497TMC3    H2 7447   4.108   3.537  15.768  1.5659  0.7987 -3.5550
  497TMC3    C7 7448   4.337   3.634  15.845  0.3743 -0.1097 -0.1248
  497TMC3    C8 7449   4.036   3.282  15.772 -0.3110  0.4289 -0.3281
  497TMC3    O1 7450   4.288   3.701  15.758  0.1025 -0.1530  0.2036
  497TMC3    O2 7451   3.943   3.346  15.822 -0.0000  0.1427  0.1879
  498MPD2     C 7452   0.741   0.210   9.562  0.3981 -0.0079 -0.6019
  498MPD2    C1 7453   0.798   0.133   9.661 -0.1400  0.2429  0.1369
  498MPD2    C2 7454   0.796   4.727   9.648 -0.9731 -0.0495  0.0279
  498MPD2    C3 7455   0.732   4.664   9.541  0.2169 -0.1080  0.0020
  498MPD2    C4 7456   0.658   0.010   9.450 -0.2828 -0.8471 -0.4895
  498MPD2    C5 7457   0.666   0.150   9.462 -0.5298 -0.2575  0.5048
  498MPD2     H 7458   0.859   4.667   9.713  1.1202  1.3689 -0.6974
  498MPD2    H1 7459   0.597   4.704   9.370 -0.7199 -0.3793 -0.3976
  498MPD2    H2 7460   0.747   0.318   9.551 -1.0161  0.5093  3.7597
  498MPD2    H3 7461   0.618   0.212   9.388  0.6436 -0.4416 -0.4204
  498MPD2     N 7462   0.750   4.524   9.531  0.3616 -0.8204  0.0404
  498MPD2    H5 7463   0.792   4.477   9.611  1.3501 -0.5588 -0.3148
  498MPD2    N1 7464   0.877   0.188   9.770  0.0188 -0.0158  0.1175
  498MPD2    H7 7465   0.924   0.118   9.826  0.9425 -0.9753 -1.8793
  499TMC3    C1 7466   1.013   0.331   9.898 -0.3276 -0.5908  0.3022
  499TMC3    C2 7467   1.009   0.238  10.000  0.7155 -0.3417 -0.5368
  499TMC3    C3 7468   1.099   0.253  10.108 -0.0600  0.0629 -0.8086
  499TMC3    C4 7469   1.092   0.444   9.909 -0.0266 -0.1187  0.3358
  499TMC3    C5 7470   1.174   0.460  10.019 -0.1129  1.2067  0.3505
  499TMC3    C6 7471   1.178   0.365  10.121 -0.7079  0.3140 -0.3022
  499TMC3     C 7472   0.922   0.316   9.790 -0.7266 -0.4659 -0.2609
  499TMC3     O 7473   0.902   0.415   9.722  0.3520 -0.4034  0.4321
  499TMC3     H 7474   0.941   0.154  10.005  1.9599 -1.1762  2.7844
  499TMC3    H1 7475   1.095   0.512   9.824  1.1706 -0.1627  0.3484
  499TMC3    H2 7476   1.240   0.372  10.209  1.0273 -1.7481 -1.3391
  499TMC3    C7 7477   1.285   0.551  10.007 -0.4095  0.4200  0.4251
  499TMC3    C8 7478   1.143   0.138  10.182  0.1124  0.1290  0.2692
  499TMC3    O1 7479   1.318   0.590   9.898 -0.5757 -0.0449  0.7177
  499TMC3    O2 7480   1.119   0.025  10.137 -0.3366  0.6460  1.2583
  500MPD2     C 7481   3.106   0.907  11.036  0.5040  0.3758 -0.5456
  500MPD2    C1 7482   3.153   0.978  10.925 -0.7629 -0.0187 -0.1906
  500MPD2    C2 7483   3.064   1.044  10.841 -0.2553 -0.4666  0.0712
  500MPD2    C3 7484   2.926   1.048  10.863 -0.1209 -0.1331  0.4691
  500MPD2    C4 7485   2.888   0.973  10.974 -0.4396  0.1988  0.2292
  500MPD2    C5 7486   2.970   0.902  11.058 -0.2664 -0.0493 -0.2048
  500MPD2     H 7487   3.110   1.088  10.753 -1.0699 -0.0342 -0.1442
  500MPD2    H1 7488   2.783   0.961  10.996 -0.9376  0.5570 -1.9281
  500MPD2    H2 7489   3.170   0.851  11.104 -1.5933 -1.4998 -0.1098
  500MPD2    H3 7490   2.919   0.849  11.138 -2.3494 -0.4989 -1.8218
  500MPD2     N 7491   2.830   1.093  10.770 -0.4521 -0.4124 -0.2255
  500MPD2    H5 7492   2.735   1.091  10.807 -1.1861  0.8694 -2.0537
  500MPD2    N1 7493   3.292   0.985  10.892 -0.1683  0.6866  0.4929
  500MPD2    H7 7494   3.316   1.046  10.814  0.4985 -0.9770 -0.6071
  501TMC3    C1 7495   3.525   0.981  10.926  0.5756 -0.9947  0.2329
  501TMC3    C2 7496   3.546   1.072  10.828  0.8464 -0.7731 -1.4473
  501TMC3    C3 7497   3.672   1.096  10.773 -0.5116 -0.4792  0.5652
  501TMC3    C4 7498   3.634   0.910  10.971  0.2802  0.0523 -0.4539
  501TMC3    C5 7499   3.760   0.944  10.922 -0.5053  0.1892  0.1286
  501TMC3    C6 7500   3.781   1.040  10.831 -0.0266 -0.3422  0.1744
  501TMC3     C 7501   3.391   0.937  10.966  0.2281 -0.8104  0.3352
  501TMC3     O 7502   3.391   0.872  11.069 -0.3304  0.1083 -0.2093
  501TMC3     H 7503   3.455   1.113  10.787  0.5501 -0.4882 -0.4797
  501TMC3    H1 7504   3.619   0.835  11.047  0.5861 -0.8876 -1.3185
  501TMC3    H2 7505   3.882   1.071  10.805 -1.0193  1.3443 -1.6698
  501TMC3    C7 7506   3.869   0.847  10.944 -0.2780  0.6179  0.2936
  501TMC3    C8 7507   3.695   1.188  10.661  0.7434  0.9185  0.4507
  501TMC3    O1 7508   3.846   0.756  11.022 -0.1298  0.2099 -0.0513
  501TMC3    O2 7509   3.805   1.185  10.614 -0.0319  0.6603 -0.5298
  502TMC3    C1 7510   1.935   3.939  14.959 -0.1333 -0.0779 -0.4534
  502TMC3    C2 7511   1.943   4.056  14.880  0.1607  0.2486  0.5867
  502TMC3    C3 7512   1.843   4.151  14.905 -0.0733  0.8947 -0.4212
  502TMC3    C4 7513   1.826   3.919  15.044 -0.0380  0.6752  0.1078
  502TMC3    C5 7514   1.732   4.016  15.064 -0.0686  0.5938 -0.1186
  502TMC3    C6 7515   1.740   4.133  14.995  0.2518 -0.0846 -0.0009
  502TMC3     C 7516   2.056   3.926  15.027  0.0599 -1.6642  0.7131
  502TMC3     O 7517   2.160   3.931  14.965  0.3751 -0.3369 -0.3499
  502TMC3     H 7518   2.031   4.093  14.829  0.6110 -1.6409 -0.0350
  502TMC3    H1 7519   1.815   3.819  15.083 -3.5802  0.6203 -1.0007
  502TMC3    H2 7520   1.649   4.190  14.983 -0.6238 -1.6677 -0.8087
  502TMC3    C7 7521   1.621   3.983  15.148  0.0898 -0.0259 -0.2470
  502TMC3    C8 7522   1.882   4.282  14.863  0.2069  0.9499 -0.0443
  502TMC3    O1 7523   1.601   3.865  15.165 -0.2912 -0.4227  0.0699
  502TMC3    O2 7524   1.949   4.297  14.760 -0.4054  0.0053  0.0592
  503MPD2     C 7525   4.142   0.667  16.464  0.5721 -0.0530  0.5406
  503MPD2    C1 7526   4.149   0.695  16.598  0.4394  0.2842  0.0628
  503MPD2    C2 7527   4.162   0.598  16.688 -0.5128  0.6167 -0.3119
  503MPD2    C3 7528   4.198   0.471  16.650  0.2223 -0.1760  0.2206
  503MPD2    C4 7529   4.213   0.449  16.516 -0.7542  0.0790 -0.5931
  503MPD2    C5 7530   4.186   0.541  16.423  0.6143  0.0465 -0.3596
  503MPD2     H 7531   4.153   0.622  16.794  0.9804  2.1072 -0.5245
  503MPD2    H1 7532   4.232   0.347  16.485 -0.8425  0.2302 -1.1337
  503MPD2    H2 7533   4.100   0.734  16.389  0.3511 -0.9377 -0.1208
  503MPD2    H3 7534   4.203   0.511  16.320  2.2388 -1.8963  0.4522
  503MPD2     N 7535   4.214   0.372  16.755  0.1276 -0.1073  0.5533
  503MPD2    H5 7536   4.201   0.409  16.848 -2.0892 -1.3009  0.7090
  503MPD2    N1 7537   4.110   0.825  16.642 -0.0462  0.2062  0.0340
  503MPD2    H7 7538   4.083   0.847  16.737 -3.6872 -1.8077 -0.4924
  504TMC3    C1 7539   4.267   0.178  16.867 -0.0430  0.4700  0.2966
  504TMC3    C2 7540   4.235   0.248  16.981 -0.2248 -0.2173 -0.0925
  504TMC3    C3 7541   4.261   0.184  17.097  0.0978 -0.3342  0.1386
  504TMC3    C4 7542   4.327   0.059  16.849 -0.2974 -0.2391  0.3170
  504TMC3    C5 7543   4.350   0.004  16.973  0.4192 -0.0086 -0.0693
  504TMC3    C6 7544   4.321   0.055  17.094 -0.2388  0.2309 -0.2304
  504TMC3     C 7545   4.244   0.241  16.741 -0.1360  0.2771  0.5729
  504TMC3     O 7546   4.227   0.168  16.646 -0.0270 -0.1824 -0.0813
  504TMC3     H 7547   4.178   0.340  16.971  2.0764  1.2206 -0.1089
  504TMC3    H1 7548   4.354   0.015  16.754 -0.4659 -0.3590  0.3238
  504TMC3    H2 7549   4.381   0.023  17.178 -0.8722 -2.3995 -0.7626
  504TMC3    C7 7550   4.435   4.623  16.976  0.1382  0.1757 -0.4545
  504TMC3    C8 7551   4.270   0.268  17.221  0.2049 -0.3713 -0.8539
  504TMC3    O1 7552   4.513   4.609  16.882 -0.2205 -0.4652 -0.1322
  504TMC3    O2 7553   4.248   0.387  17.214 -0.6434  0.1139 -0.4163
  505MPD2     C 7554   0.200   3.334   9.711  0.1697  0.2428  0.5360
  505MPD2    C1 7555   0.299   3.256   9.764  0.0161 -0.3857  0.1221
  505MPD2    C2 7556   0.336   3.285   9.897  0.3857  0.1950 -0.2212
  505MPD2    C3 7557   0.272   3.381   9.972 -0.4410  0.2704  0.2376
  505MPD2    C4 7558   0.157   3.440   9.920  0.4026  0.7083  0.3510
  505MPD2    C5 7559   0.117   3.410   9.794  0.1708  0.1897 -0.5778
  505MPD2     H 7560   0.419   3.234   9.945 -1.9657 -1.9102  1.6025
  505MPD2    H1 7561   0.090   3.499   9.982  0.1630  0.4114  0.3724
  505MPD2    H2 7562   0.173   3.322   9.607  3.2281 -0.2158 -0.2062
  505MPD2    H3 7563   0.048   3.479   9.746  0.4472 -1.0796 -2.7716
  505MPD2     N 7564   0.316   3.416  10.100 -0.8635  0.0573  0.7707
  505MPD2    H5 7565   0.267   3.499  10.132  1.2193  2.2582 -1.7139
  505MPD2    N1 7566   0.371   3.182   9.668 -0.0838  0.2279 -0.9094
  505MPD2    H7 7567   0.333   3.177   9.574 -1.7980 -0.6750 -0.1697
  506TMC3    C1 7568   0.584   3.091   9.590 -0.2306  0.1473  0.4260
  506TMC3    C2 7569   0.590   3.180   9.489  0.3641  0.2871  0.7920
  506TMC3    C3 7570   0.714   3.198   9.429  0.0844  0.4210 -0.2367
  506TMC3    C4 7571   0.700   3.025   9.627  0.2647 -0.6220  0.0896
  506TMC3    C5 7572   0.822   3.048   9.563 -0.2889 -0.5636  0.4682
  506TMC3    C6 7573   0.828   3.132   9.458  0.0214  0.4958  0.3575
  506TMC3     C 7574   0.487   3.114   9.698  0.3363 -0.6383 -0.1769
  506TMC3     O 7575   0.525   3.076   9.807 -0.2585  0.6675  0.1845
  506TMC3     H 7576   0.501   3.240   9.475 -0.3483 -0.7101  0.9840
  506TMC3    H1 7577   0.692   2.951   9.706  0.0571  0.9183  1.4890
  506TMC3    H2 7578   0.919   3.157   9.406  0.1348 -1.2335 -0.2616
  506TMC3    C7 7579   0.915   3.090   9.659 -0.1769  0.0605 -0.1645
  506TMC3    C8 7580   0.729   3.290   9.326 -0.0227  0.3894 -0.4978
  506TMC3    O1 7581   1.031   3.111   9.620 -0.0581 -0.3741 -0.0107
  506TMC3    O2 7582   0.810   3.259   9.242 -0.1532  0.2643 -0.4115
  507TMC3    C1 7583   0.847   0.787  15.629 -0.0409  0.0218  0.3184
  507TMC3    C2 7584   0.977   0.790  15.615 -0.3613 -0.5980  0.4340
  507TMC3    C3 7585   1.032   0.879  15.522 -0.3230  0.6315  0.6951
  507TMC3    C4 7586   0.763   0.873  15.570  0.2035 -0.4675 -0.0882
  507TMC3    C5 7587   0.817   0.980  15.503  0.2056 -0.6417  0.1784
  507TMC3    C6 7588   0.950   0.985  15.478 -0.3368 -0.4674 -0.0265
  507TMC3     C 7589   0.785   0.660  15.612  0.8894 -0.4330  0.3263
  507TMC3     O 7590   0.784   0.584  15.707 -0.2889 -0.1847  0.3030
  507TMC3     H 7591   1.031   0.704  15.652  1.1533  0.0859 -0.2108
  507TMC3    H1 7592   0.656   0.862  15.579 -0.0976  3.4033  0.9060
  507TMC3    H2 7593   0.981   1.053  15.400  1.1364 -0.6729  0.3771
  507TMC3    C7 7594   0.740   0.998  15.382 -0.7327 -0.0908  0.2428
  507TMC3    C8 7595   1.090   0.820  15.398 -0.4763  0.1547  0.8168
  507TMC3    O1 7596   0.682   0.890  15.363  0.3956  0.6353  0.3336
  507TMC3    O2 7597   1.134   0.898  15.309 -0.3917 -0.3662 -0.6688
  508MPD2     C 7598   1.559   1.974  16.073 -0.2233 -0.2850  0.1233
  508MPD2    C1 7599   1.536   2.083  16.154 -0.6110  0.2925  0.3356
  508MPD2    C2 7600   1.463   2.188  16.100 -0.1752 -0.1001 -0.3728
  508MPD2    C3 7601   1.407   2.177  15.974 -0.2140 -0.2558 -0.7016
  508MPD2    C4 7602   1.414   2.056  15.906  0.4928 -0.0601  0.2342
  508MPD2    C5 7603   1.489   1.955  15.956 -0.1720 -0.1290  0.7559
  508MPD2     H 7604   1.474   2.287  16.144  0.1709  0.6037 -2.0159
  508MPD2    H1 7605   1.381   2.047  15.804 -0.1255  0.8337  0.3508
  508MPD2    H2 7606   1.623   1.894  16.107  0.0636  0.2759  0.9164
  508MPD2    H3 7607   1.526   1.876  15.891  1.4771  2.5146 -1.4878
  508MPD2     N 7608   1.370   2.288  15.903 -0.2583 -0.5202  0.2672
  508MPD2    H5 7609   1.401   2.378  15.937  2.1700 -2.0504  2.1611
  508MPD2    N1 7610   1.606   2.097  16.276 -0.2327  0.2298 -0.6301
  508MPD2    H7 7611   1.678   2.026  16.285 -1.2624 -0.7251  0.0920
  509TMC3    C1 7612   1.324   2.605  15.601 -0.0916  0.2927  0.5137
  509TMC3    C2 7613   1.458   2.609  15.579 -0.4975 -0.0672 -0.4622
  509TMC3    C3 7614   1.538   2.508  15.633 -0.5944 -0.2405 -0.7862
  509TMC3    C4 7615   1.273   2.499  15.665 -0.3200 -0.1364  0.1694
  509TMC3    C5 7616   1.352   2.396  15.708 -0.0973  0.0817 -0.2504
  509TMC3    C6 7617   1.485   2.403  15.695  0.0059 -0.2614  0.4764
  509TMC3     C 7618   1.235   2.687  15.525 -0.2147 -0.0038  0.0833
  509TMC3     O 7619   1.113   2.676  15.538 -0.4857 -0.2797  1.1091
  509TMC3     H 7620   1.503   2.690  15.524  2.3937 -2.1046 -1.0605
  509TMC3    H1 7621   1.168   2.492  15.689 -0.2091  0.1269  0.7428
  509TMC3    H2 7622   1.547   2.319  15.724  0.3606 -0.2109 -0.1501
  509TMC3    C7 7623   1.297   2.290  15.787  0.1334  0.2552  0.2087
  509TMC3    C8 7624   1.680   2.506  15.616 -0.4191  0.7517 -0.3938
  509TMC3    O1 7625   1.212   2.211  15.756  0.3425 -0.5016 -0.2494
  509TMC3    O2 7626   1.731   2.393  15.597  0.3835  0.7819 -0.5372
  510MPD2     C 7627   4.229   4.031  14.766 -1.0924  0.0779  0.6008
  510MPD2    C1 7628   4.272   3.901  14.752  0.1474  0.2082  0.4687
  510MPD2    C2 7629   4.336   3.863  14.637 -0.5672  0.4040 -0.1113
  510MPD2    C3 7630   4.367   3.956  14.546 -0.2443 -0.7112  0.5179
  510MPD2    C4 7631   4.332   4.088  14.555 -0.4442  0.3042 -0.0532
  510MPD2    C5 7632   4.272   4.122  14.670  0.2759 -0.6785 -0.0519
  510MPD2     H 7633   4.373   3.762  14.622  2.2029  1.3897 -0.0010
  510MPD2    H1 7634   4.372   4.159  14.483 -1.0453 -2.2243 -2.8854
  510MPD2    H2 7635   4.196   4.077  14.859 -0.0636 -0.5079  1.2489
  510MPD2    H3 7636   4.253   4.227  14.689 -4.5394 -1.7968  1.3076
  510MPD2     N 7637   4.432   3.899  14.436  0.1268 -0.4037 -1.2490
  510MPD2    H5 7638   4.457   3.802  14.454  1.3975  0.0414 -0.6328
  510MPD2    N1 7639   4.235   3.815  14.849  0.0471 -0.0047 -0.2609
  510MPD2    H7 7640   4.171   3.863  14.911 -0.9693  1.0945 -2.1791
  511TMC3    C1 7641   4.178   3.613  14.953  0.1456  0.0651 -0.6905
  511TMC3    C2 7642   4.079   3.663  15.030  0.3255 -0.5789 -0.1846
  511TMC3    C3 7643   3.987   3.582  15.083  0.1125  0.0243 -0.6437
  511TMC3    C4 7644   4.181   3.476  14.932  0.2791  0.2902  0.1267
  511TMC3    C5 7645   4.081   3.397  14.977 -0.2596 -0.1013  0.2365
  511TMC3    C6 7646   3.974   3.446  15.050 -0.0724  0.4199  0.2484
  511TMC3     C 7647   4.270   3.690  14.869 -0.0969 -0.2936 -0.0092
  511TMC3     O 7648   4.362   3.631  14.812  0.3344 -0.2416  0.0252
  511TMC3     H 7649   4.084   3.761  15.076  0.3236 -0.3434 -0.6903
  511TMC3    H1 7650   4.270   3.436  14.885 -1.2977 -0.1864 -2.4937
  511TMC3    H2 7651   3.893   3.382  15.082 -0.3338  0.4872 -0.2892
  511TMC3    C7 7652   4.080   3.275  14.901  0.1289  0.2730  0.3041
  511TMC3    C8 7653   3.912   3.626  15.205 -0.7665 -0.4551  0.0614
  511TMC3    O1 7654   4.162   3.263  14.810 -0.2255 -0.4163  0.2056
  511TMC3    O2 7655   3.880   3.743  15.217 -0.0969 -0.1815  0.8716
  512TMC3    C1 7656   3.529   3.055  12.566  0.2119  0.5896  0.0373
  512TMC3    C2 7657   3.598   3.071  12.687 -0.4541  0.8394  0.1363
  512TMC3    C3 7658   3.576   2.974  12.780  0.4366 -0.5288  0.4546
  512TMC3    C4 7659   3.446   2.949  12.545  0.2383  0.1041  0.1352
  512TMC3    C5 7660   3.428   2.855  12.641 -0.3657 -0.0030  0.0900
  512TMC3    C6 7661   3.492   2.870  12.760 -0.5441 -0.5579 -0.2452
  512TMC3     C 7662   3.543   3.151  12.457 -0.3907  0.6364 -0.1587
  512TMC3     O 7663   3.546   3.110  12.342  0.1832  0.3451 -0.1688
  512TMC3     H 7664   3.672   3.148  12.704  1.5334 -1.1113  0.3395
  512TMC3    H1 7665   3.396   2.945  12.449  0.5416  0.1815 -0.0252
  512TMC3    H2 7666   3.484   2.802  12.844  1.3544 -0.6343 -0.1309
  512TMC3    C7 7667   3.320   2.758  12.630 -0.0805  0.5616 -0.4518
  512TMC3    C8 7668   3.640   2.983  12.910 -0.5994  0.2633 -0.1104
  512TMC3    O1 7669   3.230   2.784  12.548  0.0908 -0.2348  0.4314
  512TMC3    O2 7670   3.658   2.879  12.980 -0.0298 -0.0324  0.4097
  513MPD2     C 7671   4.617   3.220  12.891  0.0964  0.5640 -0.5724
  513MPD2    C1 7672   4.699   3.111  12.847  0.4407 -0.4557 -0.2442
  513MPD2    C2 7673   0.020   3.033  12.948  0.3666 -0.4833  0.7497
  513MPD2    C3 7674   4.723   3.053  13.080  0.4204  0.9170 -0.0320
  513MPD2    C4 7675   4.637   3.151  13.119 -0.2039 -0.2909 -0.1765
  513MPD2    C5 7676   4.595   3.238  13.022 -0.5700  0.2945 -1.4593
  513MPD2     H 7677   0.091   2.955  12.922  0.5579  0.6286 -2.0617
  513MPD2    H1 7678   4.611   3.160  13.224  2.5190  2.2390  0.3064
  513MPD2    H2 7679   4.592   3.302  12.825 -0.9696 -0.5399 -1.5498
  513MPD2    H3 7680   4.541   3.327  13.051 -0.1271 -0.1364  0.6975
  513MPD2     N 7681   0.053   2.959  13.162 -0.0784  0.4080  0.6821
  513MPD2    H5 7682   0.119   2.898  13.116  0.1454  1.1336  0.0436
  513MPD2    N1 7683   4.712   3.095  12.706  0.3018 -0.4726 -0.2000
  513MPD2    H7 7684   4.648   3.151  12.651 -0.4034  1.0515  2.2114
  514TMC3    C1 7685   0.083   3.011  12.507 -0.0460 -0.0483  0.1817
  514TMC3    C2 7686   0.131   3.125  12.450  0.0407 -1.0338 -0.4524
  514TMC3    C3 7687   0.248   3.113  12.375 -0.3234  0.3575  0.3976
  514TMC3    C4 7688   0.133   2.885  12.477  0.3253 -0.5637  0.6685
  514TMC3    C5 7689   0.249   2.878  12.409  0.1938  0.1825 -0.1402
  514TMC3    C6 7690   0.300   2.990  12.351  0.2910  0.5748  0.3610
  514TMC3     C 7691   0.065   3.005  12.647 -0.1235 -0.3033  0.4937
  514TMC3     O 7692   0.140   2.931  12.706 -0.2070 -0.0040  0.0178
  514TMC3     H 7693   0.087   3.224  12.455 -0.6099 -1.3858  0.7614
  514TMC3    H1 7694   0.087   2.803  12.532 -0.1176 -2.5698 -2.6954
  514TMC3    H2 7695   0.387   2.968  12.289 -0.9152  0.3459 -1.2452
  514TMC3    C7 7696   0.355   2.789  12.454  0.0640 -0.0957 -0.4556
  514TMC3    C8 7697   0.273   3.222  12.285  0.8488 -0.1864 -0.0169
  514TMC3    O1 7698   0.425   2.741  12.366 -0.2767  0.8403 -0.0236
  514TMC3    O2 7699   0.180   3.298  12.260  0.4063  0.3849 -0.0695
  515MPD2     C 7700   3.388   4.554  14.894 -0.0242  0.2935 -0.0411
  515MPD2    C1 7701   3.415   4.606  14.765 -0.3036  0.5887  0.3145
  515MPD2    C2 7702   3.479   4.723  14.751 -0.2459  0.0259  1.0397
  515MPD2    C3 7703   3.509   0.068  14.864 -0.7481 -0.1276  0.3502
  515MPD2    C4 7704   3.463   0.026  14.989  0.4746  0.4736 -0.0717
  515MPD2    C5 7705   3.410   4.635  15.008  0.5264 -0.3283 -0.2344
  515MPD2     H 7706   3.516   0.011  14.652  0.4819  1.1381  1.5495
  515MPD2    H1 7707   3.479   0.095  15.072 -0.9606 -0.4968  1.0165
  515MPD2    H2 7708   3.343   4.456  14.904 -0.6052  0.4228 -1.3870
  515MPD2    H3 7709   3.391   4.586  15.103 -2.0167  1.0438 -0.0333
  515MPD2     N 7710   3.574   0.202  14.850 -0.3783 -0.5946 -0.4801
  515MPD2    H5 7711   3.588   0.249  14.939  2.8668 -0.4098 -1.0912
  515MPD2    N1 7712   3.400   4.525  14.649  0.4391  0.3414 -0.4075
  515MPD2    H7 7713   3.413   4.568  14.558  0.2115 -1.3894 -1.2599
  516TMC3    C1 7714   3.287   4.376  14.514  0.2593 -0.6000  0.2593
  516TMC3    C2 7715   3.194   4.468  14.470  0.1687 -0.8809  0.0398
  516TMC3    C3 7716   3.104   4.433  14.372 -0.9363 -0.7789 -0.8337
  516TMC3    C4 7717   3.286   4.249  14.465 -0.9745 -0.2699 -0.0989
  516TMC3    C5 7718   3.187   4.212  14.376 -0.4910  0.1812 -0.3079
  516TMC3    C6 7719   3.097   4.303  14.330 -0.5454  0.3014  0.1036
  516TMC3     C 7720   3.349   4.400  14.639  0.1066 -0.5427 -0.1008
  516TMC3     O 7721   3.349   4.315  14.727  0.0227 -0.7036 -0.2354
  516TMC3     H 7722   3.186   4.554  14.534 -0.3592 -0.0758 -1.1120
  516TMC3    H1 7723   3.360   4.181  14.505  1.8610  1.1395 -3.0038
  516TMC3    H2 7724   3.018   4.267  14.265 -0.5455 -0.5720  0.5756
  516TMC3    C7 7725   3.143   4.078  14.392  0.2222 -0.3795  0.8994
  516TMC3    C8 7726   2.987   4.520  14.344 -0.2554  0.0732 -1.1129
  516TMC3    O1 7727   3.230   4.006  14.439 -0.0555 -0.5360 -0.1792
  516TMC3    O2 7728   2.889   4.472  14.288 -0.0990  0.2193 -0.7088
  517MPD2     C 7729   2.791   1.767   0.416  0.7134  0.3222 -0.3586
  517MPD2    C1 7730   2.800   1.838   0.295 -0.4070 -0.4132 -0.3298
  517MPD2    C2 7731   2.864   1.965   0.295  0.4715 -0.5179  0.2385
  517MPD2    C3 7732   2.917   2.021   0.410 -0.5306  0.2327 -0.0084
  517MPD2    C4 7733   2.914   1.944   0.523 -0.9052  0.6038  0.1814
  517MPD2    C5 7734   2.861   1.815   0.528 -0.2560  0.9833 -0.7813
  517MPD2     H 7735   2.880   2.022   0.204 -1.1424  1.1448  0.9890
  517MPD2    H1 7736   2.941   1.994   0.615 -0.9459  0.3170  0.3504
  517MPD2    H2 7737   2.741   1.671   0.421 -1.5630  1.6055  1.1884
  517MPD2    H3 7738   2.850   1.759   0.620  0.0818  1.5319 -0.4104
  517MPD2     N 7739   2.955   2.162   0.416 -0.2464  1.0628  0.1805
  517MPD2    H5 7740   3.000   2.189   0.504  2.6585 -0.3440 -0.8523
  517MPD2    N1 7741   2.746   1.792   0.173 -0.3489 -0.0301  0.2965
  517MPD2    H7 7742   2.775   1.836   0.087  0.0239  0.3687  0.6322
  518TMC3    C1 7743   2.616   1.644   0.039 -0.0053 -0.3556  0.1933
  518TMC3    C2 7744   2.504   1.561   0.031  0.3201  0.3065 -0.0558
  518TMC3    C3 7745   2.465   1.519  17.643  0.7764 -0.3400  0.3904
  518TMC3    C4 7746   2.683   1.687  17.667 -0.3280  0.4888  0.2114
  518TMC3    C5 7747   2.638   1.632  17.542 -0.6248 -0.0958  0.0843
  518TMC3    C6 7748   2.536   1.549  17.529 -0.0664 -0.1679 -0.0682
  518TMC3     C 7749   2.652   1.693   0.172  0.4400 -0.2389 -0.4779
  518TMC3     O 7750   2.595   1.639   0.271  0.1421  0.6840 -0.2937
  518TMC3     H 7751   2.462   1.533   0.126  1.8510  0.6473  0.7206
  518TMC3    H1 7752   2.771   1.750  17.673  0.3655 -0.4987  0.5717
  518TMC3    H2 7753   2.494   1.522  17.432  0.0976 -1.2303  0.1565
  518TMC3    C7 7754   2.735   1.613  17.433  0.1477 -0.2935 -0.8471
  518TMC3    C8 7755   2.379   1.398  17.632 -0.2083 -0.3647  0.2560
  518TMC3    O1 7756   2.815   1.707  17.419 -0.1527 -0.3311  0.0371
  518TMC3    O2 7757   2.398   1.324  17.536  0.0129 -0.4489  0.0521
  519MPD2     C 7758   4.509   4.644  14.666  0.0332 -0.3355  0.0882
  519MPD2    C1 7759   4.501   4.698  14.540  0.1375 -0.9204  0.2890
  519MPD2    C2 7760   4.521   4.609  14.432  0.4970  0.4676 -0.3016
  519MPD2    C3 7761   4.540   4.468  14.457 -0.1942 -0.2440 -0.0415
  519MPD2    C4 7762   4.538   4.417  14.585  0.0106  0.4381  0.7113
  519MPD2    C5 7763   4.524   4.510  14.687 -0.1918  0.3195 -1.3247
  519MPD2     H 7764   4.534   4.648  14.332 -0.4192 -2.0598 -1.3990
  519MPD2    H1 7765   4.547   4.310  14.601 -1.6771 -0.0932 -1.8745
  519MPD2    H2 7766   4.499   4.707  14.754 -2.1270 -2.0212  1.0631
  519MPD2    H3 7767   4.517   4.481  14.791 -0.7121  2.8070 -0.6598
  519MPD2     N 7768   4.559   4.381  14.355  0.7007  0.0085  0.2344
  519MPD2    H5 7769   4.605   4.293  14.374 -1.4269 -1.2357 -0.4173
  519MPD2    N1 7770   4.482   0.102  14.534 -0.2955  0.7924  0.1143
  519MPD2    H7 7771   4.498   0.159  14.616 -0.0631 -0.5639  1.0016
  520TMC3    C1 7772   4.586   4.314  14.142 -0.5214  0.4045 -0.1237
  520TMC3    C2 7773   4.524   4.293  14.017  0.3957  0.1095 -0.3135
  520TMC3    C3 7774   4.586   4.206  13.924  0.1591 -0.4263 -0.1724
  520TMC3    C4 7775   4.692   4.237  14.181 -0.0928 -0.1423  0.5736
  520TMC3    C5 7776   0.021   4.159  14.090 -0.4324 -0.7117  0.3251
  520TMC3    C6 7777   4.698   4.127  13.966  0.0512 -0.1819 -0.7382
  520TMC3     C 7778   4.529   4.415  14.223 -0.3319  0.9004  0.1682
  520TMC3     O 7779   4.457   4.502  14.170  0.0194 -0.0924 -0.4749
  520TMC3     H 7780   4.454   4.369  13.984  2.9266  1.7398 -1.9158
  520TMC3    H1 7781   0.007   4.246  14.277  1.3876 -1.6003 -0.0310
  520TMC3    H2 7782   4.731   4.052  13.895 -1.1226 -0.4833 -0.9677
  520TMC3    C7 7783   0.131   4.085  14.141  0.4228  0.3874  0.0832
  520TMC3    C8 7784   4.526   4.189  13.793 -0.1774  0.0786 -0.5715
  520TMC3    O1 7785   0.133   4.052  14.260 -0.4426  0.0135 -0.2116
  520TMC3    O2 7786   4.606   4.149  13.702  0.2976 -0.8591 -0.1791
  521MPD2     C 7787   0.729   2.954  17.694 -0.1004 -0.0565  0.6135
  521MPD2    C1 7788   0.715   2.894  17.571 -0.0006 -0.0462  0.2200
  521MPD2    C2 7789   0.807   2.906  17.474 -0.3206  0.8455 -0.1671
  521MPD2    C3 7790   0.917   2.988  17.506  0.0499 -0.9305 -0.1538
  521MPD2    C4 7791   0.937   3.051  17.623 -0.4783  0.1802  0.1628
  521MPD2    C5 7792   0.839   3.035  17.717  0.0867 -0.4071 -0.3053
  521MPD2     H 7793   0.799   2.847  17.383 -0.2153 -0.1386  0.4682
  521MPD2    H1 7794   1.026   3.109  17.648 -1.2151  2.0072 -1.4233
  521MPD2    H2 7795   0.664   2.929   0.042 -0.1265 -2.0682 -0.0010
  521MPD2    H3 7796   0.848   3.087   0.075  1.7410 -0.2423 -0.5456
  521MPD2     N 7797   1.013   2.999  17.404  0.2799 -0.1596 -0.4544
  521MPD2    H5 7798   0.994   2.948  17.319 -0.4955  0.2421 -0.5213
  521MPD2    N1 7799   0.598   2.809  17.553 -0.0397 -0.0473 -0.7835
  521MPD2    H7 7800   0.563   2.767  17.639  0.0648 -2.5015 -1.9633
  522TMC3    C1 7801   1.220   3.014  17.293 -0.7240  0.4326 -0.0196
  522TMC3    C2 7802   1.349   2.967  17.313 -0.0505 -0.4965  0.1685
  522TMC3    C3 7803   1.412   2.904  17.210 -0.3819 -0.0189 -0.7415
  522TMC3    C4 7804   1.161   3.018  17.168  0.1784 -0.3325  0.2725
  522TMC3    C5 7805   1.227   2.946  17.070  0.2232  0.2143  0.0525
  522TMC3    C6 7806   1.352   2.890  17.084 -0.5408 -0.4665  0.8707
  522TMC3     C 7807   1.144   3.040  17.414  0.1003 -0.3097  0.7734
  522TMC3     O 7808   1.205   3.092  17.508 -0.0630 -0.0099 -0.4433
  522TMC3     H 7809   1.408   2.976  17.403  1.0553  0.1018 -0.6154
  522TMC3    H1 7810   1.062   3.059  17.151  0.1717 -0.2856  0.4207
  522TMC3    H2 7811   1.389   2.837  16.997  0.5164 -1.9919  2.2636
  522TMC3    C7 7812   1.193   2.988  16.934  0.3607 -1.1051  0.2481
  522TMC3    C8 7813   1.548   2.854  17.233  0.0357  0.0745  0.1797
  522TMC3    O1 7814   1.283   2.973  16.854  0.1854  0.4810  0.2715
  522TMC3    O2 7815   1.619   2.929  17.304  0.5050  0.1210  0.2512
  523MPD2     C 7816   3.923   2.676  10.070  0.0203  0.0415  0.0073
  523MPD2    C1 7817   3.834   2.580  10.038 -0.5040  0.4872 -0.2158
  523MPD2    C2 7818   3.707   2.627   9.983 -0.7850 -0.1591 -0.4318
  523MPD2    C3 7819   3.702   2.748   9.912  0.3541 -0.1748 -0.1658
  523MPD2    C4 7820   3.813   2.832   9.920  0.3761  0.1674 -0.7773
  523MPD2    C5 7821   3.914   2.798  10.004 -0.3331  0.6265 -0.3617
  523MPD2     H 7822   3.623   2.559   9.976  1.3122 -2.6003 -1.8823
  523MPD2    H1 7823   3.802   2.936   9.893  2.8253  1.2611  2.4302
  523MPD2    H2 7824   4.017   2.655  10.120  0.1130  0.9845  0.2349
  523MPD2    H3 7825   3.989   2.873  10.030  1.3402 -0.9963 -0.4759
  523MPD2     N 7826   3.593   2.790   9.829  0.0833  0.0024 -0.6448
  523MPD2    H5 7827   3.597   2.889   9.804  1.3595 -0.2335 -1.3672
  523MPD2    N1 7828   3.856   2.450  10.095 -0.3397 -0.1034  0.5507
  523MPD2    H7 7829   3.952   2.439  10.129  0.2013  1.8012 -0.3628
  524TMC3    C1 7830   3.412   2.775   9.693 -0.7565 -0.1108 -0.4160
  524TMC3    C2 7831   3.354   2.704   9.597 -0.0774  0.0526 -0.1544
  524TMC3    C3 7832   3.262   2.773   9.517  0.3124 -0.7096 -0.5732
  524TMC3    C4 7833   3.401   2.913   9.699  0.3022  0.0331 -0.5929
  524TMC3    C5 7834   3.312   2.979   9.614  0.0048  0.0743 -0.0483
  524TMC3    C6 7835   3.239   2.906   9.526 -0.3247  0.2891 -0.6018
  524TMC3     C 7836   3.510   2.705   9.762 -0.2334 -0.2758 -0.3626
  524TMC3     O 7837   3.500   2.585   9.781  0.2034 -0.4239  0.7017
  524TMC3     H 7838   3.357   2.596   9.598  0.8079  0.0591 -1.5778
  524TMC3    H1 7839   3.467   2.970   9.763 -1.3499  0.1485  1.0313
  524TMC3    H2 7840   3.173   2.959   9.458 -2.4694 -0.0758  1.1923
  524TMC3    C7 7841   3.292   3.126   9.634 -0.6686  0.0042 -0.3992
  524TMC3    C8 7842   3.179   2.703   9.421  0.5202  0.2245  0.1706
  524TMC3    O1 7843   3.370   3.179   9.714 -0.2918 -0.2419 -0.0581
  524TMC3    O2 7844   3.077   2.764   9.390 -0.2333  0.2425 -0.5355
  525MPD2     C 7845   1.246   4.131  14.985  0.2241  0.3066 -0.0934
  525MPD2    C1 7846   1.317   4.054  14.900 -0.3911 -0.1044  0.3657
  525MPD2    C2 7847   1.395   4.117  14.795 -0.2140 -0.6991 -0.1318
  525MPD2    C3 7848   1.391   4.255  14.786  0.0017  0.5111 -0.3698
  525MPD2    C4 7849   1.318   4.332  14.873 -0.5067 -0.2431  0.8074
  525MPD2    C5 7850   1.245   4.266  14.967  0.1504  0.3033 -0.0514
  525MPD2     H 7851   1.454   4.050  14.733  2.5519 -0.6272  2.4644
  525MPD2    H1 7852   1.304   4.436  14.846  1.6223 -0.6272 -1.7243
  525MPD2    H2 7853   1.191   4.085  15.066  0.3610  2.4919  1.2546
  525MPD2    H3 7854   1.184   4.330  15.030  1.4891  0.9844  0.5403
  525MPD2     N 7855   1.457   4.328  14.685 -0.3499  0.5216  0.3285
  525MPD2    H5 7856   1.453   4.429  14.688  3.2971  0.6972 -1.0840
  525MPD2    N1 7857   1.329   3.910  14.914  0.4046 -0.2708 -0.9078
  525MPD2    H7 7858   1.412   3.865  14.876  2.0385  1.1634  0.9122
  526TMC3    C1 7859   1.288   3.703  15.024 -0.4493 -0.6991  0.3775
  526TMC3    C2 7860   1.209   3.635  15.113  0.2713  0.2249  0.0328
  526TMC3    C3 7861   1.272   3.556  15.200  0.4407  0.0256 -0.1626
  526TMC3    C4 7862   1.418   3.665  15.001 -1.2751 -0.4562 -0.1867
  526TMC3    C5 7863   1.469   3.569  15.083 -0.0373 -0.3889 -0.5389
  526TMC3    C6 7864   1.398   3.515  15.182  0.2931  0.7829 -1.1141
  526TMC3     C 7865   1.239   3.831  14.983 -0.1436 -0.4124 -1.0164
  526TMC3     O 7866   1.124   3.867  15.006 -0.7680 -0.1114 -0.4580
  526TMC3     H 7867   1.104   3.662  15.116 -0.1075 -1.5992  3.0448
  526TMC3    H1 7868   1.482   3.733  14.946  0.6589 -1.2474  1.0935
  526TMC3    H2 7869   1.437   3.458  15.266 -0.3172  0.7971 -0.8245
  526TMC3    C7 7870   1.612   3.543  15.073  0.1786 -0.6481  0.6595
  526TMC3    C8 7871   1.221   3.565  15.337  0.9425  0.0457  0.2556
  526TMC3    O1 7872   1.659   3.495  15.174  0.1419  0.1458  0.5505
  526TMC3    O2 7873   1.301   3.577  15.425  0.0549  0.1858  0.1275
  527MPD2     C 7874   4.437   2.542   1.477  0.0045  0.2329  0.3577
  527MPD2    C1 7875   4.343   2.504   1.378 -0.0870 -0.5287 -0.3117
  527MPD2    C2 7876   4.388   2.402   1.296 -0.0098  0.3708  0.5967
  527MPD2    C3 7877   4.504   2.324   1.329 -0.3277 -0.2422 -0.2174
  527MPD2    C4 7878   4.583   2.365   1.433  0.2548 -0.1699 -0.6453
  527MPD2    C5 7879   4.551   2.477   1.503 -0.4945 -0.8995  0.0763
  527MPD2     H 7880   4.325   2.392   1.209  1.6091 -0.6988 -0.4570
  527MPD2    H1 7881   4.685   2.328   1.441 -0.7947 -2.4636  1.9878
  527MPD2    H2 7882   4.416   2.628   1.539  2.1177  0.1983  1.1049
  527MPD2    H3 7883   4.621   2.511   1.577 -1.1501  0.3947  0.0941
  527MPD2     N 7884   4.543   2.218   1.242 -0.1186 -0.1169  0.3028
  527MPD2    H5 7885   4.489   2.205   1.157 -0.6365  1.1762  0.4463
  527MPD2    N1 7886   4.235   2.583   1.352 -0.4757 -0.2271  0.0730
  527MPD2    H7 7887   4.181   2.557   1.271 -2.3451 -2.2892  1.9914
  528TMC3    C1 7888   4.064   2.744   1.359  0.6465  0.0048 -0.2710
  528TMC3    C2 7889   4.043   2.705   1.229 -0.2001  0.3571  0.2718
  528TMC3    C3 7890   3.910   2.692   1.186 -0.6670  0.4288 -0.4366
  528TMC3    C4 7891   3.957   2.770   1.442 -0.4085  0.0755 -0.6296
  528TMC3    C5 7892   3.829   2.758   1.392  0.1568 -0.1092  0.1405
  528TMC3    C6 7893   3.805   2.722   1.269  0.0613  0.8008 -0.0768
  528TMC3     C 7894   4.187   2.699   1.427  0.2629 -0.2463  0.0724
  528TMC3     O 7895   4.199   2.719   1.550 -0.3734 -0.5514  0.6663
  528TMC3     H 7896   4.125   2.694   1.159 -1.2862 -0.8941 -0.8217
  528TMC3    H1 7897   3.971   2.776   1.549 -1.9880 -2.1688 -0.2905
  528TMC3    H2 7898   3.706   2.688   1.240  1.1898 -0.9065 -1.9017
  528TMC3    C7 7899   3.716   2.800   1.471  0.3503 -0.2522  0.4116
  528TMC3    C8 7900   3.901   2.587   1.081 -0.4258 -0.1040 -1.4213
  528TMC3    O1 7901   3.733   2.793   1.591  0.6859  0.2851  0.0939
  528TMC3    O2 7902   4.010   2.532   1.070 -0.1597  0.3981  0.0890
  529MPD2     C 7903   1.253   0.260   0.676 -0.2743  0.4015  0.0544
  529MPD2    C1 7904   1.356   0.341   0.716 -0.2908 -0.5676  0.1564
  529MPD2    C2 7905   1.393   0.447   0.629 -0.3946  0.4969 -0.1777
  529MPD2    C3 7906   1.330   0.464   0.505 -0.4614  0.3407  0.4302
  529MPD2    C4 7907   1.235   0.371   0.466 -0.2105 -0.0172 -0.8597
  529MPD2    C5 7908   1.198   0.270   0.548  0.0049  0.3420  0.3287
  529MPD2     H 7909   1.483   0.505   0.644 -0.5011  0.6712 -0.2112
  529MPD2    H1 7910   1.204   0.363   0.363  0.9930 -1.2403 -1.1250
  529MPD2    H2 7911   1.214   0.183   0.740  1.6818  0.0637  0.8445
  529MPD2    H3 7912   1.125   0.195   0.517 -0.4826  1.6953 -1.7707
  529MPD2     N 7913   1.353   0.570   0.417 -0.4256  0.5290  0.1653
  529MPD2    H5 7914   1.289   0.569   0.338  1.2745  0.3111 -1.2048
  529MPD2    N1 7915   1.427   0.312   0.830  0.8929  0.3623 -0.2272
  529MPD2    H7 7916   1.515   0.363   0.837  2.7187 -2.4972 -2.5752
  530TMC3    C1 7917   1.500   0.196   1.022 -0.0823  0.0011  0.1913
  530TMC3    C2 7918   1.604   0.288   1.042  0.7474 -0.1365  0.7167
  530TMC3    C3 7919   1.722   0.246   1.094  0.0381 -0.5593  0.8766
  530TMC3    C4 7920   1.509   0.070   1.070 -0.1146 -0.3216  0.0750
  530TMC3    C5 7921   1.633   0.032   1.126 -0.1233  0.9410 -0.2783
  530TMC3    C6 7922   1.731   0.121   1.144  0.1634  0.0157  0.9735
  530TMC3     C 7923   1.394   0.229   0.933  0.0546 -0.4283 -0.0034
  530TMC3     O 7924   1.288   0.172   0.951 -0.2666  0.2349 -0.1308
  530TMC3     H 7925   1.587   0.385   0.996  0.2092 -1.1195 -1.1648
  530TMC3    H1 7926   1.432   4.733   1.044 -1.1038  0.5872  0.5462
  530TMC3    H2 7927   1.816   0.092   1.205  2.3395  2.1457 -1.0586
  530TMC3    C7 7928   1.650   4.652   1.211  0.8430 -0.3897  0.7422
  530TMC3    C8 7929   1.834   0.334   1.097  0.4592  0.3529  0.2227
  530TMC3    O1 7930   1.762   4.619   1.251 -0.1016  0.0891 -0.1933
  530TMC3    O2 7931   1.824   0.449   1.050  0.3212  0.4275 -0.2076
  531MPD2     C 7932   0.485   2.490  12.854 -0.2738 -0.9824 -0.5981
  531MPD2    C1 7933   0.395   2.579  12.898 -0.4864 -0.3810  0.1534
  531MPD2    C2 7934   0.349   2.665  12.798 -0.4883  0.5971 -0.1308
  531MPD2    C3 7935   0.386   2.663  12.667  0.1952  0.2588 -0.6198
  531MPD2    C4 7936   0.478   2.572  12.618  0.0179  0.6340  0.7226
  531MPD2    C5 7937   0.523   2.484  12.718 -0.3122  0.2144 -0.5998
  531MPD2     H 7938   0.282   2.745  12.828 -0.8283  1.1927 -2.5195
  531MPD2    H1 7939   0.514   2.568  12.516 -2.7188 -1.3169 -0.1899
  531MPD2    H2 7940   0.527   2.413  12.919  0.7353  0.0570 -0.0314
  531MPD2    H3 7941   0.596   2.408  12.692  2.2545  2.4576 -0.0026
  531MPD2     N 7942   0.325   2.765  12.586  0.3671 -0.0953 -0.6150
  531MPD2    H5 7943   0.257   2.830  12.625  0.9223 -1.1399  2.0682
  531MPD2    N1 7944   0.351   2.576  13.033  0.0476  0.0362 -0.5091
  531MPD2    H7 7945   0.387   2.509  13.100 -0.8593  0.8262  0.7567
  532TMC3    C1 7946   0.247   2.667  13.227 -0.1950  0.3501  0.2097
  532TMC3    C2 7947   0.140   2.741  13.250  0.0659  0.0877 -0.1699
  532TMC3    C3 7948   0.141   2.846  13.340 -0.1435  1.0981 -0.1840
  532TMC3    C4 7949   0.361   2.692  13.298  0.5181  0.9557 -0.6630
  532TMC3    C5 7950   0.364   2.811  13.376  0.1925 -0.0088 -0.2214
  532TMC3    C6 7951   0.251   2.877  13.408  0.2263 -0.8517 -0.3500
  532TMC3     C 7952   0.255   2.659  13.083  0.5661 -0.1477 -0.1482
  532TMC3     O 7953   0.190   2.747  13.025  0.2960 -0.0905  0.2519
  532TMC3     H 7954   0.042   2.718  13.210  0.5873 -2.0097 -0.2530
  532TMC3    H1 7955   0.446   2.625  13.286 -0.1788 -0.3874  1.7619
  532TMC3    H2 7956   0.262   2.973  13.457  3.1611 -0.7673 -1.1417
  532TMC3    C7 7957   0.487   2.865  13.430 -0.6564 -0.2304  0.0844
  532TMC3    C8 7958   0.057   2.957  13.299 -0.2285 -0.2742 -0.0205
  532TMC3    O1 7959   0.470   2.961  13.505 -0.4411  0.0370 -0.0038
  532TMC3    O2 7960   0.025   3.042  13.378  0.0523 -0.0722 -0.0329
  533TMC3    C1 7961   1.593   4.391  14.510  0.5091 -0.2424  0.3021
  533TMC3    C2 7962   1.729   4.392  14.510 -0.2395  0.1758  0.0003
  533TMC3    C3 7963   1.787   4.512  14.544 -0.5224 -0.2961 -0.2899
  533TMC3    C4 7964   1.516   4.503  14.527 -0.0403 -0.2432 -0.4133
  533TMC3    C5 7965   1.574   4.621  14.568  1.1002 -0.2789 -1.1090
  533TMC3    C6 7966   1.715   4.625  14.574 -0.2282  0.4459 -0.2164
  533TMC3     C 7967   1.539   4.278  14.582 -0.5197  0.3809  0.0529
  533TMC3     O 7968   1.596   4.169  14.570 -0.1158  0.5798  0.1457
  533TMC3     H 7969   1.786   4.300  14.512 -0.8066 -0.1760  0.2378
  533TMC3    H1 7970   1.409   4.493  14.512 -0.1583 -1.5889  1.3076
  533TMC3    H2 7971   1.765   4.717  14.604  2.6716 -0.8076 -1.1624
  533TMC3    C7 7972   1.494   4.694  14.662  0.4132 -0.2761  0.2220
  533TMC3    C8 7973   1.926   4.527  14.522 -0.0027 -0.2132 -1.1104
  533TMC3    O1 7974   1.388   4.642  14.677 -0.2372  0.4186 -0.1491
  533TMC3    O2 7975   1.975   4.630  14.571 -0.4634 -0.2916 -0.0967
  534MPD2     C 7976   4.087   0.721   0.856 -0.8164  0.4054 -0.1495
  534MPD2    C1 7977   4.074   0.851   0.808 -0.2811  0.1102 -0.7631
  534MPD2    C2 7978   3.957   0.892   0.745  0.3456  0.0833 -0.3473
  534MPD2    C3 7979   3.859   0.795   0.716  0.1884 -0.3813 -0.7807
  534MPD2    C4 7980   3.883   0.662   0.744 -0.1859 -0.1207  0.0823
  534MPD2    C5 7981   3.998   0.627   0.807 -0.3814 -0.0614  0.0620
  534MPD2     H 7982   3.939   0.993   0.709  0.7366  0.4189  0.3994
  534MPD2    H1 7983   3.810   0.593   0.703 -1.1066  0.6917  0.3358
  534MPD2    H2 7984   4.175   0.688   0.910 -1.5984  1.9410  2.0642
  534MPD2    H3 7985   4.017   0.521   0.821  0.3075  0.0983  0.3423
  534MPD2     N 7986   3.733   0.830   0.656 -0.5480  0.4592 -0.0264
  534MPD2    H5 7987   3.658   0.764   0.671 -0.2707  0.0091 -0.6275
  534MPD2    N1 7988   4.182   0.948   0.825  0.5182  0.0478  0.5481
  534MPD2    H7 7989   4.167   1.042   0.789 -0.3541 -0.4428 -0.3440
  535TMC3    C1 7990   3.566   0.976   0.579  0.1392 -0.8258 -0.2441
  535TMC3    C2 7991   3.480   0.951   0.686  0.6322 -0.2083 -0.1977
  535TMC3    C3 7992   3.344   0.972   0.672  1.0121  0.3750  0.4214
  535TMC3    C4 7993   3.525   1.062   0.488  0.1159  0.7212 -0.7420
  535TMC3    C5 7994   3.393   1.100   0.480 -0.3631 -0.0561 -0.4164
  535TMC3    C6 7995   3.296   1.045   0.568 -0.0011  0.4933  0.5921
  535TMC3     C 7996   3.704   0.951   0.597  0.5085 -0.1535 -0.1171
  535TMC3     O 7997   3.782   1.037   0.557  0.7113  0.9281  0.3656
  535TMC3     H 7998   3.527   0.901   0.771 -1.2086  0.6543  1.3156
  535TMC3    H1 7999   3.597   1.124   0.436  0.4729  1.7479  0.9663
  535TMC3    H2 8000   3.189   1.057   0.556 -0.0843 -0.6525  0.1908
  535TMC3    C7 8001   3.362   1.193   0.375  0.7613  0.0668 -0.1568
  535TMC3    C8 8002   3.248   0.903   0.754  0.8282 -0.0518  0.3313
  535TMC3    O1 8003   3.437   1.216   0.283 -0.3890  0.0233 -0.0337
  535TMC3    O2 8004   3.133   0.942   0.736 -0.6501  0.1602 -0.5824
  536MPD2     C 8005   2.341   3.308  16.193  0.1597  0.6176  0.4757
  536MPD2    C1 8006   2.334   3.419  16.279 -0.1737  0.6831 -0.3025
  536MPD2    C2 8007   2.306   3.544  16.223 -0.4368 -0.1912 -0.0815
  536MPD2    C3 8008   2.274   3.564  16.089  0.0101 -0.6587 -0.0483
  536MPD2    C4 8009   2.272   3.449  16.007  0.2086 -0.2921  0.7397
  536MPD2    C5 8010   2.301   3.327  16.067 -0.1663  0.1999  0.2438
  536MPD2     H 8011   2.323   3.629  16.288 -1.2300  0.0171 -0.1513
  536MPD2    H1 8012   2.235   3.455  15.905 -1.2224 -0.7202  1.2431
  536MPD2    H2 8013   2.358   3.209  16.233  2.7199 -0.3018 -2.9409
  536MPD2    H3 8014   2.310   3.247  15.994  1.7320 -0.3474  1.0729
  536MPD2     N 8015   2.227   3.689  16.038 -0.6578 -0.6290  0.5514
  536MPD2    H5 8016   2.197   3.683  15.941  2.5601  3.3831 -0.7217
  536MPD2    N1 8017   2.356   3.391  16.415 -0.7433  0.2205 -0.0712
  536MPD2    H7 8018   2.394   3.301  16.443  1.1302  0.2725 -2.5233
  537TMC3    C1 8019   2.345   3.427  16.645 -0.7740 -0.3017  0.9815
  537TMC3    C2 8020   2.319   3.512  16.750 -0.3890 -0.1460 -0.1157
  537TMC3    C3 8021   2.388   3.496  16.865 -0.3854  0.3889 -0.0112
  537TMC3    C4 8022   2.442   3.331  16.653 -0.3646  0.3333  0.6089
  537TMC3    C5 8023   2.501   3.312  16.773  0.0217  0.2769 -0.1368
  537TMC3    C6 8024   2.481   3.401  16.873 -0.0023 -0.3680 -0.2546
  537TMC3     C 8025   2.316   3.475  16.516  0.2190  0.3393 -1.0389
  537TMC3     O 8026   2.267   3.586  16.510 -0.1091  0.2930  0.0133
  537TMC3     H 8027   2.242   3.589  16.743 -0.1641  0.1921  1.2602
  537TMC3    H1 8028   2.456   3.265  16.568 -1.5558  0.7465  0.0940
  537TMC3    H2 8029   2.538   3.389  16.965  0.8628  1.5392 -0.5457
  537TMC3    C7 8030   2.617   3.227  16.778 -0.1828  0.0694 -0.1883
  537TMC3    C8 8031   2.349   3.566  16.984 -0.1585 -0.3511  0.4487
  537TMC3    O1 8032   2.663   3.195  16.671  0.1615 -0.0187 -0.1332
  537TMC3    O2 8033   2.299   3.680  16.967  0.6271  0.2128  0.4024
  538TMC3    C1 8034   4.354   2.067  10.923  0.0235  0.7713 -0.1143
  538TMC3    C2 8035   4.482   2.025  10.906  1.1703  0.1877 -0.4871
  538TMC3    C3 8036   4.528   2.045  10.782 -1.4731 -0.8237  0.1864
  538TMC3    C4 8037   4.277   2.141  10.834  0.4792  0.0847 -0.7801
  538TMC3    C5 8038   4.340   2.174  10.717  0.3544  0.2402 -0.0316
  538TMC3    C6 8039   4.459   2.118  10.685  0.0345 -0.4915  0.0352
  538TMC3     C 8040   4.283   2.015  11.039 -0.1801 -0.1969 -0.1136
  538TMC3     O 8041   4.166   2.041  11.048  0.6256  0.1475  0.2707
  538TMC3     H 8042   4.528   1.944  10.961  2.6953  0.6454 -1.0884
  538TMC3    H1 8043   4.176   2.165  10.866  0.8020  0.3713  0.0265
  538TMC3    H2 8044   4.497   2.116  10.583  0.3797  1.5073  0.1216
  538TMC3    C7 8045   4.254   2.247  10.618  0.2227 -0.0544  1.1672
  538TMC3    C8 8046   4.637   1.961  10.736  0.2735  0.0200 -0.2868
  538TMC3    O1 8047   4.132   2.237  10.630  0.1914 -0.0388 -0.1667
  538TMC3    O2 8048   4.651   1.856  10.793  0.0078  0.0088 -0.4451
  539MPD2     C 8049   3.842   1.117  11.616  0.0542 -0.5015 -0.5245
  539MPD2    C1 8050   3.937   1.210  11.589 -0.2154 -0.0853 -0.6338
  539MPD2    C2 8051   3.905   1.343  11.614  0.4883  0.4206  0.1921
  539MPD2    C3 8052   3.781   1.374  11.674  0.4214  0.2462  1.0038
  539MPD2    C4 8053   3.695   1.279  11.706 -0.5098  0.1105 -0.6954
  539MPD2    C5 8054   3.721   1.149  11.676 -0.5304  0.0939  0.3455
  539MPD2     H 8055   3.977   1.417  11.583  1.3368 -0.8719 -0.9165
  539MPD2    H1 8056   3.600   1.316  11.741 -0.0945 -0.7761  1.3705
  539MPD2    H2 8057   3.859   1.011  11.610  0.2417 -0.5632  0.9940
  539MPD2    H3 8058   3.646   1.072  11.693 -2.4837  0.9550 -4.3708
  539MPD2     N 8059   3.732   1.509  11.695 -0.0972 -0.2725  0.3409
  539MPD2    H5 8060   3.647   1.521  11.749  0.5883 -0.1980  1.4063
  539MPD2    N1 8061   4.070   1.169  11.546 -0.3239  0.0909 -1.0843
  539MPD2    H7 8062   4.085   1.073  11.519  0.9281  0.3786 -1.3771
  540TMC3    C1 8063   3.697   1.727  11.628  0.1663  0.1886  0.2154
  540TMC3    C2 8064   3.754   1.843  11.582 -0.0962 -0.3524 -0.9108
  540TMC3    C3 8065   3.679   1.952  11.552 -0.3298  0.2289  0.9062
  540TMC3    C4 8066   3.560   1.712  11.644 -0.5066 -0.3247 -0.5802
  540TMC3    C5 8067   3.487   1.831  11.621 -0.3106  0.2786  0.0912
  540TMC3    C6 8068   3.543   1.950  11.577 -1.0677  0.2653  0.2300
  540TMC3     C 8069   3.787   1.620  11.644  0.4137  0.7298  0.7019
  540TMC3     O 8070   3.904   1.632  11.606 -0.3366 -0.0243  0.4525
  540TMC3     H 8071   3.861   1.848  11.566 -0.0324  1.1943 -0.0249
  540TMC3    H1 8072   3.511   1.617  11.663  0.4215 -0.9028 -1.0996
  540TMC3    H2 8073   3.482   2.036  11.554  0.6723  1.2915 -0.5111
  540TMC3    C7 8074   3.342   1.825  11.613  0.0825  0.5277 -0.0873
  540TMC3    C8 8075   3.700   2.022  11.430 -0.1010  0.6564  0.3603
  540TMC3    O1 8076   3.287   1.911  11.546 -0.1211  0.2876 -0.3988
  540TMC3    O2 8077   3.638   2.127  11.417 -0.6173  0.0160  0.4324
  541MPD2     C 8078   2.027   3.492  13.093 -0.1204  0.5667  0.1094
  541MPD2    C1 8079   2.097   3.387  13.035  0.3944  0.3424 -0.0714
  541MPD2    C2 8080   2.149   3.408  12.907  0.0916 -0.4668  0.5632
  541MPD2    C3 8081   2.128   3.531  12.840 -0.7680 -0.9221 -0.8848
  541MPD2    C4 8082   2.062   3.635  12.903  0.2509  0.3819  1.0839
  541MPD2    C5 8083   2.015   3.613  13.032 -0.2914  0.8951  0.3684
  541MPD2     H 8084   2.195   3.325  12.855  2.0427 -0.1073  1.7170
  541MPD2    H1 8085   2.049   3.732  12.857 -1.2057  0.3091  1.3430
  541MPD2    H2 8086   1.994   3.497  13.196 -3.4119  1.6259 -0.9912
  541MPD2    H3 8087   1.953   3.685  13.084 -1.0076 -0.6533  1.6729
  541MPD2     N 8088   2.164   3.551  12.706  0.7938 -0.1171 -0.7086
  541MPD2    H5 8089   2.121   3.636  12.671 -0.1792 -0.3598 -0.1012
  541MPD2    N1 8090   2.121   3.266  13.100 -0.0428  0.4391  0.0046
  541MPD2    H7 8091   2.184   3.199  13.057 -1.1124 -0.3204 -0.3854
  542TMC3    C1 8092   2.267   3.533  12.493 -1.0097 -0.0647  0.2885
  542TMC3    C2 8093   2.354   3.466  12.412 -0.3255  0.2252  0.0540
  542TMC3    C3 8094   2.395   3.523  12.298  0.2830  0.1487 -0.6021
  542TMC3    C4 8095   2.222   3.658  12.459  0.2680  0.0715 -0.2143
  542TMC3    C5 8096   2.248   3.704  12.332  0.1806  1.1167  0.4621
  542TMC3    C6 8097   2.340   3.638  12.254 -0.7961 -0.0183  0.0889
  542TMC3     C 8098   2.242   3.471  12.626 -0.6267 -0.0102 -0.3975
  542TMC3     O 8099   2.296   3.363  12.654 -0.4576  0.1267  0.5239
  542TMC3     H 8100   2.409   3.382  12.454  1.1225  0.4959 -1.3105
  542TMC3    H1 8101   2.165   3.716  12.530 -1.2511  0.1270 -1.4775
  542TMC3    H2 8102   2.386   3.674  12.163 -1.6001  0.1335 -0.2583
  542TMC3    C7 8103   2.244   3.854  12.320  0.4292 -0.2222 -0.7083
  542TMC3    C8 8104   2.461   3.451  12.194  0.2935 -0.3397 -0.3818
  542TMC3    O1 8105   2.231   3.907  12.428 -0.2727  0.3301  0.3488
  542TMC3    O2 8106   2.435   3.479  12.078  0.4924  0.5453 -0.1199
  543TMC3    C1 8107   0.894   0.100  17.393 -0.3898 -0.3433  0.1747
  543TMC3    C2 8108   0.946   0.026  17.493 -0.2462  0.5589 -0.5117
  543TMC3    C3 8109   0.875   4.734  17.609  0.2510 -0.3659  0.5647
  543TMC3    C4 8110   0.779   0.173  17.410  0.1481  0.1833  0.1642
  543TMC3    C5 8111   0.721   0.154  17.535 -0.2520 -0.3161  0.0235
  543TMC3    C6 8112   0.770   0.077  17.640  0.2597 -0.0350  0.0853
  543TMC3     C 8113   0.941   0.079  17.260 -0.5069  0.2067  0.0042
  543TMC3     O 8114   1.048   0.018  17.245 -0.2257 -0.5161 -0.7793
  543TMC3     H 8115   1.041   4.714  17.466 -0.2253  0.1054  0.3423
  543TMC3    H1 8116   0.761   0.258  17.345  0.7583 -2.2924 -3.2420
  543TMC3    H2 8117   0.707   0.061  17.727 -0.5478 -2.9800 -1.0426
  543TMC3    C7 8118   0.587   0.201  17.556  0.1622 -0.5229 -0.0991
  543TMC3    C8 8119   0.930   4.627  17.686 -0.5442 -0.8993  0.8133
  543TMC3    O1 8120   0.536   0.180  17.663  0.6562  0.1909 -0.3219
  543TMC3    O2 8121   1.037   4.582  17.640 -0.7873 -0.4578 -0.4045
  544MPD2     C 8122   0.913   4.250   0.305  0.5962  0.2883 -0.1180
  544MPD2    C1 8123   1.002   4.269   0.198 -0.2295  0.0467 -0.7008
  544MPD2    C2 8124   0.972   4.379   0.110 -0.1524 -0.3391 -0.8178
  544MPD2    C3 8125   0.875   4.477   0.140  0.0416  0.3251  0.0618
  544MPD2    C4 8126   0.786   4.450   0.243 -0.0561  0.1871 -0.1429
  544MPD2    C5 8127   0.809   4.335   0.322  0.5039 -1.2768 -0.0220
  544MPD2     H 8128   1.031   4.402   0.023  0.7848  1.0216  0.1796
  544MPD2    H1 8129   0.694   4.507   0.251  1.6026  3.0911 -1.8679
  544MPD2    H2 8130   0.922   4.163   0.369  1.2988 -0.6158 -1.4388
  544MPD2    H3 8131   0.740   4.296   0.396  0.4812  1.7044  1.5597
  544MPD2     N 8132   0.853   4.586   0.056 -0.0602 -0.0287  0.1755
  544MPD2    H5 8133   0.773   4.643   0.081 -0.1147  0.2389 -0.6177
  544MPD2    N1 8134   1.088   4.162   0.154 -0.1374  0.0397 -0.4923
  544MPD2    H7 8135   1.064   4.073   0.197  1.0453 -0.9056 -1.8016
  545TMC3    C1 8136   1.233   4.044   0.003  0.0749 -0.0824  0.9824
  545TMC3    C2 8137   1.283   4.055  17.615 -0.2778 -0.5023  0.5468
  545TMC3    C3 8138   1.313   3.941  17.547  0.5891 -0.4369  0.5008
  545TMC3    C4 8139   1.191   3.929   0.056 -0.2345 -1.0218  0.1116
  545TMC3    C5 8140   1.238   3.812  17.728  0.1640  0.4112 -0.4598
  545TMC3    C6 8141   1.286   3.813  17.602  0.7260  0.3071  0.3843
  545TMC3     C 8142   1.179   4.174   0.049  0.3891  0.4297 -0.1722
  545TMC3     O 8143   1.223   4.274  17.727 -0.2050  0.0047  0.0964
  545TMC3     H 8144   1.303   4.149  17.564 -0.1386 -0.5760  0.4643
  545TMC3    H1 8145   1.156   3.920   0.158  0.1515 -0.6839  0.2731
  545TMC3    H2 8146   1.305   3.723  17.544  1.2725 -0.1427  1.2642
  545TMC3    C7 8147   1.213   3.688   0.056 -0.1839  0.1924 -1.0250
  545TMC3    C8 8148   1.373   3.962  17.414  0.0337 -0.2222  0.2526
  545TMC3    O1 8149   1.106   3.684   0.120 -0.1839 -0.8482 -0.2255
  545TMC3    O2 8150   1.345   4.069  17.359  0.6215  0.2696 -0.0671
  546MPD2     C 8151   2.288   4.668   0.105 -0.1471 -0.1988 -0.2842
  546MPD2    C1 8152   2.205   4.681  17.735 -0.5828 -0.5040  0.6761
  546MPD2    C2 8153   2.191   0.076  17.684 -0.3442 -0.0948  0.6373
  546MPD2    C3 8154   2.249   0.192   0.007  0.7100  1.2294  0.0224
  546MPD2    C4 8155   2.334   0.175   0.113 -0.1045  0.0072 -0.5730
  546MPD2    C5 8156   2.355   0.042   0.159  0.1503  0.5810 -0.2671
  546MPD2     H 8157   2.120   0.081  17.602  1.5146  0.6364 -0.9262
  546MPD2    H1 8158   2.381   0.261   0.159 -0.6069  0.3692 -0.7351
  546MPD2    H2 8159   2.305   4.572   0.152  0.2847  0.9994  1.9908
  546MPD2    H3 8160   2.417   0.023   0.245 -0.6902  0.4481  0.3067
  546MPD2     N 8161   2.217   0.323  17.691  0.5432 -0.1814  0.0551
  546MPD2    H5 8162   2.235   0.399   0.020  1.8219 -2.8278  2.8113
  546MPD2    N1 8163   2.141   4.564  17.678  0.2817 -0.0661 -0.2683
  546MPD2    H7 8164   2.171   4.474  17.713  2.3203  0.9879  0.6947
  547TMC3    C1 8165   2.014   4.428  17.521  0.4978  0.1280  0.3248
  547TMC3    C2 8166   1.946   4.423  17.400  0.1652 -0.3825 -0.6683
  547TMC3    C3 8167   1.946   4.309  17.330 -0.8584 -0.0967  0.3406
  547TMC3    C4 8168   2.058   4.314  17.574  0.1997  0.4217  0.1939
  547TMC3    C5 8169   2.058   4.197  17.498  0.6944  0.5095 -0.0195
  547TMC3    C6 8170   2.000   4.198  17.374 -0.2341 -0.1103 -0.2534
  547TMC3     C 8171   2.049   4.559  17.575  0.1666 -0.0614 -0.7233
  547TMC3     O 8172   1.991   4.655  17.526 -0.2168  0.0310  0.1768
  547TMC3     H 8173   1.906   4.517  17.363  0.3470 -0.2365 -0.4940
  547TMC3    H1 8174   2.114   4.302  17.667  1.7428  2.9643 -0.4033
  547TMC3    H2 8175   1.975   4.103  17.329 -0.2982 -0.6229  0.8532
  547TMC3    C7 8176   2.073   4.073  17.567 -0.3209 -0.2803  0.2876
  547TMC3    C8 8177   1.885   4.322  17.200 -0.1515 -0.2153  0.6395
  547TMC3    O1 8178   2.077   4.077  17.689 -0.3052  0.1312 -0.1488
  547TMC3    O2 8179   1.814   4.423  17.184 -0.1375  0.0493 -0.5301
  548MPD2     C 8180   3.027   4.429  12.654 -0.1575 -0.6923  0.2278
  548MPD2    C1 8181   2.923   4.351  12.706 -0.7061 -0.0921  0.0066
  548MPD2    C2 8182   2.925   4.216  12.680  0.4025 -0.1359 -0.3239
  548MPD2    C3 8183   3.017   4.159  12.595 -0.0045 -0.1672 -0.2496
  548MPD2    C4 8184   3.114   4.234  12.538 -0.0560  0.4743 -0.2356
  548MPD2    C5 8185   3.117   4.369  12.569  0.4251 -0.8942  0.0050
  548MPD2     H 8186   2.854   4.149  12.726 -0.4507 -1.7943 -4.0401
  548MPD2    H1 8187   3.193   4.191  12.478 -2.3027 -0.4673 -2.5338
  548MPD2    H2 8188   3.029   4.537  12.663 -1.9703 -0.7328  1.1237
  548MPD2    H3 8189   3.201   4.430  12.537 -0.2833  1.4094  2.5657
  548MPD2     N 8190   3.025   4.021  12.582  0.0531  0.1181  0.0210
  548MPD2    H5 8191   2.977   3.961  12.648  3.1569 -1.3128  0.9831
  548MPD2    N1 8192   2.816   4.422  12.783 -0.2086 -0.8101  0.3108
  548MPD2    H7 8193   2.814   4.522  12.794 -0.8455 -0.8283  0.3618
  549TMC3    C1 8194   2.609   4.437  12.886  0.1284  0.8286 -0.1499
  549TMC3    C2 8195   2.563   4.546  12.818 -0.0478 -0.7132 -0.1967
  549TMC3    C3 8196   2.439   4.600  12.842 -0.0921 -0.2775  0.2536
  549TMC3    C4 8197   2.540   4.390  12.994  0.3191  0.3689  0.3571
  549TMC3    C5 8198   2.420   4.445  13.019 -0.0747  0.0764  0.5601
  549TMC3    C6 8199   2.366   4.548  12.946  0.4765  0.3389 -0.0606
  549TMC3     C 8200   2.721   4.357  12.844  0.6384 -0.2778  0.2979
  549TMC3     O 8201   2.718   4.238  12.882 -0.1705 -0.8148  0.0932
  549TMC3     H 8202   2.622   4.577  12.733 -1.5158  3.2034  0.2148
  549TMC3    H1 8203   2.594   4.331  13.068 -1.3811 -1.7786 -0.1164
  549TMC3    H2 8204   2.261   4.572  12.949 -0.2853 -3.1119  1.1287
  549TMC3    C7 8205   2.322   4.371  13.089  0.2678  0.1341 -0.4434
  549TMC3    C8 8206   2.390   4.709  12.765  0.5556 -0.9455 -0.6528
  549TMC3    O1 8207   2.216   4.424  13.111  0.0968  0.8211  0.5111
  549TMC3    O2 8208   2.271   0.001  12.764 -0.0853  0.6763 -0.5068
  550TMC3    C1 8209   1.863   2.856  12.381  0.8132  0.3267 -0.1886
  550TMC3    C2 8210   1.849   2.945  12.486  0.3070  1.1858  0.1582
  550TMC3    C3 8211   1.756   3.042  12.459  0.0281 -0.3990  0.4289
  550TMC3    C4 8212   1.797   2.868  12.265  0.3989 -0.7898 -0.2203
  550TMC3    C5 8213   1.700   2.961  12.251  0.3329 -0.0761  0.0868
  550TMC3    C6 8214   1.675   3.047  12.351 -0.6565 -0.0897 -0.2869
  550TMC3     C 8215   1.982   2.771  12.395 -0.1480 -1.1871  0.2911
  550TMC3     O 8216   2.029   2.777  12.507  0.0169 -0.4859  0.2297
  550TMC3     H 8217   1.922   2.955  12.566  1.7416 -2.1693 -0.7537
  550TMC3    H1 8218   1.791   2.775  12.211 -1.0781 -1.5770  1.3009
  550TMC3    H2 8219   1.595   3.119  12.344 -0.4300 -0.0456 -2.5440
  550TMC3    C7 8220   1.603   2.953  12.137  0.6270 -0.0741 -0.0175
  550TMC3    C8 8221   1.728   3.133  12.566  0.0218  0.7574  0.1042
  550TMC3    O1 8222   1.497   3.010  12.161  0.1506 -0.6720  0.3856
  550TMC3    O2 8223   1.671   3.234  12.537 -0.1514  0.0270 -0.1296
  551TMC3    C1 8224   3.884   0.616  13.383  0.1807 -0.9193  0.0875
  551TMC3    C2 8225   3.992   0.537  13.369 -0.1356 -0.0080  0.1166
  551TMC3    C3 8226   4.097   0.564  13.456 -1.1399 -0.4316  0.4541
  551TMC3    C4 8227   3.867   0.711  13.480  0.4017 -0.5917 -0.4110
  551TMC3    C5 8228   3.970   0.724  13.570 -0.2429  0.4283 -0.3524
  551TMC3    C6 8229   4.084   0.655  13.556 -0.5114  0.4977  0.0699
  551TMC3     C 8230   3.781   0.620  13.283 -0.3581 -0.0453 -0.3982
  551TMC3     O 8231   3.732   0.513  13.258 -0.3059  0.0720 -0.0115
  551TMC3     H 8232   4.010   0.468  13.287  0.2268 -0.7662  0.8266
  551TMC3    H1 8233   3.771   0.760  13.482  0.5920 -0.2725  0.6181
  551TMC3    H2 8234   4.157   0.654  13.635  0.1600 -0.2351 -0.5695
  551TMC3    C7 8235   3.929   0.771  13.701 -0.1797  0.3602 -1.2879
  551TMC3    C8 8236   4.217   0.551  13.386  0.9969  0.1791  0.1695
  551TMC3    O1 8237   3.993   0.713  13.786 -0.3038 -0.2893 -0.5653
  551TMC3    O2 8238   4.240   0.452  13.319 -0.7331 -0.2582  0.0774
  552MPD2     C 8239   0.626   2.745  13.745  0.0957  0.4017 -0.1729
  552MPD2    C1 8240   0.646   2.626  13.811  0.6411 -0.6893 -0.4726
  552MPD2    C2 8241   0.747   2.626  13.913 -0.3592 -0.0284 -0.5587
  552MPD2    C3 8242   0.821   2.741  13.937 -0.2735  0.0367 -0.2758
  552MPD2    C4 8243   0.804   2.858  13.862 -0.1874 -0.2282  0.2610
  552MPD2    C5 8244   0.704   2.863  13.767 -0.1157 -0.7146  0.1954
  552MPD2     H 8245   0.762   2.536  13.972  0.2318  0.7672  0.5106
  552MPD2    H1 8246   0.873   2.939  13.879 -0.5501  0.6604 -2.5397
  552MPD2    H2 8247   0.552   2.761  13.667 -3.5168  0.7648  3.3654
  552MPD2    H3 8248   0.679   2.957  13.719  0.1003 -1.2689 -1.0059
  552MPD2     N 8249   0.913   2.742  14.044 -0.0816 -0.6190  0.4033
  552MPD2    H5 8250   0.960   2.831  14.055 -0.1113 -0.6013  0.3866
  552MPD2    N1 8251   0.568   2.507  13.791  0.1660  0.8393  0.4145
  552MPD2    H7 8252   0.594   2.426  13.847 -2.3576  1.1383  2.0340
  553TMC3    C1 8253   0.476   2.356  13.646 -0.0363  0.3993 -0.1728
  553TMC3    C2 8254   0.444   2.365  13.509  0.3459 -0.6777  0.3964
  553TMC3    C3 8255   0.514   2.290  13.425  0.4744 -0.0675  0.7109
  553TMC3    C4 8256   0.577   2.276  13.685  0.0109  0.1888 -0.5147
  553TMC3    C5 8257   0.645   2.200  13.599 -0.1927  0.2336  0.1837
  553TMC3    C6 8258   0.611   2.200  13.468  0.1103  0.5364 -0.2598
  553TMC3     C 8259   0.476   2.487  13.691  0.0461 -0.0876 -0.1078
  553TMC3     O 8260   0.439   2.577  13.616  0.6074 -0.0642  0.5598
  553TMC3     H 8261   0.355   2.420  13.478  0.3288 -1.3915 -0.8216
  553TMC3    H1 8262   0.611   2.269  13.788 -0.4891 -2.2702 -0.5165
  553TMC3    H2 8263   0.662   2.128  13.405  0.6918  2.6511 -2.2360
  553TMC3    C7 8264   0.789   2.241  13.596  0.2093  1.1723 -0.6180
  553TMC3    C8 8265   0.539   2.353  13.296 -0.4809 -0.3383 -0.5140
  553TMC3    O1 8266   0.826   2.270  13.484 -0.6030  0.7087 -0.8503
  553TMC3    O2 8267   0.454   2.410  13.230  0.1011  0.1126  0.5920
  554TMC3    C1 8268   3.332   1.863  11.172  0.0883  0.3803  0.5254
  554TMC3    C2 8269   3.261   1.807  11.068  0.1592  0.1374 -0.2053
  554TMC3    C3 8270   3.255   1.871  10.951 -0.5295  0.4041 -0.7631
  554TMC3    C4 8271   3.396   1.982  11.157  0.0709 -0.6467 -0.1917
  554TMC3    C5 8272   3.382   2.045  11.032  0.0778 -0.5502  0.2892
  554TMC3    C6 8273   3.313   1.994  10.928  0.5538 -0.2449  0.1511
  554TMC3     C 8274   3.389   1.769  11.259 -0.0710 -0.6058 -0.6554
  554TMC3     O 8275   3.508   1.766  11.248  0.7644 -0.3408  0.4066
  554TMC3     H 8276   3.230   1.704  11.082  2.0370 -0.6248 -1.6973
  554TMC3    H1 8277   3.466   2.019  11.230 -0.6224 -0.7642  0.5252
  554TMC3    H2 8278   3.286   2.051  10.840 -0.0604  0.8829  1.0734
  554TMC3    C7 8279   3.458   2.164  10.999  0.0079  0.6104  0.0800
  554TMC3    C8 8280   3.144   1.834  10.863  0.3727 -0.1507 -0.5613
  554TMC3    O1 8281   3.487   2.180  10.882  0.4784  0.0180 -0.0093
  554TMC3    O2 8282   3.158   1.849  10.745 -0.2817 -0.2992 -0.6787
  555TMC3    C1 8283   1.692   1.529  15.301  0.3282 -0.3469 -0.3332
  555TMC3    C2 8284   1.684   1.586  15.435 -0.8439  0.1840  0.1812
  555TMC3    C3 8285   1.692   1.494  15.535 -0.1924 -0.1672 -0.1340
  555TMC3    C4 8286   1.718   1.394  15.281 -0.3629 -0.0795  0.8255
  555TMC3    C5 8287   1.735   1.314  15.391  0.7433 -0.5067  0.8433
  555TMC3    C6 8288   1.710   1.362  15.518 -0.9476  0.6804  0.1630
  555TMC3     C 8289   1.758   1.601  15.200 -0.0450  0.5590  0.4083
  555TMC3     O 8290   1.856   1.542  15.148 -1.0477 -0.5303  0.1047
  555TMC3     H 8291   1.670   1.692  15.447 -0.1725  0.2458  0.4547
  555TMC3    H1 8292   1.718   1.357  15.179 -1.2575 -0.6815  1.0501
  555TMC3    H2 8293   1.705   1.298  15.605 -1.1687  1.6689  0.8708
  555TMC3    C7 8294   1.738   1.169  15.374 -0.1767 -0.1242  0.4081
  555TMC3    C8 8295   1.690   1.540  15.669 -1.0377  0.4956  0.1351
  555TMC3    O1 8296   1.706   1.096  15.469 -0.8096 -0.4142 -0.3212
  555TMC3    O2 8297   1.629   1.645  15.683  0.0222  0.0148  0.4867
  556MPD2     C 8298   0.573   2.953  10.260  0.3297  0.1449 -0.5276
  556MPD2    C1 8299   0.519   2.870  10.353 -0.2936 -0.1350  0.3812
  556MPD2    C2 8300   0.475   2.741  10.310 -0.6882  0.0096 -0.7648
  556MPD2    C3 8301   0.485   2.699  10.176 -0.0249 -0.2000 -0.8796
  556MPD2    C4 8302   0.543   2.792  10.082 -0.6859 -0.5142 -0.3669
  556MPD2    C5 8303   0.575   2.918  10.128 -0.2840 -0.2026  0.4913
  556MPD2     H 8304   0.419   2.678  10.378  0.1048 -0.7965 -0.8514
  556MPD2    H1 8305   0.551   2.789   9.974  0.0624 -2.9412 -0.2548
  556MPD2    H2 8306   0.614   3.051  10.285  2.2857 -1.1914  1.5300
  556MPD2    H3 8307   0.592   2.997  10.056  0.0250 -1.7985 -1.2091
  556MPD2     N 8308   0.432   2.572  10.145 -0.2923  0.1949  0.2621
  556MPD2    H5 8309   0.392   2.512  10.216  0.8656 -1.1244 -0.2076
  556MPD2    N1 8310   0.516   2.902  10.494 -0.5479 -0.4137 -1.0908
  556MPD2    H7 8311   0.478   2.834  10.559  1.3398 -1.0253 -0.6543
  557TMC3    C1 8312   0.365   2.400   9.998 -1.1559 -0.0233 -0.4122
  557TMC3    C2 8313   0.386   2.333   9.884  0.4714  0.0808  0.2501
  557TMC3    C3 8314   0.361   2.197   9.884  0.5500  0.6951 -0.0806
  557TMC3    C4 8315   0.315   2.340  10.109 -0.0575 -0.0204 -0.1960
  557TMC3    C5 8316   0.281   2.207  10.106 -0.3795  0.3280  0.1161
  557TMC3    C6 8317   0.302   2.130   9.989 -0.0015  0.1864 -0.0057
  557TMC3     C 8318   0.436   2.526  10.013 -0.4863  0.1924  0.2119
  557TMC3     O 8319   0.485   2.570   9.911  0.2851  0.2074  0.0519
  557TMC3     H 8320   0.435   2.383   9.801  1.4436  0.0585  0.8147
  557TMC3    H1 8321   0.279   2.401  10.191  0.1861 -0.9265  0.5843
  557TMC3    H2 8322   0.301   2.022   9.992  1.0516  0.0838 -4.1774
  557TMC3    C7 8323   0.256   2.149  10.239 -0.3942  0.1163 -0.1179
  557TMC3    C8 8324   0.402   2.137   9.750 -0.0885 -0.0809 -0.0942
  557TMC3    O1 8325   0.251   2.235  10.329 -0.5488 -0.3470  0.0301
  557TMC3    O2 8326   0.450   2.211   9.664  0.3213 -0.2324 -0.4237
  558TMC3    C1 8327   2.729   1.142  10.570  0.2518 -0.6163  0.9128
  558TMC3    C2 8328   2.621   1.093  10.630 -0.3811 -0.3127 -0.4243
  558TMC3    C3 8329   2.503   1.156  10.598 -0.8820 -0.1101 -0.4741
  558TMC3    C4 8330   2.737   1.238  10.470 -0.0074 -0.2959 -0.1152
  558TMC3    C5 8331   2.619   1.290  10.430 -0.4645 -0.0792 -0.5991
  558TMC3    C6 8332   2.502   1.247  10.499 -0.2887 -0.4129  0.0450
  558TMC3     C 8333   2.857   1.142  10.647  0.5258  0.7044  0.7068
  558TMC3     O 8334   2.963   1.171  10.592 -0.2064  0.0850 -0.4562
  558TMC3     H 8335   2.627   1.005  10.692  2.0821 -0.2881 -0.6317
  558TMC3    H1 8336   2.826   1.248  10.409 -1.5472 -0.9742 -2.4896
  558TMC3    H2 8337   2.409   1.297  10.478 -1.1370 -1.7443  0.6308
  558TMC3    C7 8338   2.616   1.315  10.293  0.1264  0.2402  0.0006
  558TMC3    C8 8339   2.377   1.099  10.640  0.5120 -0.0503 -0.2371
  558TMC3    O1 8340   2.718   1.365  10.250  0.5759 -0.8617  0.6179
  558TMC3    O2 8341   2.285   1.114  10.563  0.5060 -0.3900  0.1563
  559MPD2     C 8342   2.703   1.542  10.677 -0.6487 -0.4024  0.4343
  559MPD2    C1 8343   2.659   1.493  10.798  0.1537 -0.3553  0.2844
  559MPD2    C2 8344   2.750   1.443  10.892  0.3004 -0.1543 -0.5136
  559MPD2    C3 8345   2.884   1.437  10.862  0.0934  0.5463  0.3289
  559MPD2    C4 8346   2.932   1.487  10.738  0.3887  0.1091  0.3929
  559MPD2    C5 8347   2.839   1.542  10.651  0.3216 -0.8371  0.0065
  559MPD2     H 8348   2.715   1.414  10.990  2.2230  2.1403  0.8515
  559MPD2    H1 8349   3.038   1.487  10.713 -0.1636  2.3635 -1.8639
  559MPD2    H2 8350   2.642   1.590  10.601 -1.1917 -0.9474  0.5195
  559MPD2    H3 8351   2.871   1.571  10.552 -1.9084  1.2927 -0.0912
  559MPD2     N 8352   2.961   1.387  10.960 -0.5939 -0.8875  0.2283
  559MPD2    H5 8353   2.910   1.361  11.044 -0.6446  1.9048  1.0661
  559MPD2    N1 8354   2.518   1.492  10.816  0.6928  0.6041 -0.3544
  559MPD2    H7 8355   2.462   1.546  10.751 -0.3660  1.0136  0.8921
  560TMC3    C1 8356   3.156   1.311  11.084 -0.9287  0.3433 -0.0549
  560TMC3    C2 8357   3.066   1.246  11.164 -0.0397  0.2860 -0.5024
  560TMC3    C3 8358   3.109   1.171  11.272  0.5678 -0.1282 -0.0685
  560TMC3    C4 8359   3.291   1.294  11.090 -0.1627 -0.3973 -0.4497
  560TMC3    C5 8360   3.332   1.213  11.194 -0.0044  0.5543  0.4038
  560TMC3    C6 8361   3.243   1.144  11.282  0.3202  0.1947  0.2579
  560TMC3     C 8362   3.097   1.366  10.961 -0.4287 -0.1807 -0.2841
  560TMC3     O 8363   3.172   1.387  10.866 -0.0246 -0.3964 -0.3393
  560TMC3     H 8364   2.958   1.250  11.155 -0.1960 -1.5693  0.6604
  560TMC3    H1 8365   3.364   1.351  11.033  0.6364  0.6441  1.6456
  560TMC3    H2 8366   3.284   1.089  11.366  0.0304 -0.6760 -0.1647
  560TMC3    C7 8367   3.478   1.184  11.210 -0.1827 -0.2450  0.0434
  560TMC3    C8 8368   3.010   1.086  11.340 -0.2194  0.7827 -0.6096
  560TMC3    O1 8369   3.493   1.083  11.271 -0.0815 -0.3178 -0.4481
  560TMC3    O2 8370   2.900   1.133  11.356 -0.5417 -0.5578  0.0682
  561TMC3    C1 8371   0.683   0.199  11.553 -0.6901 -0.1784  0.4715
  561TMC3    C2 8372   0.565   0.138  11.584  0.1740  0.0287 -0.6561
  561TMC3    C3 8373   0.439   0.193  11.582  0.7097  0.2285  0.5083
  561TMC3    C4 8374   0.674   0.331  11.515 -0.4543  0.1315 -0.0320
  561TMC3    C5 8375   0.547   0.394  11.518  0.3411  0.4821 -0.6412
  561TMC3    C6 8376   0.435   0.332  11.566 -0.8314 -0.5500 -0.2987
  561TMC3     C 8377   0.794   0.108  11.524 -0.0476  0.9538 -0.0239
  561TMC3     O 8378   0.781   4.722  11.547  0.3626 -0.4306  0.7522
  561TMC3     H 8379   0.568   0.033  11.614 -2.2789 -0.5644 -2.4981
  561TMC3    H1 8380   0.761   0.389  11.487  0.4420 -1.7485 -1.0759
  561TMC3    H2 8381   0.341   0.386  11.566 -0.9135 -0.6940 -1.2282
  561TMC3    C7 8382   0.529   0.533  11.489  0.4805  0.3013  0.0709
  561TMC3    C8 8383   0.349   0.130  11.683  0.0550  0.7004 -0.0551
  561TMC3    O1 8384   0.441   0.593  11.542 -0.4100  0.2462  0.4873
  561TMC3    O2 8385   0.333   0.010  11.662  0.0880  0.3371  0.1147
  562TMC3    C1 8386   1.281   1.923  16.272 -0.0628 -0.3118 -0.5584
  562TMC3    C2 8387   1.216   2.034  16.232  0.8444  0.4565 -0.2546
  562TMC3    C3 8388   1.150   2.031  16.114  0.4764 -0.0817  0.3081
  562TMC3    C4 8389   1.275   1.805  16.185  0.3748 -0.1387  0.0517
  562TMC3    C5 8390   1.205   1.807  16.067  0.2213 -0.3081  0.6966
  562TMC3    C6 8391   1.127   1.915  16.035 -0.3182 -0.0426 -0.5369
  562TMC3     C 8392   1.349   1.910  16.400 -0.4314 -0.4059 -0.5015
  562TMC3     O 8393   1.422   1.814  16.421 -0.5648  0.4705 -0.2943
  562TMC3     H 8394   1.218   2.126  16.289 -1.0763 -0.6950  1.6755
  562TMC3    H1 8395   1.317   1.708  16.212  0.4500 -0.1769 -0.2014
  562TMC3    H2 8396   1.056   1.915  15.953 -0.6129 -0.2092 -0.2805
  562TMC3    C7 8397   1.231   1.710  15.965 -0.5558  0.1681 -0.0223
  562TMC3    C8 8398   1.051   2.135  16.111 -0.2567  1.2231 -0.0158
  562TMC3    O1 8399   1.207   1.744  15.846 -0.3715  0.2399 -0.0254
  562TMC3    O2 8400   1.033   2.195  16.220  0.6016  0.4521 -0.1085
  563MPD2     C 8401   4.218   2.762  15.644  0.0656 -1.2117  0.6657
  563MPD2    C1 8402   4.243   2.832  15.758 -0.1243  0.7150 -0.3878
  563MPD2    C2 8403   4.378   2.846  15.801 -0.1427 -0.5705 -0.2221
  563MPD2    C3 8404   4.476   2.794  15.721 -0.4243  0.2890  0.3803
  563MPD2    C4 8405   4.447   2.739  15.602 -0.2511  0.9771 -0.3517
  563MPD2    C5 8406   4.318   2.717  15.564  0.0544 -0.4811  0.4270
  563MPD2     H 8407   4.400   2.871  15.904  1.7308  0.7692 -0.9603
  563MPD2    H1 8408   4.518   2.692  15.534 -0.8103  0.1975 -0.3962
  563MPD2    H2 8409   4.115   2.746  15.613 -0.2827  2.6318 -0.1730
  563MPD2    H3 8410   4.281   2.678  15.470  2.4039  1.0807 -1.1451
  563MPD2     N 8411   4.602   2.787  15.780 -0.4601  0.0233  0.5858
  563MPD2    H5 8412   4.610   2.828  15.872 -0.1421 -0.9369  0.9928
  563MPD2    N1 8413   4.135   2.872  15.841 -0.3328  0.3095 -0.6650
  563MPD2    H7 8414   4.044   2.836  15.818 -0.5526  0.9016 -0.7303
  564TMC3    C1 8415   4.062   2.916  16.060 -0.1214 -0.2955  0.0838
  564TMC3    C2 8416   3.931   2.904  16.027  0.5331  0.1180 -0.5146
  564TMC3    C3 8417   3.850   2.844  16.121 -0.6701  0.9579 -0.7168
  564TMC3    C4 8418   4.111   2.889  16.185 -0.3822  0.1318 -0.3120
  564TMC3    C5 8419   4.029   2.825  16.272 -0.0209  0.3534  0.0586
  564TMC3    C6 8420   3.899   2.806  16.243 -0.6702 -0.5996 -0.2517
  564TMC3     C 8421   4.147   2.949  15.955  0.1048 -0.3946  0.5390
  564TMC3     O 8422   4.237   3.025  15.987  0.2393  0.5863  0.1769
  564TMC3     H 8423   3.889   2.931  15.930 -0.5017 -0.4097 -0.2121
  564TMC3    H1 8424   4.219   2.900  16.190 -0.5397  0.9613  1.0714
  564TMC3    H2 8425   3.825   2.767  16.312 -0.8420  0.9739  0.4479
  564TMC3    C7 8426   4.101   2.711  16.333 -0.5249  0.4247  0.1946
  564TMC3    C8 8427   3.764   2.732  16.076  0.3366 -1.0454  0.3090
  564TMC3    O1 8428   4.219   2.718  16.373 -0.2279  0.3677 -0.4520
  564TMC3    O2 8429   3.789   2.624  16.130 -0.7640  0.3000  0.7698
  565TMC3    C1 8430   0.117   4.190  10.365 -0.3647  0.6631 -0.5714
  565TMC3    C2 8431   0.147   4.059  10.394 -0.2666  0.5904 -0.1562
  565TMC3    C3 8432   0.069   3.965  10.331  0.4383 -0.5459  0.4437
  565TMC3    C4 8433   0.023   4.227  10.267  0.5177  0.0366 -0.4856
  565TMC3    C5 8434   4.689   4.130  10.203 -0.4416  0.2284  0.0391
  565TMC3    C6 8435   4.720   3.998  10.225 -0.2277  0.2233 -0.4958
  565TMC3     C 8436   0.186   4.289  10.448  0.4853 -0.8134 -0.3109
  565TMC3     O 8437   0.224   4.390  10.387  0.1208  0.5056  0.2386
  565TMC3     H 8438   0.216   4.031  10.472 -2.6414  0.7809  2.0160
  565TMC3    H1 8439   4.733   4.332  10.255 -3.0089 -0.4662  2.1441
  565TMC3    H2 8440   4.638   3.929  10.207 -0.0440  0.2886 -1.5874
  565TMC3    C7 8441   4.617   4.146  10.078  0.0871 -0.0865 -0.2628
  565TMC3    C8 8442   0.101   3.823  10.351  0.0877  0.0076 -0.7398
  565TMC3    O1 8443   4.600   4.049  10.003 -0.2491 -0.2423  0.0811
  565TMC3    O2 8444   0.170   3.808  10.455 -0.1421 -0.3410 -0.3175
  566MPD2     C 8445   1.016   4.721  14.136 -0.0292 -0.2285  0.3296
  566MPD2    C1 8446   1.114   0.067  14.077  0.4227  0.3137 -0.5457
  566MPD2    C2 8447   1.136   0.042  13.946 -0.2587 -0.6725  0.9067
  566MPD2    C3 8448   1.065   4.686  13.863  0.7592  0.4393  0.1104
  566MPD2    C4 8449   0.963   4.613  13.923  0.2432  0.1080  0.2763
  566MPD2    C5 8450   0.946   4.623  14.062 -0.9577 -0.2918 -0.3309
  566MPD2     H 8451   1.219   0.091  13.895 -0.2344  1.1964  2.7689
  566MPD2    H1 8452   0.907   4.536  13.872 -0.7319  0.6306  0.5476
  566MPD2    H2 8453   0.985   4.729  14.239  0.5430  1.2822  0.3801
  566MPD2    H3 8454   0.867   4.562  14.105 -0.1438 -0.2821  1.1533
  566MPD2     N 8455   1.094   4.654  13.730 -0.0611  0.1043 -0.7868
  566MPD2    H5 8456   1.040   4.579  13.687  0.1630 -0.1057 -0.7012
  566MPD2    N1 8457   1.183   0.162  14.154  0.1602  0.7730  0.5520
  566MPD2    H7 8458   1.152   0.174  14.250 -0.1718 -1.1543  0.6814
  567TMC3    C1 8459   1.350   0.330  14.199 -0.0299 -0.3239 -0.3828
  567TMC3    C2 8460   1.393   0.452  14.149  0.0363 -0.4868 -0.3815
  567TMC3    C3 8461   1.435   0.542  14.234 -0.8082 -0.8551 -0.1887
  567TMC3    C4 8462   1.351   0.308  14.334  0.2840 -0.5913 -0.3217
  567TMC3    C5 8463   1.395   0.409  14.418  0.6062 -0.2720 -0.2361
  567TMC3    C6 8464   1.435   0.531  14.367 -0.4675  0.3271 -0.0090
  567TMC3     C 8465   1.277   0.250  14.108  0.5266  0.3099  1.1053
  567TMC3     O 8466   1.295   0.281  13.987 -0.3205  0.3542  0.0609
  567TMC3     H 8467   1.400   0.470  14.042  1.6697 -0.3011 -0.2469
  567TMC3    H1 8468   1.314   0.214  14.375 -1.8729  0.3701 -0.0487
  567TMC3    H2 8469   1.469   0.607  14.437 -2.4053  0.2992  0.9474
  567TMC3    C7 8470   1.376   0.391  14.561 -0.3122  0.1778  0.5931
  567TMC3    C8 8471   1.431   0.675  14.179  0.0449 -0.3395  0.5271
  567TMC3    O1 8472   1.350   0.277  14.598 -0.2968  0.0279 -0.4103
  567TMC3    O2 8473   1.359   0.693  14.081  0.0480  0.2864  0.2089
  568MPD2     C 8474   3.101   1.389  16.002 -0.1606  0.4179 -0.1053
  568MPD2    C1 8475   3.147   1.409  16.132  0.3599 -0.0247  0.2808
  568MPD2    C2 8476   3.225   1.520  16.158 -0.2123  0.1063  0.2862
  568MPD2    C3 8477   3.244   1.607  16.060 -0.0153  0.7141  0.2934
  568MPD2    C4 8478   3.204   1.581  15.930 -0.3569 -0.2664 -1.0953
  568MPD2    C5 8479   3.134   1.470  15.904 -0.4967  0.2936 -0.3041
  568MPD2     H 8480   3.262   1.545  16.257 -1.4460  0.0436  0.7563
  568MPD2    H1 8481   3.215   1.651  15.848 -3.1945 -0.3992 -1.5821
  568MPD2    H2 8482   3.048   1.296  15.985 -1.5854  1.1300  0.4627
  568MPD2    H3 8483   3.092   1.448  15.807  0.4681  0.8058 -0.8338
  568MPD2     N 8484   3.311   1.730  16.089 -0.0430  0.0602  0.1205
  568MPD2    H5 8485   3.339   1.747  16.185  0.7483 -2.6632  0.3530
  568MPD2    N1 8486   3.107   1.316  16.230  0.7477 -0.4449  0.6615
  568MPD2    H7 8487   3.045   1.245  16.193  0.1820  2.4116 -3.8141
  569TMC3    C1 8488   3.378   1.948  16.070 -0.2855 -0.2077  0.5919
  569TMC3    C2 8489   3.444   1.936  16.191 -1.1165  0.1401 -0.8190
  569TMC3    C3 8490   3.466   2.050  16.264 -0.2447 -0.4066 -0.4042
  569TMC3    C4 8491   3.314   2.067  16.035 -0.0102 -0.1256  0.0837
  569TMC3    C5 8492   3.317   2.168  16.127  0.4877 -0.3909  0.3734
  569TMC3    C6 8493   3.402   2.168  16.236  0.5563  0.1262 -0.5963
  569TMC3     C 8494   3.332   1.837  16.001 -0.2412  0.1680  0.0404
  569TMC3     O 8495   3.316   1.855  15.884 -0.3766  0.0146  0.6233
  569TMC3     H 8496   3.515   1.854  16.202 -1.7985 -0.2594  0.6296
  569TMC3    H1 8497   3.250   2.065  15.947  0.8696  0.0060 -0.5527
  569TMC3    H2 8498   3.401   2.256  16.299  2.9017  0.6469 -1.2860
  569TMC3    C7 8499   3.285   2.292  16.061  0.6402 -0.1581  0.3804
  569TMC3    C8 8500   3.557   2.035  16.377  0.4364  0.6378  0.2550
  569TMC3    O1 8501   3.212   2.283  15.963 -0.6306 -0.0417 -0.1132
  569TMC3    O2 8502   3.573   1.918  16.405  0.3250 -0.4647 -0.0142
  570TMC3    C1 8503   2.497   0.307  15.508 -0.0478 -0.2754  0.0366
  570TMC3    C2 8504   2.602   0.312  15.426  0.1354 -0.0903 -0.6722
  570TMC3    C3 8505   2.637   0.434  15.375 -0.6936  0.2124  0.2458
  570TMC3    C4 8506   2.419   0.411  15.536  0.2547  0.0378 -0.2881
  570TMC3    C5 8507   2.449   0.535  15.472  0.4646  0.1730 -0.9922
  570TMC3    C6 8508   2.564   0.546  15.404  0.5093  0.8700  0.3517
  570TMC3     C 8509   2.498   0.200  15.606  0.1104 -0.0753 -0.0765
  570TMC3     O 8510   2.579   0.110  15.591  0.1561 -0.3557  0.0375
  570TMC3     H 8511   2.667   0.225  15.416 -0.3421 -0.7633  2.1185
  570TMC3    H1 8512   2.332   0.394  15.598 -0.2540  0.6998 -0.8151
  570TMC3    H2 8513   2.588   0.647  15.372  0.3113  1.2106  1.2798
  570TMC3    C7 8514   2.422   0.646  15.555  0.2883  0.1614 -0.0428
  570TMC3    C8 8515   2.764   0.450  15.321 -0.0607 -0.0753  0.7387
  570TMC3    O1 8516   2.518   0.721  15.579  0.0989  0.0390  0.1566
  570TMC3    O2 8517   2.809   0.566  15.315 -0.1472  0.2767 -0.5286
  571MPD2     C 8518   1.373   2.251   0.009  0.2679  0.2449  0.4738
  571MPD2    C1 8519   1.503   2.279  17.704 -1.2731 -0.2155  0.5964
  571MPD2    C2 8520   1.565   2.390   0.025 -0.1390 -0.5257 -0.8147
  571MPD2    C3 8521   1.502   2.467   0.119  0.1997  1.0235  0.5213
  571MPD2    C4 8522   1.373   2.444   0.159 -0.4532  0.4879  1.2279
  571MPD2    C5 8523   1.318   2.328   0.114 -0.3456  0.1932  0.1648
  571MPD2     H 8524   1.668   2.418   0.003  0.1410 -1.3676 -0.5682
  571MPD2    H1 8525   1.316   2.508   0.225 -1.7467  0.8054 -0.1926
  571MPD2    H2 8526   1.320   2.159  17.722 -2.2794  1.5317  1.2097
  571MPD2    H3 8527   1.218   2.311   0.153 -0.3519  4.1041  1.8350
  571MPD2     N 8528   1.572   2.571   0.184  0.4797 -0.5172  0.2600
  571MPD2    H5 8529   1.525   2.637   0.244  0.7304 -1.7088  1.8005
  571MPD2    N1 8530   1.553   2.196  17.606 -0.0815 -0.0486 -0.0460
  571MPD2    H7 8531   1.486   2.132  17.563  0.8948 -0.6848 -0.6373
  572TMC3    C1 8532   1.744   2.688   0.288 -0.2787 -0.3073  0.2526
  572TMC3    C2 8533   1.843   2.665   0.379  0.1569 -0.6926 -0.6807
  572TMC3    C3 8534   1.871   2.781   0.450  0.0497 -0.3265  0.3021
  572TMC3    C4 8535   1.669   2.800   0.265  0.6299  0.1588 -0.0937
  572TMC3    C5 8536   1.703   2.909   0.334  0.2352 -0.0552  0.3116
  572TMC3    C6 8537   1.815   2.903   0.417 -0.7564  1.5313  0.7923
  572TMC3     C 8538   1.708   2.573   0.204  0.3499  0.0055 -0.0578
  572TMC3     O 8539   1.787   2.481   0.186  0.1948 -0.7956  0.3966
  572TMC3     H 8540   1.907   2.578   0.375  1.0017 -0.1109  0.2588
  572TMC3    H1 8541   1.598   2.812   0.184 -0.0699  0.5139  0.5844
  572TMC3    H2 8542   1.848   2.982   0.483  0.2088  2.1797 -0.4896
  572TMC3    C7 8543   1.609   3.018   0.334 -0.0793  0.3046 -0.7038
  572TMC3    C8 8544   1.936   2.763   0.574 -0.1950  0.1063  0.3738
  572TMC3    O1 8545   1.494   2.998   0.301 -0.0539 -0.6880  0.1081
  572TMC3    O2 8546   1.965   2.864   0.635  0.3448 -0.3090  0.1121
  573MPD2     C 8547   2.329   2.971   0.454 -0.2516 -0.5162 -0.1510
  573MPD2    C1 8548   2.211   3.034   0.469 -0.3388  0.0823 -0.0473
  573MPD2    C2 8549   2.129   3.028   0.357  0.1750  0.1745  0.7030
  573MPD2    C3 8550   2.157   2.961   0.239  0.6629  0.3206 -0.2619
  573MPD2    C4 8551   2.270   2.881   0.239 -0.3126  0.5181 -0.3276
  573MPD2    C5 8552   2.362   2.902   0.340  0.6014 -0.0531 -0.4341
  573MPD2     H 8553   2.034   3.076   0.376 -0.4937 -1.1965  0.8035
  573MPD2    H1 8554   2.287   2.810   0.159 -1.3673 -0.9444  0.7291
  573MPD2    H2 8555   2.403   2.969   0.534 -0.8168 -1.6769  0.3288
  573MPD2    H3 8556   2.453   2.843   0.332  1.3687  0.8802  1.4423
  573MPD2     N 8557   2.073   2.945   0.133  0.1077 -0.2168  0.1784
  573MPD2    H5 8558   2.099   2.872   0.067 -1.8324 -1.4772  0.8112
  573MPD2    N1 8559   2.176   3.088   0.595  0.0848 -0.1346 -0.1110
  573MPD2    H7 8560   2.241   3.083   0.673  0.5026  1.3114 -0.3639
  574TMC3    C1 8561   1.880   2.990  17.732 -0.2923 -0.4686 -0.1238
  574TMC3    C2 8562   1.772   3.068  17.714 -0.4081  1.1093 -0.5135
  574TMC3    C3 8563   1.660   3.000  17.670 -0.2583 -0.8603  0.1123
  574TMC3    C4 8564   1.884   2.861  17.691  0.2588 -0.2581  0.4879
  574TMC3    C5 8565   1.775   2.804  17.636  0.2500 -0.4692 -0.0986
  574TMC3    C6 8566   1.661   2.873  17.619  0.3801  0.5324  0.2054
  574TMC3     C 8567   1.970   3.033   0.102  0.1624  0.9302 -0.0804
  574TMC3     O 8568   1.944   3.135   0.160 -0.4437  0.3980  0.4902
  574TMC3     H 8569   1.760   3.168   0.017  0.9286  1.5966 -1.3606
  574TMC3    H1 8570   1.965   2.791  17.705  0.6444 -0.4468 -2.7904
  574TMC3    H2 8571   1.576   2.838  17.563 -0.5519  1.2400  1.1870
  574TMC3    C7 8572   1.798   2.687  17.544 -0.3013  0.4699  0.1456
  574TMC3    C8 8573   1.531   3.046  17.711  0.3862  0.0842  0.3273
  574TMC3    O1 8574   1.914   2.658  17.513  0.7407  0.1146  0.1001
  574TMC3    O2 8575   1.452   2.955  17.733  0.0874 -0.0146 -0.0857
  575TMC3    C1 8576   0.222   3.200  10.936  0.5172  0.3694  0.2314
  575TMC3    C2 8577   0.170   3.081  10.909 -0.3840 -0.2269  0.4565
  575TMC3    C3 8578   0.157   3.030  10.781 -0.2394  1.3497  0.3952
  575TMC3    C4 8579   0.251   3.285  10.831 -0.3322  0.0056  0.0012
  575TMC3    C5 8580   0.237   3.236  10.701  0.6030 -0.0266  0.4030
  575TMC3    C6 8581   0.192   3.103  10.673 -0.2236 -0.0772  0.3045
  575TMC3     C 8582   0.243   3.230  11.081 -0.2869  0.4794  0.1898
  575TMC3     O 8583   0.187   3.156  11.163  0.1537  0.3977 -0.2257
  575TMC3     H 8584   0.144   3.014  10.990  0.6221  2.4057  2.9537
  575TMC3    H1 8585   0.284   3.386  10.854 -1.4764  0.3054  0.3013
  575TMC3    H2 8586   0.177   3.065  10.573  4.9376 -2.5441  0.4702
  575TMC3    C7 8587   0.228   3.338  10.597 -0.7123 -0.7959  0.4470
  575TMC3    C8 8588   0.074   2.905  10.757  0.8363  0.5847 -0.3991
  575TMC3    O1 8589   0.264   3.448  10.639 -0.4018 -0.4188  0.3696
  575TMC3    O2 8590   0.098   2.842  10.653  0.4650  0.4202 -0.1317
  576MPD2     C 8591   4.143   0.628  12.731  1.0605  1.3620 -0.3130
  576MPD2    C1 8592   4.271   0.677  12.748  0.1961 -0.1428  0.1209
  576MPD2    C2 8593   4.286   0.765  12.851 -0.3355  0.6104  0.1847
  576MPD2    C3 8594   4.189   0.800  12.947  0.7078 -0.3233  0.2069
  576MPD2    C4 8595   4.063   0.746  12.933  0.2236  0.3619  0.1059
  576MPD2    C5 8596   4.043   0.656  12.827  0.0907  0.1010  0.2816
  576MPD2     H 8597   4.389   0.791  12.875  0.3794  0.2195 -2.5138
  576MPD2    H1 8598   3.984   0.769  13.004  0.8840  3.4019 -0.1362
  576MPD2    H2 8599   4.113   0.553  12.660 -1.2387  1.9440  0.0337
  576MPD2    H3 8600   3.945   0.609  12.824 -1.4382  3.2622  0.8857
  576MPD2     N 8601   4.221   0.894  13.056 -0.5153 -0.0194 -0.6844
  576MPD2    H5 8602   4.316   0.928  13.057  0.0369 -1.4880 -1.9319
  576MPD2    N1 8603   4.377   0.647  12.660  0.0248 -1.2176  0.0684
  576MPD2    H7 8604   4.455   0.711  12.674 -0.6411 -1.2008  3.7109
  577TMC3    C1 8605   4.493   0.556  12.481  0.8455 -0.4208  0.7745
  577TMC3    C2 8606   4.529   0.444  12.411 -0.4421  0.2621 -0.0295
  577TMC3    C3 8607   4.615   0.452  12.309  0.0106 -0.8386 -0.7528
  577TMC3    C4 8608   4.542   0.681  12.449 -0.0827 -0.1420  0.8355
  577TMC3    C5 8609   4.641   0.678  12.352 -0.3366 -0.5897  0.1565
  577TMC3    C6 8610   4.679   0.567  12.283  0.7645 -0.0841 -0.4443
  577TMC3     C 8611   4.376   0.550  12.566  0.5171  0.4677  0.0135
  577TMC3     O 8612   4.290   0.466  12.543  0.4658 -0.5591 -0.4283
  577TMC3     H 8613   4.481   0.349  12.430 -1.0745  0.4429 -0.7322
  577TMC3    H1 8614   4.521   0.775  12.499 -1.7902  1.2874 -2.5509
  577TMC3    H2 8615   0.026   0.587  12.214  0.8663 -0.4298 -0.4228
  577TMC3    C7 8616   4.676   0.813  12.300 -0.3869  0.3030 -0.6985
  577TMC3    C8 8617   4.645   0.325  12.240 -0.1851 -0.3043  0.0434
  577TMC3    O1 8618   4.656   0.909  12.372 -0.1692 -0.2054  0.0312
  577TMC3    O2 8619   4.589   0.226  12.283 -0.3916  0.4970  0.0942
  578MPD2     C 8620   2.285   1.051   0.558 -0.0667  0.0879 -0.2838
  578MPD2    C1 8621   2.358   1.064   0.680  0.1757 -0.8482 -0.1249
  578MPD2    C2 8622   2.399   0.947   0.743  0.0108  0.9175  0.5096
  578MPD2    C3 8623   2.404   0.824   0.674 -0.1457  0.1183  0.0350
  578MPD2    C4 8624   2.345   0.820   0.551 -0.2392 -0.1739  0.6191
  578MPD2    C5 8625   2.283   0.929   0.493 -0.0188  0.2091  0.8936
  578MPD2     H 8626   2.432   0.942   0.846 -0.4167 -1.6888  0.5312
  578MPD2    H1 8627   2.351   0.736   0.483 -2.1812 -0.1923  0.4809
  578MPD2    H2 8628   2.247   1.138   0.507  0.4440  1.1594  1.1627
  578MPD2    H3 8629   2.237   0.922   0.395 -1.8455  1.8144  1.6217
  578MPD2     N 8630   2.470   0.712   0.736 -0.0973  0.4222  0.7121
  578MPD2    H5 8631   2.517   0.734   0.823  1.0025  1.1553 -0.0581
  578MPD2    N1 8632   2.362   1.183   0.751  0.0335 -0.0304  0.2884
  578MPD2    H7 8633   2.329   1.266   0.704  0.4224  0.0219  0.1090
  579TMC3    C1 8634   2.518   0.484   0.784  0.2082 -0.5937 -0.6565
  579TMC3    C2 8635   2.644   0.512   0.821  0.6123  0.1165 -0.4255
  579TMC3    C3 8636   2.703   0.426   0.917 -0.0321  1.0291  0.6158
  579TMC3    C4 8637   2.451   0.368   0.810  0.2356 -0.1183 -0.2446
  579TMC3    C5 8638   2.504   0.293   0.910  0.0881 -0.0678  0.5230
  579TMC3    C6 8639   2.632   0.315   0.962  0.0678 -1.1447  0.8411
  579TMC3     C 8640   2.451   0.579   0.701  0.1225 -0.3053  0.1919
  579TMC3     O 8641   2.367   0.534   0.626 -0.3523  0.1552  0.2880
  579TMC3     H 8642   2.691   0.605   0.789 -2.6187  2.1495  0.7665
  579TMC3    H1 8643   2.353   0.348   0.768  1.3972 -0.5778 -2.7391
  579TMC3    H2 8644   2.666   0.251   1.043  3.0091  0.3336  0.7753
  579TMC3    C7 8645   2.431   0.183   0.977 -0.5702  0.0893  0.1510
  579TMC3    C8 8646   2.822   0.465   1.000 -0.1612 -0.0997 -0.5270
  579TMC3    O1 8647   2.492   0.095   1.040 -0.0342 -0.3767  0.0865
  579TMC3    O2 8648   2.836   0.415   1.106 -0.7410 -0.0602 -0.1441
  580TMC3    C1 8649   2.823   4.395  12.374 -0.1313 -0.1050 -0.1272
  580TMC3    C2 8650   2.905   4.394  12.262 -0.5773  0.1425 -0.1491
  580TMC3    C3 8651   2.882   4.297  12.171  0.0050 -0.5963 -0.8885
  580TMC3    C4 8652   2.765   4.278  12.417 -0.2117 -0.2590  0.2165
  580TMC3    C5 8653   2.762   4.173  12.326 -0.7872  0.7168  0.0731
  580TMC3    C6 8654   2.817   4.184  12.197  0.1095 -0.2683 -0.2504
  580TMC3     C 8655   2.743   4.509  12.355 -0.2299  0.1449 -0.0184
  580TMC3     O 8656   2.787   4.594  12.285 -0.4423  0.4687 -0.5160
  580TMC3     H 8657   2.975   4.474  12.241 -0.8172 -0.1508 -2.0992
  580TMC3    H1 8658   2.714   4.276  12.512 -3.8468  0.7459 -1.6798
  580TMC3    H2 8659   2.797   4.114  12.116  0.0906 -0.2656 -0.2481
  580TMC3    C7 8660   2.714   4.050  12.381  0.4925 -0.1754 -0.3581
  580TMC3    C8 8661   2.867   4.352  12.035  0.6812  0.0157 -0.1544
  580TMC3    O1 8662   2.631   4.057  12.466 -0.7412  0.3013 -0.1827
  580TMC3    O2 8663   2.829   4.279  11.943 -0.0019 -0.1060  0.1421
  581MPD2     C 8664   4.158   3.920  15.537  0.0952 -0.2884  0.4861
  581MPD2    C1 8665   4.213   4.045  15.568  0.1441 -0.3574 -0.0199
  581MPD2    C2 8666   4.234   4.141  15.471 -0.3712 -0.3117  0.1293
  581MPD2    C3 8667   4.165   4.117  15.351 -0.1040 -0.0584 -1.0590
  581MPD2    C4 8668   4.106   3.993  15.331  0.3544 -0.8126 -0.6751
  581MPD2    C5 8669   4.100   3.895  15.421 -0.2403 -0.2360 -0.1997
  581MPD2     H 8670   4.268   4.239  15.501  1.1141 -0.5969 -0.6433
  581MPD2    H1 8671   4.043   3.972  15.244  2.0735 -0.0644 -2.1032
  581MPD2    H2 8672   4.159   3.844  15.614  3.5244 -1.7503 -1.0059
  581MPD2    H3 8673   4.049   3.801  15.409  1.8093 -1.5096  1.0868
  581MPD2     N 8674   4.164   4.222  15.257 -0.6550 -0.7250  0.6723
  581MPD2    H5 8675   4.228   4.297  15.280  1.3535 -1.6856 -1.7399
  581MPD2    N1 8676   4.249   4.053  15.708 -0.6653 -1.0686  0.0674
  581MPD2    H7 8677   4.218   3.972  15.759 -0.2491  0.0927  2.1542
  582TMC3    C1 8678   4.314   4.130  15.917 -0.7769  0.0735 -0.0686
  582TMC3    C2 8679   4.291   4.235  16.003 -0.1252 -0.1029  0.0623
  582TMC3    C3 8680   4.251   4.219  16.132 -0.2137  0.9640 -0.2495
  582TMC3    C4 8681   4.266   4.012  15.962 -0.1120 -0.0375  1.2616
  582TMC3    C5 8682   4.219   3.999  16.091 -0.0087 -0.2187 -0.2326
  582TMC3    C6 8683   4.216   4.097  16.181  0.0185 -0.7356  0.1760
  582TMC3     C 8684   4.308   4.161  15.771 -1.1012  0.2815  0.3379
  582TMC3     O 8685   4.357   4.261  15.724  0.3748 -0.0140 -0.2180
  582TMC3     H 8686   4.307   4.338  15.977 -0.2720 -0.3970 -1.1784
  582TMC3    H1 8687   4.291   3.921  15.908 -2.7697 -0.6082  0.9874
  582TMC3    H2 8688   4.184   4.080  16.283  0.0238  1.0786  0.4703
  582TMC3    C7 8689   4.147   3.881  16.153 -0.1329  0.4011  0.7119
  582TMC3    C8 8690   4.210   4.323  16.220  0.2538 -0.2303 -0.1072
  582TMC3    O1 8691   4.183   3.857  16.264  0.3108 -0.0024  0.3204
  582TMC3    O2 8692   4.104   4.384  16.193  0.0066  0.0223 -0.0120
  583MPD2     C 8693   4.259   1.294  16.415 -0.2292  0.1898 -0.3433
  583MPD2    C1 8694   4.391   1.312  16.452  0.0647  0.9711  0.6232
  583MPD2    C2 8695   4.410   1.401  16.554 -0.2181 -0.5846  0.4975
  583MPD2    C3 8696   4.315   1.479  16.616  0.0212 -0.0230  0.5938
  583MPD2    C4 8697   4.184   1.458  16.577 -0.9233 -0.1688 -0.2664
  583MPD2    C5 8698   4.162   1.367  16.476 -0.4496  0.2406 -0.3013
  583MPD2     H 8699   4.514   1.425  16.572 -0.7134  0.5568  1.8772
  583MPD2    H1 8700   4.102   1.516  16.617  2.1621  3.1698  1.2309
  583MPD2    H2 8701   4.224   1.215  16.350  1.6395 -1.7931  1.0782
  583MPD2    H3 8702   4.065   1.340  16.436  0.1406  0.3095 -1.7634
  583MPD2     N 8703   4.360   1.561  16.720  0.6582 -0.0019 -0.2349
  583MPD2    H5 8704   4.458   1.548  16.740  0.7166  0.7234 -0.0511
  583MPD2    N1 8705   4.503   1.251  16.388 -0.3977  0.6196 -0.7754
  583MPD2    H7 8706   4.594   1.278  16.425 -1.0256  0.2848  0.9888
  584TMC3    C1 8707   4.363   1.667  16.912  0.2981  0.7185  0.4738
  584TMC3    C2 8708   4.456   1.756  16.892 -0.5930 -0.1589 -0.0804
  584TMC3    C3 8709   4.521   1.811  16.996  0.4321  0.1492  0.2320
  584TMC3    C4 8710   4.325   1.632  17.044  0.1138 -0.0917 -0.9158
  584TMC3    C5 8711   4.396   1.696  17.151  0.6686  0.4356 -0.2400
  584TMC3    C6 8712   4.500   1.784  17.131  0.5552 -0.1499  0.0259
  584TMC3     C 8713   4.279   1.631  16.806 -0.5733  0.3160  0.1195
  584TMC3     O 8714   4.157   1.624  16.823 -0.8725  0.7123  0.4672
  584TMC3     H 8715   4.481   1.779  16.789 -2.9744  1.7602 -0.2295
  584TMC3    H1 8716   4.241   1.564  17.050 -2.0715  2.8933  2.4135
  584TMC3    H2 8717   4.552   1.823  17.217  0.8698 -0.9717  0.2132
  584TMC3    C7 8718   4.331   1.691  17.285 -0.4335 -0.4099  0.5854
  584TMC3    C8 8719   4.646   1.881  16.961  0.2519 -0.4290  0.2693
  584TMC3    O1 8720   4.263   1.597  17.308 -0.0966  0.0751  0.3393
  584TMC3    O2 8721   4.711   1.834  16.869 -0.1469  0.1669 -0.4356
  585MPD2     C 8722   2.848   0.960  17.577  0.0407 -0.8805 -0.4480
  585MPD2    C1 8723   2.939   0.975  17.474 -0.9667  0.4662 -0.2616
  585MPD2    C2 8724   2.989   0.860  17.407  0.4045 -0.1357 -0.1066
  585MPD2    C3 8725   2.960   0.730  17.453 -0.5560 -0.5091 -0.4211
  585MPD2    C4 8726   2.868   0.720  17.556  0.3363  0.7349 -0.1608
  585MPD2    C5 8727   2.807   0.834  17.609 -0.1057 -0.4009  0.7862
  585MPD2     H 8728   3.057   0.862  17.323 -1.4097 -1.4451 -1.5794
  585MPD2    H1 8729   2.843   0.624  17.598  1.1162  0.1421 -1.0592
  585MPD2    H2 8730   2.814   1.043  17.637 -0.3097  0.5498 -2.6313
  585MPD2    H3 8731   2.735   0.818  17.688 -1.4577 -0.1247 -0.3903
  585MPD2     N 8732   3.007   0.603  17.409  0.3081  0.0044  0.4070
  585MPD2    H5 8733   2.990   0.528  17.476  1.2822 -0.7149 -0.1559
  585MPD2    N1 8734   2.985   1.110  17.445 -0.5862  0.1018 -0.1734
  585MPD2    H7 8735   2.941   1.186  17.496  1.9141  0.2819  1.7442
  586TMC3    C1 8736   3.114   0.444  17.293  0.4820  0.2873 -0.4465
  586TMC3    C2 8737   3.235   0.397  17.327  0.3611  0.0313  0.4044
  586TMC3    C3 8738   3.245   0.272  17.380  0.8629 -0.8953 -1.0199
  586TMC3    C4 8739   3.002   0.373  17.310  0.7258 -0.8484  0.3392
  586TMC3    C5 8740   3.011   0.249  17.358  0.2144  1.0170 -0.2613
  586TMC3    C6 8741   3.132   0.195  17.392  0.5417  0.7918 -0.3920
  586TMC3     C 8742   3.095   0.589  17.310  0.0186 -0.0624  0.2660
  586TMC3     O 8743   3.162   0.672  17.252 -0.2891  0.2641 -0.1525
  586TMC3     H 8744   3.319   0.466  17.326 -0.2617  0.8004  1.1470
  586TMC3    H1 8745   2.906   0.423  17.302  2.0040  1.5807  0.1674
  586TMC3    H2 8746   3.138   0.088  17.405 -1.6617  0.9184  1.5052
  586TMC3    C7 8747   2.897   0.166  17.373  0.1210  0.2136 -0.4270
  586TMC3    C8 8748   3.366   0.198  17.378 -0.4080  0.3058 -0.9433
  586TMC3    O1 8749   2.924   0.049  17.406  0.4414 -0.1513 -0.4749
  586TMC3    O2 8750   3.365   0.092  17.439  0.0485  0.6713  0.1671
  587TMC3    C1 8751   1.215   3.710  16.900 -0.0204  0.5934  0.6187
  587TMC3    C2 8752   1.135   3.750  17.008  0.4612 -0.0109  0.1801
  587TMC3    C3 8753   1.194   3.739  17.132 -0.3333  0.3831  0.7115
  587TMC3    C4 8754   1.332   3.643  16.921 -0.0649 -0.4658 -0.1678
  587TMC3    C5 8755   1.383   3.637  17.050 -0.6182 -0.4239  0.2720
  587TMC3    C6 8756   1.319   3.692  17.152 -0.2330 -0.7059 -0.3273
  587TMC3     C 8757   1.180   3.743  16.762  0.0690  0.0402  0.0153
  587TMC3     O 8758   1.275   3.724  16.684  0.3568 -0.4473  0.4277
  587TMC3     H 8759   1.037   3.795  17.000  1.5329  2.3990  0.6668
  587TMC3    H1 8760   1.392   3.599  16.841  0.6995 -2.4424  1.5133
  587TMC3    H2 8761   1.368   3.716  17.245 -2.3202  0.7227  0.3993
  587TMC3    C7 8762   1.516   3.578  17.075 -0.4293 -0.3533  0.8388
  587TMC3    C8 8763   1.134   3.800  17.247  0.0259 -0.6705 -0.4371
  587TMC3    O1 8764   1.548   3.554  17.189 -0.3337  0.4104 -0.0744
  587TMC3    O2 8765   1.155   3.737  17.348  0.5088 -0.1831 -0.0865
  588TMC3    C1 8766   4.015   1.568   9.822  0.8065 -0.3934 -0.2690
  588TMC3    C2 8767   3.964   1.443   9.807 -0.3127 -0.3251 -0.2327
  588TMC3    C3 8768   4.040   1.332   9.839  0.0732  0.2463  0.6945
  588TMC3    C4 8769   4.151   1.584   9.819  0.3349  0.2378  0.3742
  588TMC3    C5 8770   4.228   1.473   9.833  0.2409 -0.2318 -0.3928
  588TMC3    C6 8771   4.177   1.350   9.845  0.0373  0.4943 -0.1981
  588TMC3     C 8772   3.927   1.688   9.807 -0.0597  0.0341 -0.2727
  588TMC3     O 8773   3.815   1.678   9.761 -0.0308 -0.2159  0.5696
  588TMC3     H 8774   3.856   1.434   9.800 -0.4017  0.3179  0.2767
  588TMC3    H1 8775   4.200   1.678   9.796  0.0761  0.1904 -0.3766
  588TMC3    H2 8776   4.247   1.268   9.852  0.9706  1.3137  0.0663
  588TMC3    C7 8777   4.373   1.498   9.862  0.5170 -0.1580 -0.2791
  588TMC3    C8 8778   3.970   1.203   9.862 -0.2855 -0.0141  0.1796
  588TMC3    O1 8779   4.460   1.417   9.846  0.2226  0.5881 -0.1056
  588TMC3    O2 8780   3.849   1.197   9.848 -0.0065  0.4876 -0.2029
  589TMC3    C1 8781   2.781   3.472   1.650 -0.2198  0.7064 -0.1827
  589TMC3    C2 8782   2.897   3.506   1.722 -0.1229 -0.2642 -0.6461
  589TMC3    C3 8783   3.015   3.466   1.661 -0.2616 -0.0119  0.1703
  589TMC3    C4 8784   2.789   3.398   1.539  0.7209 -0.1267  0.1962
  589TMC3    C5 8785   2.905   3.375   1.475  0.1627 -0.3395  0.4251
  589TMC3    C6 8786   3.022   3.403   1.539 -0.2429  0.4810  0.4673
  589TMC3     C 8787   2.652   3.502   1.703 -0.6109 -0.7369  0.6051
  589TMC3     O 8788   2.559   3.493   1.626 -0.1566 -0.6106  0.0495
  589TMC3     H 8789   2.897   3.543   1.824  0.8504 -1.2885 -0.2693
  589TMC3    H1 8790   2.694   3.369   1.497 -0.6376  1.6163  2.0733
  589TMC3    H2 8791   3.118   3.363   1.506 -0.5709 -0.1090  0.2154
  589TMC3    C7 8792   2.904   3.284   1.371 -0.0142 -0.5643  0.1587
  589TMC3    C8 8793   3.133   3.510   1.727 -0.5389 -0.8278  0.0276
  589TMC3    O1 8794   2.804   3.215   1.360  0.3398 -0.0472  0.1731
  589TMC3    O2 8795   3.128   3.539   1.845 -0.3079  0.2608 -0.2133
  590MPD2     C 8796   2.155   1.822  16.459  0.0758 -0.0984  0.3068
  590MPD2    C1 8797   2.162   1.964  16.452 -0.4088  0.6239  0.1225
  590MPD2    C2 8798   2.261   2.028  16.375 -0.1999  0.3404 -0.7981
  590MPD2    C3 8799   2.350   1.941  16.312 -0.0433 -0.2414 -0.3313
  590MPD2    C4 8800   2.342   1.801  16.313 -0.2640 -0.2974  0.1555
  590MPD2    C5 8801   2.252   1.745  16.399 -0.9544  0.4150  0.3471
  590MPD2     H 8802   2.286   2.133  16.384  1.1395  0.0049 -0.6669
  590MPD2    H1 8803   2.411   1.739  16.257 -0.0083  0.1547 -0.0276
  590MPD2    H2 8804   2.078   1.767  16.513  0.9171  0.3630  1.9870
  590MPD2    H3 8805   2.243   1.637  16.409 -1.1287  0.2047 -2.0956
  590MPD2     N 8806   2.451   2.010  16.240 -0.0062 -0.1236 -0.5618
  590MPD2    H5 8807   2.448   2.112  16.242  1.9233 -0.0598 -0.3656
  590MPD2    N1 8808   2.056   2.037  16.516  0.2502  0.2903 -0.3893
  590MPD2    H7 8809   1.983   1.979  16.556  0.3967  1.5408  1.6898
  591TMC3    C1 8810   2.615   2.075  16.085  0.5493  0.1940 -0.0312
  591TMC3    C2 8811   2.747   2.043  16.040  0.6886  0.9346 -0.0211
  591TMC3    C3 8812   2.796   2.125  15.937  0.2552 -0.3854  0.2485
  591TMC3    C4 8813   2.531   2.171  16.034 -0.4066 -0.4117 -0.3500
  591TMC3    C5 8814   2.599   2.257  15.944  0.1093  0.0982 -0.4133
  591TMC3    C6 8815   2.725   2.234  15.891 -0.6985  0.0771 -0.6443
  591TMC3     C 8816   2.555   1.963  16.163  0.9425 -0.2498 -0.1173
  591TMC3     O 8817   2.610   1.853  16.163  0.4937 -1.1241  0.3158
  591TMC3     H 8818   2.798   1.953  16.071 -2.1615 -0.6413  0.0638
  591TMC3    H1 8819   2.436   2.196  16.080 -0.5683 -0.2799 -0.7547
  591TMC3    H2 8820   2.760   2.285  15.802 -0.9409  0.0027 -0.7846
  591TMC3    C7 8821   2.517   2.355  15.889  0.1330 -0.2200  0.2705
  591TMC3    C8 8822   2.915   2.078  15.872 -1.0591 -1.0221 -0.0553
  591TMC3    O1 8823   2.402   2.362  15.924 -0.3553 -0.1658 -0.6804
  591TMC3    O2 8824   2.983   1.990  15.923  0.5276 -0.0819  0.2217
  592MPD2     C 8825   3.524   3.667  11.203  0.6041  0.5050  0.1563
  592MPD2    C1 8826   3.440   3.734  11.289 -0.1879  0.3444  0.7450
  592MPD2    C2 8827   3.325   3.667  11.325  0.1129 -0.1271  0.2771
  592MPD2    C3 8828   3.293   3.539  11.290 -0.2152 -0.2170 -0.1149
  592MPD2    C4 8829   3.379   3.483  11.204  0.7847  0.0950  0.2123
  592MPD2    C5 8830   3.492   3.542  11.162 -0.1716 -0.0555 -0.3618
  592MPD2     H 8831   3.245   3.705  11.388  0.4300 -2.5571  2.1400
  592MPD2    H1 8832   3.352   3.391  11.154 -2.3275 -0.1296  2.3075
  592MPD2    H2 8833   3.618   3.711  11.170 -0.2785  0.5365 -2.2865
  592MPD2    H3 8834   3.549   3.486  11.089 -2.1229  0.2889 -2.1365
  592MPD2     N 8835   3.175   3.473  11.353  0.3156 -0.1262 -0.3524
  592MPD2    H5 8836   3.123   3.527  11.421  2.1209 -0.8063  1.5267
  592MPD2    N1 8837   3.486   3.856  11.345 -0.4257  0.2202 -0.0860
  592MPD2    H7 8838   3.576   3.891  11.314  0.5844 -1.5512  0.9046
  593TMC3    C1 8839   3.506   4.041  11.491 -0.6123 -0.2024 -0.7569
  593TMC3    C2 8840   3.481   4.077  11.622  0.0591 -0.0080 -0.2046
  593TMC3    C3 8841   3.543   4.186  11.674  0.5205  0.2224 -0.6763
  593TMC3    C4 8842   3.585   4.108  11.401 -0.4271 -0.6108  0.4830
  593TMC3    C5 8843   3.657   4.213  11.465  0.0404 -0.1231  0.5566
  593TMC3    C6 8844   3.633   4.254  11.592  0.2564 -0.1802  0.8562
  593TMC3     C 8845   3.424   3.935  11.436  0.1876 -1.3302 -0.5493
  593TMC3     O 8846   3.314   3.914  11.485  0.3631 -0.2392 -0.1970
  593TMC3     H 8847   3.420   4.015  11.687  0.4536  0.4135  0.5671
  593TMC3    H1 8848   3.598   4.065  11.302 -3.1181 -1.9590  0.7104
  593TMC3    H2 8849   3.686   4.340  11.631 -0.3981  1.2442 -1.4011
  593TMC3    C7 8850   3.753   4.297  11.383 -0.7422 -0.2129 -0.6931
  593TMC3    C8 8851   3.534   4.208  11.817  0.1135 -0.0772  0.3502
  593TMC3    O1 8852   3.800   4.399  11.435 -0.2485 -0.0171 -0.2209
  593TMC3    O2 8853   3.473   4.125  11.880  0.3266  0.2946 -0.3133
  594MPD2     C 8854   1.535   2.908  13.908  0.0122 -0.8381 -0.1283
  594MPD2    C1 8855   1.522   2.938  14.046  0.3570  0.3919 -0.2901
  594MPD2    C2 8856   1.621   3.010  14.108 -0.2034 -0.3036 -0.1163
  594MPD2    C3 8857   1.716   3.074  14.038 -0.0396  0.2180 -0.4809
  594MPD2    C4 8858   1.717   3.063  13.894 -0.8043  0.4548 -0.5298
  594MPD2    C5 8859   1.628   2.978  13.831 -0.2637  0.2616 -0.0461
  594MPD2     H 8860   1.622   3.035  14.213 -1.0460 -1.2307  0.1190
  594MPD2    H1 8861   1.793   3.113  13.835  1.1164 -1.1847  0.5567
  594MPD2    H2 8862   1.461   2.847  13.856 -1.5389  0.8714  0.0948
  594MPD2    H3 8863   1.642   2.971  13.724  3.0697  0.9154  0.3471
  594MPD2     N 8864   1.793   3.162  14.111 -0.6036  0.3058  0.0901
  594MPD2    H5 8865   1.778   3.164  14.211 -0.0405  1.2766  0.1492
  594MPD2    N1 8866   1.415   2.868  14.102  0.7441 -0.2366  0.5747
  594MPD2    H7 8867   1.360   2.812  14.038 -1.7554  1.0261  1.6051
  595TMC3    C1 8868   2.141   3.444  14.218  0.4113 -0.2676  0.7002
  595TMC3    C2 8869   2.078   3.369  14.123  0.6991  0.1118  0.4851
  595TMC3    C3 8870   1.958   3.320  14.168 -0.0685 -0.3192  0.1616
  595TMC3    C4 8871   2.089   3.488  14.340 -0.1212  0.0973 -0.1484
  595TMC3    C5 8872   1.958   3.456  14.354 -0.6096 -0.1651  0.3747
  595TMC3    C6 8873   1.887   3.374  14.267 -0.5201  0.2924 -0.1515
  595TMC3     C 8874   2.281   3.470  14.194 -0.3086 -0.2874  0.4222
  595TMC3     O 8875   2.339   3.522  14.287  0.4326  0.5702 -0.6760
  595TMC3     H 8876   2.125   3.332  14.032  2.5638 -0.2817  1.6247
  595TMC3    H1 8877   2.144   3.553  14.406  1.4732 -2.7758  1.3433
  595TMC3    H2 8878   1.784   3.349  14.291 -0.3820  0.8817  1.0533
  595TMC3    C7 8879   1.898   3.482  14.480  0.5898  0.6945  0.8700
  595TMC3    C8 8880   1.890   3.243  14.064 -0.1643 -0.4144  0.2124
  595TMC3    O1 8881   1.778   3.475  14.492 -0.4053  0.4351 -0.6380
  595TMC3    O2 8882   1.910   3.266  13.946  0.0862 -0.1195  0.2443
  596MPD2     C 8883   0.143   0.828  16.627 -0.7875 -0.7769  0.2686
  596MPD2    C1 8884   0.269   0.878  16.648 -0.8335 -0.3367  0.1410
  596MPD2    C2 8885   0.365   0.848  16.546  0.1326 -0.5721 -0.3486
  596MPD2    C3 8886   0.329   0.780  16.430  0.1422 -0.1685  0.2741
  596MPD2    C4 8887   0.201   0.732  16.424  0.6823  0.2350  0.3102
  596MPD2    C5 8888   0.109   0.749  16.522 -0.0626 -0.3518  0.0125
  596MPD2     H 8889   0.466   0.865  16.579 -0.2005 -0.9646  0.8603
  596MPD2    H1 8890   0.166   0.672  16.341  0.4394 -0.3503  0.8379
  596MPD2    H2 8891   0.065   0.854  16.698 -1.1259  3.8882 -1.7868
  596MPD2    H3 8892   0.012   0.700  16.522 -0.0806 -0.3145  0.3323
  596MPD2     N 8893   0.417   0.750  16.327 -0.1491 -0.0349  0.8950
  596MPD2    H5 8894   0.508   0.790  16.343  0.0232 -0.3484  0.6898
  596MPD2    N1 8895   0.318   0.943  16.762 -1.2054 -0.1521  0.6123
  596MPD2    H7 8896   0.410   0.984  16.753 -1.7642  1.3340  1.5010
  597TMC3    C1 8897   0.313   1.079  16.956 -0.3187 -0.3307  0.5023
  597TMC3    C2 8898   0.448   1.103  16.938  0.6316  0.0495  0.1830
  597TMC3    C3 8899   0.500   1.218  16.992  0.9343  1.0249  0.2005
  597TMC3    C4 8900   0.236   1.172  17.019 -0.5118  0.0650  0.0816
  597TMC3    C5 8901   0.286   1.289  17.057 -0.6727 -0.9431 -0.4087
  597TMC3    C6 8902   0.423   1.313  17.053  0.4548  1.1326 -0.2886
  597TMC3     C 8903   0.243   0.983  16.872 -0.4392 -0.3349  0.0316
  597TMC3     O 8904   0.123   0.966  16.892  0.3821 -0.3081  0.0714
  597TMC3     H 8905   0.512   1.027  16.893 -0.1231 -1.0953  1.0449
  597TMC3    H1 8906   0.130   1.150  17.026 -0.3377 -0.9645 -0.4842
  597TMC3    H2 8907   0.457   1.405  17.100 -0.7037  1.3291  0.1782
  597TMC3    C7 8908   0.193   1.370  17.141 -0.0039  0.4079  0.0379
  597TMC3    C8 8909   0.642   1.234  17.019 -0.0315  0.0985  0.4967
  597TMC3    O1 8910   0.086   1.316  17.174 -0.4822 -0.5397  0.6886
  597TMC3    O2 8911   0.684   1.336  17.070  0.2468 -0.3164 -0.3778
  598TMC3    C1 8912   3.465   2.621  15.256  0.3943  0.0280 -0.0980
  598TMC3    C2 8913   3.354   2.556  15.216  0.3793  0.7327  0.0122
  598TMC3    C3 8914   3.351   2.515  15.080  0.2898 -0.2189  0.7127
  598TMC3    C4 8915   3.564   2.657  15.176 -0.1139  0.2491 -0.7985
  598TMC3    C5 8916   3.555   2.626  15.041  0.5693 -0.3897 -0.5713
  598TMC3    C6 8917   3.445   2.556  14.992 -0.0466 -0.5749  0.1191
  598TMC3     C 8918   3.490   2.604  15.400  1.3187 -0.1402  0.0655
  598TMC3     O 8919   3.522   2.705  15.462  0.2865  0.0171  0.2378
  598TMC3     H 8920   3.271   2.541  15.285  0.3223 -3.0698 -0.8736
  598TMC3    H1 8921   3.654   2.681  15.230 -0.4812  0.1158 -0.1198
  598TMC3    H2 8922   3.422   2.553  14.886 -2.0001  3.8638  0.4152
  598TMC3    C7 8923   3.649   2.683  14.944  0.6910  0.3356  0.0813
  598TMC3    C8 8924   3.216   2.506  15.029  0.2394 -0.8677  0.4250
  598TMC3    O1 8925   3.643   2.635  14.831 -0.4291  0.0321  0.0613
  598TMC3    O2 8926   3.203   2.547  14.917  0.3628 -0.0806  0.0349
  599MPD2     C 8927   3.642   4.721  16.073  0.1036  0.3633  0.7343
  599MPD2    C1 8928   3.572   4.603  16.078  0.4007 -1.0667  0.6230
  599MPD2    C2 8929   3.437   4.605  16.052 -0.4081 -0.5706 -0.3559
  599MPD2    C3 8930   3.366   4.716  16.037  0.0177  0.1725 -0.5246
  599MPD2    C4 8931   3.434   0.101  16.037 -0.5259 -0.4809  0.2265
  599MPD2    C5 8932   3.567   0.101  16.052 -0.1010  0.3598 -0.2185
  599MPD2     H 8933   3.371   4.520  16.067 -1.4707  0.7803  2.6539
  599MPD2    H1 8934   3.387   0.198  16.033  1.4371  0.5701  2.5042
  599MPD2    H2 8935   3.750   4.731  16.075 -0.0586  2.4945 -0.9906
  599MPD2    H3 8936   3.624   0.194  16.042  0.7604 -0.2869 -1.3315
  599MPD2     N 8937   3.222   4.733  16.034 -0.0346  0.3617  0.1537
  599MPD2    H5 8938   3.188   0.094  16.034  1.0611  0.7355  4.8302
  599MPD2    N1 8939   3.642   4.487  16.117 -0.7143 -0.0193 -0.3082
  599MPD2    H7 8940   3.732   4.505  16.162 -0.1008 -0.2598 -1.4245
  600TMC3    C1 8941   2.992   4.663  16.036  0.1693  0.1272 -0.4156
  600TMC3    C2 8942   2.909   4.563  16.074  0.5759 -0.9420  0.2818
  600TMC3    C3 8943   2.780   4.591  16.113 -0.6172 -0.2563 -0.7534
  600TMC3    C4 8944   2.954   0.062  16.055  0.3825 -0.6388  0.3901
  600TMC3    C5 8945   2.825   0.094  16.097 -0.2448 -0.3068 -0.1218
  600TMC3    C6 8946   2.742   4.724  16.129 -0.2893 -0.8719 -0.3234
  600TMC3     C 8947   3.132   4.630  16.032 -0.3122 -0.2961  0.7440
  600TMC3     O 8948   3.156   4.513  15.997 -0.0529  0.4845  0.1843
  600TMC3     H 8949   2.943   4.462  16.054 -0.5552 -1.5534  1.4793
  600TMC3    H1 8950   3.019   0.146  16.035  1.4358 -1.7383 -0.8543
  600TMC3    H2 8951   2.641   0.016  16.159 -0.1642  0.2052 -0.8684
  600TMC3    C7 8952   2.801   0.226  16.148 -0.3507 -0.2028 -0.4143
  600TMC3    C8 8953   2.684   4.488  16.122 -0.3948  0.4864  0.3418
  600TMC3    O1 8954   2.878   0.322  16.122 -0.0768  0.5897 -0.3250
  600TMC3    O2 8955   2.711   4.376  16.079 -0.2071 -0.0134  0.1153
  601MPD2     C 8956   1.475   3.472   0.532 -0.2617  0.5602 -0.6810
  601MPD2    C1 8957   1.398   3.382   0.464  0.0996 -0.4681 -0.1272
  601MPD2    C2 8958   1.452   3.266   0.411 -0.6475  0.0592 -0.2613
  601MPD2    C3 8959   1.594   3.250   0.416  0.1726 -0.8663  0.3262
  601MPD2    C4 8960   1.674   3.350   0.466  0.6379  0.2022  0.7242
  601MPD2    C5 8961   1.614   3.455   0.524 -0.0107 -0.6457  0.2007
  601MPD2     H 8962   1.385   3.192   0.369  0.8714 -1.3263 -0.2310
  601MPD2    H1 8963   1.781   3.348   0.445  0.1548 -1.1478 -1.6678
  601MPD2    H2 8964   1.439   3.560   0.584  2.1659  1.2440 -0.1910
  601MPD2    H3 8965   1.672   3.534   0.570 -0.4508 -0.4128  0.3625
  601MPD2     N 8966   1.668   3.131   0.384  0.0956  0.8220  0.4801
  601MPD2    H5 8967   1.769   3.134   0.396  0.0458 -0.7772  1.2094
  601MPD2    N1 8968   1.257   3.415   0.444 -0.1311  0.7230 -0.7605
  601MPD2    H7 8969   1.208   3.351   0.382 -1.6943 -0.7615  2.0574
  602TMC3    C1 8970   1.062   3.535   0.452  0.2002 -0.3844  0.5028
  602TMC3    C2 8971   1.027   3.664   0.425 -0.5463  0.3969 -0.2766
  602TMC3    C3 8972   0.914   3.683   0.342 -0.2613  0.0017  0.3825
  602TMC3    C4 8973   0.987   3.428   0.396 -0.2276 -0.5089 -0.6939
  602TMC3    C5 8974   0.877   3.456   0.330 -0.4817  0.2591  0.2342
  602TMC3    C6 8975   0.838   3.583   0.290 -0.7303 -0.3423  0.6203
  602TMC3     C 8976   1.192   3.522   0.494 -0.2710  0.4368  0.1126
  602TMC3     O 8977   1.238   3.607   0.570  0.5647 -0.2306  0.2482
  602TMC3     H 8978   1.085   3.750   0.459 -1.5632  0.4026  1.4300
  602TMC3    H1 8979   1.007   3.325   0.421  0.6900  0.5802  2.9992
  602TMC3    H2 8980   0.772   3.584   0.204 -0.1171 -1.0807  0.1462
  602TMC3    C7 8981   0.790   3.347   0.298  0.1686 -0.8292  0.6077
  602TMC3    C8 8982   0.886   3.820   0.287 -0.3120  0.0874  0.0780
  602TMC3    O1 8983   0.829   3.230   0.299  0.3191 -1.3213  0.7592
  602TMC3    O2 8984   0.974   3.906   0.278  0.3585  0.1365  0.0317
  603TMC3    C1 8985   4.571   3.349  10.653  0.0751 -0.1819 -0.2320
  603TMC3    C2 8986   4.572   3.317  10.789 -0.9078 -0.1608 -0.4337
  603TMC3    C3 8987   4.590   3.426  10.870 -0.0746 -0.1363 -0.4788
  603TMC3    C4 8988   4.572   3.475  10.594 -0.0284 -0.1101  0.1910
  603TMC3    C5 8989   4.597   3.577  10.683 -0.6978 -0.0796  0.2081
  603TMC3    C6 8990   4.619   3.554  10.816 -0.2627  0.0460  0.5948
  603TMC3     C 8991   4.573   3.234  10.568  0.1012  0.7541 -0.5440
  603TMC3     O 8992   4.622   3.128  10.611 -0.5472  0.1490  0.1243
  603TMC3     H 8993   4.551   3.218  10.826  1.9697  0.4325  2.8464
  603TMC3    H1 8994   4.579   3.495  10.488 -0.8606  2.6123  0.6348
  603TMC3    H2 8995   4.609   3.641  10.880 -3.1151 -0.5584  0.9896
  603TMC3    C7 8996   4.585   3.716  10.638 -0.6490  0.9073 -0.4739
  603TMC3    C8 8997   4.614   3.400  11.013 -0.2337 -0.0125  0.1568
  603TMC3    O1 8998   4.639   3.802  10.708  0.6970 -0.6212 -0.3406
  603TMC3    O2 8999   4.661   3.293  11.046  0.5679  0.3883 -0.1833
  604MPD2     C 9000   0.256   2.497  16.736 -0.3888 -0.6428  0.0054
  604MPD2    C1 9001   0.181   2.381  16.688  0.4553 -0.1381  0.3342
  604MPD2    C2 9002   0.195   2.336  16.557  0.6146 -0.0066 -1.0103
  604MPD2    C3 9003   0.293   2.391  16.489 -0.4704 -0.6815 -0.0331
  604MPD2    C4 9004   0.385   2.482  16.544  0.0497 -0.2459 -0.2081
  604MPD2    C5 9005   0.361   2.542  16.662  0.2935 -0.5058  0.1085
  604MPD2     H 9006   0.132   2.261  16.510 -1.9451  1.6487 -0.2454
  604MPD2    H1 9007   0.448   2.525  16.468  1.2319 -2.3232 -0.4166
  604MPD2    H2 9008   0.233   2.539  16.833  1.8599  0.3601  0.0808
  604MPD2    H3 9009   0.438   2.616  16.686 -2.0949  2.0369 -0.0519
  604MPD2     N 9010   0.305   2.347  16.358  0.1211  0.4006 -0.0868
  604MPD2    H5 9011   0.238   2.279  16.324 -1.5088  0.7396  2.5238
  604MPD2    N1 9012   0.074   2.335  16.770  0.2640  0.1087  0.0130
  604MPD2    H7 9013   0.043   2.396  16.845  0.0576 -1.1107  0.9376
  605TMC3    C1 9014   4.617   2.229  16.831  0.3086  0.0761 -0.6039
  605TMC3    C2 9015   4.632   2.315  16.936 -0.2231  0.1822 -0.0492
  605TMC3    C3 9016   4.535   2.403  16.981 -0.1966 -0.1037 -0.8356
  605TMC3    C4 9017   4.497   2.227  16.773 -0.5438  0.0005 -0.0248
  605TMC3    C5 9018   4.399   2.322  16.808  0.0996  0.2581 -0.2361
  605TMC3    C6 9019   4.413   2.398  16.919  0.1741 -0.0945 -0.4288
  605TMC3     C 9020   4.722   2.227  16.745  0.1384  0.6572 -0.4818
  605TMC3     O 9021   4.722   2.153  16.646 -0.4187 -0.3087 -0.3418
  605TMC3     H 9022   4.724   2.327  16.991  0.2080 -1.5563 -0.4072
  605TMC3    H1 9023   4.487   2.159  16.689 -0.8950  0.0947 -0.0595
  605TMC3    H2 9024   4.347   2.484  16.928 -1.6798 -1.2143 -2.9598
  605TMC3    C7 9025   4.322   2.378  16.698  0.0147 -0.2217 -0.1230
  605TMC3    C8 9026   4.593   2.533  16.975 -0.1888  0.1116 -0.2150
  605TMC3    O1 9027   4.266   2.483  16.717  0.3469 -0.0187  0.0749
  605TMC3    O2 9028   4.700   2.531  16.923  0.0724  0.2310 -0.7649
  606TMC3    C1 9029   0.673   0.860  17.165 -0.8262 -0.2288 -0.1061
  606TMC3    C2 9030   0.794   0.898  17.221  0.1964 -0.4298 -0.2655
  606TMC3    C3 9031   0.899   0.838  17.162  0.4455 -0.4149  0.1490
  606TMC3    C4 9032   0.657   0.791  17.050 -0.3351  0.0344 -0.0144
  606TMC3    C5 9033   0.765   0.731  16.996 -0.2676 -0.3276  0.2055
  606TMC3    C6 9034   0.888   0.763  17.042 -1.2226  0.1937  0.1173
  606TMC3     C 9035   0.560   0.911  17.238  0.2945  0.4275  0.9099
  606TMC3     O 9036   0.457   0.853  17.222  0.0442 -0.8774  0.4805
  606TMC3     H 9037   0.800   0.939  17.321 -0.2129  0.8332 -0.7510
  606TMC3    H1 9038   0.556   0.761  17.025  0.4450 -2.0740 -0.6563
  606TMC3    H2 9039   0.979   0.720  17.002 -0.9666 -0.2135  1.1428
  606TMC3    C7 9040   0.740   0.682  16.864  0.3089  0.0269  0.2402
  606TMC3    C8 9041   1.009   0.816  17.249 -0.0596 -0.6524 -0.5599
  606TMC3    O1 9042   0.834   0.692  16.787  0.1810 -0.2981 -0.5573
  606TMC3    O2 9043   1.038   0.908  17.326 -0.1257  0.3548 -0.1520
  607MPD2     C 9044   3.675   3.214  11.305  0.1316  0.4975  0.6994
  607MPD2    C1 9045   3.716   3.257  11.428 -0.0667 -0.3313 -0.2629
  607MPD2    C2 9046   3.679   3.185  11.539  0.6868 -0.7361 -0.0962
  607MPD2    C3 9047   3.618   3.062  11.543 -0.4771 -0.1186  0.5046
  607MPD2    C4 9048   3.572   3.022  11.422 -0.8895 -0.3784 -0.1968
  607MPD2    C5 9049   3.606   3.096  11.307  0.1980  0.0790  0.4275
  607MPD2     H 9050   3.701   3.235  11.632  0.0388 -0.6180 -0.0040
  607MPD2    H1 9051   3.512   2.934  11.400  0.0845 -0.5016 -2.4496
  607MPD2    H2 9052   3.705   3.270  11.217 -0.7952  1.1776  0.8204
  607MPD2    H3 9053   3.568   3.052  11.215 -0.4027 -0.4172  0.9090
  607MPD2     N 9054   3.585   3.003  11.668 -0.3588  0.3714 -0.3152
  607MPD2    H5 9055   3.602   3.055  11.753  0.4942  2.6043 -1.8510
  607MPD2    N1 9056   3.790   3.373  11.454  0.7870  0.3498 -0.4055
  607MPD2    H7 9057   3.829   3.375  11.548  1.0586 -1.9177 -0.4721
  608TMC3    C1 9058   3.914   3.561  11.441 -0.0081 -0.0707  0.3055
  608TMC3    C2 9059   3.886   3.579  11.573 -0.1744  0.1732 -0.3615
  608TMC3    C3 9060   3.968   3.664  11.645  0.1646 -0.0549  0.1906
  608TMC3    C4 9061   4.030   3.616  11.384 -0.8054  0.8294 -0.3944
  608TMC3    C5 9062   4.113   3.691  11.459 -0.2330 -0.5336 -0.4070
  608TMC3    C6 9063   4.080   3.719  11.595  0.5575  0.0883  0.0027
  608TMC3     C 9064   3.841   3.458  11.364  0.9680 -0.7908 -0.3300
  608TMC3     O 9065   3.858   3.461  11.242 -0.3669 -0.3215  0.2354
  608TMC3     H 9066   3.797   3.530  11.612  0.3790  0.8548  1.7486
  608TMC3    H1 9067   4.045   3.610  11.277 -0.0314  0.5860 -0.2676
  608TMC3    H2 9068   4.139   3.777  11.665 -1.1572  0.8671  0.7990
  608TMC3    C7 9069   4.209   3.780  11.390  0.6132 -0.0895  0.2381
  608TMC3    C8 9070   3.959   3.641  11.793  0.0423  0.0925 -0.0334
  608TMC3    O1 9071   4.220   3.763  11.270 -0.1744 -0.0615 -0.2804
  608TMC3    O2 9072   3.998   3.731  11.864 -0.7765  0.2304  0.2462
  609TMC3    C1 9073   1.681   2.371   9.465  0.5249 -0.8764 -0.2839
  609TMC3    C2 9074   1.618   2.257   9.421  0.0029 -0.0797 -0.2094
  609TMC3    C3 9075   1.675   2.186   9.326  0.2154  0.1272 -0.1205
  609TMC3    C4 9076   1.800   2.416   9.407 -0.3377 -0.2233  0.8454
  609TMC3    C5 9077   1.854   2.337   9.310 -0.9608  0.3268  0.3392
  609TMC3    C6 9078   1.796   2.219   9.271 -0.1241  0.0520 -0.2926
  609TMC3     C 9079   1.625   2.437   9.583 -0.0312 -0.0868 -0.1766
  609TMC3     O 9080   1.514   2.411   9.623  1.2436  0.2210 -0.2150
  609TMC3     H 9081   1.517   2.235   9.451 -0.2805 -1.1399 -1.9234
  609TMC3    H1 9082   1.842   2.515   9.420 -1.8810  0.5395  0.0587
  609TMC3    H2 9083   1.845   2.167   9.190  1.6935 -1.1004  1.5626
  609TMC3    C7 9084   1.997   2.355   9.283 -0.6673 -0.1318  0.3987
  609TMC3    C8 9085   1.606   2.066   9.269 -0.2446 -0.4691  0.0397
  609TMC3    O1 9086   2.047   2.470   9.295 -0.2986  0.8656 -0.1931
  609TMC3    O2 9087   1.649   2.024   9.165 -0.6870 -0.1867 -0.1351
  610TMC3    C1 9088   3.600   3.956  12.937 -0.2225 -0.2501  0.0286
  610TMC3    C2 9089   3.637   4.042  12.832  0.2695 -0.2055  0.2690
  610TMC3    C3 9090   3.746   4.006  12.760  1.0755  0.2533 -0.5123
  610TMC3    C4 9091   3.660   3.836  12.960 -1.3832 -0.5130 -0.3797
  610TMC3    C5 9092   3.761   3.803  12.875 -0.0169 -0.6092  0.2573
  610TMC3    C6 9093   3.809   3.887  12.780 -0.3924  0.1079  0.1483
  610TMC3     C 9094   3.518   4.007  13.051 -0.3686  0.1698  0.1478
  610TMC3     O 9095   3.552   3.970  13.164 -0.2959  0.5150 -0.7091
  610TMC3     H 9096   3.588   4.137  12.813 -1.5384 -1.4984 -1.5208
  610TMC3    H1 9097   3.641   3.775  13.048 -0.5355 -1.0186 -0.5432
  610TMC3    H2 9098   3.898   3.855  12.728  1.1484  1.0338  2.2155
  610TMC3    C7 9099   3.810   3.666  12.885  0.6402  0.8978 -0.4264
  610TMC3    C8 9100   3.791   4.091  12.648 -0.6858  0.4632  0.4028
  610TMC3    O1 9101   3.807   3.612  12.999 -0.0363  0.4857 -0.0678
  610TMC3    O2 9102   3.706   4.161  12.596 -0.1563  0.4579  0.1428
  611MPD2     C 9103   3.325   4.201  10.048  0.0828  0.5638 -0.1309
  611MPD2    C1 9104   3.350   4.073  10.003 -0.4423 -0.3059 -0.1580
  611MPD2    C2 9105   3.484   4.033   9.984 -0.2261 -0.3243  0.9267
  611MPD2    C3 9106   3.586   4.127   9.974 -0.5246  0.0185 -0.0202
  611MPD2    C4 9107   3.559   4.259  10.004  0.0014 -1.2030  0.5645
  611MPD2    C5 9108   3.429   4.295  10.046  0.2640 -0.0531  0.1700
  611MPD2     H 9109   3.516   3.931  10.002  1.4633 -0.0181 -0.4363
  611MPD2    H1 9110   3.646   4.323   9.998  1.7358 -3.8007 -1.9104
  611MPD2    H2 9111   3.230   4.232  10.090  0.8034  0.3785  1.6694
  611MPD2    H3 9112   3.406   4.399  10.070 -1.6351 -0.6581  0.9844
  611MPD2     N 9113   3.725   4.097   9.948  0.1677  0.0299 -0.0750
  611MPD2    H5 9114   3.796   4.169   9.960  1.5200 -1.4372  0.7616
  611MPD2    N1 9115   3.242   3.983   9.994 -0.3872  0.5339 -0.4239
  611MPD2    H7 9116   3.153   4.007  10.037 -1.6712  0.6756 -3.2021
  612TMC3    C1 9117   3.908   3.974   9.902  0.2393 -0.1708 -0.0218
  612TMC3    C2 9118   3.976   4.050   9.995  0.8662  0.4665  0.1151
  612TMC3    C3 9119   4.109   4.031  10.010 -0.7869  0.6880  0.2894
  612TMC3    C4 9120   3.972   3.893   9.817  0.4252 -0.2408  0.2559
  612TMC3    C5 9121   4.110   3.886   9.830  0.0625  0.0713  0.7439
  612TMC3    C6 9122   4.182   3.950   9.927 -0.1401 -0.2837 -0.0057
  612TMC3     C 9123   3.760   3.977   9.897  0.7969 -0.7733  0.6935
  612TMC3     O 9124   3.689   3.889   9.839  0.1880 -0.1854  0.5803
  612TMC3     H 9125   3.940   4.117  10.072  0.5424  1.2521 -0.7330
  612TMC3    H1 9126   3.913   3.825   9.757  1.4052 -0.5987 -0.3058
  612TMC3    H2 9127   4.289   3.939   9.938 -0.2297 -2.3519 -1.1711
  612TMC3    C7 9128   4.188   3.765   9.775  0.0967  0.0486  0.6495
  612TMC3    C8 9129   4.172   4.071  10.135  0.4560  0.0187 -0.0660
  612TMC3    O1 9130   4.309   3.783   9.748 -0.3265 -0.6262 -0.5789
  612TMC3    O2 9131   4.141   4.176  10.184  0.2744 -0.4606  0.2668
  613MPD2     C 9132   1.781   0.694  16.817 -0.2999  0.2854  0.3181
  613MPD2    C1 9133   1.777   0.821  16.763 -0.2977  0.3638 -0.4215
  613MPD2    C2 9134   1.688   0.836  16.656  0.1820 -0.0349 -0.3558
  613MPD2    C3 9135   1.604   0.739  16.602 -0.0817  0.7973  0.2316
  613MPD2    C4 9136   1.611   0.617  16.665  0.2851 -0.8574 -0.1795
  613MPD2    C5 9137   1.698   0.595  16.765  0.9323  0.2685  0.4083
  613MPD2     H 9138   1.682   0.937  16.617 -1.7029  0.0556  0.1557
  613MPD2    H1 9139   1.553   0.532  16.628 -0.6501 -0.1083 -0.4303
  613MPD2    H2 9140   1.835   0.675  16.910  1.0264 -1.6622 -0.8537
  613MPD2    H3 9141   1.685   0.501  16.818 -1.2746  0.7827  0.7456
  613MPD2     N 9142   1.527   0.761  16.481  0.0038  0.0508  0.0880
  613MPD2    H5 9143   1.481   0.675  16.453  1.3967 -0.3148 -1.0978
  613MPD2    N1 9144   1.837   0.933  16.823  0.2080  0.0001  0.6195
  613MPD2    H7 9145   1.881   0.913  16.912  0.4223  1.1931  0.7726
  614TMC3    C1 9146   1.878   1.066  16.612  0.0755  0.0552 -0.9385
  614TMC3    C2 9147   1.947   0.970  16.542  0.2297 -0.7019  0.3610
  614TMC3    C3 9148   1.973   0.989  16.411 -0.4618  0.0500  0.1079
  614TMC3    C4 9149   1.846   1.184  16.548  0.0891 -0.6433 -0.7780
  614TMC3    C5 9150   1.880   1.202  16.415  0.3007 -0.5386  0.1015
  614TMC3    C6 9151   1.947   1.103  16.343 -0.0164  0.4359 -0.9193
  614TMC3     C 9152   1.862   1.057  16.762  0.1612 -0.5640  0.5142
  614TMC3     O 9153   1.907   1.156  16.825  0.1050  0.0098 -0.4860
  614TMC3     H 9154   1.978   0.882  16.599 -1.1413 -0.5804  1.2984
  614TMC3    H1 9155   1.788   1.259  16.600 -0.1983 -1.8349  0.6377
  614TMC3    H2 9156   1.975   1.118  16.239  3.7132  2.3140  0.3996
  614TMC3    C7 9157   1.802   1.312  16.361  0.2152 -0.6754 -0.3253
  614TMC3    C8 9158   1.950   0.872  16.328 -0.0089 -0.2509 -0.5884
  614TMC3    O1 9159   1.761   1.396  16.439  0.6069 -0.4783 -0.7863
  614TMC3    O2 9160   1.931   0.888  16.213  0.2182  0.3996  0.2184
  615MPD2     C 9161   1.211   3.331  17.093 -0.0745  0.3477  0.8516
  615MPD2    C1 9162   1.271   3.325  16.969 -0.0297  0.4239 -0.1057
  615MPD2    C2 9163   1.199   3.354  16.859 -0.3419  0.7870  0.1797
  615MPD2    C3 9164   1.073   3.407  16.870 -0.3642 -0.5850 -1.0480
  615MPD2    C4 9165   1.010   3.414  16.993 -0.5518  0.1698  0.6454
  615MPD2    C5 9166   1.085   3.375  17.104 -0.1339 -0.5549 -0.2955
  615MPD2     H 9167   1.247   3.336  16.764 -0.1180 -0.3377  0.5102
  615MPD2    H1 9168   0.912   3.453  17.017 -1.1636  0.2289 -1.9757
  615MPD2    H2 9169   1.264   3.305  17.184  2.1300 -1.2251 -0.8695
  615MPD2    H3 9170   1.040   3.376  17.202  0.3729  0.2485 -0.0739
  615MPD2     N 9171   0.992   3.430  16.758  0.2334  0.1112  0.4604
  615MPD2    H5 9172   0.900   3.467  16.778 -2.0487 -3.1766 -4.0932
  615MPD2    N1 9173   1.402   3.271  16.943 -0.1028  0.0836 -0.5789
  615MPD2    H7 9174   1.439   3.281  16.849 -0.1226 -1.7208 -0.7768
  616TMC3    C1 9175   1.611   3.177  16.962 -0.2006 -0.3365 -0.3945
  616TMC3    C2 9176   1.590   3.098  16.858  0.6702 -0.3310  0.2390
  616TMC3    C3 9177   1.701   3.018  16.812 -0.4117  0.3537 -0.1324
  616TMC3    C4 9178   1.718   3.194  17.034  0.3706 -0.0240  0.5304
  616TMC3    C5 9179   1.822   3.106  16.993 -0.0905  0.6187  0.8723
  616TMC3    C6 9180   1.812   3.014  16.889  0.2508 -0.2896  0.0326
  616TMC3     C 9181   1.501   3.228  17.035  0.2486 -0.1627  0.4370
  616TMC3     O 9182   1.500   3.234  17.158  0.4253  0.2376 -0.2266
  616TMC3     H 9183   1.489   3.082  16.823  0.2638  0.4257  1.0535
  616TMC3    H1 9184   1.726   3.276  17.104  1.5678 -0.3909  0.8274
  616TMC3    H2 9185   1.906   2.967  16.862 -0.0816 -1.6959  1.3391
  616TMC3    C7 9186   1.946   3.103  17.069  0.4336 -0.0243  0.9008
  616TMC3    C8 9187   1.677   2.941  16.703  0.1643  0.1777 -0.0081
  616TMC3    O1 9188   2.047   3.062  17.014  0.6424 -0.1169  0.0735
  616TMC3    O2 9189   1.569   2.954  16.646  0.1468 -0.4135  0.7675
  617MPD2     C 9190   0.110   0.630  14.005  0.0800 -0.3749  0.1838
  617MPD2    C1 9191   0.020   0.583  13.910  0.7071  0.1351 -0.6821
  617MPD2    C2 9192   4.633   0.536  13.961  0.1655  0.2074  0.2201
  617MPD2    C3 9193   4.601   0.568  14.090  0.0818  0.5573 -0.5428
  617MPD2    C4 9194   4.694   0.624  14.174 -0.9669 -0.0468 -0.1392
  617MPD2    C5 9195   0.086   0.650  14.134  0.2266 -0.7857 -0.3522
  617MPD2     H 9196   4.562   0.485  13.897 -2.1328  1.4922  1.7437
  617MPD2    H1 9197   4.663   0.643  14.276  1.6473 -3.0775  1.2131
  617MPD2    H2 9198   0.207   0.668  13.975  0.3180 -1.5524 -0.5096
  617MPD2    H3 9199   0.165   0.680  14.202 -0.1375  0.7991 -0.6250
  617MPD2     N 9200   4.472   0.546  14.147 -0.0817  0.4228  0.2343
  617MPD2    H5 9201   4.452   0.569  14.243 -2.9082  0.5850 -0.4180
  617MPD2    N1 9202   0.063   0.582  13.777 -0.3003 -0.2241  0.0538
  617MPD2    H7 9203   0.156   0.620  13.760 -0.1614 -1.0561 -1.1002
  618TMC3    C1 9204   0.072   0.542  13.550 -0.2861 -0.5698 -0.3794
  618TMC3    C2 9205   0.212   0.544  13.562  0.3180 -0.0915 -0.2344
  618TMC3    C3 9206   0.278   0.554  13.439 -0.0912 -0.6150  0.3344
  618TMC3    C4 9207   0.007   0.546  13.431  0.0789  0.0468  1.0951
  618TMC3    C5 9208   0.081   0.569  13.314  0.1509  0.2781  0.3608
  618TMC3    C6 9209   0.217   0.573  13.322  0.5634  0.2311 -0.2781
  618TMC3     C 9210   4.726   0.531  13.671 -0.5649  0.1554 -0.5164
  618TMC3     O 9211   4.609   0.490  13.668 -0.0877 -0.1059  0.2968
  618TMC3     H 9212   0.258   0.536  13.659 -0.9752 -1.6312  0.2531
  618TMC3    H1 9213   4.634   0.537  13.434 -0.1642  3.4122  2.7406
  618TMC3    H2 9214   0.276   0.570  13.231  2.1533  1.6854  0.6985
  618TMC3    C7 9215   0.024   0.539  13.183  0.4330 -0.3013  0.5623
  618TMC3    C8 9216   0.409   0.496  13.439 -0.2284 -1.2929 -0.0176
  618TMC3    O1 9217   0.083   0.579  13.086 -0.4625  0.1994 -0.0208
  618TMC3    O2 9218   0.493   0.527  13.523  0.1400 -0.6944 -0.2962
  619MPD2     C 9219   1.301   2.145  13.752 -0.3270  0.3800  0.4944
  619MPD2    C1 9220   1.243   2.173  13.634 -0.6472  0.7026 -0.1885
  619MPD2    C2 9221   1.141   2.098  13.589  0.2439 -0.4719  0.2476
  619MPD2    C3 9222   1.110   1.979  13.652 -0.2756 -1.0444 -0.8473
  619MPD2    C4 9223   1.170   1.944  13.768 -0.1392 -0.1177 -0.1221
  619MPD2    C5 9224   1.263   2.030  13.827 -0.1575  0.2850 -0.4816
  619MPD2     H 9225   1.100   2.123  13.492  1.6853 -1.5894 -0.6560
  619MPD2    H1 9226   1.138   1.863  13.833  1.8241 -1.2274 -0.5603
  619MPD2    H2 9227   1.368   2.210  13.807  1.8097 -0.2169 -1.4397
  619MPD2    H3 9228   1.301   2.007  13.926  1.7849  1.8671 -0.8642
  619MPD2     N 9229   1.008   1.884  13.605 -0.4437 -0.0763 -0.0020
  619MPD2    H5 9230   0.996   1.797  13.657  1.6434  1.4832  3.1124
  619MPD2    N1 9231   1.272   2.289  13.561 -0.0519 -0.3611  0.4926
  619MPD2    H7 9232   1.215   2.306  13.479  0.2402  1.7522  0.7098
  620TMC3    C1 9233   1.362   2.478  13.484  0.0360 -0.1101 -0.2033
  620TMC3    C2 9234   1.342   2.420  13.366 -0.5034  0.6276 -0.5202
  620TMC3    C3 9235   1.297   2.499  13.260  0.3231 -0.1775  0.2694
  620TMC3    C4 9236   1.325   2.602  13.515 -0.4472 -0.4286  0.7006
  620TMC3    C5 9237   1.294   2.675  13.405 -0.0449 -0.4283  0.2189
  620TMC3    C6 9238   1.269   2.633  13.281  0.1838  0.0432  0.2487
  620TMC3     C 9239   1.367   2.383  13.585 -0.7830  0.3334 -0.3423
  620TMC3     O 9240   1.439   2.400  13.680 -1.0331 -0.6481 -0.1103
  620TMC3     H 9241   1.364   2.315  13.347  0.3184  0.7610 -0.3165
  620TMC3    H1 9242   1.341   2.651  13.611  0.1293  0.2399  0.2612
  620TMC3    H2 9243   1.270   2.708  13.202 -0.5269 -0.3043 -0.0806
  620TMC3    C7 9244   1.213   2.791  13.438 -0.2217 -0.3368 -0.6930
  620TMC3    C8 9245   1.175   2.438  13.221 -0.5242 -0.7007  0.4530
  620TMC3    O1 9246   1.252   2.876  13.517 -0.2446 -0.2733 -0.0018
  620TMC3    O2 9247   1.137   2.341  13.287 -0.2403 -0.5623 -0.1496
  621MPD2     C 9248   1.795   2.114   9.743  0.1505 -0.0917  0.0546
  621MPD2    C1 9249   1.795   2.165   9.875  0.5492  0.4425 -0.6401
  621MPD2    C2 9250   1.870   2.280   9.897  0.4652 -0.1112 -0.4419
  621MPD2    C3 9251   1.948   2.344   9.795  0.4836 -0.8261  0.7800
  621MPD2    C4 9252   1.956   2.284   9.672  0.0234  0.2225 -0.1097
  621MPD2    C5 9253   1.877   2.173   9.649  0.1868 -0.0029 -0.3026
  621MPD2     H 9254   1.869   2.339   9.989 -1.0501 -0.7623 -0.0467
  621MPD2    H1 9255   2.031   2.307   9.597 -0.4738  2.9427  0.2399
  621MPD2    H2 9256   1.736   2.028   9.715  0.1603 -0.9737  2.6978
  621MPD2    H3 9257   1.883   2.125   9.552 -2.6329 -1.3176  0.1777
  621MPD2     N 9258   2.043   2.445   9.832 -0.4404  0.0333  0.1766
  621MPD2    H5 9259   2.055   2.453   9.932 -1.1255 -0.7127  0.3207
  621MPD2    N1 9260   1.720   2.119   9.985 -0.0269  0.2835 -0.2102
  621MPD2    H7 9261   1.739   2.162  10.075 -0.6063 -1.3939  0.7126
  622TMC3    C1 9262   1.576   1.972  10.112  0.3821  0.7523 -0.2527
  622TMC3    C2 9263   1.588   2.044  10.226 -0.5639  0.4704  0.3659
  622TMC3    C3 9264   1.539   1.991  10.348 -0.3679  0.7204 -0.6015
  622TMC3    C4 9265   1.547   1.835  10.110  0.0410 -0.0546 -0.1176
  622TMC3    C5 9266   1.512   1.783  10.231 -0.4148  1.0151 -0.5223
  622TMC3    C6 9267   1.506   1.856  10.351  0.3769  1.0058  0.9994
  622TMC3     C 9268   1.629   2.018   9.985  0.3561 -0.2079 -0.1196
  622TMC3     O 9269   1.602   1.944   9.893 -0.0607 -0.5364  0.2562
  622TMC3     H 9270   1.620   2.147  10.222 -1.0927  0.5452 -1.8092
  622TMC3    H1 9271   1.534   1.777  10.019  1.1778  1.1755 -1.0509
  622TMC3    H2 9272   1.460   1.819  10.441 -0.2389 -2.6102 -0.7809
  622TMC3    C7 9273   1.467   1.645  10.234  0.0214  0.0759 -0.8797
  622TMC3    C8 9274   1.515   2.087  10.449 -0.0382 -0.2225  0.6466
  622TMC3    O1 9275   1.401   1.597  10.329 -0.3091 -0.5248  0.1550
  622TMC3    O2 9276   1.602   2.164  10.488 -0.2005 -0.1095 -0.0600
  623MPD2     C 9277   0.272   3.088  15.871 -0.2445  0.6057  0.9144
  623MPD2    C1 9278   0.339   2.989  15.937 -0.0298  0.5882  0.0932
  623MPD2    C2 9279   0.348   2.985  16.074  0.4758  0.2989 -0.2101
  623MPD2    C3 9280   0.281   3.085  16.148 -0.1458  0.6005  0.2324
  623MPD2    C4 9281   0.204   3.180  16.087 -0.2668 -0.8139 -0.3567
  623MPD2    C5 9282   0.199   3.178  15.948  0.0460  0.2851 -0.6132
  623MPD2     H 9283   0.410   2.915  16.128 -0.6858 -0.6660 -0.1271
  623MPD2    H1 9284   0.155   3.257  16.145 -0.8703 -0.3926 -1.4328
  623MPD2    H2 9285   0.278   3.093  15.762 -3.6680  2.8220  0.7992
  623MPD2    H3 9286   0.138   3.253  15.898  0.9238  0.4135 -1.4889
  623MPD2     N 9287   0.301   3.071  16.288  0.0484  0.6501 -0.4274
  623MPD2    H5 9288   0.360   2.994  16.318 -2.4688 -2.2015 -2.7227
  623MPD2    N1 9289   0.396   2.893  15.855 -0.3731  0.6669  0.0865
  623MPD2    H7 9290   0.359   2.895  15.761 -1.1176  2.7264  0.4270
  624TMC3    C1 9291   0.429   3.052  16.687  0.1047  0.5050 -0.1171
  624TMC3    C2 9292   0.331   3.057  16.779 -0.0346  0.8956  0.0592
  624TMC3    C3 9293   0.196   3.065  16.747 -0.7053  0.2251 -0.0904
  624TMC3    C4 9294   0.398   3.073  16.552 -0.4399 -0.3491  0.2015
  624TMC3    C5 9295   0.265   3.079  16.521 -0.0955  0.6241 -0.4660
  624TMC3    C6 9296   0.160   3.077  16.614 -0.2412 -0.2427  0.6880
  624TMC3     C 9297   0.568   3.054  16.740  0.3900  0.0279  0.6532
  624TMC3     O 9298   0.581   3.022  16.858 -0.5599 -0.1741  0.3257
  624TMC3     H 9299   0.352   3.021  16.879  1.4021 -1.8773 -1.2344
  624TMC3    H1 9300   0.480   3.063  16.482  0.0139 -0.4286  0.7330
  624TMC3    H2 9301   0.055   3.069  16.588  0.1033  1.2180 -1.1240
  624TMC3    C7 9302   0.233   3.131  16.392 -0.5829 -0.3885  0.5388
  624TMC3    C8 9303   0.114   2.972  16.823 -0.8760 -0.5819  0.6618
  624TMC3    O1 9304   0.128   3.199  16.382  0.4186 -0.2247 -0.6618
  624TMC3    O2 9305   0.168   2.868  16.853  0.5390 -0.3128 -0.3032
  625MPD2     C 9306   4.697   4.148   0.493  0.3779 -0.1000 -0.1969
  625MPD2    C1 9307   4.732   4.279   0.516  0.3567  0.6106  0.1952
  625MPD2    C2 9308   0.100   4.302   0.607 -0.3076  0.1204  0.0948
  625MPD2    C3 9309   0.171   4.207   0.673  0.3629 -0.1354 -0.0294
  625MPD2    C4 9310   0.140   4.075   0.644 -0.7890  0.6726 -0.4448
  625MPD2    C5 9311   0.034   4.047   0.562  0.3348 -0.6087 -0.8116
  625MPD2     H 9312   0.133   4.405   0.621 -1.3231  0.7327 -2.0858
  625MPD2    H1 9313   0.192   3.990   0.688 -0.1365  1.3092  0.0115
  625MPD2    H2 9314   4.612   4.127   0.430 -1.2753 -0.5795  2.2138
  625MPD2    H3 9315   4.733   3.947   0.539  0.1884 -0.3625 -1.6736
  625MPD2     N 9316   0.274   4.255   0.752 -0.3340 -0.1940  0.4923
  625MPD2    H5 9317   0.307   4.349   0.734  1.6568 -1.1926 -1.2046
  625MPD2    N1 9318   4.655   4.388   0.473 -0.2120  0.3844 -0.5350
  625MPD2    H7 9319   4.669   4.477   0.521 -0.1741 -0.2533  0.6455
  626TMC3    C1 9320   4.498   4.516   0.356  0.1036  0.5635  0.2328
  626TMC3    C2 9321   4.447   4.549   0.232  0.0767 -0.0024 -0.0831
  626TMC3    C3 9322   4.369   4.664   0.217 -0.6402  0.3175  0.0623
  626TMC3    C4 9323   4.467   4.590   0.464  0.0828 -0.3404 -0.1666
  626TMC3    C5 9324   4.379   4.696   0.444  0.4110  0.1641  0.1613
  626TMC3    C6 9325   4.341   0.013   0.324  0.1405  1.0623 -0.2866
  626TMC3     C 9326   4.563   4.382   0.373 -0.7428 -0.2329 -0.3236
  626TMC3     O 9327   4.532   4.298   0.289  0.6397 -0.0810 -0.0451
  626TMC3     H 9328   4.473   4.485   0.149  1.5683  1.6111 -0.8431
  626TMC3    H1 9329   4.472   4.539   0.559  1.3106  0.6886  0.3085
  626TMC3    H2 9330   4.272   0.097   0.325 -1.5510 -0.3180 -2.5336
  626TMC3    C7 9331   4.352   0.036   0.562 -0.7750  0.2496 -0.0403
  626TMC3    C8 9332   4.354   4.712   0.083 -0.1122  0.1398 -0.3968
  626TMC3    O1 9333   4.423   0.000   0.659  0.0904 -0.0411 -0.2221
  626TMC3    O2 9334   4.386   4.638  17.725  0.3489 -0.0069  0.0934
  627MPD2     C 9335   3.729   4.281  14.509  0.2057  0.1963  0.4537
  627MPD2    C1 9336   3.782   4.191  14.596 -0.3485 -0.5228  0.3848
  627MPD2    C2 9337   3.750   4.062  14.588  0.7367 -0.0250 -0.5984
  627MPD2    C3 9338   3.667   4.014  14.486  0.0183 -0.1557 -0.2730
  627MPD2    C4 9339   3.627   4.110  14.391  0.4131 -0.3960 -0.2583
  627MPD2    C5 9340   3.661   4.242  14.398  0.0046  0.0462  0.1934
  627MPD2     H 9341   3.792   3.990  14.658 -0.2712  1.0139  1.0804
  627MPD2    H1 9342   3.560   4.087  14.309  0.9594  1.8620 -1.3337
  627MPD2    H2 9343   3.742   4.388  14.523  3.3775 -0.1316 -0.0273
  627MPD2    H3 9344   3.608   4.305  14.329  0.6790  2.7192  2.1334
  627MPD2     N 9345   3.627   3.878  14.488  0.1550 -0.2838  0.5334
  627MPD2    H5 9346   3.665   3.823  14.564 -0.5362 -1.4822 -0.0022
  627MPD2    N1 9347   3.882   4.226  14.698  0.0934 -0.4334 -0.7496
  627MPD2    H7 9348   3.912   4.150  14.759 -3.8245  0.3876  2.2004
  628TMC3    C1 9349   4.044   4.347  14.811 -0.0703  0.4699  0.3049
  628TMC3    C2 9350   4.028   4.268  14.923 -0.3175  0.2043  0.1108
  628TMC3    C3 9351   4.107   4.295  15.030  0.0743 -0.0941  0.4081
  628TMC3    C4 9352   4.125   4.461  14.813  0.5977  0.0986  0.0418
  628TMC3    C5 9353   4.205   4.482  14.925  0.6172 -0.3210  0.2961
  628TMC3    C6 9354   4.202   4.393  15.032 -0.4355 -0.0326 -0.3831
  628TMC3     C 9355   3.951   4.343  14.702 -0.4052  0.7917  0.1121
  628TMC3     O 9356   3.942   4.433  14.623  0.2139 -0.2684  0.0214
  628TMC3     H 9357   3.958   4.185  14.918  1.1692 -0.8713 -2.8901
  628TMC3    H1 9358   4.145   4.515  14.721 -1.7294  0.8330 -0.0380
  628TMC3    H2 9359   4.247   4.426  15.125 -1.5683  1.2326 -0.2910
  628TMC3    C7 9360   4.235   4.626  14.956 -1.0924  0.5819 -0.5832
  628TMC3    C8 9361   4.084   4.213  15.146  0.7484  0.6710  0.4125
  628TMC3    O1 9362   4.267   4.647  15.070 -0.2216  0.8694 -0.0502
  628TMC3    O2 9363   3.981   4.144  15.132  0.0536 -0.3533 -0.1995
  629MPD2     C 9364   1.871   2.610  16.350  0.7398 -0.0027 -0.0063
  629MPD2    C1 9365   1.960   2.631  16.454  0.2460 -0.1155  0.4049
  629MPD2    C2 9366   1.926   2.697  16.568 -0.6259 -0.4288  0.4279
  629MPD2    C3 9367   1.804   2.765  16.571 -0.1366 -0.0028 -0.1666
  629MPD2    C4 9368   1.713   2.744  16.472 -1.0785  0.3332 -0.4715
  629MPD2    C5 9369   1.752   2.672  16.363 -0.4438  0.6512 -0.3788
  629MPD2     H 9370   2.001   2.723  16.642  1.6408  0.4956 -2.1914
  629MPD2    H1 9371   1.611   2.781  16.479 -0.9200  0.2452  2.3949
  629MPD2    H2 9372   1.896   2.552  16.262  1.5171  1.2636 -0.6284
  629MPD2    H3 9373   1.673   2.665  16.289  0.4062  0.2985 -1.2441
  629MPD2     N 9374   1.771   2.841  16.684 -0.2766 -0.3636  0.0277
  629MPD2    H5 9375   1.839   2.834  16.759  0.9863 -1.0749 -1.1878
  629MPD2    N1 9376   2.087   2.584  16.439  0.5325 -0.5985  0.2892
  629MPD2    H7 9377   2.112   2.547  16.348 -0.6191  1.3979 -0.8278
  630TMC3    C1 9378   2.321   2.559  16.481  0.1039 -0.4509  0.5283
  630TMC3    C2 9379   2.363   2.644  16.388  0.0428  0.1024 -0.2690
  630TMC3    C3 9380   2.496   2.652  16.365  0.4330  0.0755 -0.2233
  630TMC3    C4 9381   2.402   2.473  16.544 -0.2876 -0.2226  0.0545
  630TMC3    C5 9382   2.536   2.489  16.519 -0.2696  0.9042 -0.0851
  630TMC3    C6 9383   2.586   2.575  16.432  0.2372  0.3179 -0.0156
  630TMC3     C 9384   2.188   2.568  16.534 -0.2830  0.3555  0.3867
  630TMC3     O 9385   2.176   2.562  16.656 -0.2091  0.1885  0.1976
  630TMC3     H 9386   2.285   2.712  16.354 -1.4544 -2.4064 -1.8946
  630TMC3    H1 9387   2.367   2.417  16.630  1.7923 -2.1227 -0.3471
  630TMC3    H2 9388   2.689   2.573  16.398  0.2571 -3.6498  0.2841
  630TMC3    C7 9389   2.634   2.426  16.621  0.1070 -0.6263 -0.7949
  630TMC3    C8 9390   2.545   2.748  16.263  0.4554  0.8238  0.2862
  630TMC3    O1 9391   2.577   2.375  16.716  0.3034  0.1680 -0.0630
  630TMC3    O2 9392   2.645   2.815  16.288 -0.1467  0.1032 -0.1061
  631MPD2     C 9393   1.035   3.483  15.681 -0.0805 -0.2107 -0.2043
  631MPD2    C1 9394   0.903   3.486  15.723  0.0658 -0.6257 -0.0891
  631MPD2    C2 9395   0.884   3.524  15.859 -0.0968  0.4400 -0.7364
  631MPD2    C3 9396   0.988   3.563  15.945 -0.5379  0.2072 -0.3146
  631MPD2    C4 9397   1.115   3.553  15.900 -0.0892  0.0364 -0.4193
  631MPD2    C5 9398   1.138   3.508  15.771  0.4422  0.1915 -0.2504
  631MPD2     H 9399   0.783   3.536  15.897 -0.3453  0.0081 -1.2584
  631MPD2    H1 9400   1.201   3.584  15.960 -0.9302 -0.1732  0.8947
  631MPD2    H2 9401   1.059   3.468  15.576 -3.0420  2.1170 -1.2077
  631MPD2    H3 9402   1.240   3.504  15.734  0.5335  0.0321  0.0204
  631MPD2     N 9403   0.949   3.594  16.078  0.9166 -0.4536  0.4170
  631MPD2    H5 9404   0.848   3.595  16.092  0.7984  0.0172 -0.4721
  631MPD2    N1 9405   0.801   3.470  15.631 -0.0868 -0.1125  0.1587
  631MPD2    H7 9406   0.830   3.445  15.537 -1.3346  0.5278 -0.3963
  632TMC3    C1 9407   0.582   3.406  15.555  0.3695 -0.1485 -0.1465
  632TMC3    C2 9408   0.471   3.332  15.592 -0.0544  0.0865  0.5302
  632TMC3    C3 9409   0.409   3.260  15.495 -0.0419 -0.4836  0.5389
  632TMC3    C4 9410   0.630   3.410  15.425 -0.2205 -0.0456  0.7908
  632TMC3    C5 9411   0.559   3.346  15.329 -0.2953  0.2777 -0.0885
  632TMC3    C6 9412   0.450   3.272  15.361  0.5620  0.1202 -1.0955
  632TMC3     C 9413   0.669   3.466  15.657 -0.3795 -0.4045  0.4826
  632TMC3     O 9414   0.606   3.510  15.752  0.3826 -0.0689  0.4457
  632TMC3     H 9415   0.457   3.321  15.699 -1.7027  1.5131  0.4576
  632TMC3    H1 9416   0.723   3.465  15.410 -1.2249  1.5587  0.4451
  632TMC3    H2 9417   0.383   3.246  15.280 -1.3488  1.3763  0.0811
  632TMC3    C7 9418   0.613   3.343  15.198  0.9211  1.2019  0.1663
  632TMC3    C8 9419   0.266   3.248  15.519  0.3287  0.6201  0.2869
  632TMC3    O1 9420   0.585   3.249  15.117  0.2314 -0.6715 -0.0016
  632TMC3    O2 9421   0.222   3.323  15.607 -0.6317 -0.2720 -0.1180
  633MPD2     C 9422   4.556   0.417  17.131 -0.0160 -0.1057 -0.1449
  633MPD2    C1 9423   4.576   0.400  16.993  1.4247 -0.8267  0.3825
  633MPD2    C2 9424   4.632   0.280  16.952 -0.5202 -0.2575 -0.6361
  633MPD2    C3 9425   4.656   0.182  17.047 -0.2239 -0.1034 -0.3836
  633MPD2    C4 9426   4.636   0.205  17.179 -0.0239 -0.6429  0.2611
  633MPD2    C5 9427   4.580   0.321  17.221  0.1609 -0.4497 -0.1184
  633MPD2     H 9428   4.651   0.266  16.846  0.2491 -1.9427 -0.2812
  633MPD2    H1 9429   4.650   0.131  17.257  1.0343 -1.9210 -1.1446
  633MPD2    H2 9430   4.515   0.511  17.166  0.2541 -0.3009  0.6961
  633MPD2    H3 9431   4.564   0.351  17.324 -3.0965 -0.7403 -0.5402
  633MPD2     N 9432   0.008   0.078  16.996 -0.5861  0.5324  0.4365
  633MPD2    H5 9433   0.013   0.077  16.895  2.6059  0.6519  0.5939
  633MPD2    N1 9434   4.557   0.497  16.894  0.0451 -0.2140 -0.0847
  633MPD2    H7 9435   4.573   0.476  16.796 -2.3946  2.1836 -0.9905
  634TMC3    C1 9436   4.512   0.714  16.811  0.4770  0.7327 -0.3749
  634TMC3    C2 9437   4.482   0.659  16.693  0.0356  0.6791 -0.0535
  634TMC3    C3 9438   4.460   0.741  16.587 -0.4690 -0.2569 -0.1949
  634TMC3    C4 9439   4.532   0.847  16.832 -0.4761 -0.3634  1.1373
  634TMC3    C5 9440   4.520   0.923  16.722  0.0302 -0.4618  0.4986
  634TMC3    C6 9441   4.477   0.877  16.599  0.0537 -0.3168  0.1286
  634TMC3     C 9442   4.531   0.627  16.926 -0.4926  0.3204  0.1742
  634TMC3     O 9443   4.530   0.682  17.035 -0.8041 -0.2104  0.1872
  634TMC3     H 9444   4.454   0.555  16.683  1.1170  0.2763  1.1349
  634TMC3    H1 9445   4.557   0.895  16.926  2.0469  1.1264 -0.2770
  634TMC3    H2 9446   4.470   0.949  16.519  0.8433  0.5186  0.8037
  634TMC3    C7 9447   4.580   1.051  16.724  0.6368  0.0134 -0.6516
  634TMC3    C8 9448   4.477   0.689  16.454  0.2219 -0.4081  0.6294
  634TMC3    O1 9449   4.657   1.067  16.631  0.1195  0.9620 -0.7646
  634TMC3    O2 9450   4.521   0.571  16.445  0.0103  0.1998 -0.0565
  635TMC3    C1 9451   1.696   2.108  17.442 -0.3907 -0.8206  0.7362
  635TMC3    C2 9452   1.599   2.017  17.423 -0.5460 -0.1806 -0.3157
  635TMC3    C3 9453   1.591   1.971  17.297 -0.4744  0.2282  0.4979
  635TMC3    C4 9454   1.792   2.136  17.356 -0.1429 -0.1124  0.3883
  635TMC3    C5 9455   1.786   2.075  17.234  0.0833  0.4883  0.5492
  635TMC3    C6 9456   1.683   1.995  17.199  0.6138 -0.5922  1.5632
  635TMC3     C 9457   1.678   2.204  17.547  0.1106  1.2451 -0.6178
  635TMC3     O 9458   1.769   2.278  17.569  0.0346 -0.2174 -0.3599
  635TMC3     H 9459   1.528   1.980  17.496 -1.1429 -0.5949 -1.1086
  635TMC3    H1 9460   1.860   2.218  17.374 -1.6673  1.2046  0.1169
  635TMC3    H2 9461   1.677   1.942  17.105 -2.5786  0.8220  0.9556
  635TMC3    C7 9462   1.869   2.116  17.124  0.2974 -0.0148  0.3014
  635TMC3    C8 9463   1.487   1.879  17.274  0.1904 -0.6339 -0.2073
  635TMC3    O1 9464   1.832   2.078  17.010 -0.1970 -0.0944 -0.0785
  635TMC3    O2 9465   1.446   1.815  17.369 -0.3288 -0.0385 -0.5187
  636MPD2     C 9466   1.331   1.473  15.812  0.4417  0.3907 -0.3934
  636MPD2    C1 9467   1.314   1.475  15.943 -0.1775  0.5591 -0.0724
  636MPD2    C2 9468   1.374   1.373  16.020 -0.0609 -0.9374  0.0656
  636MPD2    C3 9469   1.443   1.268  15.950  0.0140 -0.7768 -0.6701
  636MPD2    C4 9470   1.452   1.270  15.813 -0.7428 -0.7319  0.1575
  636MPD2    C5 9471   1.397   1.372  15.750 -0.2664  0.6723  0.6984
  636MPD2     H 9472   1.359   1.372  16.127  3.5981  0.9256  0.5760
  636MPD2    H1 9473   1.503   1.193  15.757 -0.0493  1.3400 -2.0409
  636MPD2    H2 9474   1.293   1.548  15.744  3.4545  2.2944  0.0481
  636MPD2    H3 9475   1.413   1.374  15.642  0.0926  0.9113  0.7555
  636MPD2     N 9476   1.489   1.153  16.028 -0.0004 -0.1987 -0.1012
  636MPD2    H5 9477   1.452   1.147  16.123 -1.6911 -0.5469 -0.7824
  636MPD2    N1 9478   1.258   1.583  16.015  0.1978 -0.8773 -0.0398
  636MPD2    H7 9479   1.246   1.567  16.115  1.7844  3.2618  0.8171
  637TMC3    C1 9480   1.542   0.929  16.053  0.1532  0.4456  0.7587
  637TMC3    C2 9481   1.486   0.934  16.180  0.5363 -0.0009  0.3678
  637TMC3    C3 9482   1.497   0.822  16.255  0.4128 -0.3922  0.1818
  637TMC3    C4 9483   1.598   0.813  16.008  0.2479 -0.1071  0.4571
  637TMC3    C5 9484   1.605   0.704  16.088  0.2376  0.1268  0.3641
  637TMC3    C6 9485   1.553   0.704  16.213 -0.8824  0.3070 -0.6027
  637TMC3     C 9486   1.546   1.045  15.968  0.0664  0.4414 -0.0542
  637TMC3     O 9487   1.631   1.039  15.883 -0.7160 -0.1738 -0.0830
  637TMC3     H 9488   1.424   1.014  16.220 -1.2756 -0.4006 -1.5910
  637TMC3    H1 9489   1.645   0.813  15.911 -0.9896  1.7049 -0.1429
  637TMC3    H2 9490   1.592   0.631  16.283 -0.7532 -0.1811 -1.1743
  637TMC3    C7 9491   1.631   0.579  16.020 -0.5217  0.0827  0.3676
  637TMC3    C8 9492   1.534   0.867  16.392 -0.9058  0.3662  0.2332
  637TMC3    O1 9493   1.595   0.574  15.903  0.0252  0.6127 -0.5740
  637TMC3    O2 9494   1.580   0.978  16.402  0.4054 -0.4037  0.4238
  638MPD2     C 9495   1.635   0.132  14.951  0.5526 -0.7483  0.2401
  638MPD2    C1 9496   1.534   0.075  14.874 -0.0576  0.6765 -0.0899
  638MPD2    C2 9497   1.413   0.045  14.937 -0.3236  0.5174 -0.2317
  638MPD2    C3 9498   1.394   0.080  15.069  0.7387 -0.3493  0.6966
  638MPD2    C4 9499   1.498   0.143  15.135 -0.2585  0.2348  0.3290
  638MPD2    C5 9500   1.619   0.170  15.080  0.4055  0.1147 -0.3566
  638MPD2     H 9501   1.337   4.718  14.890 -0.6451 -0.1301  1.1557
  638MPD2    H1 9502   1.483   0.175  15.237 -2.0683  3.1271 -0.8497
  638MPD2    H2 9503   1.729   0.148  14.901  0.3521 -0.4326 -0.0359
  638MPD2    H3 9504   1.700   0.207  15.142  0.3973  2.3993 -1.7154
  638MPD2     N 9505   1.282   0.034  15.134  0.2581  0.3516 -0.4606
  638MPD2    H5 9506   1.212   4.731  15.071 -0.3149  0.3955  0.1388
  638MPD2    N1 9507   1.568   0.036  14.744  0.0128  0.5404  0.1725
  638MPD2    H7 9508   1.654   0.080  14.715 -0.4776  0.6344 -1.1088
  639TMC3    C1 9509   1.131   4.703  15.291 -0.1467 -0.8126 -0.2784
  639TMC3    C2 9510   1.025   4.727  15.207 -0.0042 -0.2137  0.1603
  639TMC3    C3 9511   0.921   4.637  15.218  0.5005  0.2717  0.3349
  639TMC3    C4 9512   1.150   4.596  15.373  0.0623 -0.7706  0.5599
  639TMC3    C5 9513   1.045   4.515  15.383 -0.4983 -0.0976 -0.2416
  639TMC3    C6 9514   0.933   4.524  15.298  0.0262  0.6873  0.1173
  639TMC3     C 9515   1.250   0.051  15.264  0.9071  0.5396 -0.0559
  639TMC3     O 9516   1.314   0.077  15.365  0.1945  0.1455 -0.0392
  639TMC3     H 9517   1.019   0.075  15.137 -0.1373 -1.5495 -1.3974
  639TMC3    H1 9518   1.239   4.602  15.434 -0.8092 -2.0394  1.9701
  639TMC3    H2 9519   0.842   4.465  15.302  1.3602 -1.3860  0.3034
  639TMC3    C7 9520   1.070   4.372  15.412 -0.2076  0.7213  0.2747
  639TMC3    C8 9521   0.823   4.635  15.107 -0.1323  0.1324  0.0664
  639TMC3    O1 9522   0.970   4.300  15.427 -0.3821 -0.2897 -0.2267
  639TMC3    O2 9523   0.791   0.010  15.057 -0.1151 -1.0189 -0.3543
  640MPD2     C 9524   2.039   3.712  10.027  0.3672  0.6754  0.2454
  640MPD2    C1 9525   1.934   3.696   9.936 -0.4511 -0.4061 -0.6644
  640MPD2    C2 9526   1.830   3.786   9.941 -0.1577  1.1194 -0.2992
  640MPD2    C3 9527   1.812   3.877  10.036  0.1092 -0.5214 -0.7403
  640MPD2    C4 9528   1.916   3.895  10.114  0.2678  0.1465 -0.2957
  640MPD2    C5 9529   2.027   3.816  10.119  0.3620 -0.8497 -0.1046
  640MPD2     H 9530   1.757   3.781   9.861 -0.1590 -1.2535 -0.1577
  640MPD2    H1 9531   1.915   3.970  10.192  1.1800  1.4148 -1.5110
  640MPD2    H2 9532   2.138   3.666  10.022 -0.7812 -1.6787 -0.9316
  640MPD2    H3 9533   2.103   3.841  10.192  1.8235 -3.1702 -0.8081
  640MPD2     N 9534   1.696   3.959  10.056  0.1558 -0.2895  0.2147
  640MPD2    H5 9535   1.711   4.037  10.120  0.7210 -1.4924  1.5435
  640MPD2    N1 9536   1.940   3.595   9.840  0.1950  0.4705  1.0546
  640MPD2    H7 9537   2.018   3.532   9.850 -0.0140  0.1176  0.4639
  641TMC3    C1 9538   1.845   3.432   9.696 -0.0793 -0.7476 -0.3759
  641TMC3    C2 9539   1.966   3.380   9.657 -0.1705 -0.1063 -0.1153
  641TMC3    C3 9540   1.976   3.253   9.611  0.0625  0.2243 -0.2056
  641TMC3    C4 9541   1.732   3.364   9.690 -0.2449 -0.1696 -0.3546
  641TMC3    C5 9542   1.740   3.240   9.634 -0.6318  0.3434 -0.9787
  641TMC3    C6 9543   1.858   3.182   9.605 -0.5616 -0.2272 -0.1773
  641TMC3     C 9544   1.843   3.568   9.747 -1.1509  1.0374 -0.7055
  641TMC3     O 9545   1.742   3.627   9.706  0.5911  0.0724 -0.2652
  641TMC3     H 9546   2.050   3.449   9.661  0.4122 -0.9564  1.9384
  641TMC3    H1 9547   1.634   3.401   9.718 -0.5892  0.5478 -2.5365
  641TMC3    H2 9548   1.869   3.074   9.594 -0.6763 -0.4213  1.5991
  641TMC3    C7 9549   1.621   3.155   9.636 -0.0236 -0.4316  0.9355
  641TMC3    C8 9550   2.101   3.188   9.604 -0.2176 -0.4717  0.7706
  641TMC3    O1 9551   1.538   3.193   9.717  0.7580  0.0424 -0.5241
  641TMC3    O2 9552   2.096   3.076   9.554  0.4852  0.0726  0.3977
  642TMC3    C1 9553   3.104   3.807  12.504 -0.0831  0.6232  0.5367
  642TMC3    C2 9554   3.093   3.748  12.628 -0.2474 -0.3374  0.4643
  642TMC3    C3 9555   3.079   3.610  12.633 -0.0471  0.1976 -0.3047
  642TMC3    C4 9556   3.125   3.725  12.397 -0.0326  0.3673  0.0813
  642TMC3    C5 9557   3.121   3.591  12.408 -0.1246  0.5108  0.7513
  642TMC3    C6 9558   3.089   3.531  12.521  0.2832  0.4350  0.1303
  642TMC3     C 9559   3.095   3.952  12.490  0.7253 -0.2103  0.4742
  642TMC3     O 9560   3.129   3.992  12.378 -0.2011  0.2864 -0.0738
  642TMC3     H 9561   3.083   3.816  12.712 -1.4552 -0.5025  0.4594
  642TMC3    H1 9562   3.149   3.774  12.303  1.3741 -2.0299 -0.8203
  642TMC3    H2 9563   3.069   3.424  12.522  1.3232  0.2508  0.8946
  642TMC3    C7 9564   3.118   3.522  12.282 -0.0740  0.4552  0.3963
  642TMC3    C8 9565   3.042   3.545  12.753 -0.1862 -0.6148  0.1860
  642TMC3    O1 9566   3.113   3.589  12.185 -0.0990 -0.6720  0.2725
  642TMC3    O2 9567   3.048   3.424  12.745  0.0752  0.8646  0.0986
  643TMC3    C1 9568   1.735   3.835   0.426  0.3714 -0.1224 -0.1123
  643TMC3    C2 9569   1.619   3.851   0.359 -0.2010  0.0217  0.2010
  643TMC3    C3 9570   1.585   3.777   0.253 -0.5530 -0.6525 -0.1351
  643TMC3    C4 9571   1.831   3.740   0.390 -0.2580  0.8897  0.1569
  643TMC3    C5 9572   1.796   3.671   0.276  0.2732  0.1213  0.8934
  643TMC3    C6 9573   1.669   3.672   0.218 -0.0880 -0.5207 -0.2148
  643TMC3     C 9574   1.771   3.942   0.511  0.1037 -0.1889 -0.3076
  643TMC3     O 9575   1.724   4.055   0.492 -0.3618  0.6535 -0.0533
  643TMC3     H 9576   1.568   3.938   0.400  2.1132  1.3124  0.3627
  643TMC3    H1 9577   1.931   3.740   0.430 -0.0806 -2.7456 -0.3440
  643TMC3    H2 9578   1.649   3.622   0.124 -0.8986 -1.0339  0.2328
  643TMC3    C7 9579   1.896   3.698   0.172 -0.8872 -0.1111 -0.3823
  643TMC3    C8 9580   1.557   3.860   0.138 -0.3342 -0.0153  0.0061
  643TMC3    O1 9581   1.973   3.786   0.207  0.1573  0.7498  0.0518
  643TMC3    O2 9582   1.542   3.802   0.031  0.1667 -0.3441 -0.0202
  644MPD2     C 9583   2.235   3.888   9.773  0.1949  1.0355  0.1486
  644MPD2    C1 9584   2.190   3.820   9.662  0.5947  0.2976  0.3862
  644MPD2    C2 9585   2.056   3.834   9.631 -0.6487 -0.1271  0.4982
  644MPD2    C3 9586   1.974   3.936   9.683  0.5325  0.2809 -0.2606
  644MPD2    C4 9587   2.032   4.016   9.787 -0.9945 -0.0172 -0.1412
  644MPD2    C5 9588   2.154   3.980   9.836  0.1519 -0.3582 -0.2454
  644MPD2     H 9589   2.001   3.774   9.560 -1.1250  2.0841 -0.9971
  644MPD2    H1 9590   1.975   4.093   9.839  0.2436 -1.0299  2.7416
  644MPD2    H2 9591   2.333   3.862   9.812 -0.0502  2.0666  1.4323
  644MPD2    H3 9592   2.182   4.022   9.933 -0.1899 -0.8949  0.0826
  644MPD2     N 9593   1.840   3.948   9.642 -0.0617 -0.4447  0.1717
  644MPD2    H5 9594   1.813   3.876   9.576  0.7399 -0.3421 -0.2636
  644MPD2    N1 9595   2.277   3.732   9.598 -0.8221  0.5494 -0.2237
  644MPD2    H7 9596   2.377   3.748   9.603 -1.0939  1.3619  2.2673
  645TMC3    C1 9597   1.609   4.022   9.650 -0.0378 -0.1312  0.2838
  645TMC3    C2 9598   1.519   4.124   9.652  0.2974  0.4709 -0.0848
  645TMC3    C3 9599   1.399   4.105   9.594 -0.0105 -0.5804  0.1000
  645TMC3    C4 9600   1.569   3.902   9.597 -0.4823 -0.1569 -0.8593
  645TMC3    C5 9601   1.448   3.893   9.536 -0.1911  0.4777 -0.0860
  645TMC3    C6 9602   1.360   3.993   9.534  0.3957 -0.2192 -0.0596
  645TMC3     C 9603   1.749   4.040   9.692 -0.9658  0.3712 -0.2811
  645TMC3     O 9604   1.769   4.138   9.759 -0.1798 -0.2407  0.2383
  645TMC3     H 9605   1.544   4.224   9.686  2.5615 -0.4101  0.8390
  645TMC3    H1 9606   1.630   3.812   9.596  1.4738  1.1559  0.1394
  645TMC3    H2 9607   1.265   3.980   9.483  0.0026  2.4648 -0.0080
  645TMC3    C7 9608   1.409   3.777   9.470 -0.4020 -0.1350 -0.0154
  645TMC3    C8 9609   1.341   4.219   9.525 -0.1373  0.1273  0.0477
  645TMC3    O1 9610   1.289   3.756   9.451  0.3319  0.3901 -0.3137
  645TMC3    O2 9611   1.328   4.198   9.404  0.5548  0.0839 -0.1803
  646MPD2     C 9612   1.534   3.694  14.488 -0.0261 -0.5669 -0.3890
  646MPD2    C1 9613   1.453   3.597  14.552  0.6244  0.2721 -0.3656
  646MPD2    C2 9614   1.322   3.632  14.582  0.5653 -0.2295  0.2399
  646MPD2    C3 9615   1.268   3.761  14.556 -0.3993  0.8594 -0.5414
  646MPD2    C4 9616   1.366   3.855  14.511  0.3694 -0.0106  0.2627
  646MPD2    C5 9617   1.494   3.820  14.487 -0.2420 -0.2351 -0.5147
  646MPD2     H 9618   1.248   3.555  14.603  0.2322 -0.4571 -1.8433
  646MPD2    H1 9619   1.340   3.958  14.486  0.1694  0.3764  2.0450
  646MPD2    H2 9620   1.635   3.662  14.465  0.4434  1.7610 -1.5925
  646MPD2    H3 9621   1.562   3.887  14.436 -2.0939  2.4948  0.5960
  646MPD2     N 9622   1.130   3.776  14.569 -0.2842  0.0959 -0.2373
  646MPD2    H5 9623   1.085   3.690  14.598  0.0304 -0.3883 -1.1729
  646MPD2    N1 9624   1.512   3.478  14.594 -0.4829  0.1765 -0.1233
  646MPD2    H7 9625   1.601   3.461  14.549  0.0231  1.8283  0.2578
  647TMC3    C1 9626   1.530   3.279  14.738  0.1868 -0.1776 -0.1163
  647TMC3    C2 9627   1.463   3.214  14.840  0.4232 -0.1860  0.6911
  647TMC3    C3 9628   1.538   3.142  14.929 -0.2773 -0.0187  0.3630
  647TMC3    C4 9629   1.667   3.266  14.722 -0.4821  0.6509 -0.2760
  647TMC3    C5 9630   1.731   3.187  14.805  0.2574  0.1056  0.6199
  647TMC3    C6 9631   1.669   3.116  14.907 -0.2714 -0.7241 -0.2493
  647TMC3     C 9632   1.457   3.404  14.695  0.1121 -1.1088  0.0271
  647TMC3     O 9633   1.360   3.429  14.759  0.3712 -0.0147  0.1179
  647TMC3     H 9634   1.362   3.237  14.871 -0.7930 -2.4150 -1.6704
  647TMC3    H1 9635   1.720   3.315  14.641  0.6211 -0.3585 -0.1544
  647TMC3    H2 9636   1.729   3.045  14.963 -1.0131 -0.8351  0.3960
  647TMC3    C7 9637   1.871   3.152  14.796  0.3131  0.2244  0.1385
  647TMC3    C8 9638   1.480   3.056  15.030 -0.2222 -0.5040 -0.2627
  647TMC3    O1 9639   1.930   3.125  14.899 -0.0837  0.1956  0.4101
  647TMC3    O2 9640   1.560   2.997  15.102  0.3636  0.0172  0.3338
  648TMC3    C1 9641   0.499   0.751  16.109 -0.3677  0.8502 -0.2748
  648TMC3    C2 9642   0.616   0.689  16.137  0.0510 -0.0447  0.0117
  648TMC3    C3 9643   0.726   0.718  16.067 -0.7370 -0.6778 -0.0759
  648TMC3    C4 9644   0.498   0.860  16.030 -0.1892 -0.1687 -0.5050
  648TMC3    C5 9645   0.614   0.904  15.972  0.1177  0.6309  0.0183
  648TMC3    C6 9646   0.737   0.830  15.987  0.2379 -0.5094 -0.4310
  648TMC3     C 9647   0.386   0.735  16.196  0.0259  0.0124  0.0190
  648TMC3     O 9648   0.279   0.729  16.140  0.4444 -0.0319  0.0178
  648TMC3     H 9649   0.615   0.591  16.183 -1.1526  0.5926  1.3305
  648TMC3    H1 9650   0.408   0.920  16.021 -0.2040 -0.3974 -1.8743
  648TMC3    H2 9651   0.831   0.867  15.947  0.2628 -0.0064  0.1086
  648TMC3    C7 9652   0.625   1.043  15.928 -0.5431 -0.3380  0.1330
  648TMC3    C8 9653   0.844   0.649  16.108  0.8040  0.8351  0.7474
  648TMC3    O1 9654   0.720   1.062  15.847 -0.0020 -0.4217  0.2658
  648TMC3    O2 9655   0.849   0.624  16.228 -0.4045 -0.5268 -0.8228
  649TMC3    C1 9656   4.708   2.117  12.578 -0.4129  0.0341 -0.1043
  649TMC3    C2 9657   0.095   2.135  12.531  0.2498  0.0058 -0.6396
  649TMC3    C3 9658   0.200   2.094  12.604  0.2689 -0.9262  0.3772
  649TMC3    C4 9659   4.683   2.057  12.694 -0.2400  0.4469  0.0689
  649TMC3    C5 9660   0.059   1.997  12.761 -0.1815  1.0775  0.3470
  649TMC3    C6 9661   0.189   2.031  12.724 -0.3549  0.6286 -0.5716
  649TMC3     C 9662   4.598   2.161  12.493  0.0997 -0.1569 -0.1500
  649TMC3     O 9663   4.489   2.180  12.549 -0.2019 -0.3522 -0.2426
  649TMC3     H 9664   0.121   2.182  12.437 -1.1110 -1.1332 -1.5870
  649TMC3    H1 9665   4.584   2.065  12.738  0.5762  2.1365  1.5950
  649TMC3    H2 9666   0.281   2.012  12.778 -0.6779  1.7430  0.3694
  649TMC3    C7 9667   0.030   1.947  12.892  0.7553 -0.8586  1.6536
  649TMC3    C8 9668   0.337   2.123  12.557 -0.1292  0.5413 -0.1628
  649TMC3    O1 9669   4.655   1.970  12.945 -0.5326 -0.4744  0.8106
  649TMC3    O2 9670   0.421   2.049  12.602 -0.2757 -0.1061  0.2939
  650TMC3    C1 9671   2.599   3.415  13.068  1.0752  0.4663  0.9786
  650TMC3    C2 9672   2.528   3.520  13.116 -1.2586 -0.1220  0.0793
  650TMC3    C3 9673   2.464   3.597  13.031 -0.7408 -0.0396 -0.6430
  650TMC3    C4 9674   2.624   3.394  12.934 -0.4621 -0.9046 -0.4998
  650TMC3    C5 9675   2.584   3.498  12.850 -0.3136 -0.2418 -0.0884
  650TMC3    C6 9676   2.501   3.593  12.901 -0.4552  0.0594 -0.5051
  650TMC3     C 9677   2.646   3.318  13.160 -0.0180  0.8271 -0.5957
  650TMC3     O 9678   2.626   3.337  13.277  0.1136 -0.1808  0.4004
  650TMC3     H 9679   2.524   3.552  13.219 -1.7570  0.2703 -0.0611
  650TMC3    H1 9680   2.686   3.316  12.891  1.0973 -0.8756  1.7348
  650TMC3    H2 9681   2.465   3.678  12.845 -1.6099 -1.6855 -2.4304
  650TMC3    C7 9682   2.618   3.487  12.706  0.8247 -0.6610  0.7949
  650TMC3    C8 9683   2.441   3.739  13.063 -0.1807  0.6005  0.3049
  650TMC3    O1 9684   2.644   3.377  12.657  0.1134 -0.6719 -0.2925
  650TMC3    O2 9685   2.536   3.813  13.062  0.0446 -0.4159 -0.0966
  651MPD2     C 9686   1.716   0.875  11.066 -0.2289  1.1897  0.2976
  651MPD2    C1 9687   1.656   0.991  11.020  0.6628  0.1065 -0.0915
  651MPD2    C2 9688   1.733   1.105  11.001  0.0821  0.5515 -0.4029
  651MPD2    C3 9689   1.858   1.111  11.056 -0.8151  0.4390 -0.3569
  651MPD2    C4 9690   1.913   0.993  11.115 -0.0852  0.3671 -0.6043
  651MPD2    C5 9691   1.847   0.873  11.112  0.2739  0.1422  0.7031
  651MPD2     H 9692   1.679   1.189  10.958  2.0818  1.8959 -0.2619
  651MPD2    H1 9693   2.017   0.993  11.144 -1.0771  1.0997  2.9308
  651MPD2    H2 9694   1.665   0.780  11.069 -0.1849  1.2007  1.2502
  651MPD2    H3 9695   1.894   0.778  11.138 -0.5367 -0.0973  1.2940
  651MPD2     N 9696   1.929   1.233  11.051  0.1991  0.1785  0.8595
  651MPD2    H5 9697   1.892   1.305  10.989  0.6187  0.3270  0.7773
  651MPD2    N1 9698   1.521   1.002  10.975  0.0632 -0.4322 -0.0584
  651MPD2    H7 9699   1.482   1.090  10.942 -0.2619 -0.0070  1.4335
  652TMC3    C1 9700   2.314   1.449  10.944  0.1002  0.1567 -0.4226
  652TMC3    C2 9701   2.252   1.372  11.029  0.5083 -0.0728  0.1398
  652TMC3    C3 9702   2.120   1.379  11.056  0.0956  0.3899  0.3205
  652TMC3    C4 9703   2.245   1.555  10.890  0.0587  0.3631  0.4170
  652TMC3    C5 9704   2.111   1.567  10.919 -0.3705  0.2615 -0.1651
  652TMC3    C6 9705   2.046   1.483  11.005  0.0841  0.3550 -0.2628
  652TMC3     C 9706   2.462   1.436  10.931 -0.1167  0.5794 -0.0554
  652TMC3     O 9707   2.510   1.361  11.017  0.1135 -0.3956  0.0055
  652TMC3     H 9708   2.301   1.288  11.076 -0.7689 -1.9690 -1.9250
  652TMC3    H1 9709   2.285   1.620  10.812 -1.0410  0.0858 -0.3699
  652TMC3    H2 9710   1.938   1.488  11.002  0.1217  0.3724 -1.3807
  652TMC3    C7 9711   2.067   1.706  10.900  0.5255 -0.1295  0.3438
  652TMC3    C8 9712   2.057   1.258  11.101 -0.4368  0.4917  0.4905
  652TMC3    O1 9713   2.147   1.789  10.857  0.0864  0.1228 -0.7866
  652TMC3    O2 9714   2.123   1.180  11.165  0.6120  0.2674  0.0125
  653MPD2     C 9715   4.287   1.103  17.486 -0.0441 -0.2024 -0.1360
  653MPD2    C1 9716   4.233   1.230  17.442 -0.3110 -0.8000  0.1439
  653MPD2    C2 9717   4.206   1.249  17.305 -1.0316  0.0799  0.1435
  653MPD2    C3 9718   4.236   1.149  17.213  0.0311 -0.6203  0.4894
  653MPD2    C4 9719   4.295   1.027  17.256  0.6219  0.4985  0.6301
  653MPD2    C5 9720   4.321   1.010  17.390 -0.6474  0.9983  0.1771
  653MPD2     H 9721   4.166   1.347  17.281  1.1432  1.1955  1.1194
  653MPD2    H1 9722   4.327   0.953  17.185  0.4056  1.7806 -0.8065
  653MPD2    H2 9723   4.298   1.076  17.590  1.4838 -1.0004 -0.5168
  653MPD2    H3 9724   4.376   0.923  17.425 -0.9080  0.8587  0.2353
  653MPD2     N 9725   4.192   1.163  17.076 -0.5104  0.1547  0.0894
  653MPD2    H5 9726   4.132   1.246  17.071  0.1862  0.7871  2.1833
  653MPD2    N1 9727   4.223   1.339  17.531 -0.7132 -0.1444  0.2137
  653MPD2    H7 9728   4.202   1.430  17.491 -0.2115 -0.4193 -0.6759
  654TMC3    C1 9729   4.144   1.128  16.852  0.6179  0.0344  0.1176
  654TMC3    C2 9730   4.015   1.166  16.870 -0.1031 -0.1530  0.3470
  654TMC3    C3 9731   3.932   1.148  16.767  0.0641  0.7504 -0.5691
  654TMC3    C4 9732   4.180   1.065  16.735  0.5582  0.1585 -0.2535
  654TMC3    C5 9733   4.101   1.053  16.629  0.4607 -0.0988  0.2955
  654TMC3    C6 9734   3.972   1.104  16.641  0.1999  0.0496  0.3317
  654TMC3     C 9735   4.226   1.088  16.971  0.4166  0.0224 -0.2727
  654TMC3     O 9736   4.309   1.005  16.950  0.0874  0.5449  0.3734
  654TMC3     H 9737   3.977   1.201  16.965 -0.4386 -2.3790  1.0228
  654TMC3    H1 9738   4.280   1.023  16.727 -0.3094 -1.9358 -0.0487
  654TMC3    H2 9739   3.891   1.092  16.570  0.6970 -0.6867 -0.1124
  654TMC3    C7 9740   4.109   0.933  16.554  0.7196  0.1078 -0.4416
  654TMC3    C8 9741   3.796   1.179  16.787  0.1740 -0.8058  0.2303
  654TMC3    O1 9742   4.168   0.949  16.445 -0.2905  0.0380  0.0631
  654TMC3    O2 9743   3.735   1.211  16.685  0.4193 -0.2425 -0.0586
  655MPD2     C 9744   1.266   0.864  15.870 -0.2280  0.5086 -0.7901
  655MPD2    C1 9745   1.224   0.989  15.822 -0.8390 -0.2645  0.4120
  655MPD2    C2 9746   1.254   1.026  15.695 -0.7944 -0.3058  0.3500
  655MPD2    C3 9747   1.338   0.941  15.618  0.6939  0.1293  0.5870
  655MPD2    C4 9748   1.375   0.816  15.664 -0.5409 -0.4148  0.2107
  655MPD2    C5 9749   1.341   0.776  15.794  0.5044 -0.4578 -0.8639
  655MPD2     H 9750   1.218   1.122  15.659 -1.4667 -0.8182 -0.3468
  655MPD2    H1 9751   1.451   0.768  15.603  1.0066  2.5717 -0.1774
  655MPD2    H2 9752   1.252   0.832  15.973  1.8037 -0.9616 -0.9549
  655MPD2    H3 9753   1.383   0.685  15.834  0.4023  0.3899  1.1613
  655MPD2     N 9754   1.374   0.977  15.486 -0.5095 -0.4671 -0.1562
  655MPD2    H5 9755   1.429   0.908  15.436 -0.5925  0.2838 -1.2754
  655MPD2    N1 9756   1.142   1.074  15.901 -0.2567  0.0385  0.3046
  655MPD2    H7 9757   1.098   1.149  15.848 -1.1625 -0.1156  0.8453
  656TMC3    C1 9758   1.019   1.170  16.073  0.8132  0.0478  0.0132
  656TMC3    C2 9759   0.939   1.145  16.182  0.6623  0.6364  0.0546
  656TMC3    C3 9760   0.874   1.252  16.241 -0.2453 -0.4629 -0.2914
  656TMC3    C4 9761   1.043   1.301  16.035  0.5708  0.5768  0.4495
  656TMC3    C5 9762   0.972   1.405  16.093 -0.2532  0.4186 -0.6017
  656TMC3    C6 9763   0.884   1.377  16.188  0.0770  0.2774 -0.2321
  656TMC3     C 9764   1.108   1.065  16.033 -0.2371 -0.0024  0.5882
  656TMC3     O 9765   1.126   0.970  16.112 -0.3677  0.5695  0.2673
  656TMC3     H 9766   0.936   1.045  16.224  0.6402 -0.4425 -2.5082
  656TMC3    H1 9767   1.092   1.325  15.941 -0.8016  0.4529 -0.3009
  656TMC3    H2 9768   0.818   1.460  16.210  2.6324  2.1085  0.5547
  656TMC3    C7 9769   0.925   1.504  15.997  0.5229 -0.0715 -0.0742
  656TMC3    C8 9770   0.758   1.218  16.312 -0.3027 -0.7419 -0.5055
  656TMC3    O1 9771   0.931   1.473  15.879 -0.3160 -0.0045 -0.3175
  656TMC3    O2 9772   0.723   1.101  16.300  0.0432  0.1961 -0.2493
  657TMC3    C1 9773   0.106   0.908  14.523  0.6064 -0.4408 -0.1176
  657TMC3    C2 9774   0.124   1.018  14.603  0.2235  0.3637 -0.6728
  657TMC3    C3 9775   0.059   1.130  14.578  0.3050 -0.1671 -0.0863
  657TMC3    C4 9776   0.011   0.910  14.420  0.2784 -0.0225 -1.0933
  657TMC3    C5 9777   4.678   1.028  14.398 -0.3895  0.3023 -0.2317
  657TMC3    C6 9778   4.699   1.138  14.477  0.5644  0.3464  0.1173
  657TMC3     C 9779   0.181   0.785  14.546 -0.3219 -0.0907  0.1328
  657TMC3     O 9780   0.169   0.706  14.455  0.1056  0.0263  0.2155
  657TMC3     H 9781   0.186   1.015  14.692  0.9509  0.7501 -1.1635
  657TMC3    H1 9782   0.001   0.825  14.353 -1.4239 -0.3508 -0.4236
  657TMC3    H2 9783   4.653   1.233  14.452  0.3851  0.5166  1.0956
  657TMC3    C7 9784   4.579   1.031  14.296  0.3011  0.4715 -0.1448
  657TMC3    C8 9785   0.054   1.239  14.670  0.1783  1.2417  0.2972
  657TMC3    O1 9786   4.595   0.951  14.211  0.1748 -0.3275  0.2265
  657TMC3    O2 9787   4.700   1.319  14.645 -0.0364  0.2387 -0.1556
  658MPD2     C 9788   1.401   0.556  15.040  0.1291 -0.1788  0.2447
  658MPD2    C1 9789   1.402   0.675  14.961  0.4589 -0.0536 -1.3629
  658MPD2    C2 9790   1.391   0.658  14.822  0.2130  0.1806 -0.0652
  658MPD2    C3 9791   1.387   0.524  14.771 -0.2282  0.8575 -0.3891
  658MPD2    C4 9792   1.393   0.413  14.850 -0.4972  0.6099 -0.8010
  658MPD2    C5 9793   1.389   0.430  14.984 -0.2845 -0.2605  0.3049
  658MPD2     H 9794   1.380   0.748  14.763  1.3959  0.0861 -0.4218
  658MPD2    H1 9795   1.374   0.311  14.819  3.4573  0.0422 -1.3152
  658MPD2    H2 9796   1.409   0.573  15.147 -1.3918 -0.9882  0.4922
  658MPD2    H3 9797   1.387   0.345  15.050  4.0331  0.6507  1.6294
  658MPD2     N 9798   1.370   0.508  14.631  0.2820  0.1174  0.3818
  658MPD2    H5 9799   1.378   0.588  14.568 -0.7314 -0.9174 -1.0564
  658MPD2    N1 9800   1.405   0.806  15.027 -0.7245  0.5142 -0.3150
  658MPD2    H7 9801   1.398   0.808  15.128  2.3090  1.2137 -0.1419
  659TMC3    C1 9802   1.427   1.034  15.067  0.4381 -0.0080 -0.0346
  659TMC3    C2 9803   1.386   1.011  15.197  0.8505  0.5174  0.1232
  659TMC3    C3 9804   1.392   1.116  15.278  0.5513 -0.1327  0.2494
  659TMC3    C4 9805   1.468   1.155  15.020  0.9727 -0.2038  0.5203
  659TMC3    C5 9806   1.458   1.260  15.106 -0.2292  0.1656 -0.6254
  659TMC3    C6 9807   1.430   1.242  15.239  0.0650  0.2029  0.6852
  659TMC3     C 9808   1.421   0.928  14.966 -0.4948 -0.5581 -0.6525
  659TMC3     O 9809   1.434   0.962  14.851 -0.2308  0.0796  0.2715
  659TMC3     H 9810   1.359   0.911  15.230 -1.0710  0.9135 -0.2313
  659TMC3    H1 9811   1.499   1.168  14.917 -0.9797 -0.9186 -0.1473
  659TMC3    H2 9812   1.421   1.327  15.305  0.5143  0.5132  0.3509
  659TMC3    C7 9813   1.393   1.378  15.063  0.7098  0.9188 -0.1381
  659TMC3    C8 9814   1.346   1.100  15.420 -0.3477 -0.2180 -0.2104
  659TMC3    O1 9815   1.390   1.470  15.146  0.1878  1.0156 -0.1037
  659TMC3    O2 9816   1.296   1.209  15.455  0.8569  0.0041 -0.0160
  660MPD2     C 9817   4.102   0.313  12.843  0.4760  0.0157  0.4359
  660MPD2    C1 9818   3.974   0.306  12.795 -0.0594 -0.3788 -0.7156
  660MPD2    C2 9819   3.868   0.292  12.891 -0.2298 -0.8444 -0.2663
  660MPD2    C3 9820   3.886   0.273  13.025  0.2418 -0.4312  0.2232
  660MPD2    C4 9821   4.022   0.282  13.067  0.5080  1.2319  0.0005
  660MPD2    C5 9822   4.125   0.300  12.976  0.7011  0.2075 -0.6359
  660MPD2     H 9823   3.773   0.287  12.840 -0.0700  0.1783 -0.6772
  660MPD2    H1 9824   4.054   0.267  13.170 -0.5860  1.3536  0.3659
  660MPD2    H2 9825   4.187   0.325  12.777 -0.9166  0.1077 -1.3392
  660MPD2    H3 9826   4.224   0.294  13.021  1.2653  2.1163 -1.6069
  660MPD2     N 9827   3.786   0.228  13.110  0.1347 -0.0503 -0.1262
  660MPD2    H5 9828   3.818   0.168  13.185 -0.5787  0.5046  0.6240
  660MPD2    N1 9829   3.958   0.307  12.654  0.1128  0.2576  0.0833
  660MPD2    H7 9830   4.046   0.307  12.602 -0.1815 -2.2570 -0.4099
  661TMC3    C1 9831   3.856   0.283  12.450  0.0970  0.0866 -0.4653
  661TMC3    C2 9832   3.977   0.298  12.388  0.4500 -0.3595 -0.4810
  661TMC3    C3 9833   3.996   0.228  12.270 -0.0958 -0.1096  0.4097
  661TMC3    C4 9834   3.753   0.198  12.404 -0.0672 -0.1995  0.1547
  661TMC3    C5 9835   3.778   0.127  12.288 -0.2093 -0.0920 -0.2181
  661TMC3    C6 9836   3.905   0.136  12.227  0.2520  0.6018  0.1687
  661TMC3     C 9837   3.839   0.323  12.589 -0.1444 -0.2388 -0.2555
  661TMC3     O 9838   3.723   0.316  12.628  0.3677 -0.5980 -0.7895
  661TMC3     H 9839   4.059   0.353  12.432 -0.8868  0.9236  0.4299
  661TMC3    H1 9840   3.662   0.179  12.461 -0.7859  0.7193 -0.6872
  661TMC3    H2 9841   3.923   0.082  12.134 -0.5063  3.6621 -1.7323
  661TMC3    C7 9842   3.724   4.730  12.296  0.2930 -0.0271  0.6663
  661TMC3    C8 9843   4.065   0.287  12.157  0.0945  0.5476 -0.1514
  661TMC3    O1 9844   3.696   4.687  12.412 -0.5793 -0.1328  0.2646
  661TMC3    O2 9845   4.068   0.218  12.056  0.1799  0.3965  0.3244
  662MPD2     C 9846   3.851   0.074  17.260  0.0305 -0.7412 -0.2286
  662MPD2    C1 9847   3.751   4.732  17.317  0.3232 -0.5942  0.6327
  662MPD2    C2 9848   3.631   0.063  17.339  0.0453  0.4389  0.1234
  662MPD2    C3 9849   3.605   0.194  17.307 -0.2696  0.0684  1.0399
  662MPD2    C4 9850   3.710   0.268  17.253 -0.1568 -0.1733 -0.0710
  662MPD2    C5 9851   3.826   0.203  17.224 -0.5323 -0.2172  0.0001
  662MPD2     H 9852   3.550   0.010  17.388 -1.4992  1.2696 -1.5137
  662MPD2    H1 9853   3.707   0.372  17.226  3.1564  0.0009  0.2233
  662MPD2    H2 9854   3.952   0.043  17.240  0.0031  1.0727 -3.3948
  662MPD2    H3 9855   3.910   0.264  17.193  0.6268 -2.4616 -1.3385
  662MPD2     N 9856   3.477   0.266  17.324 -0.5508  0.0195  0.5812
  662MPD2    H5 9857   3.470   0.362  17.290 -1.8170  1.2963  4.4402
  662MPD2    N1 9858   3.756   4.597  17.355 -0.1347  0.1276  0.2077
  662MPD2    H7 9859   3.672   4.565  17.401 -2.0603  0.7430 -2.8445
  663TMC3    C1 9860   3.848   4.380  17.373  0.1329  0.1396 -0.2144
  663TMC3    C2 9861   3.760   4.371  17.472  0.5724  0.2387 -0.3694
  663TMC3    C3 9862   3.700   4.256  17.505 -0.3498  0.6270 -0.5511
  663TMC3    C4 9863   3.879   4.270  17.289  0.1730 -0.6707 -0.2986
  663TMC3    C5 9864   3.816   4.152  17.319  0.0103  0.3316 -0.5729
  663TMC3    C6 9865   3.727   4.139  17.429 -0.3618 -0.3468 -0.4649
  663TMC3     C 9866   3.861   4.513  17.318 -0.4148  0.6831  0.4731
  663TMC3     O 9867   3.952   4.533  17.236 -1.2193  1.0672 -0.0247
  663TMC3     H 9868   3.749   4.453  17.542 -1.6912 -2.3398  2.3094
  663TMC3    H1 9869   3.939   4.272  17.199  0.8851  1.4417  0.2252
  663TMC3    H2 9870   3.652   4.061  17.419 -0.4266  0.0919 -3.3852
  663TMC3    C7 9871   3.816   4.053  17.209  0.5972 -0.3765  0.3163
  663TMC3    C8 9872   3.562   4.266  17.531 -0.1467  0.6549 -0.4789
  663TMC3    O1 9873   3.857   4.091  17.101  0.1582  0.0597 -0.0054
  663TMC3    O2 9874   3.501   4.359  17.478 -0.7563  0.0087  0.8282
  664MPD2     C 9875   2.202   2.551  17.659  0.6458  0.0386  0.0623
  664MPD2    C1 9876   2.329   2.574  17.706 -0.0192 -1.2594  0.0866
  664MPD2    C2 9877   2.354   2.566   0.109 -0.0810 -0.0546 -0.4034
  664MPD2    C3 9878   2.257   2.532   0.199 -0.4993  0.3505  0.0678
  664MPD2    C4 9879   2.134   2.512   0.146  0.1489  0.2000  0.8577
  664MPD2    C5 9880   2.110   2.512   0.012 -0.1948  0.3300  0.0812
  664MPD2     H 9881   2.452   2.592   0.146 -0.6366  2.6976 -0.9120
  664MPD2    H1 9882   2.061   2.465   0.211 -3.1533 -0.9422 -3.6313
  664MPD2    H2 9883   2.171   2.550  17.555 -2.2144  0.8137  0.8953
  664MPD2    H3 9884   2.010   2.478  17.724  0.7464 -0.9898 -1.8970
  664MPD2     N 9885   2.290   2.515   0.335 -0.0204  0.2918 -0.3113
  664MPD2    H5 9886   2.387   2.523   0.363  0.6871 -1.0337 -2.3840
  664MPD2    N1 9887   2.442   2.602  17.620 -0.0811  0.5924 -0.5876
  664MPD2    H7 9888   2.531   2.626  17.664 -1.5173 -0.1538  2.6637
  665TMC3    C1 9889   2.273   2.450   0.565 -0.2357 -1.1707  0.3159
  665TMC3    C2 9890   2.232   2.363   0.664  0.2094  0.1447 -0.6784
  665TMC3    C3 9891   2.286   2.372   0.785  0.1088  0.0751 -0.1854
  665TMC3    C4 9892   2.365   2.547   0.598  0.4310 -0.1439 -0.5142
  665TMC3    C5 9893   2.421   2.546   0.718 -0.3806 -0.0157 -0.3765
  665TMC3    C6 9894   2.378   2.469   0.822 -0.6437  0.7715  0.3047
  665TMC3     C 9895   2.209   2.470   0.438 -0.3180  0.1977  0.3066
  665TMC3     O 9896   2.089   2.443   0.428  0.2053 -0.2831  0.7368
  665TMC3     H 9897   2.161   2.287   0.632  1.0409 -1.6316  1.7057
  665TMC3    H1 9898   2.408   2.614   0.523  0.9954  0.8933  0.7299
  665TMC3    H2 9899   2.406   2.483   0.926  1.5723 -2.3576  0.1367
  665TMC3    C7 9900   2.507   2.663   0.742  0.4752 -0.6795 -0.2190
  665TMC3    C8 9901   2.253   2.261   0.879  0.1568 -0.4407 -0.0802
  665TMC3    O1 9902   2.558   2.720   0.644  0.3049  0.2205 -0.6147
  665TMC3    O2 9903   2.191   2.163   0.844  0.2076  0.5307  0.3115
  666TMC3    C1 9904   2.194   2.619   9.805 -0.1472  0.1123 -0.2765
  666TMC3    C2 9905   2.250   2.579   9.918 -0.6635 -0.7133 -0.0102
  666TMC3    C3 9906   2.288   2.666  10.011 -0.4711  0.0103 -0.2089
  666TMC3    C4 9907   2.171   2.749   9.777 -0.6205  0.2416  0.0891
  666TMC3    C5 9908   2.213   2.837   9.874  0.4692 -0.3021  0.0611
  666TMC3    C6 9909   2.276   2.797   9.993  0.5821 -0.0095 -0.0260
  666TMC3     C 9910   2.104   2.523   9.741  0.0032  0.4558  0.1100
  666TMC3     O 9911   2.066   2.536   9.625 -0.2156 -0.6252  0.3064
  666TMC3     H 9912   2.252   2.474   9.944  0.1398 -1.0836 -1.5685
  666TMC3    H1 9913   2.119   2.779   9.687  1.7626 -0.6976 -1.6054
  666TMC3    H2 9914   2.303   2.868  10.071 -0.7364 -0.9214  1.2586
  666TMC3    C7 9915   2.125   2.955   9.880  0.3721  0.3046 -0.0239
  666TMC3    C8 9916   2.302   2.620  10.147 -0.3598 -0.0273 -0.5518
  666TMC3    O1 9917   2.028   2.953   9.809  0.4042 -0.7359  0.1275
  666TMC3    O2 9918   2.197   2.574  10.194  0.7410 -0.3654 -0.4033
  667MPD2     C 9919   3.216   2.557  14.441  0.4370  0.4094  0.0793
  667MPD2    C1 9920   3.193   2.556  14.578 -0.0734 -0.6780 -0.0488
  667MPD2    C2 9921   3.117   2.449  14.626 -0.5910 -0.6730 -0.1658
  667MPD2    C3 9922   3.069   2.357  14.543 -0.2694  0.2207 -0.0646
  667MPD2    C4 9923   3.101   2.356  14.409 -0.1133  0.5243 -0.7964
  667MPD2    C5 9924   3.178   2.459  14.360 -0.0839  0.0480  0.6431
  667MPD2     H 9925   3.098   2.446  14.733 -1.3100  3.5638 -0.1902
  667MPD2    H1 9926   3.067   2.276  14.344  2.5650 -0.4706 -0.9420
  667MPD2    H2 9927   3.261   2.637  14.382 -1.0669  1.3613  0.2293
  667MPD2    H3 9928   3.197   2.463  14.254 -2.8975  0.0852  0.1183
  667MPD2     N 9929   2.990   2.249  14.589 -0.4004  0.1324 -0.3067
  667MPD2    H5 9930   2.946   2.186  14.523 -0.4625 -2.0732  1.8243
  667MPD2    N1 9931   3.232   2.656  14.664  0.4464 -0.7801 -0.3539
  667MPD2    H7 9932   3.217   2.636  14.762  1.2395 -0.4209 -0.1579
  668TMC3    C1 9933   3.300   2.865  14.745  0.6036 -0.0644 -0.2679
  668TMC3    C2 9934   3.417   2.939  14.732 -0.1801  0.5435  0.6155
  668TMC3    C3 9935   3.461   2.999  14.849  0.3276 -0.0727  0.6263
  668TMC3    C4 9936   3.234   2.848  14.872  0.3967  0.3629  0.5539
  668TMC3    C5 9937   3.288   2.921  14.986 -0.1364  0.4130 -0.2667
  668TMC3    C6 9938   3.406   2.993  14.975 -0.2114  0.1730 -0.2847
  668TMC3     C 9939   3.283   2.777  14.629  0.3629  0.4514 -0.4276
  668TMC3     O 9940   3.323   2.818  14.517 -0.2523 -0.7435  0.4652
  668TMC3     H 9941   3.469   2.951  14.638  0.6956  1.0433  1.1531
  668TMC3    H1 9942   3.150   2.780  14.880 -0.6009  1.7865  1.9912
  668TMC3    H2 9943   3.460   3.036  15.059  1.8922 -2.2262 -0.3954
  668TMC3    C7 9944   3.252   2.894  15.121  0.8853  0.6648 -0.4616
  668TMC3    C8 9945   3.572   3.093  14.828 -0.1669  0.1346  0.2231
  668TMC3    O1 9946   3.330   2.930  15.207  0.1957  0.8128 -0.7118
  668TMC3    O2 9947   3.648   3.071  14.732  0.1949 -0.3793 -0.2637
  669TMC3    C1 9948   1.137   2.690  14.447  0.1042 -0.4046 -0.2838
  669TMC3    C2 9949   1.033   2.661  14.363  0.3950  0.0355  1.2645
  669TMC3    C3 9950   1.052   2.684  14.225 -0.1532  0.4024 -0.5189
  669TMC3    C4 9951   1.249   2.753  14.405  0.0226  0.3634  0.2662
  669TMC3    C5 9952   1.259   2.773  14.268  0.4322  0.5701 -0.2819
  669TMC3    C6 9953   1.168   2.737  14.172 -0.3104  1.0574 -0.9227
  669TMC3     C 9954   1.108   2.685  14.591  0.7074 -0.2491 -0.5213
  669TMC3     O 9955   0.993   2.689  14.628  0.3254  0.1614  0.2527
  669TMC3     H 9956   0.940   2.614  14.392 -0.0384  0.8579  1.2066
  669TMC3    H1 9957   1.317   2.793  14.479 -0.8138  0.6728  0.8710
  669TMC3    H2 9958   1.175   2.753  14.065 -1.5077 -2.4078 -1.5178
  669TMC3    C7 9959   1.379   2.861  14.236  0.0583 -0.6689 -0.6673
  669TMC3    C8 9960   0.951   2.639  14.131 -0.6178 -0.4181 -0.8813
  669TMC3    O1 9961   1.426   2.923  14.331 -0.0650  0.0963  0.1012
  669TMC3    O2 9962   0.903   2.533  14.149  0.4675  0.9662  0.3958
  670MPD2     C 9963   4.578   4.462  13.598 -0.2407 -0.6049  0.4409
  670MPD2    C1 9964   4.455   4.529  13.590  0.0690  0.0999  0.2524
  670MPD2    C2 9965   4.424   4.622  13.681  0.0614  0.2377  0.3607
  670MPD2    C3 9966   4.510   4.657  13.778 -0.1261 -0.1961  0.0809
  670MPD2    C4 9967   4.633   4.591  13.789  0.7631  0.1497  0.4101
  670MPD2    C5 9968   4.661   4.493  13.696  0.2376  1.0558  0.3863
  670MPD2     H 9969   4.337   4.683  13.659 -0.6697 -1.5875 -1.6916
  670MPD2    H1 9970   4.703   4.601  13.871  0.9293 -2.0600  0.5369
  670MPD2    H2 9971   4.619   4.386  13.533 -1.6582 -0.4472 -0.6377
  670MPD2    H3 9972   0.027   4.452  13.701  0.7892  2.0585 -2.8468
  670MPD2     N 9973   4.470   0.013  13.869  0.4153  0.2259 -0.2816
  670MPD2    H5 9974   4.379   0.058  13.860  0.4012  0.3224  0.3686
  670MPD2    N1 9975   4.369   4.514  13.475  0.2151  0.2550 -0.6907
  670MPD2    H7 9976   4.291   4.579  13.474  0.4185  0.5028 -0.5686
  671TMC3    C1 9977   4.445   0.112  14.069 -0.0959  0.6036  0.0812
  671TMC3    C2 9978   4.503   0.162  14.188 -0.8380  0.4641 -0.2479
  671TMC3    C3 9979   4.429   0.127  14.300  0.0677  0.0378  0.6912
  671TMC3    C4 9980   4.312   0.081  14.062  0.1795 -0.3233 -0.1812
  671TMC3    C5 9981   4.239   0.069  14.179 -0.3302  0.4812 -0.3172
  671TMC3    C6 9982   4.303   0.077  14.298 -0.4340 -0.1183 -0.1653
  671TMC3     C 9983   4.543   0.047  13.978  0.4835 -0.5624 -0.5410
  671TMC3     O 9984   4.663   0.064  13.999 -0.0979 -0.0620  0.2024
  671TMC3     H 9985   4.606   0.198  14.184 -1.1989  1.7425  2.2134
  671TMC3    H1 9986   4.263   0.063  13.966 -2.6993  0.6391  1.1153
  671TMC3    H2 9987   4.261   0.053  14.395  0.8849  1.9901  0.9310
  671TMC3    C7 9988   4.126   4.719  14.157 -0.0583  0.5318  0.6272
  671TMC3    C8 9989   4.478   0.179  14.421 -0.4071 -0.1284 -0.4509
  671TMC3    O1 9990   4.069   4.712  14.045  0.3154  0.5200  0.3732
  671TMC3    O2 9991   4.510   0.298  14.411 -0.2372 -0.5182  0.0055
  672MPD2     C 9992   4.469   1.154   0.515 -0.4875  0.4104  0.3283
  672MPD2    C1 9993   4.527   1.033   0.533  0.3733  0.1624  0.3354
  672MPD2    C2 9994   4.660   1.023   0.571 -0.1077 -0.0609 -0.2881
  672MPD2    C3 9995   4.734   1.137   0.589 -0.8419  0.1343  0.4616
  672MPD2    C4 9996   4.669   1.265   0.583 -0.3542  0.3974  0.4883
  672MPD2    C5 9997   4.536   1.268   0.540  0.3352  0.5592  0.3039
  672MPD2     H 9998   4.699   0.923   0.586 -0.2720  0.1339  1.4328
  672MPD2    H1 9999   4.712   1.358   0.620 -0.7067  0.8693 -0.2861
  672MPD2    H210000   4.371   1.156   0.470 -0.6428  3.1779  0.8072
  672MPD2    H310001   4.490   1.365   0.525  0.6622  0.7082  0.2633
  672MPD2     N10002   0.134   1.143   0.633  0.2281  0.1016  0.0030
  672MPD2    H510003   0.162   1.233   0.671  0.3756 -0.5793  1.4972
  672MPD2    N110004   4.459   0.911   0.521  0.4393 -0.2361 -0.0418
  672MPD2    H710005   4.507   0.822   0.530  0.5006 -0.0006  2.0676
  673TMC3    C110006   4.273   0.750   0.484  0.0852  0.6972 -0.5539
  673TMC3    C210007   4.346   0.634   0.476  0.4461  0.1341  0.0874
  673TMC3    C310008   4.281   0.514   0.443  0.6548  0.2329 -0.4203
  673TMC3    C410009   4.133   0.744   0.464 -0.3194  0.8017 -0.9112
  673TMC3    C510010   4.083   0.624   0.430 -0.3493 -0.8756  0.1455
  673TMC3    C610011   4.155   0.510   0.413 -0.2466  0.3402  0.0648
  673TMC3     C10012   4.322   0.889   0.501  0.1160  0.2531  0.7112
  673TMC3     O10013   4.234   0.975   0.486 -0.0256  0.0595  0.5697
  673TMC3     H10014   4.454   0.645   0.477  0.5176 -0.4850 -0.6599
  673TMC3    H110015   4.073   0.832   0.482  1.6588  1.5534  2.0595
  673TMC3    H210016   4.106   0.415   0.397 -0.5633  0.4093  0.6368
  673TMC3    C710017   3.949   0.628   0.362 -0.0296  0.5721 -0.9460
  673TMC3    C810018   4.365   0.402   0.413 -0.4005  0.4295  0.2929
  673TMC3    O110019   3.879   0.525   0.364 -0.0050  0.3640 -0.2343
  673TMC3    O210020   4.323   0.323   0.331 -0.3004 -0.1385 -0.3874
  674MPD2     C10021   3.829   1.283  17.458  0.2176 -0.2205  0.0851
  674MPD2    C110022   3.726   1.186  17.461  0.0453 -0.2525 -0.8753
  674MPD2    C210023   3.611   1.210  17.395  0.2935 -0.3950  0.4041
  674MPD2    C310024   3.580   1.332  17.336 -0.2590  0.6874 -0.0979
  674MPD2    C410025   3.678   1.430  17.345  0.0277  0.5784 -0.0551
  674MPD2    C510026   3.804   1.404  17.394 -0.1869  0.4560  0.1077
  674MPD2     H10027   3.530   1.139  17.387  1.5393 -1.6606 -0.8966
  674MPD2    H110028   3.667   1.535  17.320  0.6090  0.8227  0.7201
  674MPD2    H210029   3.925   1.269  17.507  1.3811  1.6356 -1.6637
  674MPD2    H310030   3.881   1.479  17.400  0.2645  0.0522 -0.7140
  674MPD2     N10031   3.449   1.356  17.284  0.8663  0.7627  0.0313
  674MPD2    H510032   3.383   1.279  17.286  0.0342  1.4856  0.0394
  674MPD2    N110033   3.748   1.054  17.515 -0.5601  0.2493 -0.3156
  674MPD2    H710034   3.836   1.029  17.559 -0.5068  1.5288  0.2924
  675TMC3    C110035   3.695   0.824  17.575  0.7592 -0.2666 -0.3759
  675TMC3    C210036   3.606   0.725  17.564  0.3383  0.1198  1.1783
  675TMC3    C310037   3.643   0.615  17.624 -0.3516 -0.0178 -0.1666
  675TMC3    C410038   3.819   0.812  17.621  1.0229  0.4182  0.3869
  675TMC3    C510039   3.855   0.697  17.680  0.5094 -0.4489 -0.1287
  675TMC3    C610040   3.769   0.593  17.682  0.3771 -0.4906 -0.8872
  675TMC3     C10041   3.660   0.946  17.497 -0.6092  0.7123  0.0698
  675TMC3     O10042   3.566   0.930  17.420  0.6866  0.2911 -0.7245
  675TMC3     H10043   3.503   0.738  17.536 -0.4502 -1.7478  3.2171
  675TMC3    H110044   3.903   0.875  17.594  0.3442  1.0034 -0.3376
  675TMC3    H210045   3.804   0.494  17.709 -1.5341 -1.2993 -1.3643
  675TMC3    C710046   3.992   0.670   0.002 -0.6003 -0.2285 -0.2675
  675TMC3    C810047   3.546   0.513  17.624  0.0977 -0.0129 -0.5438
  675TMC3    O110048   4.019   0.551   0.026  0.8200 -0.3180 -0.4974
  675TMC3    O210049   3.457   0.502  17.539 -0.0159  0.0700  0.4654
  676MPD2     C10050   3.406   4.310  11.231 -0.4673 -0.0988  0.2011
  676MPD2    C110051   3.307   4.227  11.273 -0.2068  0.5670 -0.6600
  676MPD2    C210052   3.277   4.112  11.202  0.2726 -0.1226 -0.3970
  676MPD2    C310053   3.351   4.073  11.092 -0.3278  0.0001 -0.6425
  676MPD2    C410054   3.454   4.161  11.048  0.8205  0.3649 -0.3560
  676MPD2    C510055   3.478   4.282  11.118  0.1907 -0.0721  0.3946
  676MPD2     H10056   3.205   4.043  11.245  0.4839 -0.9627 -1.3811
  676MPD2    H110057   3.516   4.136  10.962  1.6893  4.7662 -1.0413
  676MPD2    H210058   3.436   4.397  11.288  0.9831  1.6846 -3.3359
  676MPD2    H310059   3.552   4.357  11.094  1.4670 -0.9847  1.5033
  676MPD2     N10060   3.323   3.958  11.012  0.2221  0.5251 -0.2348
  676MPD2    H510061   3.360   3.951  10.918  0.8242  1.8390 -0.0996
  676MPD2    N110062   3.225   4.243  11.391  0.2515 -0.2461  0.2138
  676MPD2    H710063   3.162   4.167  11.417  2.4612 -1.7809  1.1347
  677TMC3    C110064   3.162   4.318  11.605 -0.1039  0.8168 -0.2386
  677TMC3    C210065   3.069   4.212  11.600 -0.6316 -0.0820 -0.3583
  677TMC3    C310066   3.026   4.167  11.722  0.3732  0.0523  0.8748
  677TMC3    C410067   3.211   4.369  11.720  0.6226  0.5164  0.2776
  677TMC3    C510068   3.173   4.310  11.834  0.3752 -0.5651  0.3398
  677TMC3    C610069   3.093   4.200  11.839 -0.0644  0.8140 -1.0014
  677TMC3     C10070   3.245   4.338  11.486  0.8740  0.2322  0.3339
  677TMC3     O10071   3.315   4.442  11.490  0.2241  0.0074  0.4323
  677TMC3     H10072   3.018   4.175  11.511 -1.1292  1.2679 -0.6374
  677TMC3    H110073   3.277   4.456  11.724  0.0656  1.0118 -1.7256
  677TMC3    H210074   3.046   4.158  11.928  0.1089  1.7364 -0.4699
  677TMC3    C710075   3.214   4.359  11.965 -1.1228  0.2011  0.2096
  677TMC3    C810076   2.943   4.047  11.717 -0.1948  0.1752 -0.1851
  677TMC3    O110077   3.186   4.287  12.063 -0.1727 -0.2183  0.1492
  677TMC3    O210078   2.949   3.982  11.610  0.1959  0.1860  0.2455
  678MPD2     C10079   3.646   3.518   1.712 -0.0900 -0.6251  0.2608
  678MPD2    C110080   3.595   3.501   1.578 -0.2089  0.2897 -0.6189
  678MPD2    C210081   3.458   3.515   1.560  0.4234 -0.0536  0.0912
  678MPD2    C310082   3.372   3.532   1.667  0.0331  0.2120  0.1387
  678MPD2    C410083   3.421   3.544   1.799 -0.8435 -0.2215  0.3496
  678MPD2    C510084   3.556   3.537   1.812  0.0036  0.4895 -0.3184
  678MPD2     H10085   3.422   3.489   1.461 -0.5197  0.5467  0.2790
  678MPD2    H110086   3.363   3.566   1.888 -2.1902  0.3223 -0.6572
  678MPD2    H210087   3.748   3.510   1.747  0.4947  1.2141 -1.0196
  678MPD2    H310088   3.597   3.555   1.910 -2.6429  0.3232  0.8018
  678MPD2     N10089   3.235   3.523   1.635 -0.5653 -0.3586  0.0773
  678MPD2    H510090   3.209   3.494   1.541  1.2136 -1.5394 -0.0467
  678MPD2    N110091   3.679   3.469   1.469 -0.8776 -0.1110 -0.2368
  678MPD2    H710092   3.632   3.446   1.383  0.6072  1.2517 -1.4002
  679TMC3    C110093   4.031   3.268   1.242  0.3149  0.9584 -0.5193
  679TMC3    C210094   3.980   3.309   1.362 -0.1745  0.8003  0.2952
  679TMC3    C310095   3.865   3.382   1.359  0.1190  0.5312 -0.1424
  679TMC3    C410096   3.969   3.294   1.125 -0.5978 -0.1772 -0.1069
  679TMC3    C510097   3.854   3.371   1.126  0.3999  0.0139 -0.1427
  679TMC3    C610098   3.800   3.414   1.244 -0.8116 -0.5688  0.2614
  679TMC3     C10099   4.146   3.177   1.232 -0.2246 -0.0164  0.3829
  679TMC3     O10100   4.169   3.129   1.122  0.3927 -0.4161  0.6196
  679TMC3     H10101   4.026   3.283   1.457 -0.8854  1.8242  0.9228
  679TMC3    H110102   4.020   3.257   1.037  0.4564 -0.0257  0.4252
  679TMC3    H210103   3.741   3.504   1.233  0.4248  0.3427  1.1500
  679TMC3    C710104   3.809   3.441   1.008  0.4787 -0.4412 -0.3231
  679TMC3    C810105   3.814   3.441   1.483  0.0552  0.5843 -0.1604
  679TMC3    O110106   3.766   3.555   1.018  0.3455 -0.3017  0.6529
  679TMC3    O210107   3.883   3.445   1.582 -0.0808  0.2976 -0.3201
  680MPD2     C10108   4.059   2.157  13.623  0.1998 -0.2671  0.3149
  680MPD2    C110109   4.189   2.131  13.674  0.4981  0.2452  0.0347
  680MPD2    C210110   4.237   2.233  13.754  0.2023 -0.4367 -0.3474
  680MPD2    C310111   4.168   2.348  13.784 -0.3160 -0.8416  0.4404
  680MPD2    C410112   4.043   2.372  13.731 -0.1844 -0.3090 -0.4672
  680MPD2    C510113   3.991   2.274  13.643  0.3261 -0.4119  0.3967
  680MPD2     H10114   4.335   2.210  13.793 -1.1257 -0.8141  2.7352
  680MPD2    H110115   3.983   2.460  13.751 -0.7200 -0.7899  0.0406
  680MPD2    H210116   4.016   2.082  13.558  1.3040 -0.3970 -0.2609
  680MPD2    H310117   3.892   2.294  13.602  1.0246 -1.5870 -1.9055
  680MPD2     N10118   4.216   2.439  13.882  0.0332 -0.2632 -0.8038
  680MPD2    H510119   4.172   2.531  13.884 -0.5987 -0.5800 -0.3465
  680MPD2    N110120   4.258   2.007  13.643 -0.0766 -0.2914 -0.2181
  680MPD2    H710121   4.197   1.941  13.596 -1.0920  0.1860  0.4354
  681TMC3    C110122   4.420   1.849  13.636 -0.5658  0.8260  0.3117
  681TMC3    C210123   4.345   1.766  13.710 -0.4998  0.0718  0.3152
  681TMC3    C310124   4.354   1.633  13.687 -0.3707 -0.0543 -0.4240
  681TMC3    C410125   4.514   1.808  13.554  0.2913  0.1367 -0.6381
  681TMC3    C510126   4.519   1.676  13.527  0.8604 -0.6018  0.3298
  681TMC3    C610127   4.440   1.584  13.589  0.5355 -0.4433 -0.0791
  681TMC3     C10128   4.385   1.990  13.648 -0.2558  0.0706 -0.4275
  681TMC3     O10129   4.474   2.073  13.654  0.5039  0.0936  0.2242
  681TMC3     H10130   4.278   1.806  13.785 -1.0755  0.3979 -0.3701
  681TMC3    H110131   4.572   1.884  13.504 -0.8052 -0.4156 -2.7620
  681TMC3    H210132   4.438   1.481  13.556  6.0236 -1.2529  2.1134
  681TMC3    C710133   4.619   1.622  13.439 -0.3495  0.0972  0.6587
  681TMC3    C810134   4.244   1.548  13.732  0.6240 -0.3523 -0.1963
  681TMC3    O110135   4.659   1.506  13.467  0.4494 -0.4107 -0.4762
  681TMC3    O210136   4.208   1.448  13.671 -0.3404 -0.3652 -0.2033
  682MPD2     C10137   1.434   3.649  10.608  0.3544  0.4498 -0.0704
  682MPD2    C110138   1.494   3.532  10.567 -0.8323  0.4912 -0.3320
  682MPD2    C210139   1.577   3.464  10.660 -0.2687 -0.4826  0.6179
  682MPD2    C310140   1.599   3.498  10.787 -0.2965  0.5643  0.5697
  682MPD2    C410141   1.524   3.605  10.831 -0.0551 -0.0387  0.7080
  682MPD2    C510142   1.447   3.678  10.740 -0.6807  0.6417  0.0585
  682MPD2     H10143   1.624   3.372  10.628 -1.9347 -1.4377  0.9372
  682MPD2    H110144   1.515   3.626  10.937 -0.3040 -0.6126  0.8006
  682MPD2    H210145   1.366   3.707  10.546 -0.5903  1.0265  1.5109
  682MPD2    H310146   1.387   3.762  10.772 -0.6556  0.6292  0.1378
  682MPD2     N10147   1.678   3.436  10.883  0.0272 -0.2013  0.1285
  682MPD2    H510148   1.679   3.491  10.969  0.4744 -1.8339  1.1597
  682MPD2    N110149   1.482   3.467  10.433  0.1104  0.0750 -0.1055
  682MPD2    H710150   1.536   3.381  10.428  0.1692  0.2218 -1.9234
  683TMC3    C110151   1.867   3.300  11.223 -0.1604 -0.1220  0.3554
  683TMC3    C210152   1.968   3.214  11.211  0.1693 -0.1143 -0.6345
  683TMC3    C310153   1.997   3.161  11.087 -0.0508  0.2799  0.2647
  683TMC3    C410154   1.788   3.339  11.112  0.0271 -0.0896  1.0738
  683TMC3    C510155   1.823   3.286  10.989  0.0519 -0.0156  0.2919
  683TMC3    C610156   1.929   3.206  10.976  0.3781  0.6266  0.4652
  683TMC3     C10157   1.877   3.384  11.341  0.3351 -1.1655 -0.5481
  683TMC3     O10158   1.944   3.348  11.436  0.0740 -0.3181 -0.1192
  683TMC3     H10159   2.030   3.194  11.298 -0.2031  2.4995  0.2257
  683TMC3    H110160   1.698   3.397  11.121 -0.3437 -0.1128 -2.4964
  683TMC3    H210161   1.954   3.164  10.880 -4.2053 -0.0329 -0.4522
  683TMC3    C710162   1.758   3.324  10.865 -0.0463 -0.1246 -0.7317
  683TMC3    C810163   2.118   3.073  11.064  0.0890 -0.0122  0.0233
  683TMC3    O110164   1.783   3.256  10.767  0.2401 -0.1234  0.7876
  683TMC3    O210165   2.161   3.074  10.952 -0.0952  0.5978  0.2728
  684MPD2     C10166   0.014   2.698  16.479  0.1404 -0.3743  0.4171
  684MPD2    C110167   4.717   2.792  16.383  0.3754 -0.8855 -0.0716
  684MPD2    C210168   4.643   2.902  16.417  0.4126 -0.5441 -0.1138
  684MPD2    C310169   4.588   2.917  16.542 -0.5784  0.3495 -0.0192
  684MPD2    C410170   4.628   2.832  16.641  0.2056 -0.2099 -0.1568
  684MPD2    C510171   4.704   2.721  16.604  0.2337  0.0436 -0.0551
  684MPD2     H10172   4.626   2.973  16.337  1.6464  0.7020  0.7202
  684MPD2    H110173   4.591   2.840  16.743 -0.4865 -0.8550 -0.3595
  684MPD2    H210174   0.080   2.613  16.460  0.2075  0.0785 -1.4136
  684MPD2    H310175   4.729   2.647  16.679  1.0260  0.8620  0.4815
  684MPD2     N10176   4.498   3.020  16.579 -0.3230  0.0944  0.2756
  684MPD2    H510177   4.471   3.012  16.676  2.1754 -1.5344  0.8631
  684MPD2    N110178   0.018   2.776  16.249 -0.4238 -0.4052 -0.2497
  684MPD2    H710179   4.707   2.833  16.179  0.3299 -0.7154 -0.9954
  685TMC3    C110180   0.145   2.681  16.071 -0.4843 -0.2565  0.5584
  685TMC3    C210181   0.049   2.710  15.986 -0.2255  0.2331 -0.0951
  685TMC3    C310182   0.073   2.711  15.847  0.1240 -0.2462 -0.2929
  685TMC3    C410183   0.276   2.669  16.035  0.3668 -0.8152 -0.5465
  685TMC3    C510184   0.307   2.691  15.908  0.5405 -0.0144 -0.5792
  685TMC3    C610185   0.208   2.709  15.805  0.1808  0.0945  0.6829
  685TMC3     C10186   0.124   2.690  16.209 -0.3987 -0.2226  0.1842
  685TMC3     O10187   0.201   2.621  16.274 -0.0962  0.5592 -0.2526
  685TMC3     H10188   4.679   2.718  16.015  0.2198  0.1381  1.5533
  685TMC3    H110189   0.353   2.663  16.111 -1.4960 -1.6288  1.2746
  685TMC3    H210190   0.233   2.735  15.703 -1.4744  2.8211  0.9904
  685TMC3    C710191   0.421   2.770  15.910 -1.3114  0.4595 -0.0728
  685TMC3    C810192   4.707   2.722  15.736  0.4343 -0.2369 -0.1156
  685TMC3    O110193   0.505   2.742  15.992  0.0119 -0.3208  0.0322
  685TMC3    O210194   4.723   2.659  15.631 -0.3412  0.3182  0.0546
  686MPD2     C10195   0.694   3.053  15.957 -0.3192  0.0498  0.4940
  686MPD2    C110196   0.708   3.033  16.092  0.4160  0.3557 -0.6133
  686MPD2    C210197   0.686   3.130  16.186 -0.2994  0.4302 -0.2137
  686MPD2    C310198   0.651   3.253  16.144 -0.1918  0.3820 -0.3525
  686MPD2    C410199   0.636   3.273  16.006  0.7627 -0.0668 -0.7756
  686MPD2    C510200   0.657   3.177  15.915  0.0623 -0.5423 -0.4512
  686MPD2     H10201   0.719   3.123  16.289  1.7702 -0.6564 -0.9432
  686MPD2    H110202   0.602   3.371  15.975 -0.2147  0.0195  0.5497
  686MPD2    H210203   0.706   2.970  15.888  0.7916  1.3781 -0.9033
  686MPD2    H310204   0.644   3.194  15.809  0.5881  0.9057 -0.2750
  686MPD2     N10205   0.657   3.368  16.227 -0.1045 -0.2127 -0.6929
  686MPD2    H510206   0.678   3.456  16.181 -0.5958  0.1699 -0.1725
  686MPD2    N110207   0.764   2.912  16.133 -0.0327 -0.4446 -0.5680
  686MPD2    H710208   0.794   2.846  16.062 -0.0233  1.1534 -2.0472
  687TMC3    C110209   0.753   3.472  16.413  0.1067 -0.7130 -0.3040
  687TMC3    C210210   0.816   3.546  16.318 -0.6998 -0.2600  0.2098
  687TMC3    C310211   0.954   3.568  16.320 -0.7984 -0.6805 -0.4915
  687TMC3    C410212   0.824   3.436  16.521 -0.0651  0.1024  0.0026
  687TMC3    C510213   0.951   3.489  16.540  0.2302  0.1384  0.0143
  687TMC3    C610214   1.022   3.544  16.431  0.4625 -0.0187 -0.4656
  687TMC3     C10215   0.666   3.362  16.366  0.6740  0.0047  0.4828
  687TMC3     O10216   0.647   3.269  16.447 -0.0853  0.5390 -0.4997
  687TMC3     H10217   0.761   3.579  16.231 -1.3153 -1.0357  0.3028
  687TMC3    H110218   0.784   3.364  16.591 -0.6078 -1.1067 -1.5542
  687TMC3    H210219   1.128   3.563  16.436  0.1430  0.8724  2.7840
  687TMC3    C710220   1.034   3.424  16.624 -0.1478 -0.0504  0.0839
  687TMC3    C810221   1.025   3.584  16.193 -0.0058  0.3182  0.2712
  687TMC3    O110222   1.138   3.376  16.575 -0.4607 -0.0387 -0.2498
  687TMC3    O210223   1.143   3.556  16.201 -0.3937  0.4216 -0.1173
  688MPD2     C10224   0.038   1.778  17.413  0.2890 -0.2572  0.4404
  688MPD2    C110225   0.004   1.648  17.436  0.4613  0.0460  0.0881
  688MPD2    C210226   0.072   1.553  17.358 -0.0548  0.4630 -0.4823
  688MPD2    C310227   0.169   1.584  17.264  0.4600 -0.5308 -0.0986
  688MPD2    C410228   0.199   1.718  17.253 -0.4872  0.4324  0.3867
  688MPD2    C510229   0.130   1.818  17.320  0.2470 -0.6727 -0.9528
  688MPD2     H10230   0.038   1.451  17.367 -1.3547  0.6707 -3.1388
  688MPD2    H110231   0.269   1.754  17.178 -0.3656 -0.5165  0.0526
  688MPD2    H210232   4.731   1.866  17.460 -0.2221  0.2908 -1.0450
  688MPD2    H310233   0.167   1.914  17.287 -0.6983 -0.6409 -1.8883
  688MPD2     N10234   0.233   1.496  17.167  0.0317 -0.7039  0.3780
  688MPD2    H510235   0.311   1.539  17.118  1.4844 -3.1418  0.6031
  688MPD2    N110236   4.632   1.608  17.527  0.5882  0.4418  0.4145
  688MPD2    H710237   4.604   1.511  17.517 -1.1236  1.0107 -0.3239
  689TMC3    C110238   4.457   1.631  17.682  0.7896 -0.0977  0.3483
  689TMC3    C210239   4.450   1.659   0.079 -0.0468  1.0810 -0.5401
  689TMC3    C310240   4.365   1.591   0.157 -0.4322  0.4302  0.0673
  689TMC3    C410241   4.376   1.531  17.633  0.1032  0.3132  0.3903
  689TMC3    C510242   4.294   1.456  17.719 -0.1154 -0.3478 -0.3756
  689TMC3    C610243   4.287   1.485   0.115 -0.0904  0.4164  0.0077
  689TMC3     C10244   4.564   1.697  17.606  0.0313  1.0363  0.1913
  689TMC3     O10245   4.596   1.805  17.646 -0.4392 -0.7688 -0.1223
  689TMC3     H10246   4.520   1.732   0.119  1.5665 -1.6178  1.6090
  689TMC3    H110247   4.384   1.510  17.527 -3.3617  0.1992  0.1262
  689TMC3    H210248   4.244   1.412   0.182 -1.5434  0.0075 -1.3729
  689TMC3    C710249   4.235   1.334  17.665 -0.1975 -0.7382  0.1187
  689TMC3    C810250   4.388   1.614   0.302  0.4379 -0.5654  0.2927
  689TMC3    O110251   4.225   1.241   0.007 -0.3309  0.0156 -0.5549
  689TMC3    O210252   4.486   1.677   0.333 -0.2457 -0.1728  0.1746
  690MPD2     C10253   2.558   3.616  15.681 -0.5506  0.0841  0.4587
  690MPD2    C110254   2.506   3.571  15.557 -0.1800  0.8169 -0.0866
  690MPD2    C210255   2.595   3.568  15.451  0.0721  0.2403  0.0804
  690MPD2    C310256   2.727   3.588  15.473  0.2372 -0.4540  0.6478
  690MPD2    C410257   2.778   3.628  15.594 -0.3851 -0.5713  0.0399
  690MPD2    C510258   2.689   3.647  15.695  0.5596  0.6043 -0.1136
  690MPD2     H10259   2.568   3.551  15.347  0.6817 -1.0362  0.1258
  690MPD2    H110260   2.882   3.652  15.612 -0.6075  1.0912 -0.9293
  690MPD2    H210261   2.493   3.624  15.768  1.9000  0.2351  2.2756
  690MPD2    H310262   2.721   3.686  15.791 -0.5957  1.3191 -0.0258
  690MPD2     N10263   2.808   3.600  15.353 -0.8412 -0.4005 -0.6070
  690MPD2    H510264   2.756   3.582  15.268 -0.4156 -0.2360 -0.8961
  690MPD2    N110265   2.375   3.522  15.543  0.5505 -0.3581  0.2157
  690MPD2    H710266   2.350   3.465  15.463  0.3820 -1.5835  1.1385
  691TMC3    C110267   2.169   3.448  15.616 -0.0496 -0.3234  0.1400
  691TMC3    C210268   2.060   3.490  15.695 -0.4394 -0.6407  0.1938
  691TMC3    C310269   1.983   3.388  15.746 -0.0780 -0.5508 -0.0003
  691TMC3    C410270   2.195   3.316  15.579 -0.1624  0.1279  0.3378
  691TMC3    C510271   2.111   3.226  15.630  0.6500  0.3451 -0.3874
  691TMC3    C610272   2.006   3.256  15.707 -0.1231  0.1409  0.1692
  691TMC3     C10273   2.282   3.538  15.638  0.5381 -0.6413  0.7457
  691TMC3     O10274   2.262   3.624  15.727  0.1541  0.1629 -0.2064
  691TMC3     H10275   2.050   3.595  15.721 -2.2007 -0.4929 -1.0779
  691TMC3    H110276   2.287   3.285  15.531  0.8581  0.8044  1.8144
  691TMC3    H210277   1.935   3.187  15.751 -0.2838  0.4909  0.4616
  691TMC3    C710278   2.112   3.097  15.559 -0.3306  0.1246  1.4170
  691TMC3    C810279   1.890   3.418  15.857 -0.7341  0.2328  0.3102
  691TMC3    O110280   2.201   3.082  15.477  0.8562  0.6422  0.1935
  691TMC3    O210281   1.882   3.335  15.948  0.0455  0.1067 -0.6585
  692TMC3    C110282   3.691   4.253  16.178 -0.5214 -0.0731  1.2605
  692TMC3    C210283   3.791   4.301  16.261  0.1269 -0.7119 -0.4688
  692TMC3    C310284   3.868   4.213  16.329  0.6114  0.7541  0.4223
  692TMC3    C410285   3.665   4.121  16.172  0.5209  0.0960 -0.1852
  692TMC3    C510286   3.738   4.037  16.252  0.1372  0.1432 -0.0671
  692TMC3    C610287   3.849   4.078  16.320  0.2095 -0.8136 -0.0761
  692TMC3     C10288   3.604   4.348  16.105  0.0148 -0.8137  0.4694
  692TMC3     O10289   3.501   4.306  16.050 -0.1367  0.0789 -0.0196
  692TMC3     H10290   3.833   4.400  16.254  0.5524 -0.7028  2.0119
  692TMC3    H110291   3.586   4.077  16.113  1.0200 -1.0249 -0.0280
  692TMC3    H210292   3.887   4.021  16.404  1.1099 -0.3165 -0.1475
  692TMC3    C710293   3.714   3.894  16.241  0.5127  0.2856  0.1698
  692TMC3    C810294   3.879   4.247  16.475  0.1253  0.2525 -0.0630
  692TMC3    O110295   3.621   3.847  16.175 -0.7179  0.4091 -0.0943
  692TMC3    O210296   3.949   4.170  16.542 -0.3908 -0.2977  0.2474
  693MPD2     C10297   4.210   2.643  10.307 -0.0013 -0.1643 -0.3448
  693MPD2    C110298   4.118   2.577  10.374  0.4041 -0.9031  0.1139
  693MPD2    C210299   4.147   2.458  10.444  0.4072 -1.1203 -0.2064
  693MPD2    C310300   4.281   2.428  10.458  0.4732 -0.1764 -0.7567
  693MPD2    C410301   4.374   2.508  10.394  0.3361  0.4263  0.3221
  693MPD2    C510302   4.338   2.614  10.315  0.2325  0.1670 -0.1308
  693MPD2     H10303   4.063   2.402  10.483 -0.9131  0.4172 -0.8151
  693MPD2    H110304   4.481   2.498  10.406  0.4107 -0.5146 -1.2431
  693MPD2    H210305   4.182   2.724  10.241  2.6490 -0.4157 -1.7927
  693MPD2    H310306   4.413   2.680  10.271  2.9728 -1.5615  1.9484
  693MPD2     N10307   4.326   2.326  10.540  0.1111 -0.0931 -0.4267
  693MPD2    H510308   4.427   2.323  10.543  0.0522 -1.6238 -0.4133
  693MPD2    N110309   3.990   2.637  10.382  0.0546 -0.5997  0.0334
  693MPD2    H710310   3.984   2.738  10.369  1.5244 -0.2890  1.8262
  694TMC3    C110311   3.767   2.670  10.436  0.3763  0.0314  0.0346
  694TMC3    C210312   3.644   2.627  10.386 -0.6194 -0.1533 -0.2066
  694TMC3    C310313   3.532   2.642  10.464  0.3936 -0.9045 -0.0640
  694TMC3    C410314   3.772   2.731  10.562 -0.3650  0.0788  0.2848
  694TMC3    C510315   3.659   2.765  10.632  0.0730  0.1171 -0.5264
  694TMC3    C610316   3.538   2.715  10.580  0.1126  0.5250  0.8007
  694TMC3     C10317   3.872   2.578  10.421  0.0016  0.4845 -0.6356
  694TMC3     O10318   3.848   2.460  10.437  0.3515  0.0399 -0.4397
  694TMC3     H10319   3.652   2.568  10.295 -0.0464 -1.1529  0.4913
  694TMC3    H110320   3.862   2.752  10.620 -0.1636 -0.8623  0.3062
  694TMC3    H210321   3.449   2.733  10.639 -1.1906  0.9055 -1.3118
  694TMC3    C710322   3.676   2.737  10.770  0.1437 -0.8478 -0.2243
  694TMC3    C810323   3.407   2.604  10.408 -0.0829 -0.6398 -0.1348
  694TMC3    O110324   3.746   2.821  10.830 -0.2763  0.3807  0.4694
  694TMC3    O210325   3.304   2.616  10.475  0.2548 -0.1179  0.1968
  695MPD2     C10326   4.346   4.158  13.555  0.4607 -0.0412  0.1516
  695MPD2    C110327   4.314   4.223  13.674 -0.1073  0.6273 -1.1309
  695MPD2    C210328   4.185   4.251  13.699  0.5495  0.9825 -0.3285
  695MPD2    C310329   4.083   4.238  13.611 -0.2081  0.1654  0.3447
  695MPD2    C410330   4.112   4.181  13.489  0.5760 -0.0036  0.3694
  695MPD2    C510331   4.243   4.146  13.464 -0.3636 -0.1338 -0.2914
  695MPD2     H10332   4.156   4.253  13.804  2.6558  1.2430  0.2500
  695MPD2    H110333   4.041   4.167  13.408  0.2054 -2.9933  1.2056
  695MPD2    H210334   4.450   4.139  13.531  0.3138 -0.0138 -0.5195
  695MPD2    H310335   4.276   4.103  13.370 -1.3610  0.2564 -0.8336
  695MPD2     N10336   3.954   4.274  13.652  0.8294  0.5175  0.1139
  695MPD2    H510337   3.935   4.301  13.748 -0.8886  1.8668 -0.5936
  695MPD2    N110338   4.402   4.242  13.781  0.2983 -0.1992 -0.2309
  695MPD2    H710339   4.360   4.273  13.868  1.2645  0.3741  0.0276
  696TMC3    C110340   3.737   4.348  13.632  0.7582  0.0804 -0.4714
  696TMC3    C210341   3.722   4.321  13.767 -0.5218  0.1453  0.2632
  696TMC3    C310342   3.652   4.411  13.843  0.3502  0.5369  0.5585
  696TMC3    C410343   3.663   4.448  13.577  0.1316 -0.3751 -0.4207
  696TMC3    C510344   3.596   4.533  13.655 -0.0391  0.2232 -0.6328
  696TMC3    C610345   3.586   4.518  13.787 -0.4084 -0.0555  0.1528
  696TMC3     C10346   3.844   4.287  13.569  0.0965  0.3864  0.0491
  696TMC3     O10347   3.836   4.284  13.444 -0.3212 -0.8924  0.2686
  696TMC3     H10348   3.771   4.234  13.810 -1.3866  1.0537  3.0956
  696TMC3    H110349   3.673   4.459  13.470  0.7260  0.0603 -0.3169
  696TMC3    H210350   3.523   4.584  13.845  0.7606  3.3343 -2.4507
  696TMC3    C710351   3.615   4.669  13.612  0.7287 -0.5551  0.2373
  696TMC3    C810352   3.733   4.460  13.956  0.0535  0.6146  0.3395
  696TMC3    O110353   3.604   4.704  13.491 -0.2405 -0.3338  0.1313
  696TMC3    O210354   3.760   4.578  13.944  0.0095 -0.1876 -0.0013
  697MPD2     C10355   3.714   1.117  15.608 -0.8778 -0.4057  0.3394
  697MPD2    C110356   3.657   1.138  15.485  0.3989 -1.2673 -0.2086
  697MPD2    C210357   3.669   1.259  15.423  0.0229  0.0827 -0.6072
  697MPD2    C310358   3.763   1.353  15.477  0.2165  0.0574 -0.7663
  697MPD2    C410359   3.834   1.326  15.588 -0.0440  0.6408  1.1078
  697MPD2    C510360   3.801   1.210  15.653 -0.4576 -0.3786 -0.1622
  697MPD2     H10361   3.609   1.276  15.334 -0.6173  0.3527 -0.1233
  697MPD2    H110362   3.906   1.395  15.631  1.5723  0.4470 -1.2794
  697MPD2    H210363   3.683   1.026  15.659  0.8682 -0.8962  0.5345
  697MPD2    H310364   3.842   1.202  15.753  0.1783  1.8592 -0.2489
  697MPD2     N10365   3.771   1.472  15.405  0.8964 -0.0999  0.1444
  697MPD2    H510366   3.715   1.476  15.320 -0.2087  3.9507  1.1211
  697MPD2    N110367   3.583   1.038  15.418  0.0079  0.2050  0.4698
  697MPD2    H710368   3.529   1.065  15.336  2.8540 -0.0306 -1.4815
  698TMC3    C110369   3.868   1.656  15.312  0.0821  0.1387  0.0482
  698TMC3    C210370   3.941   1.769  15.325  0.2283  0.1764 -0.0118
  698TMC3    C310371   4.014   1.810  15.213 -0.0325 -0.6697  0.4278
  698TMC3    C410372   3.854   1.597  15.189  0.2934 -0.8447  0.2359
  698TMC3    C510373   3.919   1.646  15.077 -0.3112 -0.4754  0.3701
  698TMC3    C610374   4.006   1.752  15.092 -0.7147  0.1917  0.1026
  698TMC3     C10375   3.845   1.580  15.432  0.7224  0.4168 -0.1987
  698TMC3     O10376   3.903   1.615  15.533  0.7068  0.1817  0.3271
  698TMC3     H10377   3.945   1.817  15.422  0.0803 -1.0171  0.5792
  698TMC3    H110378   3.785   1.515  15.175 -1.2928  0.4551  0.3029
  698TMC3    H210379   4.054   1.794  15.005  0.0919 -1.7980 -0.4062
  698TMC3    C710380   3.897   1.579  14.950 -0.5071 -0.0235  0.4068
  698TMC3    C810381   4.117   1.916  15.219  0.1143  0.4000  0.4734
  698TMC3    O110382   3.786   1.529  14.941  0.0373 -0.2811  0.2780
  698TMC3    O210383   4.182   1.945  15.121  0.4691 -0.3206 -0.2181
  699TMC3    C110384   3.578   0.125  13.126  0.0322  0.1300 -0.9952
  699TMC3    C210385   3.635   4.730  13.114  0.3911  0.4057 -0.7147
  699TMC3    C310386   3.555   4.623  13.115 -0.4603 -0.4208  0.2037
  699TMC3    C410387   3.444   0.139  13.149  0.0301  0.0056  0.4691
  699TMC3    C510388   3.372   0.023  13.167  0.8492 -0.3354  0.8058
  699TMC3    C610389   3.418   4.632  13.140  0.2530 -0.8142  0.0680
  699TMC3     C10390   3.654   0.244  13.076 -0.4171 -0.2987  0.2953
  699TMC3     O10391   3.592   0.320  13.003 -0.3572 -0.3514 -0.0978
  699TMC3     H10392   3.736   4.706  13.083  0.3974 -0.3205 -0.1419
  699TMC3    H110393   3.393   0.231  13.176 -1.5676 -0.9557  0.7421
  699TMC3    H210394   3.351   4.549  13.153  0.3852 -0.8486  0.5285
  699TMC3    C710395   3.233   0.039  13.210  0.4840 -0.2390 -0.0465
  699TMC3    C810396   3.610   4.489  13.126  0.2716 -0.1998 -0.5094
  699TMC3    O110397   3.210   0.116  13.300 -0.3101 -0.1387 -0.1681
  699TMC3    O210398   3.578   4.434  13.229 -0.1536 -0.2577  0.0057
  700TMC3    C110399   2.793   2.044  16.523 -0.3656  0.0220  0.1257
  700TMC3    C210400   2.677   1.977  16.554  0.1770 -0.2179  0.1482
  700TMC3    C310401   2.672   1.921  16.676  0.2939 -0.8583  0.1090
  700TMC3    C410402   2.881   2.077  16.624 -0.4826 -0.9352 -0.5271
  700TMC3    C510403   2.871   2.019  16.742 -0.7884 -0.4797  0.3081
  700TMC3    C610404   2.762   1.941  16.780 -0.1839 -0.1988  0.6764
  700TMC3     C10405   2.769   2.145  16.423 -0.0532  0.0862 -0.0036
  700TMC3     O10406   2.653   2.167  16.392  0.0168 -0.3417 -0.4749
  700TMC3     H10407   2.608   1.950  16.475 -0.9440 -0.1072  1.0906
  700TMC3    H110408   2.972   2.133  16.609  0.1870 -2.1692 -1.0857
  700TMC3    H210409   2.758   1.897  16.879  3.9685 -2.2059 -0.0445
  700TMC3    C710410   2.957   2.064  16.853  0.2190  0.6152  0.5505
  700TMC3    C810411   2.600   1.796  16.674 -0.9872  0.0637  0.2843
  700TMC3    O110412   2.900   2.079  16.958  0.0314  0.1282  0.4607
  700TMC3    O210413   2.580   1.735  16.572 -0.3922  0.1936 -0.3379
  701TMC3    C110414   2.860   0.793  15.102 -0.0135  0.0310 -0.5513
  701TMC3    C210415   2.916   0.735  14.991  0.3712 -0.8461  0.4847
  701TMC3    C310416   3.050   0.741  14.983 -0.7208  0.0067 -0.2235
  701TMC3    C410417   2.938   0.849  15.205 -0.0007  0.9640  0.2221
  701TMC3    C510418   3.072   0.864  15.182 -0.2066 -0.2348  0.3130
  701TMC3    C610419   3.125   0.819  15.067  0.5902  0.3801  0.5280
  701TMC3     C10420   2.717   0.797  15.129 -0.0278 -0.6347  0.0178
  701TMC3     O10421   2.681   0.874  15.216 -0.2381 -0.2180  0.3397
  701TMC3     H10422   2.866   0.675  14.916  0.0313 -0.4808  0.4212
  701TMC3    H110423   2.896   0.878  15.301  1.0901 -1.5631  1.4458
  701TMC3    H210424   3.229   0.838  15.042  0.7618 -1.8162 -0.4814
  701TMC3    C710425   3.158   0.936  15.274  0.8371 -0.6221  0.1695
  701TMC3    C810426   3.124   0.649  14.896 -0.0932 -0.8130  0.2170
  701TMC3    O110427   3.239   1.016  15.224 -0.0739  0.5122  0.1141
  701TMC3    O210428   3.247   0.668  14.882 -0.0924  0.1591 -0.3070
  702MPD2     C10429   3.497   3.382  10.507 -0.4560 -0.0176  0.0634
  702MPD2    C110430   3.380   3.452  10.525  0.6614 -0.8870  0.5285
  702MPD2    C210431   3.289   3.461  10.425  0.8390 -0.0714  0.8896
  702MPD2    C310432   3.311   3.404  10.300  0.4251  0.1611 -0.3716
  702MPD2    C410433   3.435   3.347  10.283  0.0922  0.4282  0.7531
  702MPD2    C510434   3.529   3.332  10.382  0.2443  0.0212 -0.4226
  702MPD2     H10435   3.201   3.521  10.445  1.3274  0.7928  0.4795
  702MPD2    H110436   3.456   3.308  10.184 -0.0154 -0.5782  1.1293
  702MPD2    H210437   3.567   3.363  10.588 -0.0251 -1.8456 -0.7389
  702MPD2    H310438   3.624   3.288  10.354 -0.9995 -1.5245 -2.2332
  702MPD2     N10439   3.222   3.427  10.193  0.4521 -0.0408 -0.0872
  702MPD2    H510440   3.261   3.394  10.106  1.0905 -0.7386  0.4641
  702MPD2    N110441   3.335   3.510  10.641  0.6420 -0.2603  0.0166
  702MPD2    H710442   3.238   3.541  10.641  0.4586 -0.8631 -2.4234
  703TMC3    C110443   3.070   3.580  10.089  0.3502 -0.6162  0.5941
  703TMC3    C210444   2.940   3.631  10.102  0.4229 -0.0624 -0.9895
  703TMC3    C310445   2.921   3.754  10.051 -1.4900  0.1781  0.4253
  703TMC3    C410446   3.163   3.650  10.020 -0.6920 -0.6177  0.8014
  703TMC3    C510447   3.133   3.779   9.966  0.1059  0.2490 -0.5983
  703TMC3    C610448   3.010   3.833   9.985 -0.4005 -0.2586 -0.7333
  703TMC3     C10449   3.108   3.498  10.202  0.2338 -0.2960 -0.2329
  703TMC3     O10450   3.023   3.496  10.294  0.4864  1.5745 -0.1726
  703TMC3     H10451   2.859   3.570  10.139  2.3583 -1.8150  0.3066
  703TMC3    H110452   3.259   3.602  10.007 -0.2583  1.2305 -2.5129
  703TMC3    H210453   2.996   3.925   9.929 -0.9458  0.1528  0.0864
  703TMC3    C710454   3.249   3.855   9.943 -0.3820 -0.0839 -0.3409
  703TMC3    C810455   2.781   3.803  10.039 -0.1450  0.0375  0.3807
  703TMC3    O110456   3.338   3.794   9.888  0.2336  0.3257 -0.2986
  703TMC3    O210457   2.764   3.874   9.939 -0.0033  0.1591  0.7633
  704TMC3    C110458   0.485   1.234  12.538  0.0678  0.3468  0.5862
  704TMC3    C210459   0.581   1.186  12.452 -0.5359 -0.2629 -0.6068
  704TMC3    C310460   0.659   1.072  12.489  0.3462  0.8751  0.4953
  704TMC3    C410461   0.474   1.180  12.666 -0.9722 -0.7401  0.1017
  704TMC3    C510462   0.559   1.068  12.693 -0.1592 -0.1758  0.1069
  704TMC3    C610463   0.654   1.015  12.613 -0.0404  0.2538 -0.1849
  704TMC3     C10464   0.382   1.332  12.499  0.1626  0.3839  0.9707
  704TMC3     O10465   0.285   1.340  12.573  0.1706 -0.0674 -0.1319
  704TMC3     H10466   0.589   1.230  12.353 -1.5599  2.5431  0.5484
  704TMC3    H110467   0.393   1.212  12.731 -0.5658 -2.7626  1.5708
  704TMC3    H210468   0.683   0.911  12.626  2.3392  0.9941  0.4397
  704TMC3    C710469   0.514   0.990  12.810  0.6276 -1.2106 -0.0967
  704TMC3    C810470   0.738   0.999  12.386 -0.2094  0.4675 -0.1441
  704TMC3    O110471   0.401   0.994  12.844 -0.7257  0.4518  0.2015
  704TMC3    O210472   0.724   0.876  12.375 -0.1228 -0.2548  0.2249
  705MPD2     C10473   3.537   4.539  17.114  0.8540  0.6139 -0.2146
  705MPD2    C110474   3.500   4.660  17.059  0.8300 -0.1142 -0.3918
  705MPD2    C210475   3.371   4.707  17.069 -0.2631  0.3690  0.6005
  705MPD2    C310476   3.279   4.627  17.132  0.2819 -0.4130  0.3351
  705MPD2    C410477   3.319   4.507  17.186  0.7441 -0.4158 -0.1218
  705MPD2    C510478   3.447   4.471  17.194 -0.2145  0.3301 -0.0158
  705MPD2     H10479   3.342   0.063  17.017 -0.4036  1.6465  2.9146
  705MPD2    H110480   3.244   4.447  17.237  0.7838  0.5772  1.1240
  705MPD2    H210481   3.636   4.498  17.096 -0.2952 -1.0503 -2.8032
  705MPD2    H310482   3.466   4.375  17.240 -1.1292  0.0819 -0.1420
  705MPD2     N10483   3.145   4.648  17.117  0.1784  0.5566  0.0187
  705MPD2    H510484   3.082   4.575  17.146 -0.7513  1.5909  0.5851
  705MPD2    N110485   3.596   4.716  16.979  0.1154  0.6336 -0.2383
  705MPD2    H710486   3.671   4.653  16.956  2.3920  2.9210  0.8702
  706TMC3    C110487   3.891   0.035  16.720  0.0945 -0.3242 -0.1556
  706TMC3    C210488   3.908   0.146  16.644 -0.3265  0.5829 -0.5764
  706TMC3    C310489   3.831   0.250  16.677 -0.6226  0.6209 -0.8172
  706TMC3    C410490   3.794   0.018  16.811 -0.3839  0.3707  0.1323
  706TMC3    C510491   3.710   0.125  16.834 -0.0215  0.5910 -0.2667
  706TMC3    C610492   3.726   0.243  16.768  0.0105 -0.8673 -0.8077
  706TMC3     C10493   4.003   4.674  16.740 -0.2112  0.3487  0.7035
  706TMC3     O10494   4.021   4.634  16.854 -0.1293  0.0831 -0.0317
  706TMC3     H10495   3.996   0.159  16.583 -0.5006 -0.5841 -1.0873
  706TMC3    H110496   3.787   4.657  16.863  0.8114  0.0359 -0.3278
  706TMC3    H210497   3.657   0.326  16.761  0.1156 -0.9531 -2.9059
  706TMC3    C710498   3.598   0.105  16.928 -0.4824  0.6922  0.4982
  706TMC3    C810499   3.851   0.374  16.604 -0.5461  0.4553 -0.0759
  706TMC3    O110500   3.515   0.193  16.930  0.7394 -0.1195  0.3525
  706TMC3    O210501   3.904   0.356  16.498 -0.3678 -0.0740 -0.0013
  707TMC3    C110502   1.299   3.412   1.356  0.5710  0.1735  0.3145
  707TMC3    C210503   1.340   3.369   1.485 -0.1193 -0.4396 -0.2261
  707TMC3    C310504   1.239   3.335   1.565 -0.0896 -0.5768 -0.8095
  707TMC3    C410505   1.168   3.423   1.316 -0.3165  0.0163  0.6391
  707TMC3    C510506   1.068   3.384   1.408 -0.3482  0.0309  0.9220
  707TMC3    C610507   1.105   3.343   1.531  0.5298  0.1650 -0.1176
  707TMC3     C10508   1.405   3.442   1.263  0.5991  0.5686 -0.9001
  707TMC3     O10509   1.516   3.411   1.297  0.1010 -0.1635  0.1288
  707TMC3     H10510   1.444   3.375   1.513 -0.0886 -1.3221 -0.1471
  707TMC3    H110511   1.163   3.431   1.208  1.2810 -2.8213  0.3585
  707TMC3    H210512   1.032   3.320   1.607  0.5790 -0.9666 -0.4086
  707TMC3    C710513   0.942   3.328   1.363 -0.6712 -0.2100 -0.4845
  707TMC3    C810514   1.274   3.253   1.681  0.0109 -0.6140 -0.4653
  707TMC3    O110515   0.900   3.222   1.413 -0.2961 -0.1802  0.5713
  707TMC3    O210516   1.204   3.262   1.781 -0.0588  0.2150  0.2752
  708MPD2     C10517   2.886   2.506  13.823 -0.1070 -0.1719 -0.3486
  708MPD2    C110518   2.783   2.582  13.880 -0.1213  0.5807  0.3997
  708MPD2    C210519   2.727   2.550  13.996  0.4420 -0.1982 -0.6035
  708MPD2    C310520   2.781   2.440  14.067 -0.1941  0.9507  0.1780
  708MPD2    C410521   2.883   2.363  14.019 -0.5099  1.3020 -0.3407
  708MPD2    C510522   2.941   2.405  13.900 -0.4529  0.4775 -0.6700
  708MPD2     H10523   2.648   2.606  14.045 -0.7812 -0.8660 -1.8148
  708MPD2    H110524   2.936   2.283  14.069  0.3239  0.4973 -2.5304
  708MPD2    H210525   2.943   2.539  13.737 -1.8303  0.3651 -1.2837
  708MPD2    H310526   3.029   2.350  13.868 -0.9185  0.5566 -2.0567
  708MPD2     N10527   2.723   2.406  14.192  0.2604  0.9192 -0.4502
  708MPD2    H510528   2.780   2.339  14.243  3.7438  0.2533 -5.1796
  708MPD2    N110529   2.751   2.695  13.800  0.4901  0.0031 -0.4305
  708MPD2    H710530   2.785   2.706  13.705  0.7443 -2.7746 -0.6518
  709TMC3    C110531   2.637   2.899  13.744  0.0469  0.1487 -0.1082
  709TMC3    C210532   2.600   2.847  13.622 -0.0544  0.1215 -0.6245
  709TMC3    C310533   2.486   2.882  13.557  0.3334 -0.4731 -0.7305
  709TMC3    C410534   2.546   2.985  13.799 -0.0568  0.0195 -0.0151
  709TMC3    C510535   2.424   3.006  13.745 -0.7396  0.2509 -0.3458
  709TMC3    C610536   2.393   2.960  13.619  1.0410  0.5551  0.5653
  709TMC3     C10537   2.670   2.795  13.846 -0.4253 -0.0516 -0.0535
  709TMC3     O10538   2.611   2.813  13.953 -0.1932 -0.3213  0.2189
  709TMC3     H10539   2.673   2.780  13.577  2.0512 -0.5531  3.8353
  709TMC3    H110540   2.575   3.038  13.889 -0.3904  0.7631 -0.3443
  709TMC3    H210541   2.292   2.975  13.581  0.9618  0.0756  0.5913
  709TMC3    C710542   2.315   3.020  13.841  0.2756 -0.1350 -0.4573
  709TMC3    C810543   2.427   2.790  13.460 -0.4862 -0.1252  0.0852
  709TMC3    O110544   2.205   3.048  13.800  0.0318 -0.5659 -0.5155
  709TMC3    O210545   2.305   2.787  13.453  0.3583  0.7444 -0.0790
  710TMC3    C110546   3.121   3.880   0.612 -0.2593  0.0096  0.0801
  710TMC3    C210547   3.160   3.936   0.486  0.0835  0.2280 -0.6139
  710TMC3    C310548   3.282   3.899   0.433  0.6952 -0.0380  0.4333
  710TMC3    C410549   3.211   3.790   0.673  0.5421 -0.3492 -0.1362
  710TMC3    C510550   3.324   3.750   0.610 -0.4019  0.4719  0.6504
  710TMC3    C610551   3.365   3.802   0.490 -0.3199  0.1778  0.0435
  710TMC3     C10552   2.997   3.923   0.668  0.0570 -0.5773  0.4477
  710TMC3     O10553   2.931   3.829   0.715  1.1200 -0.4394  0.1132
  710TMC3     H10554   3.093   4.004   0.435 -0.3570  1.0771  1.0823
  710TMC3    H110555   3.173   3.754   0.768  0.2478  1.2214  0.3267
  710TMC3    H210556   3.467   3.784   0.458 -0.2047  0.3361  0.3171
  710TMC3    C710557   3.421   3.663   0.683 -0.6632  0.7498 -0.2188
  710TMC3    C810558   3.303   3.910   0.292 -0.3468  0.2949  0.1850
  710TMC3    O110559   3.443   3.676   0.800 -0.2388  0.1049  0.3150
  710TMC3    O210560   3.404   3.862   0.246 -0.4214  0.7821  0.5060
  711TMC3    C110561   3.739   0.350  14.795  0.2189 -0.0949  0.2616
  711TMC3    C210562   3.682   0.426  14.900  0.0381  0.0526 -0.4180
  711TMC3    C310563   3.759   0.431  15.021  0.0419 -0.3974 -0.2569
  711TMC3    C410564   3.865   0.299  14.802  0.7592  0.5524 -0.7872
  711TMC3    C510565   3.934   0.295  14.926  0.2566 -0.1133 -0.0754
  711TMC3    C610566   3.878   0.362  15.028  0.5509 -0.3889 -0.0848
  711TMC3     C10567   3.652   0.245  14.750 -0.6263  0.1696  0.6739
  711TMC3     O10568   3.678   0.193  14.642  0.4465 -0.1752  0.1308
  711TMC3     H10569   3.583   0.469  14.890 -0.4317 -1.2648 -1.3483
  711TMC3    H110570   3.903   0.246  14.716 -0.2076 -1.9323  0.3361
  711TMC3    H210571   3.943   0.371  15.114  0.4628 -0.3437 -0.0229
  711TMC3    C710572   3.964   0.160  14.975 -0.6365  0.0054 -0.1905
  711TMC3    C810573   3.665   0.414  15.128  0.0346  0.8712 -0.3730
  711TMC3    O110574   4.004   0.140  15.091 -0.4777  0.1594  0.3926
  711TMC3    O210575   3.557   0.370  15.096 -0.3402  0.1872 -0.3497
  712MPD2     C10576   0.541   1.336  14.052 -0.5496  0.2564 -0.5198
  712MPD2    C110577   0.481   1.318  13.937  1.0749 -0.7524  0.3735
  712MPD2    C210578   0.503   1.405  13.835  0.0283  0.0388  0.0200
  712MPD2    C310579   0.585   1.516  13.862 -0.3969  0.2643  0.6743
  712MPD2    C410580   0.628   1.536  13.990  0.1594 -0.3617  0.3017
  712MPD2    C510581   0.614   1.438  14.083  0.2361  1.0488  0.5082
  712MPD2     H10582   0.467   1.371  13.739 -2.2934  1.2169  0.4827
  712MPD2    H110583   0.692   1.620  14.016 -1.2724  0.3673  1.5104
  712MPD2    H210584   0.533   1.273  14.140 -0.6009 -0.5251 -1.0800
  712MPD2    H310585   0.651   1.449  14.185  1.6159  0.3085  0.0883
  712MPD2     N10586   0.623   1.611  13.765  0.0349  0.2361  0.5026
  712MPD2    H510587   0.682   1.691  13.788 -1.8824  2.0751 -0.9996
  712MPD2    N110588   0.402   1.207  13.907  0.3345  0.0927 -0.3328
  712MPD2    H710589   0.385   1.196  13.808 -1.3829  2.1523 -0.2628
  713TMC3    C110590   0.649   1.700  13.541  0.3962  0.6615 -0.2851
  713TMC3    C210591   0.778   1.746  13.565 -0.7225 -0.5201 -0.0470
  713TMC3    C310592   0.856   1.778  13.462  0.0463 -0.3775  0.2343
  713TMC3    C410593   0.586   1.710  13.415  0.1290 -0.1117  0.6075
  713TMC3    C510594   0.667   1.759  13.315 -0.3534 -0.5050  0.2677
  713TMC3    C610595   0.804   1.787  13.336  0.3025  0.7280 -0.0309
  713TMC3     C10596   0.578   1.608  13.634  0.0103  0.0264 -0.0291
  713TMC3     O10597   0.484   1.552  13.582 -0.9836  0.1950  0.4672
  713TMC3     H10598   0.809   1.732  13.668 -1.1269 -0.6810  0.0569
  713TMC3    H110599   0.480   1.688  13.404  0.8348 -2.4271 -1.4194
  713TMC3    H210600   0.867   1.812  13.251 -1.7008  1.3494 -1.3211
  713TMC3    C710601   0.613   1.826  13.201 -0.3419  0.2560 -1.4383
  713TMC3    C810602   0.945   1.890  13.484 -0.0790  0.0058  0.1307
  713TMC3    O110603   0.687   1.842  13.104  0.2967 -0.0781 -0.1847
  713TMC3    O210604   0.961   1.972  13.393 -0.5162 -0.2271 -0.0065
  714MPD2     C10605   2.319   0.469   1.223  0.1162  0.4685  0.7822
  714MPD2    C110606   2.288   0.343   1.280  0.6389 -0.8228 -0.2461
  714MPD2    C210607   2.159   0.290   1.258 -0.8881 -0.3863 -0.5927
  714MPD2    C310608   2.069   0.355   1.187 -0.1066  0.4085  0.0880
  714MPD2    C410609   2.087   0.483   1.146 -0.0639 -0.1946  0.0369
  714MPD2    C510610   2.210   0.536   1.176  0.4178 -0.2361 -0.0976
  714MPD2     H10611   2.135   0.187   1.285 -1.9311 -0.0633 -0.3143
  714MPD2    H110612   2.005   0.538   1.102 -0.0011  0.0415  0.2182
  714MPD2    H210613   2.403   0.530   1.255  0.7038 -0.0821  0.2872
  714MPD2    H310614   2.232   0.640   1.155  1.0545 -0.3162  0.1773
  714MPD2     N10615   1.945   0.284   1.163  0.1358 -0.0774  0.1754
  714MPD2    H510616   1.943   0.189   1.197  1.8664 -0.0603  0.3229
  714MPD2    N110617   2.395   0.262   1.318 -0.0736  0.5551  0.0390
  714MPD2    H710618   2.486   0.300   1.295 -0.1948  1.5029  1.1384
  715TMC3    C110619   2.506   0.066   1.359  0.1622 -0.3346 -0.2507
  715TMC3    C210620   2.501   4.661   1.348  0.0401  1.1373 -0.3716
  715TMC3    C310621   2.616   4.597   1.301  0.3055  0.3645 -0.6911
  715TMC3    C410622   2.622   0.133   1.343  0.1900  0.9118 -0.1190
  715TMC3    C510623   2.734   0.067   1.295 -0.3387 -1.1146  0.7425
  715TMC3    C610624   2.734   4.669   1.269  0.5447 -0.5483 -0.1425
  715TMC3     C10625   2.382   0.134   1.365 -0.7711  0.5355  0.4318
  715TMC3     O10626   2.289   0.069   1.409 -0.0402 -0.7330 -0.1180
  715TMC3     H10627   2.403   4.618   1.363  0.8551 -0.4499  0.3731
  715TMC3    H110628   2.634   0.238   1.365  0.0016  0.6278  1.3650
  715TMC3    H210629   2.824   4.623   1.229  0.3482  0.5335 -1.8093
  715TMC3    C710630   2.870   0.129   1.307 -0.3771  0.0069  0.0834
  715TMC3    C810631   2.608   4.454   1.290  0.4136 -0.1218 -0.2004
  715TMC3    O110632   2.954   0.086   1.227  0.3990 -0.6181  0.3688
  715TMC3    O210633   2.501   4.409   1.322 -0.1079  0.2503  0.2071
  716MPD2     C10634   2.429   3.325   9.681  0.4568 -0.2712 -0.6102
  716MPD2    C110635   2.344   3.228   9.634 -0.0843  0.3975  0.9338
  716MPD2    C210636   2.400   3.104   9.600 -0.4194  0.4788 -0.5505
  716MPD2    C310637   2.538   3.084   9.598 -0.2716  0.4214 -0.2505
  716MPD2    C410638   2.621   3.185   9.638  0.7326  0.0757  0.0383
  716MPD2    C510639   2.558   3.300   9.684  0.0845 -0.3568 -0.6186
  716MPD2     H10640   2.340   3.019   9.569  0.1263  0.2072 -0.8655
  716MPD2    H110641   2.729   3.184   9.631  0.8357 -3.2978  2.1976
  716MPD2    H210642   2.395   3.422   9.714  2.9340  0.0706  0.9354
  716MPD2    H310643   2.622   3.381   9.718 -1.6428  0.5977  0.3222
  716MPD2     N10644   2.582   2.956   9.541 -0.3566 -0.3865  0.3887
  716MPD2    H510645   2.514   2.886   9.513 -0.2923  0.2895 -1.4271
  716MPD2    N110646   2.209   3.260   9.639  0.5758 -0.0103 -0.1453
  716MPD2    H710647   2.184   3.351   9.675 -2.2438 -1.9192  2.7017
  717TMC3    C110648   2.738   2.775   9.488 -0.1848 -0.2188  0.2221
  717TMC3    C210649   2.643   2.715   9.415 -0.4549  0.1832 -0.3044
  717TMC3    C310650   2.638   2.576   9.414 -0.5917 -0.8559 -1.1231
  717TMC3    C410651   2.825   2.699   9.565 -0.6017  0.1083  0.0118
  717TMC3    C510652   2.826   2.563   9.552 -0.1741 -0.4112 -0.0365
  717TMC3    C610653   2.723   2.495   9.492 -0.8705  0.7593  0.0951
  717TMC3     C10654   2.718   2.913   9.534 -0.5103  0.5452  0.5896
  717TMC3     O10655   2.819   2.971   9.578 -0.0718 -0.3667 -0.3169
  717TMC3     H10656   2.579   2.775   9.351 -0.4841  0.1397 -0.3156
  717TMC3    H110657   2.912   2.755   9.596 -0.1695 -0.3623 -0.3382
  717TMC3    H210658   2.715   2.389   9.512  1.1356  0.5483 -0.2715
  717TMC3    C710659   2.935   2.493   9.607 -1.0008 -0.7090  0.1552
  717TMC3    C810660   2.517   2.518   9.359  0.0868 -0.0737  0.5634
  717TMC3    O110661   3.004   2.547   9.690 -0.0851  0.0943  0.5822
  717TMC3    O210662   2.418   2.590   9.350 -0.1697 -0.4768  0.1362
  718MPD2     C10663   1.618   2.090  12.619  0.0741 -0.2144  0.4516
  718MPD2    C110664   1.662   1.962  12.587  0.1001  0.2758  0.0307
  718MPD2    C210665   1.685   1.875  12.681  0.0490  0.2895  0.2545
  718MPD2    C310666   1.645   1.896  12.810 -0.3686 -0.5227  0.2783
  718MPD2    C410667   1.610   2.023  12.851 -0.2322 -0.1436 -0.4828
  718MPD2    C510668   1.597   2.121  12.748 -0.3155 -0.1686 -0.0517
  718MPD2     H10669   1.738   1.783  12.660 -1.9401 -0.6499 -0.5875
  718MPD2    H110670   1.586   2.048  12.953 -2.6058 -2.0019 -0.5802
  718MPD2    H210671   1.604   2.172  12.550  1.1021  0.9161  1.5990
  718MPD2    H310672   1.562   2.223  12.761  0.7501  0.0993  0.8045
  718MPD2     N10673   1.673   1.790  12.901  0.5801 -0.2061 -0.1942
  718MPD2    H510674   1.723   1.708  12.870 -2.0795 -2.7110  2.1619
  718MPD2    N110675   1.707   1.922  12.459  0.2920 -0.2170  0.4801
  718MPD2    H710676   1.751   1.832  12.447  0.6817  0.1106 -0.5117
  719TMC3    C110677   1.789   1.929  12.247 -0.2648 -0.8486  0.3491
  719TMC3    C210678   1.789   1.791  12.256 -0.6097 -0.0385  0.2511
  719TMC3    C310679   1.899   1.715  12.242 -0.0632  0.0010 -0.2709
  719TMC3    C410680   1.907   1.984  12.196 -0.1763  0.0824 -0.2276
  719TMC3    C510681   2.015   1.905  12.165  0.0206 -0.2857 -0.6318
  719TMC3    C610682   2.011   1.770  12.188 -0.2039  0.0534  0.6085
  719TMC3     C10683   1.717   2.004  12.350 -0.6123 -0.2408 -0.7086
  719TMC3     O10684   1.677   2.116  12.326  0.4914 -0.7012  0.0112
  719TMC3     H10685   1.700   1.738  12.289 -1.2186  0.6991 -0.2279
  719TMC3    H110686   1.921   2.091  12.182 -0.2174  0.0541 -0.4930
  719TMC3    H210687   2.093   1.701  12.169  1.2830  1.4338  2.0588
  719TMC3    C710688   2.093   1.949  12.044  0.2688  0.2024  0.2072
  719TMC3    C810689   1.910   1.631  12.356  0.0289  0.7675  0.1091
  719TMC3    O110690   2.160   1.867  11.989  0.2182 -0.7676 -0.5502
  719TMC3    O210691   1.834   1.658  12.448 -0.1631  0.3701  0.0174
  720MPD2     C10692   0.122   3.342  14.119  0.2914 -0.7863 -1.0740
  720MPD2    C110693   0.225   3.360  14.025  0.1550  0.3546  1.1518
  720MPD2    C210694   0.356   3.347  14.063 -0.0732 -0.0302  0.4564
  720MPD2    C310695   0.396   3.337  14.197 -0.7980 -0.2795 -0.0340
  720MPD2    C410696   0.291   3.319  14.290 -0.0466 -0.2138 -0.0566
  720MPD2    C510697   0.157   3.321  14.248  0.4725 -0.1751 -0.3330
  720MPD2     H10698   0.437   3.340  13.991 -0.1297  2.0452  0.1779
  720MPD2    H110699   0.304   3.305  14.397  0.0048  0.5483  0.0388
  720MPD2    H210700   0.018   3.323  14.095  0.1341  1.1969 -1.9848
  720MPD2    H310701   0.080   3.316  14.324  0.1429  4.0416 -0.4005
  720MPD2     N10702   0.535   3.333  14.228  0.3726 -0.4399  0.3071
  720MPD2    H510703   0.608   3.334  14.158 -0.2365  2.3053 -0.2887
  720MPD2    N110704   0.211   3.361  13.882 -0.1880 -0.1326  0.1951
  720MPD2    H710705   0.291   3.370  13.820 -0.2738 -0.9614 -0.0285
  721TMC3    C110706   0.729   3.330  14.373 -0.0528 -0.2919  0.0955
  721TMC3    C210707   0.782   3.330  14.495 -0.5764 -0.5790  0.2009
  721TMC3    C310708   0.907   3.370  14.518  0.3548  0.1712 -0.4387
  721TMC3    C410709   0.806   3.373  14.264  0.0012 -0.1635  0.5823
  721TMC3    C510710   0.938   3.397  14.287 -0.6115  0.4709 -0.0261
  721TMC3    C610711   0.996   3.400  14.414  0.2198  0.2851  0.2181
  721TMC3     C10712   0.584   3.314  14.358  0.3860 -0.1599 -0.2830
  721TMC3     O10713   0.522   3.293  14.464  0.1330 -0.0289 -0.7327
  721TMC3     H10714   0.720   3.293  14.576 -0.9679 -0.9288 -0.2586
  721TMC3    H110715   0.764   3.390  14.166  3.2164 -0.3198 -0.8243
  721TMC3    H210716   1.102   3.413  14.434  0.3173 -1.8875  1.1637
  721TMC3    C710717   1.016   3.453  14.182 -0.1243 -0.5505  0.1213
  721TMC3    C810718   0.923   3.451  14.632  0.0133 -0.6345  0.2885
  721TMC3    O110719   1.117   3.520  14.211 -0.1599 -0.4221  0.1238
  721TMC3    O210720   0.999   3.547  14.612 -0.9226 -0.4820  0.3637
  722MPD2     C10721   4.204   1.797  13.243  0.5980  0.6824  0.1784
  722MPD2    C110722   4.165   1.929  13.251 -0.2302  0.1061 -0.6847
  722MPD2    C210723   4.034   1.961  13.224 -0.0352 -0.6905 -0.9556
  722MPD2    C310724   3.934   1.864  13.203 -0.4767 -0.2734  0.4627
  722MPD2    C410725   3.980   1.731  13.203 -0.3514 -0.2451  1.2495
  722MPD2    C510726   4.109   1.699  13.228  0.1349 -0.1643  0.0068
  722MPD2     H10727   4.000   2.062  13.204  0.9209 -0.5086 -1.6344
  722MPD2    H110728   3.915   1.646  13.186  0.0887  0.1918 -2.6284
  722MPD2    H210729   4.306   1.761  13.258  0.1981  0.4310  2.2734
  722MPD2    H310730   4.138   1.594  13.231  2.9225  0.6324  0.5481
  722MPD2     N10731   3.802   1.909  13.174 -0.1833  0.2894  0.1130
  722MPD2    H510732   3.791   2.010  13.169  2.7916  0.7165  2.5697
  722MPD2    N110733   4.254   2.040  13.272  0.1335 -0.0684  0.3269
  722MPD2    H710734   4.217   2.135  13.274 -0.0644 -0.1543  0.8011
  723TMC3    C110735   3.568   1.897  13.120  0.3922  0.5831 -0.8148
  723TMC3    C210736   3.456   1.818  13.140  0.5728 -0.3463 -0.0064
  723TMC3    C310737   3.348   1.869  13.080  0.1233  0.7162 -0.5018
  723TMC3    C410738   3.570   2.016  13.046 -0.3414 -0.3502 -0.5187
  723TMC3    C510739   3.451   2.069  13.013 -0.4346 -0.4817 -0.7516
  723TMC3    C610740   3.340   1.989  13.020 -0.1906 -0.7666 -0.2296
  723TMC3     C10741   3.694   1.830  13.157 -0.0478  0.6008 -0.2250
  723TMC3     O10742   3.695   1.711  13.181  0.0187 -0.1175  0.4444
  723TMC3     H10743   3.464   1.719  13.182  1.9851 -0.3300 -0.2460
  723TMC3    H110744   3.660   2.071  13.024  0.3484 -0.8908  0.9056
  723TMC3    H210745   3.250   2.041  12.992 -0.3206  0.9206  3.2391
  723TMC3    C710746   3.452   2.185  12.923  0.8157  0.4146  0.0869
  723TMC3    C810747   3.226   1.790  13.094  0.0164  0.3623 -0.6745
  723TMC3    O110748   3.539   2.265  12.951 -0.7298  0.3510  0.1532
  723TMC3    O210749   3.113   1.835  13.091 -0.0573 -0.3248 -0.4810
  724TMC3    C110750   4.682   4.574  10.516 -0.1101 -0.4945 -0.2228
  724TMC3    C210751   4.578   4.600  10.423 -0.3559 -0.4729  0.6283
  724TMC3    C310752   4.590   4.718  10.354 -0.2536  0.2505  0.1136
  724TMC3    C410753   0.049   4.668  10.544  1.2535  0.0345  0.6824
  724TMC3    C510754   0.036   0.048  10.479  0.9032 -0.3038 -0.1400
  724TMC3    C610755   4.676   0.080  10.387  0.1114  0.0014 -0.9479
  724TMC3     C10756   4.663   4.457  10.594  0.3183 -0.6289  0.3831
  724TMC3     O10757   4.620   4.362  10.526 -0.2826  0.0534  0.1168
  724TMC3     H10758   4.495   4.532  10.410 -0.2104 -0.9166  2.0382
  724TMC3    H110759   0.136   4.636  10.599  0.1075 -2.2335  1.1900
  724TMC3    H210760   4.677   0.179  10.344 -0.7713  0.3164 -0.2383
  724TMC3    C710761   0.149   0.145  10.492 -0.7289 -0.5091 -0.6063
  724TMC3    C810762   4.488   0.010  10.253 -0.0727 -0.2957 -0.9633
  724TMC3    O110763   0.184   0.217  10.396  0.0895 -0.0782  0.0504
  724TMC3    O210764   4.391   4.673  10.250 -0.5632  0.3097  0.0593
  725TMC3    C110765   1.275   3.709  12.928  0.1731 -0.5816  0.1871
  725TMC3    C210766   1.156   3.713  12.860  0.1720 -0.4442 -0.0432
  725TMC3    C310767   1.084   3.603  12.821 -0.5549  0.5131 -0.1702
  725TMC3    C410768   1.334   3.591  12.951 -0.1912 -0.1607  0.5923
  725TMC3    C510769   1.266   3.481  12.899  0.3668  0.1761  0.2830
  725TMC3    C610770   1.149   3.485  12.833  0.2969 -0.0522 -0.2850
  725TMC3     C10771   1.348   3.826  12.938  1.2445  0.1946 -0.1441
  725TMC3     O10772   1.299   3.924  12.878  0.0471  0.1674  0.4250
  725TMC3     H10773   1.105   3.808  12.862 -0.0894 -0.5830 -0.0494
  725TMC3    H110774   1.442   3.585  12.965 -0.0254  0.1911 -0.6021
  725TMC3    H210775   1.103   3.391  12.805 -0.4786  0.4489 -0.6821
  725TMC3    C710776   1.342   3.365  12.855  0.8260 -0.4600  0.1224
  725TMC3    C810777   1.012   3.621  12.702 -0.7258  0.2638 -0.0719
  725TMC3    O110778   1.317   3.311  12.748  1.1373 -0.3391  0.7611
  725TMC3    O210779   1.044   3.720  12.643 -0.3110 -0.5891 -0.3135
  726MPD2     C10780   4.217   0.567  10.575  0.2795  0.0829  0.2065
  726MPD2    C110781   4.116   0.662  10.546  0.2916  0.0402 -0.2925
  726MPD2    C210782   3.989   0.642  10.605  0.4166  0.1614  0.2995
  726MPD2    C310783   3.962   0.525  10.681 -0.3359  0.6447  0.8706
  726MPD2    C410784   4.061   0.431  10.705 -0.2442 -0.0343  0.8654
  726MPD2    C510785   4.187   0.452  10.648 -0.4936  0.2999 -0.7277
  726MPD2     H10786   3.916   0.723  10.601  0.4670  0.0791 -2.3112
  726MPD2    H110787   4.036   0.339  10.755  0.3893 -1.1012 -0.7868
  726MPD2    H210788   4.320   0.579  10.543 -0.5801  0.7808 -2.2294
  726MPD2    H310789   4.253   0.366  10.651 -1.6203 -0.5748 -1.1886
  726MPD2     N10790   3.841   0.515  10.745 -0.9740  0.2486  0.3385
  726MPD2    H510791   3.837   0.443  10.817  1.4204  0.8169  1.0380
  726MPD2    N110792   4.143   0.784  10.483 -0.4330 -0.3627  0.0080
  726MPD2    H710793   4.062   0.843  10.475  1.7945  2.7133  0.1936
  727TMC3    C110794   4.256   0.975  10.394  0.2603 -0.7107 -0.9148
  727TMC3    C210795   4.373   1.042  10.393  0.1249  0.1620 -0.1639
  727TMC3    C310796   4.379   1.151  10.312  0.1653  0.8137  0.2973
  727TMC3    C410797   4.136   1.031  10.339 -0.2619 -0.0767 -0.3363
  727TMC3    C510798   4.155   1.139  10.258  0.0258  0.3293 -0.5636
  727TMC3    C610799   4.272   1.194  10.246 -0.7012  0.2584  0.0859
  727TMC3     C10800   4.267   0.836  10.446  0.0923 -0.1915  0.0834
  727TMC3     O10801   4.374   0.796  10.473 -0.4307  0.2106 -0.7876
  727TMC3     H10802   4.456   0.999  10.447  0.4059 -0.5343 -1.1612
  727TMC3    H110803   4.048   0.969  10.324 -1.8926  1.6697  2.0215
  727TMC3    H210804   4.282   1.259  10.159  0.4717 -0.1256 -0.0641
  727TMC3    C710805   4.043   1.226  10.219 -0.9337 -0.4141 -0.3981
  727TMC3    C810806   4.514   1.195  10.271  0.5002 -0.2771 -0.5348
  727TMC3    O110807   4.068   1.338  10.171  0.2355  0.1448 -0.0192
  727TMC3    O210808   4.604   1.120  10.295  0.1623 -0.1015 -0.1396
  728TMC3    C110809   2.996   3.618  15.212 -0.0556 -0.6607  0.5188
  728TMC3    C210810   3.135   3.624  15.202 -0.3938 -1.1552 -0.4719
  728TMC3    C310811   3.191   3.665  15.079  0.0556 -0.4013 -0.1183
  728TMC3    C410812   2.913   3.643  15.104  0.0335  0.3666  0.0289
  728TMC3    C510813   2.976   3.669  14.982  1.0172 -0.7665  0.3587
  728TMC3    C610814   3.114   3.692  14.969  0.1171 -0.4362  0.0649
  728TMC3     C10815   2.940   3.630  15.345  0.3043  0.3845 -0.0590
  728TMC3     O10816   3.031   3.642  15.428  0.0471  0.4680 -0.0384
  728TMC3     H10817   3.198   3.589  15.283  0.7584  0.9043 -0.4842
  728TMC3    H110818   2.806   3.655  15.107  0.1598  1.7462 -1.0992
  728TMC3    H210819   3.155   3.728  14.875  0.6859  2.6773  1.5289
  728TMC3    C710820   2.887   3.703  14.872  0.1464  0.1325 -0.5203
  728TMC3    C810821   3.325   3.712  15.094  0.2002 -0.2239 -0.0750
  728TMC3    O110822   2.769   3.673  14.882 -0.0646 -0.0917  0.0707
  728TMC3    O210823   3.386   3.684  15.197 -0.2937 -0.8757 -0.4487
  729MPD2     C10824   4.482   0.028  16.316  0.2397 -0.3032 -0.2052
  729MPD2    C110825   4.618   0.008  16.292  0.3165 -0.5323 -0.3332
  729MPD2    C210826   4.701   4.703  16.397  0.3606 -0.0919  0.5258
  729MPD2    C310827   4.649   4.656  16.515  1.0760  0.2947  0.1411
  729MPD2    C410828   4.512   4.646  16.531 -0.1974  0.7377 -0.2947
  729MPD2    C510829   4.432   4.698  16.434  0.5949  0.2568  0.5203
  729MPD2     H10830   0.074   4.699  16.385  0.3927  0.1464  0.7260
  729MPD2    H110831   4.470   4.600  16.619  0.2143 -0.1733 -0.5750
  729MPD2    H210832   4.412   0.072  16.246 -0.3211 -0.7978  0.0465
  729MPD2    H310833   4.324   4.690  16.436  0.6136 -0.2471 -0.5681
  729MPD2     N10834   4.727   4.622  16.622 -0.2505 -0.9676 -0.3141
  729MPD2    H510835   4.684   4.562  16.691 -0.2202  1.4987  1.8672
  729MPD2    N110836   4.674   0.072  16.184  0.0108 -0.1962  0.3197
  729MPD2    H710837   4.607   0.122  16.126  1.0899 -0.5780 -1.2540
  730TMC3    C110838   0.195   4.602  16.753 -0.4000 -0.3007  0.0610
  730TMC3    C210839   0.326   4.645  16.758  0.1785  0.4572  0.9447
  730TMC3    C310840   0.371   4.699  16.876  0.2456  0.4101 -0.1358
  730TMC3    C410841   0.112   4.615  16.866  0.0675 -0.0792  0.0813
  730TMC3    C510842   0.174   4.643  16.988 -0.2771  0.2916  1.2884
  730TMC3    C610843   0.301   4.687  16.991 -0.5961  0.5044  0.3870
  730TMC3     C10844   0.129   4.655  16.637  0.8280 -0.6616 -0.3991
  730TMC3     O10845   0.187   0.006  16.573  0.3152  0.2032  0.1947
  730TMC3     H10846   0.376   4.652  16.662  0.8777 -0.5914  1.2320
  730TMC3    H110847   0.007   4.585  16.864  0.7402 -2.3823 -0.4744
  730TMC3    H210848   0.336   0.000  17.082 -0.0278  2.7597 -1.0224
  730TMC3    C710849   0.087   4.722  17.066 -0.3088  0.3821 -0.4488
  730TMC3    C810850   0.410   0.111  16.870 -0.2524 -0.7112  0.1041
  730TMC3    O110851   0.114   4.703  17.186 -0.6258 -0.1683 -0.1789
  730TMC3    O210852   0.423   0.170  16.975 -0.2032  0.4422 -0.6825
  731MPD2     C10853   0.562   3.411  11.907 -0.4387 -0.3239  0.1569
  731MPD2    C110854   0.628   3.310  11.966  0.4145  0.0801  0.2667
  731MPD2    C210855   0.581   3.255  12.080  0.7908 -0.0808 -0.6260
  731MPD2    C310856   0.465   3.294  12.137 -0.2268  0.6740  0.1118
  731MPD2    C410857   0.391   3.403  12.084 -0.5852 -0.5663  0.4498
  731MPD2    C510858   0.446   3.459  11.972  0.4016  0.3321  0.4617
  731MPD2     H10859   0.638   3.180  12.133 -3.3707 -1.9159  1.2051
  731MPD2    H110860   0.291   3.439  12.109 -0.6229 -0.5189  0.2386
  731MPD2    H210861   0.598   3.459  11.817 -0.2669 -1.6874 -0.5005
  731MPD2    H310862   0.396   3.540  11.919  1.1607  0.4685 -0.0422
  731MPD2     N10863   0.402   3.209  12.236  0.1229  0.1870  0.0920
  731MPD2    H510864   0.466   3.140  12.276 -1.9961 -1.7714  0.0916
  731MPD2    N110865   0.739   3.263  11.897  0.4138 -0.8333 -0.3830
  731MPD2    H710866   0.757   3.312  11.810 -0.4937  0.2595  0.0305
  732TMC3    C110867   0.870   3.099  11.821  0.0926  0.0572 -0.4446
  732TMC3    C210868   0.778   3.069  11.726 -0.6644 -0.3601 -1.2288
  732TMC3    C310869   0.811   3.005  11.615 -0.0093  0.0117  0.1239
  732TMC3    C410870   0.999   3.063  11.807  0.5289  0.1376 -0.6275
  732TMC3    C510871   1.035   2.994  11.694 -0.0453  0.1933 -0.8500
  732TMC3    C610872   0.940   2.962  11.601  0.2433  0.2627 -0.3545
  732TMC3     C10873   0.824   3.169  11.946  0.3115  0.6352  0.4085
  732TMC3     O10874   0.863   3.137  12.054  0.2243 -0.2943 -0.5490
  732TMC3     H10875   0.675   3.102  11.734  0.0441  1.2505  1.3924
  732TMC3    H110876   1.075   3.105  11.872  0.2899  0.6516 -0.6806
  732TMC3    H210877   0.963   2.901  11.514 -1.7983  0.9458 -1.3646
  732TMC3    C710878   1.171   2.966  11.650  0.5864 -0.2193 -0.1476
  732TMC3    C810879   0.730   2.889  11.567 -0.0083 -0.6102 -1.3648
  732TMC3    O110880   1.197   2.948  11.530  0.4014 -0.1447 -0.2867
  732TMC3    O210881   0.754   2.827  11.463  0.2928  0.7793  0.0146
  733TMC3    C110882   1.791   1.537  13.262  0.8104 -0.3547 -0.0803
  733TMC3    C210883   1.737   1.646  13.218 -0.4566  0.2536  0.3704
  733TMC3    C310884   1.765   1.702  13.096 -0.3000  0.0119  0.0101
  733TMC3    C410885   1.876   1.478  13.177  0.0034  0.1715 -0.3423
  733TMC3    C510886   1.924   1.532  13.059  0.3365  0.2393  0.0384
  733TMC3    C610887   1.865   1.648  13.011 -0.2455 -0.4432  0.1492
  733TMC3     C10888   1.703   1.442  13.326 -0.4543 -0.5377 -0.1471
  733TMC3     O10889   1.681   1.339  13.262 -0.1091 -0.6701 -0.7550
  733TMC3     H10890   1.647   1.677  13.271  0.4001  0.8480  1.4832
  733TMC3    H110891   1.913   1.379  13.199  0.7818  0.3433 -0.8662
  733TMC3    H210892   1.899   1.704  12.925 -1.1161  0.0207  0.1071
  733TMC3    C710893   1.996   1.450  12.966  0.4457 -0.0690  0.2318
  733TMC3    C810894   1.671   1.802  13.041  0.3795  0.0306 -0.1380
  733TMC3    O110895   2.042   1.339  13.004  0.2076  0.1003 -0.0003
  733TMC3    O210896   1.616   1.885  13.110  0.2641 -0.3967  0.2208
  734MPD2     C10897   3.764   3.378  12.204 -0.1136 -0.2367 -0.0056
  734MPD2    C110898   3.724   3.317  12.081 -0.0979 -0.0030 -0.7472
  734MPD2    C210899   3.772   3.376  11.965 -0.0803 -0.6469  0.0790
  734MPD2    C310900   3.847   3.487  11.962  0.5570  0.3370 -0.2332
  734MPD2    C410901   3.876   3.547  12.079  0.5115  0.0536  0.1354
  734MPD2    C510902   3.838   3.488  12.197 -0.4296  0.6150 -0.0179
  734MPD2     H10903   3.748   3.330  11.870 -0.9794  2.5013 -1.2158
  734MPD2    H110904   3.929   3.641  12.087  4.1091 -2.0844  1.6413
  734MPD2    H210905   3.733   3.348  12.304 -1.3020  0.9423 -0.0200
  734MPD2    H310906   3.871   3.537  12.288 -0.8949 -0.5857  0.7915
  734MPD2     N10907   3.884   3.530  11.832  0.1687 -0.3219 -0.0546
  734MPD2    H510908   3.864   3.463  11.758  0.6648 -1.7247  1.0803
  734MPD2    N110909   3.641   3.200  12.093 -0.2056  0.5643 -0.6693
  734MPD2    H710910   3.619   3.163  12.184 -1.6227  1.9355 -0.4502
  735TMC3    C110911   3.542   3.002  12.003  0.3739  0.3297  0.5275
  735TMC3    C210912   3.481   2.952  11.893  0.1535 -0.1209 -0.2175
  735TMC3    C310913   3.532   2.847  11.830  0.3873  0.0732  0.4651
  735TMC3    C410914   3.650   2.932  12.057 -0.0287  0.2465  0.2573
  735TMC3    C510915   3.695   2.814  11.992 -0.1276 -0.3415 -0.3167
  735TMC3    C610916   3.629   2.772  11.880 -0.6825  0.2790 -0.2020
  735TMC3     C10917   3.573   3.142  11.989 -0.3102  0.1403 -0.1004
  735TMC3     O10918   3.553   3.186  11.876 -0.1977  0.5584  0.0183
  735TMC3     H10919   3.407   3.012  11.841 -0.3752 -0.7397 -0.1732
  735TMC3    H110920   3.716   2.981  12.128  1.5561  0.1642 -1.1579
  735TMC3    H210921   3.661   2.700  11.806 -1.4830 -0.0559 -0.2174
  735TMC3    C710922   3.839   2.782  11.992 -0.0009  0.2162 -0.7071
  735TMC3    C810923   3.553   2.872  11.684 -0.3114  0.2526 -0.0935
  735TMC3    O110924   3.911   2.871  12.038  0.0300  0.0552  0.2720
  735TMC3    O210925   3.564   2.777  11.610 -0.2113  0.7586  0.5040
  736MPD2     C10926   4.003   2.494  11.845  0.3062 -0.3972 -0.3286
  736MPD2    C110927   3.996   2.617  11.891  0.0682  0.3234  0.8675
  736MPD2    C210928   4.108   2.702  11.888 -0.4178  0.2890  0.7742
  736MPD2    C310929   4.233   2.655  11.841 -0.0783 -0.2281 -0.1554
  736MPD2    C410930   4.243   2.520  11.813  0.0530 -0.2716 -0.4652
  736MPD2    C510931   4.127   2.443  11.808  0.3131 -0.1915  0.4044
  736MPD2     H10932   4.103   2.803  11.927  0.6476  0.4569  0.4761
  736MPD2    H110933   4.331   2.475  11.769  0.1554  1.1966 -1.7434
  736MPD2    H210934   3.917   2.429  11.831  0.3643 -0.7819  1.1246
  736MPD2    H310935   4.136   2.346  11.761  0.9551  0.5560 -1.0018
  736MPD2     N10936   4.355   2.729  11.821 -0.4807  0.1252 -0.2092
  736MPD2    H510937   4.437   2.674  11.797 -0.6729 -0.4891  0.5537
  736MPD2    N110938   3.869   2.664  11.932 -0.7970 -0.1233 -0.7859
  736MPD2    H710939   3.791   2.600  11.920 -0.2364 -0.5124 -2.3939
  737TMC3    C110940   4.497   2.934  11.807 -0.2221 -0.6085  0.4269
  737TMC3    C210941   4.503   3.067  11.777  0.2206 -0.1535  0.3559
  737TMC3    C310942   4.604   3.114  11.694 -1.0136  0.3906 -0.8073
  737TMC3    C410943   4.601   2.852  11.762 -0.7251  0.1083  0.2420
  737TMC3    C510944   4.709   2.904  11.691 -0.6845 -0.1456  0.1678
  737TMC3    C610945   4.707   3.033  11.646 -0.1812 -0.0085  0.5236
  737TMC3     C10946   4.369   2.869  11.853  0.9862 -0.4982  0.1771
  737TMC3     O10947   4.281   2.953  11.872 -0.0012 -0.1628 -0.3796
  737TMC3     H10948   4.422   3.135  11.801 -0.7976 -1.9603  2.0962
  737TMC3    H110949   4.598   2.745  11.780  0.0527  0.0713  0.1578
  737TMC3    H210950   0.069   3.075  11.618 -0.2216  0.7838  1.5949
  737TMC3    C710951   0.057   2.810  11.615 -0.1512 -0.0277 -0.4725
  737TMC3    C810952   4.603   3.250  11.651  0.2687  0.2355 -0.6079
  737TMC3    O110953   0.051   2.694  11.652  0.1215  0.3324 -1.0369
  737TMC3    O210954   4.536   3.326  11.718  0.7927  0.1719 -0.4138
  738MPD2     C10955   4.259   2.047  15.536  0.3312  0.0100  0.0332
  738MPD2    C110956   4.247   2.036  15.398  0.3853 -0.5424 -0.8247
  738MPD2    C210957   4.333   2.104  15.319 -0.3270  0.1017 -0.2513
  738MPD2    C310958   4.437   2.185  15.372  0.8193  0.5399 -0.6310
  738MPD2    C410959   4.453   2.175  15.510  0.9833  0.2206 -0.3555
  738MPD2    C510960   4.361   2.113  15.589 -0.0567 -0.1346 -0.5995
  738MPD2     H10961   4.325   2.087  15.212 -2.9077  0.2295 -0.0651
  738MPD2    H110962   4.536   2.228  15.556 -0.2692  0.8444  1.1807
  738MPD2    H210963   4.187   1.989  15.593  0.2807  0.4544  0.4146
  738MPD2    H310964   4.378   2.117  15.696 -2.6361 -2.0320 -0.1246
  738MPD2     N10965   4.529   2.256  15.293 -0.1643 -0.4426  0.1682
  738MPD2    H510966   4.615   2.289  15.336  0.9989 -0.9682 -1.7335
  738MPD2    N110967   4.147   1.951  15.351 -0.6061  0.8866 -0.0625
  738MPD2    H710968   4.091   1.905  15.422 -2.1204 -0.7903 -2.3149
  739TMC3    C110969   4.651   2.294  15.094 -0.0076  0.3541 -0.5231
  739TMC3    C210970   4.649   2.360  14.982  0.1610 -0.2547  0.1722
  739TMC3    C310971   0.036   2.369  14.918 -0.2655 -0.0214  0.1664
  739TMC3    C410972   0.027   2.253  15.158  0.0560 -0.2963 -0.1369
  739TMC3    C510973   0.151   2.268  15.099  0.3087  0.5821 -0.0552
  739TMC3    C610974   0.160   2.325  14.967 -0.4551 -1.0726 -1.2449
  739TMC3     C10975   4.524   2.281  15.163 -1.1270  0.1068 -0.2448
  739TMC3     O10976   4.420   2.291  15.099 -0.0103  0.2852  0.9373
  739TMC3     H10977   4.555   2.401  14.945 -1.2753 -2.1073  1.8369
  739TMC3    H110978   0.019   2.191  15.247 -0.6779  1.8568  1.2881
  739TMC3    H210979   0.251   2.347  14.913 -0.1710  0.3102 -0.1906
  739TMC3    C710980   0.262   2.216  15.176 -0.5582  0.0612  0.2147
  739TMC3    C810981   0.032   2.422  14.783  0.1912 -0.3700  0.3513
  739TMC3    O110982   0.243   2.157  15.285  0.1492  0.4683 -0.0403
  739TMC3    O210983   4.667   2.391  14.726  0.0224 -0.6067 -0.5100
  740TMC3    C110984   4.573   3.878  14.250 -0.4053  0.5094  0.4547
  740TMC3    C210985   4.664   3.818  14.335 -0.4270 -0.1266 -0.1269
  740TMC3    C310986   0.031   3.745  14.276  0.2421  0.0858  0.8334
  740TMC3    C410987   4.558   3.855  14.120 -0.2035 -0.3343 -0.4085
  740TMC3    C510988   4.658   3.783  14.069 -0.2438  0.1775  0.3626
  740TMC3    C610989   0.027   3.727  14.141  0.0574 -0.0853  0.4077
  740TMC3     C10990   4.471   3.959  14.319  0.2440  0.3762 -0.2273
  740TMC3     O10991   4.424   4.060  14.266  0.3121 -0.0483  0.0751
  740TMC3     H10992   4.668   3.820  14.444 -1.6303 -0.5873 -0.0690
  740TMC3    H110993   4.500   3.925  14.061  0.4733  1.2207  0.7544
  740TMC3    H210994   0.106   3.666  14.097  1.2547 -0.2050  2.7259
  740TMC3    C710995   4.671   3.785  13.924 -0.0666 -0.0777 -0.0207
  740TMC3    C810996   0.143   3.703  14.352 -0.2530  0.4063  0.1617
  740TMC3    O110997   4.563   3.794  13.872  0.1775 -0.6763  0.0716
  740TMC3    O210998   0.223   3.632  14.296 -0.0197 -0.3608 -0.0699
  741TMC3    C110999   4.442   3.007  14.425  0.8415 -0.2391 -0.0534
  741TMC3    C211000   4.335   2.922  14.392  0.6277 -0.2499 -0.2951
  741TMC3    C311001   4.335   2.806  14.460 -0.0035 -0.0744  0.4047
  741TMC3    C411002   4.542   2.981  14.508 -0.1639 -0.2264 -1.0664
  741TMC3    C511003   4.526   2.867  14.584 -0.9216  0.4197  0.0274
  741TMC3    C611004   4.428   2.774  14.560  0.3076  0.1241 -0.3279
  741TMC3     C11005   4.471   3.115  14.334 -1.1299 -0.0275  0.6863
  741TMC3     O11006   4.591   3.139  14.314 -0.1139 -0.0133 -0.3661
  741TMC3     H11007   4.248   2.939  14.329 -1.1208  2.2277  2.8071
  741TMC3    H111008   4.602   3.065  14.542  0.0959 -1.3319  1.2446
  741TMC3    H211009   4.435   2.677  14.608  2.8770  0.5730  0.1928
  741TMC3    C711010   4.632   2.847  14.689 -0.2683  0.0347 -0.6675
  741TMC3    C811011   4.221   2.715  14.439  0.0302 -0.1111 -0.3167
  741TMC3    O111012   4.733   2.918  14.677 -0.5970 -0.3027  0.2287
  741TMC3    O211013   4.164   2.725  14.332 -0.2934 -0.3107  0.1374
  742TMC3    C111014   4.294   1.625  15.536 -0.4832  0.2286  0.6206
  742TMC3    C211015   4.212   1.540  15.476 -0.1573 -0.4042  0.2561
  742TMC3    C311016   4.223   1.515  15.340  0.3520  0.5565 -0.1516
  742TMC3    C411017   4.374   1.706  15.460  0.3020 -0.3139  0.0868
  742TMC3    C511018   4.381   1.682  15.324  0.1230  0.1069  0.8359
  742TMC3    C611019   4.307   1.587  15.258  0.2035 -0.4279  0.2150
  742TMC3     C11020   4.297   1.654  15.681  0.5107  0.5945  0.0672
  742TMC3     O11021   4.392   1.711  15.737  0.4392 -0.9069 -0.0412
  742TMC3     H11022   4.181   1.462  15.544  1.5297  0.2857  1.8384
  742TMC3    H111023   4.454   1.762  15.508 -1.8805  0.0045  3.3054
  742TMC3    H211024   4.330   1.561  15.155 -0.7618  1.3069 -0.4302
  742TMC3    C711025   4.489   1.752  15.247 -0.8429 -0.4465 -0.7929
  742TMC3    C811026   4.133   1.413  15.294 -0.6710  0.0790  0.7000
  742TMC3    O111027   4.458   1.757  15.127 -0.2699  0.1093 -0.3271
  742TMC3    O211028   4.061   1.361  15.377 -0.0284  0.1271  0.3004
  743MPD2     C11029   2.120   2.702   2.198 -1.0369  0.2023 -0.3961
  743MPD2    C111030   2.165   2.619   2.098 -0.0412 -0.1564  0.0188
  743MPD2    C211031   2.286   2.564   2.107 -0.4702  0.3711  0.4016
  743MPD2    C311032   2.370   2.589   2.220 -0.0150  0.4308  0.0605
  743MPD2    C411033   2.318   2.666   2.330  0.4576 -0.0717 -0.1322
  743MPD2    C511034   2.197   2.723   2.313  0.7362 -0.1733 -0.0657
  743MPD2     H11035   2.327   2.511   2.021  0.5016  1.2251  0.3298
  743MPD2    H111036   2.384   2.684   2.415  0.0877  0.5706  0.0255
  743MPD2    H211037   2.029   2.762   2.195 -1.3786 -0.3794 -1.8148
  743MPD2    H311038   2.156   2.790   2.388 -2.0871 -0.5382 -1.2936
  743MPD2     N11039   2.498   2.527   2.216  0.1864  0.0759  0.5987
  743MPD2    H511040   2.520   2.464   2.140  1.4833 -0.5074  1.4638
  743MPD2    N111041   2.079   2.596   1.989 -0.0172 -0.5681 -0.2801
  743MPD2    H711042   1.985   2.634   1.991  0.5467  0.8788 -1.4620
  744TMC3    C111043   1.995   2.544   1.770  0.0718  0.1926  0.3152
  744TMC3    C211044   1.910   2.652   1.772 -0.0229  0.6052  0.1778
  744TMC3    C311045   1.842   2.683   1.655 -0.2476 -0.1172  0.0787
  744TMC3    C411046   2.016   2.467   1.662 -0.3170  0.2646 -0.4114
  744TMC3    C511047   1.947   2.494   1.546 -0.6556 -0.3177  0.0107
  744TMC3    C611048   1.867   2.607   1.539  0.1288  0.3155  0.5807
  744TMC3     C11049   2.103   2.526   1.873 -0.1057 -0.1193 -0.6408
  744TMC3     O11050   2.202   2.458   1.849  0.1486 -0.1666  0.2887
  744TMC3     H11051   1.908   2.723   1.854 -0.7357 -0.9700  1.5091
  744TMC3    H111052   2.078   2.379   1.672 -1.7851 -1.0343 -2.6353
  744TMC3    H211053   1.813   2.640   1.451 -1.4452  0.6236  1.6622
  744TMC3    C711054   1.993   2.428   1.421  0.3877  0.4799 -0.2294
  744TMC3    C811055   1.745   2.793   1.646 -0.2876  0.0486 -0.1481
  744TMC3    O111056   1.966   2.489   1.317 -0.2058  0.5414 -0.1965
  744TMC3    O211057   1.720   2.846   1.538  0.3584  0.3500  0.0678
  745TMC3    C111058   0.270   1.013  13.954 -0.0511 -0.6242 -0.2559
  745TMC3    C211059   0.152   0.990  14.022 -0.1148 -0.3714 -0.4315
  745TMC3    C311060   0.038   0.971  13.947  0.1672 -0.4385  0.1062
  745TMC3    C411061   0.282   0.986  13.821  0.2506 -0.5660  0.5208
  745TMC3    C511062   0.170   0.926  13.757  0.1744  0.0967  0.1818
  745TMC3    C611063   0.046   0.932  13.817 -0.0473  0.7559  0.4430
  745TMC3     C11064   0.350   1.123  14.006 -0.0639 -0.3887  0.2991
  745TMC3     O11065   0.331   1.152  14.121 -0.3011  0.1799 -0.3071
  745TMC3     H11066   0.141   1.011  14.128  0.6938 -0.8797 -0.2461
  745TMC3    H111067   0.384   0.973  13.788  0.0014 -0.4862 -0.3075
  745TMC3    H211068   4.693   0.892  13.766  1.3472 -0.7842 -0.7326
  745TMC3    C711069   0.168   0.891  13.621 -0.2853 -0.0427  0.1241
  745TMC3    C811070   4.679   1.080  13.963 -0.4459  0.3345 -0.6035
  745TMC3    O111071   0.057   0.849  13.582 -0.0436 -0.0058  0.4134
  745TMC3    O211072   4.580   1.075  13.885 -0.0103 -0.8708  0.0883
  746TMC3    C111073   3.221   3.764  10.936 -0.1410 -0.5957 -0.0626
  746TMC3    C211074   3.342   3.708  10.899  0.5736 -0.5382 -0.1815
  746TMC3    C311075   3.323   3.578  10.860 -0.0377  0.4362  0.1588
  746TMC3    C411076   3.106   3.699  10.951 -0.5585  0.3127 -0.5096
  746TMC3    C511077   3.105   3.566  10.927 -0.6523 -0.1307  0.5772
  746TMC3    C611078   3.204   3.501  10.869 -0.3468  0.2061  0.5432
  746TMC3     C11079   3.233   3.861  11.044  0.2089 -0.4762 -0.2495
  746TMC3     O11080   3.151   3.851  11.135 -0.0652 -0.1369 -0.3321
  746TMC3     H11081   3.434   3.765  10.891 -0.9987  1.9935 -0.1922
  746TMC3    H111082   3.019   3.761  10.968 -0.5132  0.1930  0.1616
  746TMC3    H211083   3.205   3.399  10.834  1.4363  0.7251 -0.8989
  746TMC3    C711084   2.990   3.488  10.927  0.1079 -0.2424 -0.0746
  746TMC3    C811085   3.408   3.534  10.755  0.4484 -0.2267 -0.0214
  746TMC3    O111086   2.991   3.389  10.857  0.0688  0.5716  0.4165
  746TMC3    O211087   3.529   3.515  10.780 -0.2995  0.0335  0.5809
  747TMC3    C111088   0.530   3.021  10.702  0.9659  0.2494  0.5302
  747TMC3    C211089   0.507   2.905  10.773  0.8109 -0.8099 -0.5997
  747TMC3    C311090   0.499   2.924  10.909 -0.4341 -0.7318  0.2290
  747TMC3    C411091   0.560   3.141  10.760  0.2400 -0.0383 -0.2218
  747TMC3    C511092   0.558   3.149  10.898  0.5245  0.5321 -0.4232
  747TMC3    C611093   0.521   3.039  10.974 -0.4235  0.0610  0.4010
  747TMC3     C11094   0.544   3.021  10.556 -0.0743 -0.0654  0.0837
  747TMC3     O11095   0.563   3.122  10.500  0.2543  0.2965 -0.0304
  747TMC3     H11096   0.487   2.809  10.726  0.3071 -1.8925  1.7985
  747TMC3    H111097   0.570   3.229  10.698  0.8959 -0.0697 -0.1581
  747TMC3    H211098   0.536   3.048  11.081  0.1595  0.9242  0.2485
  747TMC3    C711099   0.640   3.250  10.967  0.1335  0.3323  0.4584
  747TMC3    C811100   0.427   2.823  10.983  0.3876  0.0029  0.4570
  747TMC3    O111101   0.624   3.256  11.089  0.9871 -0.3285  0.3918
  747TMC3    O211102   0.428   2.708  10.936 -0.2474 -0.4179 -0.3259
  748MPD2     C11103   1.057   3.653   1.682 -0.4466  0.2273 -0.3429
  748MPD2    C111104   1.019   3.686   1.554  0.1906  0.5011  0.4313
  748MPD2    C211105   1.119   3.743   1.468  0.0037  0.7162  0.7438
  748MPD2    C311106   1.246   3.747   1.518  0.1791  0.1235 -0.5384
  748MPD2    C411107   1.279   3.707   1.645 -0.1201 -0.0671 -0.1192
  748MPD2    C511108   1.182   3.664   1.726  0.4729 -0.3624 -0.2576
  748MPD2     H11109   1.098   3.769   1.365 -1.5683  2.8526  1.6030
  748MPD2    H111110   1.375   3.723   1.692  1.5099 -1.1214 -3.1171
  748MPD2    H211111   0.976   3.633   1.751 -0.6410  0.2967 -0.5530
  748MPD2    H311112   1.196   3.636   1.830 -0.9610  0.0855  0.0610
  748MPD2     N11113   1.344   3.785   1.423 -0.1125  0.3231  0.0339
  748MPD2    H511114   1.306   3.815   1.334 -0.0182 -1.1639 -0.5124
  748MPD2    N111115   0.886   3.685   1.524  0.2498 -0.0631 -0.1401
  748MPD2    H711116   0.828   3.646   1.597  1.1306  0.1942  0.7075
  749TMC3    C111117   1.554   3.842   1.330 -0.8536 -0.2003  0.1188
  749TMC3    C211118   1.693   3.812   1.335 -0.5394  0.4178  0.1223
  749TMC3    C311119   1.770   3.870   1.241  0.2624 -0.1924 -0.8864
  749TMC3    C411120   1.493   3.932   1.243 -0.1796  0.0810 -0.1880
  749TMC3    C511121   1.590   3.989   1.157  0.5238 -0.3740  0.1786
  749TMC3    C611122   1.725   3.970   1.169 -0.6381 -0.4201  0.1755
  749TMC3     C11123   1.479   3.787   1.447  0.4165  0.0300 -0.0202
  749TMC3     O11124   1.533   3.720   1.531  0.3354  0.0932 -0.4685
  749TMC3     H11125   1.731   3.749   1.415  1.3232 -0.0024 -1.1008
  749TMC3    H111126   1.389   3.959   1.231 -0.5570 -1.5792 -0.6319
  749TMC3    H211127   1.796   4.012   1.099  0.2699  0.6726  1.7705
  749TMC3    C711128   1.560   4.091   1.054 -1.4197 -0.2514 -0.1194
  749TMC3    C811129   1.911   3.879   1.269 -0.3214 -0.2624 -0.3422
  749TMC3    O111130   1.646   4.121   0.972  0.0130  0.1665  0.2571
  749TMC3    O211131   1.973   3.979   1.239 -0.0566 -0.4254 -0.5256
  750MPD2     C11132   2.564   4.379  11.623 -0.2962  0.4345 -0.5020
  750MPD2    C111133   2.467   4.451  11.550  0.5789 -0.3194  0.1455
  750MPD2    C211134   2.452   4.424  11.418  0.0450 -0.2548 -0.8396
  750MPD2    C311135   2.519   4.317  11.354  0.5342  0.0237 -0.8176
  750MPD2    C411136   2.613   4.248  11.422 -0.3812 -1.2214  0.7424
  750MPD2    C511137   2.638   4.282  11.560 -0.1287 -0.7292  0.3046
  750MPD2     H11138   2.378   4.472  11.356 -0.9748  2.7331  2.6758
  750MPD2    H111139   2.664   4.162  11.378 -0.3139 -0.3570 -0.8405
  750MPD2    H211140   2.588   4.408  11.725  0.5073 -0.2807 -0.4953
  750MPD2    H311141   2.716   4.235  11.618 -0.3748 -0.9361  0.4725
  750MPD2     N11142   2.508   4.282  11.223 -0.2430 -1.1456 -0.8645
  750MPD2    H511143   2.587   4.233  11.183  0.7427  1.2302 -1.8341
  750MPD2    N111144   2.397   4.546  11.624 -0.1925  0.4435 -0.2188
  750MPD2    H711145   2.432   4.558  11.718 -0.2594  3.2903 -0.5487
  751TMC3    C111146   2.418   4.286  11.000  0.2223  0.1930  0.3517
  751TMC3    C211147   2.301   4.266  10.935  0.3791 -0.0680  0.1087
  751TMC3    C311148   2.305   4.228  10.804 -0.7120 -0.1910  0.0380
  751TMC3    C411149   2.535   4.263  10.937 -0.4034 -0.2337  0.4518
  751TMC3    C511150   2.538   4.207  10.812 -0.2747 -0.1693 -0.0955
  751TMC3    C611151   2.425   4.187  10.744 -0.3750  0.0996 -0.1386
  751TMC3     C11152   2.407   4.332  11.141 -0.1638  0.3270  0.1732
  751TMC3     O11153   2.300   4.380  11.174  0.7413 -0.2530 -0.1435
  751TMC3     H11154   2.214   4.307  10.985  0.7245  0.9236 -0.1007
  751TMC3    H111155   2.627   4.272  10.993 -0.4151 -1.1757  0.6187
  751TMC3    H211156   2.427   4.146  10.644  0.8503 -0.9351  0.3137
  751TMC3    C711157   2.669   4.203  10.754 -0.0489  0.2570 -0.4431
  751TMC3    C811158   2.185   4.178  10.747  0.4325  0.0804  0.4500
  751TMC3    O111159   2.757   4.276  10.807 -0.3428 -0.2694  0.0151
  751TMC3    O211160   2.197   4.152  10.627 -0.5633  0.3902  0.1155
  752TMC3    C111161   0.767   4.584  16.665 -0.0508 -0.4149  0.3830
  752TMC3    C211162   0.869   4.496  16.636  0.0939 -0.1519  0.4608
  752TMC3    C311163   0.923   4.422  16.740  0.3503  0.6215  0.1369
  752TMC3    C411164   0.740   4.623  16.795 -0.0180  0.1594 -0.3257
  752TMC3    C511165   0.801   4.553  16.897  0.2926 -0.5757  0.2746
  752TMC3    C611166   0.889   4.449  16.869 -0.8754  0.3891 -0.3942
  752TMC3     C11167   0.704   4.661  16.558 -0.0894  0.1380 -1.0308
  752TMC3     O11168   0.587   4.681  16.561 -0.0131  0.5601 -0.7008
  752TMC3     H11169   0.881   4.486  16.528 -0.3279  0.5528  0.3488
  752TMC3    H111170   0.669   4.702  16.817  0.2763  0.3592 -0.1037
  752TMC3    H211171   0.918   4.380  16.947  1.5616  0.5865 -1.1392
  752TMC3    C711172   0.733   4.574  17.025  0.1977 -0.0395 -0.4637
  752TMC3    C811173   1.020   4.318  16.712  0.4215  0.1478  0.8860
  752TMC3    O111174   0.632   4.641  17.040  0.1535  0.7119  0.0815
  752TMC3    O211175   1.051   4.263  16.816 -0.5606  0.8180 -0.1505
  753TMC3    C111176   3.332   1.050  13.324 -0.9224 -0.3686  0.8632
  753TMC3    C211177   3.429   0.992  13.400  0.2205  0.0873  0.3207
  753TMC3    C311178   3.450   0.858  13.375  0.2625 -0.2820  0.0179
  753TMC3    C411179   3.268   0.989  13.216  0.1471  0.8465  0.2451
  753TMC3    C511180   3.296   0.857  13.196  0.0591  0.1382  0.2044
  753TMC3    C611181   3.388   0.786  13.272 -0.6187  0.7286 -0.4257
  753TMC3     C11182   3.315   1.191  13.341 -0.1523  0.3149 -0.0159
  753TMC3     O11183   3.421   1.253  13.356 -0.0412 -0.8629  0.2545
  753TMC3     H11184   3.467   1.049  13.484 -2.2603  2.4829 -0.1985
  753TMC3    H111185   3.182   1.038  13.172 -1.9427 -1.6387  1.4899
  753TMC3    H211186   3.412   0.680  13.275  0.0494  0.8796 -0.4756
  753TMC3    C711187   3.216   0.793  13.095  0.7067 -0.0243  1.0187
  753TMC3    C811188   3.474   0.779  13.497 -0.0748  0.0621 -0.4599
  753TMC3    O111189   3.122   0.851  13.038 -0.2964 -0.3982 -0.6899
  753TMC3    O211190   3.504   0.664  13.484 -0.2210  0.0426  0.3392
  754MPD2     C11191   2.035   0.094  13.433  0.0885 -0.9545 -0.7210
  754MPD2    C111192   1.906   0.052  13.452 -0.0419  0.2680 -0.3295
  754MPD2    C211193   1.836   0.002  13.346  0.3921 -0.2682 -0.1093
  754MPD2    C311194   1.893   4.712  13.217 -1.7874  0.3573 -0.1513
  754MPD2    C411195   2.028   0.018  13.203  0.6145  0.0679  0.0256
  754MPD2    C511196   2.096   0.075  13.312 -0.4594 -0.2038 -0.8462
  754MPD2     H11197   1.736   4.700  13.363 -1.2900  3.5784 -1.7636
  754MPD2    H111198   2.084   4.731  13.113  1.2973  0.0487  0.4540
  754MPD2    H211199   2.091   0.140  13.514  0.4721 -0.3238 -1.3410
  754MPD2    H311200   2.202   0.095  13.309 -0.5673  0.5083  0.3500
  754MPD2     N11201   1.813   4.674  13.110  0.2780  0.2443  0.0030
  754MPD2    H511202   1.857   4.651  13.021 -0.7551 -0.7453 -0.2450
  754MPD2    N111203   1.855   0.084  13.579  0.4572  0.8156  0.5545
  754MPD2    H711204   1.915   0.114  13.654 -0.0319 -0.1982  1.3488
  755MPD2     C11205   0.940   4.194  12.889 -0.0323  0.2747 -0.0416
  755MPD2    C111206   0.927   4.332  12.885 -0.1333 -0.0977  0.4346
  755MPD2    C211207   1.040   4.408  12.878  0.9302  0.2427 -0.3859
  755MPD2    C311208   1.166   4.353  12.866  0.2449 -0.0066  0.5597
  755MPD2    C411209   1.182   4.218  12.878 -0.1656 -0.0765 -0.0521
  755MPD2    C511210   1.068   4.141  12.880 -0.2952  0.0491 -0.7809
  755MPD2     H11211   1.044   4.516  12.870 -0.8249  0.2761 -0.6984
  755MPD2    H111212   1.281   4.175  12.872  0.8717  2.2879 -0.1231
  755MPD2    H211213   0.860   4.120  12.895 -0.2994  0.4962 -0.9759
  755MPD2    H311214   1.076   4.033  12.883  0.2383  0.0909 -0.7064
  755MPD2     N11215   1.285   4.424  12.838 -0.6481  0.3560 -0.3741
  755MPD2    H511216   1.367   4.366  12.824  0.2191  1.4380  0.1731
  755MPD2    N111217   0.805   4.396  12.873  0.6107 -0.1686 -0.0749
  755MPD2    H711218   0.806   4.497  12.874  1.3975 -0.1641 -0.8617
  756MPD2     C11219   2.545   1.349  10.008 -0.0844 -0.2972 -0.2637
  756MPD2    C111220   2.476   1.262  10.093 -0.4661  0.3683  0.6409
  756MPD2    C211221   2.374   1.179  10.052  0.5889  1.2085 -0.1588
  756MPD2    C311222   2.331   1.193   9.919 -0.6762 -0.4068 -0.2626
  756MPD2    C411223   2.387   1.287   9.830 -0.2044  0.1383 -0.2078
  756MPD2    C511224   2.490   1.365   9.876 -0.5442 -0.9480 -0.0927
  756MPD2     H11225   2.331   1.097  10.110 -3.7411  1.6036 -2.8460
  756MPD2    H111226   2.355   1.301   9.728 -0.8315  3.6184  0.4743
  756MPD2    H211227   2.620   1.420  10.041 -2.3591  0.9408  2.2229
  756MPD2    H311228   2.546   1.432   9.811 -0.4195 -0.8098  0.1545
  756MPD2     N11229   2.217   1.116   9.882 -0.4653  0.3604  0.0352
  756MPD2    H511230   2.171   1.054   9.948 -1.0800  0.1223 -0.6106
  756MPD2    N111231   2.509   1.257  10.232  0.2004 -0.4023  0.2911
  756MPD2    H711232   2.438   1.214  10.290 -0.6611 -0.8394 -1.0733
  757MPD2     C11233   1.418   0.754  10.284 -0.2799  0.4658  0.4861
  757MPD2    C111234   1.411   0.707  10.154  0.3092  0.9478  0.4218
  757MPD2    C211235   1.499   0.748  10.057  0.0194  0.0955  0.4808
  757MPD2    C311236   1.586   0.850  10.076  0.0509  0.0574  0.7441
  757MPD2    C411237   1.589   0.911  10.200  0.4024  0.6224 -0.0293
  757MPD2    C511238   1.508   0.861  10.304 -0.1153  0.0513 -0.0735
  757MPD2     H11239   1.494   0.706   9.957  1.1353  2.6599 -0.6427
  757MPD2    H111240   1.657   0.992  10.221  0.3211  0.6101  0.2749
  757MPD2    H211241   1.357   0.712  10.362  1.2796 -2.0975  0.3244
  757MPD2    H311242   1.523   0.913  10.398  0.5256  0.9183 -0.6541
  757MPD2     N11243   1.673   0.889   9.974  0.1726  0.2895 -0.5998
  757MPD2    H511244   1.673   0.834   9.889  0.9478 -0.2545 -0.2514
  757MPD2    N111245   1.317   0.606  10.129  0.3851  0.1993  0.5853
  757MPD2    H711246   1.261   0.588  10.212 -0.8003  2.4681  0.2948
  758MPD2     C11247   1.745   4.479  15.924  0.8171 -0.2428 -0.0573
  758MPD2    C111248   1.766   4.370  16.010  0.2864  0.7434  0.1457
  758MPD2    C211249   1.677   4.367  16.117 -0.4453  0.3220 -0.3064
  758MPD2    C311250   1.575   4.455  16.137  0.5479  0.3576  0.1584
  758MPD2    C411251   1.546   4.542  16.038  0.0881  1.0275 -0.2955
  758MPD2    C511252   1.632   4.554  15.931  0.1383 -0.1257  0.1771
  758MPD2     H11253   1.686   4.278  16.180  2.3498  0.8801  0.0867
  758MPD2    H111254   1.464   4.613  16.043 -1.6439 -0.9398 -0.8114
  758MPD2    H211255   1.801   4.489  15.832  3.1480 -0.2751  1.3540
  758MPD2    H311256   1.626   4.633  15.857  0.5346 -0.3060 -0.0455
  758MPD2     N11257   1.515   4.449  16.260  0.3217  0.0358 -0.5386
  758MPD2    H511258   1.553   4.378  16.321 -2.5053 -0.8503  0.1719
  758MPD2    N111259   1.874   4.285  15.986  0.1925 -0.4279  0.5712
  758MPD2    H711260   1.932   4.294  15.903 -1.9627 -0.2536 -0.9099
  759MPD2     C11261   0.798   2.704  10.672  0.5552 -0.1672 -0.5999
  759MPD2    C111262   0.765   2.625  10.574  0.4796  0.1450  0.1448
  759MPD2    C211263   0.791   2.666  10.445 -0.8646  1.0304 -0.4361
  759MPD2    C311264   0.861   2.781  10.425  0.2106 -0.2048 -0.5790
  759MPD2    C411265   0.896   2.857  10.528 -0.4355  0.0107 -0.1784
  759MPD2    C511266   0.862   2.819  10.656  0.4316  0.2448  0.8122
  759MPD2     H11267   0.772   2.603  10.359  0.3094  1.5190 -1.0598
  759MPD2    H111268   0.954   2.949  10.525  0.6096 -0.6704 -0.7267
  759MPD2    H211269   0.780   2.668  10.773  1.2857 -1.2191 -0.8394
  759MPD2    H311270   0.883   2.886  10.738  0.6455  0.8703  0.2410
  759MPD2     N11271   0.902   2.821  10.295  0.4501 -0.4337  0.9953
  759MPD2    H511272   0.887   2.748  10.227 -2.6041  1.8158 -0.7618
  759MPD2    N111273   0.700   2.503  10.604 -0.1630 -0.2083 -0.1817
  759MPD2    H711274   0.678   2.481  10.701 -0.8803  2.9947  0.3884
  760MPD2     C11275   0.562   0.005  11.967 -0.1758 -0.1557 -0.4760
  760MPD2    C111276   0.701   4.713  11.963  0.2951 -0.4845  1.0102
  760MPD2    C211277   0.749   4.592  12.005  0.2185  0.1012  0.5965
  760MPD2    C311278   0.662   4.490  12.027 -0.4119 -0.2171 -0.0794
  760MPD2    C411279   0.534   4.522  12.047 -0.3882 -0.1303  0.6945
  760MPD2    C511280   0.478   4.641  12.017 -0.1866 -0.0817  0.8556
  760MPD2     H11281   0.855   4.570  11.998  0.0349 -0.2621 -1.0360
  760MPD2    H111282   0.470   4.453  12.101  2.2991 -1.9118  1.6021
  760MPD2    H211283   0.521   0.104  11.952 -0.8846 -0.1124  1.7947
  760MPD2    H311284   0.372   4.663  12.029 -0.4787 -1.7329  1.2556
  760MPD2     N11285   0.718   4.359  12.047 -0.0583  0.2207  0.3463
  760MPD2    H511286   0.819   4.362  12.059 -0.1534 -1.1054  1.4847
  760MPD2    N111287   0.803   0.070  11.920 -0.5475  0.1890 -0.6681
  760MPD2    H711288   0.895   0.029  11.909  0.2557  1.3316  2.0250
  761MPD2     C11289   1.746   3.919  10.781 -0.9272 -0.5395 -0.1690
  761MPD2    C111290   1.845   3.918  10.682  0.4594  0.2609 -0.6846
  761MPD2    C211291   1.961   3.988  10.707 -0.0995  0.1585 -0.0211
  761MPD2    C311292   1.971   4.074  10.819  0.2043 -0.5018  0.2257
  761MPD2    C411293   1.863   4.084  10.902 -0.2707 -0.9920  0.3964
  761MPD2    C511294   1.757   3.998  10.895  0.7915 -1.0099  0.2419
  761MPD2     H11295   2.041   3.989  10.634 -0.2533  1.9886 -0.1621
  761MPD2    H111296   1.870   4.149  10.989  1.1171 -0.0247 -0.4535
  761MPD2    H211297   1.659   3.855  10.782 -1.2288 -0.1107  0.2181
  761MPD2    H311298   1.677   4.007  10.968 -0.5742  2.1987 -1.6236
  761MPD2     N11299   2.086   4.155  10.842  0.5624  0.5431  0.4340
  761MPD2    H511300   2.102   4.179  10.939  1.9943  0.8794  0.1055
  761MPD2    N111301   1.829   3.814  10.587 -0.5596  0.4928 -0.2278
  761MPD2    H711302   1.756   3.746  10.604  0.0873  0.2676  1.6906
  762MPD2     C11303   2.352   3.960  10.258 -0.3827 -0.1213  0.3101
  762MPD2    C111304   2.380   3.838  10.307 -0.1998  0.0244 -0.2652
  762MPD2    C211305   2.509   3.783  10.283 -0.8290 -0.7643 -0.8914
  762MPD2    C311306   2.586   3.842  10.183 -0.1299  0.2029  0.4997
  762MPD2    C411307   2.549   3.965  10.126 -0.9943  0.4774 -0.1284
  762MPD2    C511308   2.435   4.024  10.174 -0.6321  0.5925  0.1336
  762MPD2     H11309   2.527   3.682  10.316 -0.5970 -0.3001  0.4260
  762MPD2    H111310   2.609   4.018  10.052 -1.0451  0.6298 -0.0593
  762MPD2    H211311   2.263   4.016  10.286 -1.3182 -2.1609  1.4818
  762MPD2    H311312   2.416   4.125  10.140 -0.4457  0.2768 -0.8983
  762MPD2     N11313   2.706   3.773  10.151  0.3192  0.0366  0.6256
  762MPD2    H511314   2.750   3.710  10.216  0.6565 -0.3584  0.0153
  762MPD2    N111315   2.284   3.784  10.399  1.2278  0.3013  0.7524
  762MPD2    H711316   2.195   3.833  10.401  1.4563  0.7765 -0.9316
  763MPD2     C11317   3.027   4.152  16.152 -0.3666 -0.4859 -0.0249
  763MPD2    C111318   3.148   4.217  16.143 -0.3013 -0.6687 -0.4129
  763MPD2    C211319   3.175   4.334  16.224  0.1949  0.1305  0.3286
  763MPD2    C311320   3.077   4.402  16.297 -0.1473 -0.3193 -0.1937
  763MPD2    C411321   2.952   4.336  16.313 -0.0578 -0.1394 -0.7061
  763MPD2    C511322   2.940   4.214  16.237 -0.0234 -0.1616  0.1983
  763MPD2     H11323   3.272   4.379  16.206 -0.4793  0.5774 -2.2872
  763MPD2    H111324   2.879   4.373  16.384 -0.0523  0.1289 -0.8388
  763MPD2    H211325   2.986   4.065  16.102  3.6190 -2.1173 -0.3994
  763MPD2    H311326   2.846   4.163  16.255 -0.0286 -0.8348 -1.7388
  763MPD2     N11327   3.109   4.526  16.360 -0.0500  0.1531  0.6023
  763MPD2    H511328   3.206   4.556  16.360  0.9942 -3.2488  0.4209
  763MPD2    N111329   3.243   4.174  16.048 -0.7333 -0.8522 -0.1858
  763MPD2    H711330   3.332   4.222  16.041  0.3320 -2.8234 -0.4526
  764MPD2     C11331   1.577   1.578   0.107  0.1495 -0.5580 -0.1080
  764MPD2    C111332   1.563   1.491   0.003 -0.0780  0.2749 -0.1654
  764MPD2    C211333   1.516   1.364   0.023  0.3791 -0.3934 -0.0289
  764MPD2    C311334   1.483   1.329   0.153 -0.5080  0.8278  0.7068
  764MPD2    C411335   1.500   1.417   0.258 -0.1207  0.7001  0.6563
  764MPD2    C511336   1.545   1.544   0.231 -0.3091 -0.2063  0.0212
  764MPD2     H11337   1.516   1.283  17.687 -0.5619 -0.4919  0.0894
  764MPD2    H111338   1.466   1.390   0.357  1.0192 -3.2861 -0.0344
  764MPD2    H211339   1.618   1.678   0.101  1.5259 -1.1748 -1.1707
  764MPD2    H311340   1.560   1.610   0.316 -0.3961 -0.2925  0.1048
  764MPD2     N11341   1.451   1.190   0.176  0.0902 -0.1745 -0.1349
  764MPD2    H511342   1.449   1.131   0.094  3.0525 -0.9685  0.3515
  764MPD2    N111343   1.610   1.519  17.604  0.4731  0.5978 -0.1737
  764MPD2    H711344   1.595   1.444  17.538 -3.3510  2.1616 -1.0608
  765MPD2     C11345   1.570   3.703  16.132 -0.1965 -0.7484 -0.2193
  765MPD2    C111346   1.603   3.778  16.023  0.1152  0.1851 -0.3582
  765MPD2    C211347   1.693   3.722  15.934  0.8710 -0.8101  0.3539
  765MPD2    C311348   1.749   3.600  15.956  0.2393 -0.2336 -0.0857
  765MPD2    C411349   1.708   3.529  16.066  0.1042 -0.0558  1.0125
  765MPD2    C511350   1.628   3.586  16.153 -0.8280 -0.0825 -0.3833
  765MPD2     H11351   1.718   3.781  15.847  1.1515 -1.8341 -0.2614
  765MPD2    H111352   1.747   3.433  16.098  0.0971 -0.5719 -0.5293
  765MPD2    H211353   1.497   3.742  16.201  0.1647  0.0401 -0.2796
  765MPD2    H311354   1.601   3.524  16.238 -0.7320 -0.9127 -0.9586
  765MPD2     N11355   1.831   3.548  15.857  0.2364 -0.0980 -0.3400
  765MPD2    H511356   1.846   3.601  15.772  2.5844  1.2725  0.9237
  765MPD2    N111357   1.528   3.900  15.992 -0.1137  0.3768 -0.0872
  765MPD2    H711358   1.449   3.905  16.055  1.0840  2.7803  1.2091
  766MPD2     C11359   0.908   3.897  15.583 -0.8658  0.1242  0.0675
  766MPD2    C111360   1.040   3.863  15.606 -0.4422  0.2077  0.0355
  766MPD2    C211361   1.095   3.764  15.531 -0.5643  0.8153  0.5194
  766MPD2    C311362   1.028   3.697  15.430 -0.8496  0.0645 -0.0425
  766MPD2    C411363   0.896   3.731  15.412  0.3345  0.1774  0.6502
  766MPD2    C511364   0.835   3.830  15.485  0.4818 -0.1091 -0.5886
  766MPD2     H11365   1.201   3.748  15.545 -0.2951  0.4114 -2.0402
  766MPD2    H111366   0.837   3.695  15.328  0.5687 -0.9626  0.9652
  766MPD2    H211367   0.851   3.978  15.627 -1.1633  0.0745 -0.2199
  766MPD2    H311368   0.733   3.855  15.460  0.4777 -0.2812 -0.7461
  766MPD2     N11369   1.090   3.615  15.334 -0.0014  0.5417  1.0643
  766MPD2    H511370   1.032   3.588  15.255  2.5034  0.6507 -0.8038
  766MPD2    N111371   1.130   3.931  15.693  0.1297  0.5095  0.7070
  766MPD2    H711372   1.225   3.895  15.694  0.7080  1.9997  0.1258
  767MPD2     C11373   0.635   4.543  14.885 -0.2350 -0.0676  0.2914
  767MPD2    C111374   0.726   4.468  14.951 -0.6342 -0.5924 -0.4800
  767MPD2    C211375   0.751   4.348  14.906  0.3204  0.6076 -0.2767
  767MPD2    C311376   0.676   4.302  14.800 -0.8544  0.3858 -0.4731
  767MPD2    C411377   0.586   4.375  14.730 -0.5560  0.5070 -0.0479
  767MPD2    C511378   0.572   4.507  14.771 -0.0009  0.5132 -0.0694
  767MPD2     H11379   0.835   4.289  14.939  0.5015  1.0630  0.0582
  767MPD2    H111380   0.541   4.352  14.634 -2.0128 -0.0829  0.7742
  767MPD2    H211381   0.593   4.634  14.927  0.2392 -0.1559  0.9714
  767MPD2    H311382   0.505   4.568  14.712 -0.5180 -1.0498 -1.1041
  767MPD2     N11383   0.709   4.170  14.768 -0.3208 -0.0782 -0.0238
  767MPD2    H511384   0.792   4.130  14.811 -0.6540 -0.2866  0.4272
  767MPD2    N111385   0.807   4.511  15.060 -0.2532 -0.5298 -0.6744
  767MPD2    H711386   0.858   4.437  15.107  0.3733  1.4355  1.7781
  768MPD2     C11387   2.807   2.914  10.246  0.3737  0.0315 -0.0197
  768MPD2    C111388   2.789   2.948  10.381  0.4405  0.0029 -0.0654
  768MPD2    C211389   2.877   2.903  10.475 -0.1552 -0.6212  0.9254
  768MPD2    C311390   2.970   2.806  10.440 -0.7506  0.2604 -0.2051
  768MPD2    C411391   3.000   2.779  10.309 -0.1343 -0.2516 -0.9049
  768MPD2    C511392   2.920   2.833  10.209  0.0290 -0.1454 -0.1014
  768MPD2     H11393   2.874   2.946  10.574  2.1782 -0.5725  0.9767
  768MPD2    H111394   3.074   2.702  10.287 -0.7884 -1.2738  0.4857
  768MPD2    H211395   2.755   2.954  10.159 -2.5045 -2.2137  0.6529
  768MPD2    H311396   2.939   2.791  10.111 -1.0713  2.1414 -1.3014
  768MPD2     N11397   3.060   2.744  10.535  0.1229  0.1625 -0.1529
  768MPD2    H511398   3.135   2.680  10.511 -1.0023 -1.6385  1.0647
  768MPD2    N111399   2.683   3.030  10.419  0.3054  0.5541 -0.3586
  768MPD2    H711400   2.676   3.055  10.517  0.7335  0.8765 -0.4128
  769MPD2     C11401   3.145   0.178  14.685  0.3486  0.1085 -0.0928
  769MPD2    C111402   3.019   0.207  14.722  0.0021  0.1660 -0.2061
  769MPD2    C211403   2.991   0.336  14.755  0.2092  0.1869 -0.4096
  769MPD2    C311404   3.089   0.430  14.770  0.0380 -0.0273  0.0056
  769MPD2    C411405   3.221   0.390  14.756 -0.1358  0.6811 -0.5652
  769MPD2    C511406   3.246   0.266  14.703  0.0868  0.6009 -0.8277
  769MPD2     H11407   2.890   0.364  14.782  0.6513  1.9040 -0.5667
  769MPD2    H111408   3.306   0.454  14.776  0.3962  0.0521 -0.8228
  769MPD2    H211409   3.173   0.074  14.672  0.4579  0.1703 -0.3576
  769MPD2    H311410   3.349   0.231  14.697 -0.6124 -1.4469 -0.8401
  769MPD2     N11411   3.050   0.543  14.847 -0.1843  0.1582 -0.3228
  769MPD2    H511412   2.950   0.548  14.863 -0.3570 -0.8066 -1.1057
  769MPD2    N111413   2.920   0.109  14.726  0.1241  0.1169  0.0212
  769MPD2    H711414   2.939   0.013  14.699 -0.4827 -0.3722  1.3244
  770MPD2     C11415   1.931   4.548  15.125 -0.0439 -0.1707 -0.1644
  770MPD2    C111416   1.956   4.475  15.011  0.7939  0.0565  0.2365
  770MPD2    C211417   2.080   4.498  14.946  0.3433  0.1786  0.3879
  770MPD2    C311418   2.180   4.589  14.991  0.5977 -0.5022  0.4067
  770MPD2    C411419   2.148   4.655  15.106  0.7332  0.2250  0.1420
  770MPD2    C511420   2.025   4.636  15.164 -0.4465 -0.2127 -0.6566
  770MPD2     H11421   2.101   4.437  14.859  1.3317  1.2083 -0.1024
  770MPD2    H111422   2.219   4.723  15.150  2.1179 -1.2402  0.1825
  770MPD2    H211423   1.842   4.536  15.186  0.4312  0.3693  0.6316
  770MPD2    H311424   2.013   4.685  15.261  1.7971 -0.1190 -0.4224
  770MPD2     N11425   2.307   4.580  14.925 -1.1810  1.0122  0.5957
  770MPD2    H511426   2.302   4.534  14.834  0.2449  2.2141 -0.1062
  770MPD2    N111427   1.871   4.366  14.973  0.1859 -0.1850 -0.2641
  770MPD2    H711428   1.802   4.340  15.043  0.7909  0.2685  0.5035
  771MPD2     C11429   3.755   3.263  13.321 -0.5384  0.3525  0.0372
  771MPD2    C111430   3.721   3.344  13.216 -0.9401 -0.3012 -0.0984
  771MPD2    C211431   3.702   3.299  13.095  0.3461 -0.4417 -0.0370
  771MPD2    C311432   3.709   3.157  13.078  0.8560 -0.6260 -0.0343
  771MPD2    C411433   3.748   3.077  13.182  0.2216 -0.0044  0.2605
  771MPD2    C511434   3.774   3.132  13.304 -0.4485 -0.5571  0.2766
  771MPD2     H11435   3.677   3.366  13.014 -0.5215 -1.5458 -0.6913
  771MPD2    H111436   3.770   2.971  13.177 -2.1327 -0.5242  1.0684
  771MPD2    H211437   3.787   3.304  13.416  1.4179  0.4870 -0.6789
  771MPD2    H311438   3.812   3.069  13.384  1.6134  1.4232  0.8558
  771MPD2     N11439   3.660   3.116  12.954  0.4649  0.0907 -0.6112
  771MPD2    H511440   3.625   3.193  12.897  2.5523  2.3374  1.1325
  771MPD2    N111441   3.709   3.480  13.233 -0.1529 -0.9732 -0.2573
  771MPD2    H711442   3.725   3.545  13.156 -1.4035  0.0439  0.3388
  772MPD2     C11443   3.379   4.175  13.649  0.0328 -0.0274 -0.5344
  772MPD2    C111444   3.347   4.062  13.578  0.1932  0.2625 -0.7041
  772MPD2    C211445   3.218   4.029  13.546 -0.7065  0.3718  0.6186
  772MPD2    C311446   3.114   4.118  13.586  0.3915 -0.1966 -0.3266
  772MPD2    C411447   3.149   4.233  13.659  0.0677  0.2689 -0.1195
  772MPD2    C511448   3.282   4.264  13.681  0.2110 -0.0327 -0.0392
  772MPD2     H11449   3.212   3.934  13.493 -2.8371  0.9716 -0.1974
  772MPD2    H111450   3.071   4.307  13.676  0.1089  1.0109 -3.2425
  772MPD2    H211451   3.480   4.207  13.668 -0.1857  0.0175  0.5553
  772MPD2    H311452   3.315   4.360  13.719 -0.4374 -0.2621  1.0950
  772MPD2     N11453   2.977   4.089  13.578 -0.3008 -1.0564  0.0353
  772MPD2    H511454   2.918   4.160  13.620 -1.0604 -1.2433 -0.7194
  772MPD2    N111455   3.444   3.961  13.542  0.1469  0.1211  0.5676
  772MPD2    H711456   3.399   3.890  13.485  0.4405  0.6185 -0.2860
  773MPD2     C11457   2.179   4.575   0.623 -0.1729 -1.0180  0.3839
  773MPD2    C111458   2.144   4.495   0.516  0.3658 -0.9596 -0.3837
  773MPD2    C211459   2.187   4.367   0.513  0.5285 -0.6171  0.2785
  773MPD2    C311460   2.242   4.309   0.626  0.2125  0.0886  0.2464
  773MPD2    C411461   2.273   4.385   0.731 -0.4149  0.5004 -0.4262
  773MPD2    C511462   2.246   4.519   0.730 -0.1918  0.6900 -0.2387
  773MPD2     H11463   2.180   4.299   0.429  1.2233 -0.6615  0.2634
  773MPD2    H111464   2.321   4.335   0.814 -0.1714  0.6834 -0.4551
  773MPD2    H211465   2.165   4.682   0.635  0.8591 -0.5541 -2.5062
  773MPD2    H311466   2.271   4.569   0.822  1.7991 -2.1884  0.7891
  773MPD2     N11467   2.287   4.176   0.621 -0.2010  0.8643  0.2515
  773MPD2    H511468   2.263   4.136   0.531  0.7611  0.3813  0.2087
  773MPD2    N111469   2.065   4.543   0.406 -0.5085 -0.3067 -0.3438
  773MPD2    H711470   2.038   4.481   0.330  0.7877 -1.3530  0.0435
  774MPD2     C11471   1.228   4.148  13.880 -0.0800 -0.4184 -1.1372
  774MPD2    C111472   1.343   4.144  13.804  0.4379 -0.2543  0.1905
  774MPD2    C211473   1.409   4.267  13.815  0.1492  0.8747  0.8498
  774MPD2    C311474   1.359   4.387  13.877 -0.2325 -0.5605 -0.2539
  774MPD2    C411475   1.234   4.379  13.949  0.2548  0.2278 -0.3416
  774MPD2    C511476   1.174   4.259  13.950  0.4381  0.3567 -0.0188
  774MPD2     H11477   1.492   4.287  13.749 -1.7480 -1.6747 -2.3385
  774MPD2    H111478   1.192   4.465  13.999  0.8337  1.9440 -2.8078
  774MPD2    H211479   1.175   4.053  13.885  0.2671 -0.5242  0.6033
  774MPD2    H311480   1.094   4.237  14.020  0.5167 -0.3146 -0.1415
  774MPD2     N11481   1.445   4.494  13.883  0.1381  0.4689 -0.3595
  774MPD2    H511482   1.535   4.490  13.836  0.1226 -0.3119 -0.3276
  774MPD2    N111483   1.390   4.022  13.747  0.4268  0.1208  0.4708
  774MPD2    H711484   1.325   3.944  13.748  0.3292  0.1969 -0.0887
  775MPD2     C11485   2.944   0.197  15.124  0.4287  0.0424 -0.1299
  775MPD2    C111486   2.931   0.315  15.197  0.5165 -0.2066 -0.1525
  775MPD2    C211487   3.037   0.403  15.215  1.0248  0.3388 -0.8048
  775MPD2    C311488   3.155   0.378  15.153 -0.0892 -0.4402 -0.3536
  775MPD2    C411489   3.169   0.267  15.077 -1.2831 -0.2083  0.2410
  775MPD2    C511490   3.067   0.178  15.063  0.5896 -0.3085  0.1842
  775MPD2     H11491   3.012   0.491  15.273  2.4535 -1.1553  2.1202
  775MPD2    H111492   3.255   0.237  15.018 -1.8168 -1.4320  0.0729
  775MPD2    H211493   2.870   0.118  15.111 -0.5660  1.2483 -1.8758
  775MPD2    H311494   3.087   0.091  15.001 -1.7202 -1.9926  1.7845
  775MPD2     N11495   3.263   0.471  15.171  0.1744  0.8318  0.2467
  775MPD2    H511496   3.347   0.456  15.116 -0.8074  0.1078 -1.0552
  775MPD2    N111497   2.812   0.333  15.260 -0.5492  0.0790  0.3580
  775MPD2    H711498   2.746   0.256  15.258  0.0554 -0.4740  1.6914
  776MPD2     C11499   1.848   0.323  11.397 -0.7253  0.0772  0.0445
  776MPD2    C111500   1.939   0.391  11.474 -0.3874  0.7178 -0.1083
  776MPD2    C211501   1.947   0.528  11.472 -0.7447  0.1460  0.7117
  776MPD2    C311502   1.858   0.599  11.403  0.5523 -0.3126 -0.3407
  776MPD2    C411503   1.763   0.535  11.326 -0.3094  0.1408 -0.0845
  776MPD2    C511504   1.761   0.403  11.325 -0.0006  0.1641 -0.2553
  776MPD2     H11505   2.025   0.574  11.531 -1.3731  2.3150 -0.1240
  776MPD2    H111506   1.697   0.591  11.260 -0.1279 -1.6680 -1.7958
  776MPD2    H211507   1.835   0.216  11.389 -2.2275  0.2506  0.1283
  776MPD2    H311508   1.680   0.353  11.272  0.8373 -1.9391  0.4772
  776MPD2     N11509   1.857   0.740  11.403  0.1873  0.0301 -0.3185
  776MPD2    H511510   1.777   0.785  11.360 -0.2622 -1.2927 -0.8914
  776MPD2    N111511   2.030   0.309  11.540 -0.1959 -0.5382  0.0020
  776MPD2    H711512   2.021   0.212  11.515  2.1808 -0.2903 -1.8113
  777MPD2     C11513   2.686   3.061   1.008  0.8778 -0.2217 -0.5588
  777MPD2    C111514   2.609   2.989   1.089 -0.5670  0.0720  0.3125
  777MPD2    C211515   2.550   2.873   1.052 -0.0103 -1.0161  0.4941
  777MPD2    C311516   2.580   2.825   0.920 -0.1353  0.3954  0.0388
  777MPD2    C411517   2.679   2.891   0.846  0.0377 -0.2509  0.5189
  777MPD2    C511518   2.728   3.013   0.888 -0.7182 -0.1242  0.2517
  777MPD2     H11519   2.483   2.815   1.115 -1.5108 -1.2588 -1.3179
  777MPD2    H111520   2.722   2.858   0.752  1.0514 -2.3056  1.7064
  777MPD2    H211521   2.731   3.155   1.040  1.7914  0.1706 -2.9953
  777MPD2    H311522   2.792   3.071   0.823 -2.5968  0.6842 -0.8688
  777MPD2     N11523   2.509   2.710   0.873  0.3442  0.3132  0.1815
  777MPD2    H511524   2.445   2.668   0.941  0.4661 -2.5659 -1.4965
  777MPD2    N111525   2.581   3.053   1.208  0.8491  0.1455 -0.1112
  777MPD2    H711526   2.592   3.152   1.222  0.1738  0.2543 -0.3549
  778MPD2     C11527   3.589   3.433  14.987 -0.3399  0.2646 -0.8871
  778MPD2    C111528   3.636   3.329  14.905  0.2201 -0.5123 -0.4628
  778MPD2    C211529   3.731   3.357  14.799  0.3436  1.1556 -0.3026
  778MPD2    C311530   3.772   3.490  14.792  0.2789 -0.2821  0.3570
  778MPD2    C411531   3.719   3.589  14.873 -0.2731 -0.1577  0.1886
  778MPD2    C511532   3.628   3.564  14.968 -0.3840  0.1254 -0.5019
  778MPD2     H11533   3.767   3.277  14.736 -0.6978  0.9505 -0.6464
  778MPD2    H111534   3.763   3.687  14.861 -0.8700  0.3270  1.8780
  778MPD2    H211535   3.511   3.418  15.062  0.9010  0.8833  0.5185
  778MPD2    H311536   3.585   3.643  15.029  0.5581  0.2214  0.0440
  778MPD2     N11537   3.883   3.508  14.702  0.4740  0.0189 -0.5764
  778MPD2    H511538   3.942   3.429  14.674  0.9486 -0.5720  2.0912
  778MPD2    N111539   3.577   3.200  14.920 -0.1392  0.2933  0.1840
  778MPD2    H711540   3.514   3.193  15.000 -1.8494  3.1912 -0.8937
  779MPD2     C11541   3.226   1.750  14.279 -0.4302  0.0580 -0.1886
  779MPD2    C111542   3.364   1.749  14.272  0.3360  0.3969  0.8364
  779MPD2    C211543   3.427   1.873  14.254 -0.3472  1.1061 -0.1516
  779MPD2    C311544   3.354   1.991  14.222  0.4272  0.0172  0.3695
  779MPD2    C411545   3.214   1.981  14.220 -0.0245  0.0582 -0.1379
  779MPD2    C511546   3.151   1.863  14.250 -0.4115  0.4277 -0.6040
  779MPD2     H11547   3.535   1.873  14.262 -0.1568  3.0518 -2.7513
  779MPD2    H111548   3.143   2.056  14.188  1.7495  1.2544 -1.2648
  779MPD2    H211549   3.170   1.659  14.297 -0.7248  0.5903  1.5461
  779MPD2    H311550   3.043   1.862  14.255 -0.5187  0.2311 -2.7464
  779MPD2     N11551   3.426   2.108  14.183  0.7581  0.1478 -0.5274
  779MPD2    H511552   3.527   2.102  14.191  0.5172 -2.4980  0.6036
  779MPD2    N111553   3.440   1.627  14.269  0.2020 -0.3312  0.2359
  779MPD2    H711554   3.539   1.642  14.253  0.5031 -0.3859  2.0570
  780MPD2     C11555   3.306   2.574   1.093  0.0155  0.6711 -0.3765
  780MPD2    C111556   3.235   2.460   1.068 -0.5069 -0.2684  0.7981
  780MPD2    C211557   3.201   2.427   0.939 -0.3806  0.0749 -0.8955
  780MPD2    C311558   3.235   2.510   0.828  0.3451  0.4525  0.5357
  780MPD2    C411559   3.293   2.630   0.865  0.0209  0.3755 -0.4656
  780MPD2    C511560   3.328   2.660   0.992 -0.2221 -0.3392  0.0184
  780MPD2     H11561   3.145   2.339   0.910 -1.3344  0.4755 -0.2514
  780MPD2    H111562   3.314   2.715   0.801  1.1567  1.9023  1.9521
  780MPD2    H211563   3.341   2.594   1.194 -3.1790  0.6921  0.7095
  780MPD2    H311564   3.370   2.756   1.021  2.4836 -1.0570 -1.4992
  780MPD2     N11565   3.189   2.483   0.692 -0.0263 -0.2971 -0.2939
  780MPD2    H511566   3.135   2.397   0.683  1.0199 -0.8546 -1.1855
  780MPD2    N111567   3.194   2.385   1.184  0.3281 -0.3875  0.1600
  780MPD2    H711568   3.218   2.434   1.269  2.0741 -1.1425  0.0960
  781MPD2     C11569   0.311   3.992  11.862  0.4589 -0.1228 -0.4328
  781MPD2    C111570   0.368   3.881  11.920 -0.1171  0.5451 -1.0393
  781MPD2    C211571   0.488   3.831  11.866 -0.0841 -0.4306 -0.1352
  781MPD2    C311572   0.540   3.879  11.744  0.5796  0.5608  0.1892
  781MPD2    C411573   0.487   3.991  11.689 -0.0976  0.2909 -1.1134
  781MPD2    C511574   0.372   4.050  11.746  0.0070  0.2792  0.0620
  781MPD2     H11575   0.542   3.745  11.903 -0.4672 -1.0424 -0.9923
  781MPD2    H111576   0.525   4.039  11.600  0.2446  0.3771 -0.9212
  781MPD2    H211577   0.223   4.030  11.912  0.9294 -1.8536  1.6774
  781MPD2    H311578   0.321   4.137  11.706 -2.5756 -1.1672  0.2593
  781MPD2     N11579   0.654   3.813  11.692 -0.6524 -0.2094 -0.0202
  781MPD2    H511580   0.705   3.762  11.763 -1.1549 -0.5454  0.0956
  781MPD2    N111581   0.321   3.827  12.037 -0.0227 -0.0141  0.2865
  781MPD2    H711582   0.389   3.782  12.098  0.1492 -0.5544 -0.2958
  782MPD2     C11583   3.047   0.089  10.456 -0.1342 -0.6538 -0.1892
  782MPD2    C111584   3.179   0.066  10.473 -0.0833 -0.3483 -0.6304
  782MPD2    C211585   3.260   0.165  10.520 -0.2303  0.2261 -0.1524
  782MPD2    C311586   3.207   0.283  10.569 -0.6588 -0.3082 -0.2950
  782MPD2    C411587   3.076   0.307  10.557 -0.3770  0.1632 -0.2589
  782MPD2    C511588   3.001   0.211  10.491 -0.4003  0.5104 -0.2473
  782MPD2     H11589   3.368   0.158  10.515 -0.2919 -0.3420 -0.6934
  782MPD2    H111590   3.030   0.401  10.587 -1.6136 -0.4035 -0.3586
  782MPD2    H211591   2.990   0.017  10.398 -0.3762 -2.8197  2.7421
  782MPD2    H311592   2.894   0.224  10.476 -0.4407 -0.2524 -0.6620
  782MPD2     N11593   3.292   0.378  10.626 -0.1930  0.7422 -0.0575
  782MPD2    H511594   3.392   0.365  10.622 -0.4324 -0.5936 -1.9842
  782MPD2    N111595   3.223   4.684  10.422  0.0055  0.3262 -0.1920
  782MPD2    H711596   3.154   4.621  10.385 -0.9535  2.3667 -1.8488
  783MPD2     C11597   2.752   3.973  10.479  0.0487  0.9598  0.1160
  783MPD2    C111598   2.763   4.087  10.552 -0.2464 -0.0400 -0.5439
  783MPD2    C211599   2.884   4.162  10.545 -0.0601  0.1630 -0.0505
  783MPD2    C311600   2.986   4.119  10.465  0.1938  0.4020 -0.0852
  783MPD2    C411601   2.975   4.000  10.398 -0.1905 -0.7254 -0.1211
  783MPD2    C511602   2.861   3.929  10.409  0.4060  0.8130 -0.5614
  783MPD2     H11603   2.892   4.254  10.602 -1.4008 -0.9449  1.9525
  783MPD2    H111604   3.051   3.961  10.332 -0.0021  1.5822 -1.2658
  783MPD2    H211605   2.665   3.909  10.494  2.1629 -1.9794 -0.0339
  783MPD2    H311606   2.849   3.834  10.357  0.7167  0.4339  0.0599
  783MPD2     N11607   3.105   4.195  10.468  0.2220 -0.3608  0.3362
  783MPD2    H511608   3.102   4.289  10.506 -3.0401 -0.8726  1.3997
  783MPD2    N111609   2.663   4.121  10.642 -0.1425  0.2004  0.2568
  783MPD2    H711610   2.575   4.071  10.630  0.9007 -2.0081  1.8475
  784MPD2     C11611   0.026   0.107   0.524 -0.3561 -0.2635 -0.4084
  784MPD2    C111612   4.733   0.186   0.635 -0.1745  0.5093 -0.6352
  784MPD2    C211613   4.639   0.291   0.634  0.0953 -0.4981  0.9163
  784MPD2    C311614   4.566   0.306   0.515 -0.1624  0.2997 -0.1786
  784MPD2    C411615   4.602   0.229   0.402 -0.3669 -0.0149 -0.1455
  784MPD2    C511616   4.695   0.129   0.404 -0.1952 -0.4121  0.0795
  784MPD2     H11617   4.616   0.356   0.718 -2.3696  1.7238 -1.4763
  784MPD2    H111618   4.551   0.240   0.308 -1.0351  1.0039  0.3392
  784MPD2    H211619   0.095   0.023   0.528 -0.4290 -0.2562  1.2376
  784MPD2    H311620   4.707   0.066   0.317  0.9444 -0.1050  0.0077
  784MPD2     N11621   4.463   0.404   0.508 -0.0104  0.5741  0.0351
  784MPD2    H511622   4.463   0.467   0.588 -1.7677 -1.8552  1.9384
  784MPD2    N111623   0.077   0.164   0.755  0.6897  0.1792  0.0619
  784MPD2    H711624   0.074   0.243   0.819 -4.0770  0.1393 -0.1089
  785MPD2     C11625   1.018   3.318  10.099 -0.1249 -0.0262  0.0285
  785MPD2    C111626   0.885   3.298  10.086 -0.5234  0.2469  0.4328
  785MPD2    C211627   0.825   3.232   9.976  0.3924  0.2595  0.3546
  785MPD2    C311628   0.909   3.181   9.884  0.2579 -0.0236 -0.2350
  785MPD2    C411629   1.048   3.192   9.899 -0.3530 -0.4737  0.4336
  785MPD2    C511630   1.097   3.257  10.009 -0.5760 -0.1637  0.2288
  785MPD2     H11631   0.717   3.222   9.967  0.4178 -0.3325  0.7517
  785MPD2    H111632   1.120   3.146   9.832  0.0166  0.5822  0.0951
  785MPD2    H211633   1.075   3.362  10.181  0.0254 -0.3823  0.1120
  785MPD2    H311634   1.204   3.262  10.024 -0.4230 -0.3905 -0.8102
  785MPD2     N11635   0.849   3.121   9.773 -0.0271 -0.1103 -0.1771
  785MPD2    H511636   0.750   3.098   9.763 -0.0279  0.7548 -2.2772
  785MPD2    N111637   0.795   3.353  10.180 -0.3904 -0.0572 -0.0099
  785MPD2    H711638   0.698   3.325  10.167 -0.7641  0.5747  1.3407
  786MPD2     C11639   3.901   1.119  14.936 -0.2881 -0.2448 -0.0178
  786MPD2    C111640   4.030   1.153  14.890  0.9394  0.2945 -0.0085
  786MPD2    C211641   4.113   1.239  14.961  0.2182  0.1705 -0.0798
  786MPD2    C311642   4.073   1.282  15.088  0.2562  0.5312 -0.1858
  786MPD2    C411643   3.943   1.250  15.133 -0.3141 -0.2506  0.5912
  786MPD2    C511644   3.858   1.168  15.056  0.5159  0.1894 -0.2683
  786MPD2     H11645   4.212   1.264  14.924 -0.3638 -0.6150 -2.1966
  786MPD2    H111646   3.902   1.297  15.222 -3.0988  0.4651 -1.0610
  786MPD2    H211647   3.833   1.048  14.893 -1.5998 -0.2943  2.1488
  786MPD2    H311648   3.754   1.154  15.082  0.4882 -1.0736 -1.0730
  786MPD2     N11649   4.157   1.374  15.161  0.2626  0.3631 -0.2670
  786MPD2    H511650   4.236   1.415  15.112 -1.2240  0.7464 -2.3149
  786MPD2    N111651   4.092   1.087  14.773 -0.2965 -0.1379  0.3041
  786MPD2    H711652   4.193   1.091  14.765 -0.2818 -0.2167  0.4516
  787MPD2     C11653   4.584   0.723  14.804 -0.1936 -0.0645  0.2808
  787MPD2    C111654   4.548   0.689  14.674  0.0264  0.2074  0.1913
  787MPD2    C211655   4.594   0.570  14.618  0.6081 -0.7528 -0.3766
  787MPD2    C311656   4.670   0.479  14.687  0.1792 -0.2062 -0.2990
  787MPD2    C411657   4.708   0.520  14.821  0.1436 -0.1340 -0.1690
  787MPD2    C511658   4.666   0.640  14.879 -0.7026 -0.1149  0.6303
  787MPD2     H11659   4.552   0.532  14.525 -0.7875  1.6010 -0.7221
  787MPD2    H111660   0.035   0.449  14.874 -1.5684 -0.0980  1.8563
  787MPD2    H211661   4.552   0.818  14.847  0.1358  0.1799 -0.0073
  787MPD2    H311662   4.689   0.660  14.983  0.7635 -0.5619  0.3934
  787MPD2     N11663   4.697   0.348  14.629 -0.4932  0.2206 -0.2587
  787MPD2    H511664   4.671   0.330  14.532  3.0208  1.9174 -1.5019
  787MPD2    N111665   4.453   0.776  14.608  0.1403 -0.0771  0.2402
  787MPD2    H711666   4.425   0.862  14.653 -0.0861 -0.9754  1.8218
  788MPD2     C11667   0.681   0.112   0.907  0.3120  0.0798  0.5284
  788MPD2    C111668   0.597   0.039   0.829  0.0473 -0.6334 -0.3093
  788MPD2    C211669   0.542   0.114   0.730 -0.7276  0.3445 -0.5015
  788MPD2    C311670   0.559   0.253   0.706 -0.9288  0.9621 -0.3559
  788MPD2    C411671   0.641   0.321   0.786  0.0833  0.0638  0.0270
  788MPD2    C511672   0.695   0.254   0.888  0.6225  0.0882  1.0646
  788MPD2     H11673   0.480   0.055   0.664 -0.9899  0.5514 -0.4371
  788MPD2    H111674   0.667   0.425   0.769 -0.0533 -0.1674 -1.5997
  788MPD2    H211675   0.730   0.063   0.990 -0.1838 -2.2648 -0.5673
  788MPD2    H311676   0.755   0.314   0.955 -0.7740  0.7500  1.7210
  788MPD2     N11677   0.480   0.325   0.613  0.1247  0.0306 -0.4800
  788MPD2    H511678   0.515   0.420   0.602 -0.2913  0.0555 -1.5919
  788MPD2    N111679   0.574   4.634   0.847  0.7977 -0.1667  0.5056
  788MPD2    H711680   0.505   4.586   0.790 -0.9598  1.9392  0.8357
  789MPD2     C11681   0.907   3.871  17.400 -0.0655  0.5198 -0.0408
  789MPD2    C111682   0.936   3.933  17.286  0.5931  0.5701  1.4445
  789MPD2    C211683   0.853   4.026  17.232  0.6770 -0.4322  0.3568
  789MPD2    C311684   0.724   4.046  17.280  0.7435 -0.5353 -0.6409
  789MPD2    C411685   0.697   3.981  17.399  0.3822 -0.0511 -0.6012
  789MPD2    C511686   0.795   3.914  17.465 -0.0998 -0.9404 -0.0228
  789MPD2     H11687   0.888   4.081  17.145  1.4822  0.6840  1.3965
  789MPD2    H111688   0.598   3.987  17.442 -0.5059 -1.3525 -2.4687
  789MPD2    H211689   0.964   3.797  17.456 -0.9880 -0.0253  0.1717
  789MPD2    H311690   0.768   3.867  17.559  2.6266 -0.1366  1.1685
  789MPD2     N11691   0.630   4.135  17.217  0.1832 -0.1862  0.2952
  789MPD2    H511692   0.539   4.144  17.262  0.4826  0.2492  0.8155
  789MPD2    N111693   1.051   3.899  17.213 -0.2224 -0.6639  0.3872
  789MPD2    H711694   1.061   3.941  17.121  1.5513  0.2575  0.9994
  790MPD2     C11695   2.625   1.307  13.521 -0.2531 -0.0779  0.0353
  790MPD2    C111696   2.675   1.174  13.523 -0.6634 -0.1284 -0.0088
  790MPD2    C211697   2.618   1.076  13.439  0.3995  0.4112  0.0320
  790MPD2    C311698   2.514   1.103  13.356 -0.1275  0.1392  0.5215
  790MPD2    C411699   2.460   1.233  13.360  0.4365 -0.6862 -0.6595
  790MPD2    C511700   2.517   1.328  13.437  0.2825  0.3813  0.2501
  790MPD2     H11701   2.663   0.978  13.432  2.0555  1.2596 -1.2778
  790MPD2    H111702   2.383   1.269  13.294 -1.4607 -0.6986  1.5350
  790MPD2    H211703   2.665   1.382  13.589  0.4575  0.6188 -1.1558
  790MPD2    H311704   2.479   1.429  13.442 -0.3013  0.2995 -2.3474
  790MPD2     N11705   2.461   1.001  13.277 -0.9774 -0.1348 -0.6076
  790MPD2    H511706   2.498   0.907  13.279 -0.5173  0.0607  0.3415
  790MPD2    N111707   2.798   1.152  13.598  0.3192  0.4359  0.2960
  790MPD2    H711708   2.840   1.235  13.637  0.0804  1.7091 -2.1418
  791MPD2     C11709   1.726   0.888  13.090  0.0776 -0.1460 -0.3501
  791MPD2    C111710   1.795   0.773  13.055  0.4904 -0.2089  0.4363
  791MPD2    C211711   1.728   0.664  13.008  0.3344  0.2557  0.0646
  791MPD2    C311712   1.589   0.665  13.009  0.4549  0.7331 -0.2120
  791MPD2    C411713   1.516   0.786  13.040  0.0376  0.3141  1.4676
  791MPD2    C511714   1.594   0.894  13.076  0.6550  0.0728  0.1737
  791MPD2     H11715   1.786   0.581  12.970  2.5373  1.9613 -0.2744
  791MPD2    H111716   1.408   0.786  13.043  0.0239 -0.3113  0.9462
  791MPD2    H211717   1.771   0.976  13.133  0.5156  0.3388 -1.8097
  791MPD2    H311718   1.550   0.989  13.106  1.3153  0.5485 -0.3550
  791MPD2     N11719   1.525   0.545  12.968 -0.2026  0.0186 -0.1507
  791MPD2    H511720   1.578   0.459  12.976  0.0186  0.1899  0.1774
  791MPD2    N111721   1.937   0.789  13.053 -0.1888  0.2573  0.6573
  791MPD2    H711722   1.967   0.886  13.056 -3.5693  1.2558  1.3544
  792MPD2     C11723   3.079   0.838  11.596  1.3929 -0.3466  0.8771
  792MPD2    C111724   3.006   0.903  11.501  0.7395  0.3387  0.2877
  792MPD2    C211725   2.870   0.868  11.496 -0.1942 -0.2592  0.1904
  792MPD2    C311726   2.805   0.786  11.588  0.8242  0.0578 -0.0259
  792MPD2    C411727   2.881   0.728  11.682  0.0434 -0.0226  0.5997
  792MPD2    C511728   3.020   0.752  11.684 -0.0626 -0.0734  0.0191
  792MPD2     H11729   2.824   0.910  11.408 -0.6502 -0.5559  0.2885
  792MPD2    H111730   2.845   0.644  11.740 -1.0709 -1.5315 -2.2379
  792MPD2    H211731   3.185   0.864  11.595  1.2512  0.1008 -1.4782
  792MPD2    H311732   3.079   0.708  11.764 -1.1878 -1.4610  0.0920
  792MPD2     N11733   2.677   0.724  11.558  0.2159  0.9626 -0.2424
  792MPD2    H511734   2.639   0.663  11.630 -1.0996 -0.9065 -2.5528
  792MPD2    N111735   3.077   0.985  11.409 -0.2013  0.1420  0.1029
  792MPD2    H711736   3.178   0.978  11.399 -0.1775 -0.7643  1.0750
  793MPD2     C11737   2.162   0.928  10.744 -0.4446  0.7386  0.4095
  793MPD2    C111738   2.274   0.961  10.814 -0.6068  0.0735  0.5829
  793MPD2    C211739   2.290   0.918  10.941  0.6385  0.1923  0.2793
  793MPD2    C311740   2.206   0.829  11.006  0.4370 -0.3451  0.9698
  793MPD2    C411741   2.094   0.788  10.932 -0.4055 -0.4545  0.3175
  793MPD2    C511742   2.076   0.831  10.801 -0.1708  0.4814  0.2071
  793MPD2     H11743   2.375   0.961  10.993  0.4894  1.7565 -0.7731
  793MPD2    H111744   2.030   0.714  10.978  1.1489 -0.6836  2.1222
  793MPD2    H211745   2.141   0.956  10.641  1.1548 -0.2350 -0.1736
  793MPD2    H311746   1.993   0.794  10.741  0.7105  0.4437 -0.9754
  793MPD2     N11747   2.244   0.793  11.133  0.3252  0.0574  0.1899
  793MPD2    H511748   2.319   0.844  11.179  1.1607 -0.3746 -0.6957
  793MPD2    N111749   2.379   1.034  10.754  0.3189  0.0003  0.7174
  793MPD2    H711750   2.455   1.067  10.812  0.3638  2.8260 -0.9487
  794MPD2     C11751   1.786   0.549   0.013  1.2827  0.8819  0.0596
  794MPD2    C111752   1.769   0.441  17.668 -0.4002  0.4638  0.2672
  794MPD2    C211753   1.712   0.464  17.540 -0.8598 -0.3333  0.7005
  794MPD2    C311754   1.660   0.592  17.510  0.0809 -0.5825  0.1134
  794MPD2    C411755   1.675   0.691  17.602  0.1630 -0.0790  0.0343
  794MPD2    C511756   1.731   0.671  17.722  0.1689 -0.5057  0.2572
  794MPD2     H11757   1.681   0.377  17.483 -1.5345 -0.6474  1.5382
  794MPD2    H111758   1.641   0.790  17.575  3.3317  0.4863 -1.8951
  794MPD2    H211759   1.842   0.541   0.106  1.7133 -1.6329 -0.4093
  794MPD2    H311760   1.755   0.757   0.047 -0.6812  0.0221 -0.1569
  794MPD2     N11761   1.591   0.620  17.387 -0.0633  0.4278 -0.1551
  794MPD2    H511762   1.563   0.717  17.376 -3.0981 -0.5443 -1.0919
  794MPD2    N111763   1.795   0.309  17.714  0.1262  0.5452  0.1223
  794MPD2    H711764   1.761   0.229  17.660 -0.1135  1.5359 -1.1970
  795MPD2     C11765   0.307   2.215  13.062 -0.4278  0.0725 -0.4617
  795MPD2    C111766   0.249   2.144  13.165  0.1193 -0.1295 -0.3405
  795MPD2    C211767   0.311   2.031  13.219  0.2362 -0.4777  0.0795
  795MPD2    C311768   0.425   1.984  13.158 -0.2861 -0.3266 -0.3669
  795MPD2    C411769   0.489   2.055  13.055 -0.1450  0.0329  0.3164
  795MPD2    C511770   0.426   2.171  13.010 -0.0869 -0.0118 -0.3408
  795MPD2     H11771   0.265   1.978  13.301  1.9109 -1.0631  0.6582
  795MPD2    H111772   0.576   2.022  13.000  0.8027  0.9863  1.2551
  795MPD2    H211773   0.273   2.307  13.018 -2.7056 -0.6558 -0.2573
  795MPD2    H311774   0.472   2.224  12.927  0.6367 -1.3741 -0.8114
  795MPD2     N11775   0.493   1.878  13.229  0.5992  0.1171  0.4301
  795MPD2    H511776   0.443   1.855  13.315  0.1246 -1.9188 -0.3884
  795MPD2    N111777   0.120   2.173  13.209 -0.2339 -0.6480 -0.8668
  795MPD2    H711778   0.076   2.115  13.280 -1.6784  0.6966 -0.6638
  796MPD2     C11779   3.955   3.444  16.221  0.7410 -0.4634 -0.1044
  796MPD2    C111780   4.002   3.515  16.333 -0.2222 -0.3880  0.1769
  796MPD2    C211781   3.946   3.642  16.357  0.5403  0.3222 -0.2221
  796MPD2    C311782   3.845   3.690  16.284  0.9892  0.0845 -0.5793
  796MPD2    C411783   3.787   3.606  16.182  0.0980  0.2193 -0.0403
  796MPD2    C511784   3.847   3.493  16.154 -0.1548 -0.1340  0.0169
  796MPD2     H11785   3.997   3.707  16.427 -0.6965 -0.0425  1.0177
  796MPD2    H111786   3.700   3.639  16.125 -2.0342  0.2306  3.1643
  796MPD2    H211787   4.007   3.356  16.184 -1.1186 -2.3202  1.7182
  796MPD2    H311788   3.820   3.439  16.064 -0.6194 -0.2650  0.2331
  796MPD2     N11789   3.821   3.827  16.291  0.2076  0.0107  0.8924
  796MPD2    H511790   3.885   3.873  16.355  0.1231 -0.2838  1.1937
  796MPD2    N111791   4.108   3.453  16.405 -0.7178 -0.1414 -0.0661
  796MPD2    H711792   4.136   3.359  16.376  1.6278  1.3511 -2.6240
  797MPD2     C11793   0.571   3.192   0.154 -0.8928  0.0708  0.2024
  797MPD2    C111794   0.558   3.323   0.194 -0.2323  0.3109 -0.0663
  797MPD2    C211795   0.452   3.398   0.149 -0.4609  0.2234 -0.0643
  797MPD2    C311796   0.356   3.341   0.069 -0.8472 -1.0138 -0.1958
  797MPD2    C411797   0.360   3.208   0.046  0.0034 -0.1993  0.2961
  797MPD2    C511798   0.462   3.138   0.096  0.3893  0.0696  0.1087
  797MPD2     H11799   0.439   3.495   0.197 -1.4207  0.0420  0.0419
  797MPD2    H111800   0.289   3.166  17.712 -0.0874 -0.3124  0.4573
  797MPD2    H211801   0.653   3.130   0.187 -1.8342 -0.6618  1.1443
  797MPD2    H311802   0.465   3.031   0.076 -0.4040 -0.3408  2.1520
  797MPD2     N11803   0.255   3.427   0.025  0.1116  0.7523 -0.2072
  797MPD2    H511804   0.276   3.525   0.044  1.7953  0.0158  1.7696
  797MPD2    N111805   0.660   3.396   0.261  0.1316  0.0518  0.2248
  797MPD2    H711806   0.641   3.492   0.286 -2.9115 -0.6373  0.5399
  798MPD2     C11807   0.519   4.068   0.003 -0.1476  0.7523  0.4535
  798MPD2    C111808   0.469   3.945   0.052 -0.2640  0.1752 -0.1329
  798MPD2    C211809   0.550   3.876   0.139  0.4243  0.2944 -0.0147
  798MPD2    C311810   0.687   3.907   0.159 -0.2855  0.1788 -0.1387
  798MPD2    C411811   0.738   4.018   0.099 -0.1781 -0.8773  0.2602
  798MPD2    C511812   0.656   4.105   0.029 -0.5503  0.2828 -0.7378
  798MPD2     H11813   0.506   3.786   0.180 -0.1658  0.4800 -0.2370
  798MPD2    H111814   0.842   4.046   0.108 -1.0532  2.9148 -1.5646
  798MPD2    H211815   0.456   4.138  17.686 -0.1178  0.4400  0.0091
  798MPD2    H311816   0.689   4.202  17.728 -0.1906  0.2452 -0.5121
  798MPD2     N11817   0.762   3.813   0.235  0.1607  0.4592  0.4691
  798MPD2    H511818   0.711   3.734   0.272 -2.1252  1.4501 -0.6015
  798MPD2    N111819   0.341   3.908   0.005  0.2902  0.1330  0.2490
  798MPD2    H711820   0.294   3.961  17.669  0.0185 -1.5321 -0.7725
  799MPD2     C11821   4.338   0.177  14.929 -0.8225  0.0330 -0.1380
  799MPD2    C111822   4.266   0.111  14.832 -0.3957 -0.3772  0.1028
  799MPD2    C211823   4.232   0.167  14.717 -0.6041  0.2028 -0.5546
  799MPD2    C311824   4.263   0.308  14.692 -0.3832 -0.5189  0.3721
  799MPD2    C411825   4.345   0.368  14.786 -0.4155  0.9148  0.1350
  799MPD2    C511826   4.378   0.304  14.899 -0.0941  0.3550  0.2408
  799MPD2     H11827   4.176   0.114  14.640 -1.6762  0.1181  0.2785
  799MPD2    H111828   4.384   0.469  14.774 -0.4529  0.6509 -2.1074
  799MPD2    H211829   4.366   0.140  15.027 -2.3368  1.9560  1.0359
  799MPD2    H311830   4.435   0.361  14.972  0.1730 -0.1443  0.4198
  799MPD2     N11831   4.233   0.376  14.568 -0.6728 -0.3708  0.3741
  799MPD2    H511832   4.280   0.466  14.561  0.3914 -0.8079  2.2902
  799MPD2    N111833   4.220   4.708  14.843 -0.0309 -0.2200 -0.6318
  799MPD2    H711834   4.190   4.675  14.752 -0.9391  1.7242 -1.0400
  800MPD2     C11835   4.590   1.563  14.102  0.1263  0.0929 -0.8800
  800MPD2    C111836   4.714   1.518  14.152  0.2168  0.4932  0.7760
  800MPD2    C211837   0.030   1.386  14.122  0.5064 -0.1415 -0.8788
  800MPD2    C311838   4.682   1.310  14.049 -0.1602 -0.0832 -0.0107
  800MPD2    C411839   4.556   1.339  13.996  0.9621  0.3146  0.0573
  800MPD2    C511840   4.520   1.475  14.019 -0.1892 -0.1204  0.3483
  800MPD2     H11841   0.117   1.340  14.167  0.3660  2.1180  1.6947
  800MPD2    H111842   4.490   1.263  13.957 -0.4774  1.7548 -0.3481
  800MPD2    H211843   4.561   1.667  14.115  0.5308 -0.0288  0.9913
  800MPD2    H311844   4.419   1.502  13.993 -1.2519 -4.6112 -0.1712
  800MPD2     N11845   0.010   1.181  14.028  0.0763  0.8982 -0.1055
  800MPD2    H511846   0.095   1.162  14.080 -1.3763  0.1698  1.9577
  800MPD2    N111847   0.052   1.607  14.239  0.7496  0.9462 -0.3678
  800MPD2    H711848   0.011   1.695  14.270 -0.3003  0.1598  0.4721
  801MPD2     C11849   4.627   2.038  14.786  0.5034  0.8523 -0.1212
  801MPD2    C111850   4.606   1.976  14.663 -0.3485 -0.2237  0.5691
  801MPD2    C211851   4.480   1.951  14.631  0.0473 -0.3487 -0.8503
  801MPD2    C311852   4.368   1.966  14.707 -0.2514 -0.7248 -0.4313
  801MPD2    C411853   4.394   2.024  14.826  0.0863  0.1602  0.5418
  801MPD2    C511854   4.519   2.060  14.864  0.5085  0.4688 -0.1100
  801MPD2     H11855   4.475   1.924  14.526 -1.1346  4.5833 -2.0571
  801MPD2    H111856   4.312   2.040  14.896 -1.1290 -0.7687 -0.6763
  801MPD2    H211857   4.725   2.063  14.825  0.4578 -0.1758  0.6407
  801MPD2    H311858   4.534   2.093  14.966  0.4560  0.3240 -0.0556
  801MPD2     N11859   4.235   1.949  14.663 -1.1572  0.8284  0.3147
  801MPD2    H511860   4.168   1.988  14.728 -2.7378  0.3833 -1.0538
  801MPD2    N111861   4.706   1.938  14.570  0.2244  0.4555 -0.2547
  801MPD2    H711862   4.686   1.893  14.481 -1.0245  1.6307 -0.5659
  802MPD2     C11863   3.420   2.887  17.358  0.7940  0.0080 -0.7082
  802MPD2    C111864   3.422   2.927  17.493 -0.0666 -0.0589  0.2937
  802MPD2    C211865   3.454   2.845  17.590  0.1972 -1.0305 -0.0139
  802MPD2    C311866   3.466   2.712  17.566  0.3790 -0.0080 -0.0428
  802MPD2    C411867   3.437   2.669  17.436  0.6756 -0.2939 -0.3032
  802MPD2    C511868   3.413   2.756  17.333 -0.1568  0.0198 -0.0642
  802MPD2     H11869   3.489   2.880  17.687 -0.1421  0.2068 -0.3416
  802MPD2    H111870   3.459   2.568  17.403  0.4861 -0.7509  1.0029
  802MPD2    H211871   3.398   2.951  17.273  2.1747 -1.7207 -2.3599
  802MPD2    H311872   3.389   2.719  17.234  0.1124 -0.2389 -0.0315
  802MPD2     N11873   3.528   2.630  17.663  0.6990 -0.1409  0.8859
  802MPD2    H511874   3.552   2.675   0.014 -0.7607  0.2569  1.0865
  802MPD2    N111875   3.415   3.068  17.532  0.1297  0.0297 -0.5225
  802MPD2    H711876   3.419   3.074  17.633  0.8746  0.4012 -0.5665
  803MPD2     C11877   0.291   0.952  12.340  0.3087 -0.7128 -0.8561
  803MPD2    C111878   0.305   0.846  12.254 -0.2276 -0.8677  0.5886
  803MPD2    C211879   0.272   0.719  12.308  0.2016 -0.7846 -0.2582
  803MPD2    C311880   0.250   0.700  12.447  0.1797  0.6536  0.2686
  803MPD2    C411881   0.265   0.818  12.529  0.0563 -0.0440 -0.0414
  803MPD2    C511882   0.269   0.940  12.472 -0.2184 -0.1836  0.4024
  803MPD2     H11883   0.267   0.640  12.233 -2.4928 -0.4232 -0.4450
  803MPD2    H111884   0.257   0.810  12.637 -1.7490 -0.9500 -0.2419
  803MPD2    H211885   0.322   1.052  12.312  2.6158 -1.3272 -0.5495
  803MPD2    H311886   0.288   1.026  12.535  1.6980  0.0255 -0.4602
  803MPD2     N11887   0.218   0.584  12.519  0.6417  0.7303 -0.2359
  803MPD2    H511888   0.207   0.586  12.620 -1.8054 -0.9446 -0.4643
  803MPD2    N111889   0.345   0.865  12.119 -0.0502  0.0886 -0.8779
  803MPD2    H711890   0.369   0.961  12.097 -1.3402  0.7465  0.6088
  804MPD2     C11891   0.168   2.028  16.942 -0.0945  0.0740 -0.5607
  804MPD2    C111892   0.083   2.046  17.049  0.0568  0.2150  0.4007
  804MPD2    C211893   0.113   2.137  17.150 -0.2593  0.6846  0.1468
  804MPD2    C311894   0.215   2.223  17.141 -0.0315  0.1039  0.4425
  804MPD2    C411895   0.296   2.205  17.031 -0.2931  0.0989  0.0780
  804MPD2    C511896   0.275   2.109  16.937 -0.5998  0.5515 -0.2444
  804MPD2     H11897   0.059   2.138  17.245 -2.2409 -0.5321 -0.9722
  804MPD2    H111898   0.386   2.260  17.007 -0.0140  0.0669  1.0303
  804MPD2    H211899   0.154   1.955  16.863 -0.6489  0.0635 -0.4464
  804MPD2    H311900   0.335   2.092  16.849  2.5968  1.9958  1.6764
  804MPD2     N11901   0.240   2.314  17.244  0.4033 -0.3484  0.3700
  804MPD2    H511902   0.197   2.296  17.334  0.1368 -2.2826 -0.1275
  804MPD2    N111903   4.700   1.960  17.054  0.1542 -0.4621 -0.2931
  804MPD2    H711904   4.644   1.979  17.137 -0.7116  0.8470 -1.1704
  805MPD2     C11905   3.547   0.368  15.397  0.1893  0.3218  0.0740
  805MPD2    C111906   3.660   0.444  15.374 -0.7225 -0.0627  0.2462
  805MPD2    C211907   3.715   0.520  15.478 -0.5352 -0.6927 -0.3982
  805MPD2    C311908   3.667   0.511  15.605 -0.3607  0.1166  0.3080
  805MPD2    C411909   3.557   0.429  15.633  0.2758  0.0536  0.1470
  805MPD2    C511910   3.503   0.358  15.527  0.7135  0.0523  0.0383
  805MPD2     H11911   3.795   0.590  15.457  0.2178 -1.3277  0.3501
  805MPD2    H111912   3.521   0.419  15.734 -0.3871 -0.6079 -0.1589
  805MPD2    H211913   3.492   0.312  15.322 -0.9423  1.1954  0.2375
  805MPD2    H311914   3.420   0.291  15.544 -1.0930  2.1907 -0.3130
  805MPD2     N11915   3.733   0.599  15.700  0.0559 -0.3036  0.0148
  805MPD2    H511916   3.814   0.648  15.665  1.0208 -0.8678  1.4339
  805MPD2    N111917   3.723   0.453  15.248  0.0671  0.0098  0.2358
  805MPD2    H711918   3.815   0.494  15.244  0.2197 -0.5398 -1.8354
  806MPD2     C11919   3.302   0.185   0.195 -0.3952  0.5055 -0.3271
  806MPD2    C111920   3.402   0.247   0.264  0.0452 -0.0487  0.0934
  806MPD2    C211921   3.479   0.342   0.201 -0.7867 -0.3027  0.1172
  806MPD2    C311922   3.466   0.362   0.065  0.4601 -0.4322 -0.1677
  806MPD2    C411923   3.366   0.293  17.728 -0.4798  0.2095  0.0036
  806MPD2    C511924   3.291   0.200   0.058  0.2190 -0.3471  0.1382
  806MPD2     H11925   3.557   0.397   0.252 -0.2851  1.4233 -2.4871
  806MPD2    H111926   3.338   0.309  17.624  0.4457 -3.2471 -0.7536
  806MPD2    H211927   3.241   0.112   0.247  2.3882 -1.5661  0.0399
  806MPD2    H311928   3.214   0.152  17.734 -0.6116 -0.7237  1.5031
  806MPD2     N11929   3.550   0.462   0.014 -0.4818  0.1809 -0.1731
  806MPD2    H511930   3.620   0.490   0.081 -0.4938 -0.9754  0.3258
  806MPD2    N111931   3.405   0.216   0.401 -0.0548  0.9259 -0.1355
  806MPD2    H711932   3.347   0.139   0.433  2.2237 -0.4368  0.7311
  807MPD2     C11933   3.092   4.572   0.954  0.5181  0.4656  0.3781
  807MPD2    C111934   3.231   4.564   0.978 -0.5692  0.5303 -0.7016
  807MPD2    C211935   3.282   4.455   1.048  0.5014  0.3057 -0.0197
  807MPD2    C311936   3.199   4.352   1.089 -0.2455 -0.1374  0.2146
  807MPD2    C411937   3.062   4.361   1.066 -0.2161 -0.8814  0.7743
  807MPD2    C511938   3.010   4.471   1.001  0.5813 -0.6951 -0.5799
  807MPD2     H11939   3.389   4.442   1.065 -0.0100 -2.6471  1.0229
  807MPD2    H111940   2.992   4.289   1.105 -2.3309  0.6517 -0.1988
  807MPD2    H211941   3.051   4.656   0.899 -0.7526  0.0696  0.7138
  807MPD2    H311942   2.903   4.478   0.984  0.9260 -2.8571 -3.8108
  807MPD2     N11943   3.251   4.234   1.153  0.4776 -0.0092  0.1044
  807MPD2    H511944   3.346   4.243   1.188  0.2202  4.0658 -0.2131
  807MPD2    N111945   3.324   4.656   0.918 -0.4051 -0.3882  0.0675
  807MPD2    H711946   3.423   4.638   0.935 -0.6442 -1.0358  0.8016
  808MPD2     C11947   0.322   0.931   9.446 -0.0281 -0.2171 -1.0522
  808MPD2    C111948   0.255   0.997   9.543 -0.3482  0.4957 -0.5943
  808MPD2    C211949   0.298   1.121   9.582  0.6081 -0.2320  0.0360
  808MPD2    C311950   0.405   1.181   9.517 -0.2065  0.8040  0.3228
  808MPD2    C411951   0.464   1.118   9.412 -0.0525 -0.6837  0.9869
  808MPD2    C511952   0.424   0.990   9.378  0.2138  0.2118 -0.1956
  808MPD2     H11953   0.254   1.167   9.670 -1.8219 -1.1396 -0.6828
  808MPD2    H111954   0.533   1.170   9.347  0.1674 -0.8169  1.1161
  808MPD2    H211955   0.283   0.840   9.402 -0.7303 -0.1198 -0.6335
  808MPD2    H311956   0.462   0.928   9.297  0.7338 -0.4245  0.5387
  808MPD2     N11957   0.449   1.315   9.542 -0.3342 -0.5516 -0.1582
  808MPD2    H511958   0.525   1.347   9.482  1.3002 -5.4004 -0.7176
  808MPD2    N111959   0.140   0.947   9.601  0.0732  0.7037 -0.4804
  808MPD2    H711960   0.098   1.008   9.671  2.5378  2.8423 -0.8842
  809MPD2     C11961   1.135   1.335   9.166  0.2003  0.8719 -0.5632
  809MPD2    C111962   1.164   1.336   9.297  0.0558  0.7263 -0.2990
  809MPD2    C211963   1.074   1.400   9.381 -1.1065  0.0896  0.5874
  809MPD2    C311964   0.951   1.442   9.327 -0.2417 -0.8270  0.0239
  809MPD2    C411965   0.914   1.430   9.194  0.2589 -0.4018  0.0897
  809MPD2    C511966   1.016   1.380   9.119  1.0336  0.3997 -0.6833
  809MPD2     H11967   1.092   1.399   9.488 -0.8057  2.4453  0.5541
  809MPD2    H111968   0.823   1.463   9.145  1.4461 -0.4091 -2.1212
  809MPD2    H211969   1.210   1.298   9.097  1.1715  0.7908  0.5252
  809MPD2    H311970   0.986   1.380   9.014 -1.2056 -0.4940 -0.0406
  809MPD2     N11971   0.849   1.493   9.413  0.3086  0.2321 -0.2332
  809MPD2    H511972   0.756   1.495   9.373  0.7713  2.1907 -1.2147
  809MPD2    N111973   1.284   1.303   9.356 -0.3188 -0.1907  0.0038
  809MPD2    H711974   1.290   1.316   9.456  1.0618  1.3788 -0.2861
  810MPD2     C11975   0.262   0.631   9.868 -0.2897  0.2492  0.0223
  810MPD2    C111976   0.242   0.662  10.002 -0.2423 -0.4731 -0.2329
  810MPD2    C211977   0.318   0.752  10.073  0.0692 -0.4782  0.5796
  810MPD2    C311978   0.419   0.820  10.001 -0.6104 -0.5173 -0.0024
  810MPD2    C411979   0.439   0.792   9.868 -0.6954 -0.2284 -0.3987
  810MPD2    C511980   0.358   0.705   9.804  0.1487 -0.6597 -0.2936
  810MPD2     H11981   0.312   0.767  10.180  0.0052  1.5862  0.2869
  810MPD2    H111982   0.509   0.846   9.807  0.5918 -1.8711 -0.3626
  810MPD2    H211983   0.214   0.558   9.805 -3.2737  1.4593  0.9309
  810MPD2    H311984   0.376   0.683   9.699  1.7705 -0.4144 -0.0791
  810MPD2     N11985   0.503   0.923  10.040 -0.0531  0.2850  0.2174
  810MPD2    H511986   0.565   0.958   9.968 -0.8373 -0.8623 -1.0036
  810MPD2    N111987   0.126   0.597  10.049  0.2689 -0.1598 -0.0019
  810MPD2    H711988   0.060   0.562   9.980  0.0159  3.0147 -1.3643
  811MPD2     C11989   3.991   0.754  10.106  0.1835 -0.5809  0.3787
  811MPD2    C111990   4.121   0.790  10.074 -0.7257  0.5017  0.0146
  811MPD2    C211991   4.139   0.900   9.999  0.4354 -1.4031  0.5249
  811MPD2    C311992   4.034   0.983   9.966 -0.0112 -0.0377  0.2391
  811MPD2    C411993   3.902   0.951  10.010 -0.1718 -0.9126  0.2061
  811MPD2    C511994   3.885   0.829  10.064  1.1944  0.6187  0.4645
  811MPD2     H11995   4.240   0.921   9.965 -1.1477  0.7363 -2.8996
  811MPD2    H111996   3.815   1.014   9.995  0.7888 -0.1449 -2.1349
  811MPD2    H211997   3.972   0.660  10.156  0.3672 -1.5507 -1.3617
  811MPD2    H311998   3.785   0.797  10.091  0.0648  2.9872 -0.9000
  811MPD2     N11999   4.061   1.105   9.897  0.1372 -0.3205 -0.1162
  811MPD2    H512000   4.158   1.133   9.883  0.7165 -1.8110  0.9635
  811MPD2    N112001   4.222   0.701  10.128 -0.6078  0.1054  0.0653
  811MPD2    H712002   4.194   0.620  10.183 -3.6401  0.1046 -1.5077
  812MPD2     C12003   2.782   0.647  12.125 -0.4518  0.9216 -0.2872
  812MPD2    C112004   2.897   0.720  12.124 -0.2181 -0.4768  0.0603
  812MPD2    C212005   3.005   0.674  12.197  0.6432 -0.4389  0.1566
  812MPD2    C312006   3.006   0.560  12.274  0.8391  0.1308  0.0098
  812MPD2    C412007   2.891   0.484  12.271 -0.0408 -0.2416  0.1612
  812MPD2    C512008   2.781   0.532  12.196  0.6751 -0.3250  0.0605
  812MPD2     H12009   3.102   0.719  12.181  0.8644 -0.7107  0.7685
  812MPD2    H112010   2.875   0.402  12.341  0.4756  0.2695  0.8836
  812MPD2    H212011   2.697   0.676  12.063 -1.5219 -0.9604  0.3167
  812MPD2    H312012   2.684   0.484  12.209 -0.1294  0.8758 -1.4412
  812MPD2     N12013   3.126   0.537  12.353  0.2832  0.5538  0.4454
  812MPD2    H512014   3.211   0.590  12.336  0.4002  0.8443  1.9222
  812MPD2    N112015   2.902   0.835  12.041 -0.2862 -0.1978 -0.4529
  812MPD2    H712016   2.811   0.856  12.001 -0.6211  1.5648  1.2404
  813MPD2     C12017   2.325   2.497  12.717  0.6999 -0.0392 -0.5194
  813MPD2    C112018   2.414   2.569  12.782 -0.3175  0.0130  0.2982
  813MPD2    C212019   2.365   2.661  12.874  0.2365  0.4888 -0.0258
  813MPD2    C312020   2.236   2.669  12.917  0.2315 -0.3604 -0.5121
  813MPD2    C412021   2.147   2.581  12.859 -0.0378 -0.2298 -0.4246
  813MPD2    C512022   2.193   2.504  12.759  0.0207  0.0112  0.8277
  813MPD2     H12023   2.436   2.733  12.912  1.4960 -1.2393  0.8494
  813MPD2    H112024   2.042   2.565  12.884  0.4452  0.4437  2.0791
  813MPD2    H212025   2.354   2.426  12.640  0.2875 -0.1947 -0.5274
  813MPD2    H312026   2.129   2.438  12.702  0.7326  0.1974 -0.2019
  813MPD2     N12027   2.213   2.766  13.018 -0.3467 -0.7969 -0.4597
  813MPD2    H512028   2.288   2.822  13.057 -1.4538  0.3584  0.0111
  813MPD2    N112029   2.553   2.556  12.765 -0.4501 -0.8888  0.5345
  813MPD2    H712030   2.617   2.622  12.808 -0.0507 -0.7621 -0.2517
  814MPD2     C12031   3.130   3.080  12.013  0.0174 -0.0801 -0.2949
  814MPD2    C112032   3.095   3.206  11.967 -0.4539 -0.6590  0.0326
  814MPD2    C212033   3.097   3.311  12.062 -0.7278  0.3943  0.4583
  814MPD2    C312034   3.125   3.288  12.193 -0.1496 -0.1541  0.9790
  814MPD2    C412035   3.148   3.157  12.235 -0.3320 -0.8900 -0.0207
  814MPD2    C512036   3.144   3.057  12.147  0.1470  0.0836  0.3297
  814MPD2     H12037   3.073   3.409  12.023 -1.9889 -0.5151 -1.0783
  814MPD2    H112038   3.187   3.134  12.334 -3.2827  0.8946  1.5835
  814MPD2    H212039   3.136   2.994  11.947  0.2891 -0.4502  0.2115
  814MPD2    H312040   3.152   2.953  12.179  1.1259  0.4272  1.1843
  814MPD2     N12041   3.126   3.385  12.295  0.0004  0.5436  0.1814
  814MPD2    H512042   3.142   3.357  12.391 -0.0827  0.3066  0.1267
  814MPD2    N112043   3.071   3.237  11.830 -1.1756  0.0022  0.3788
  814MPD2    H712044   3.071   3.337  11.811 -0.5446 -0.2778 -1.0450
  815MPD2     C12045   3.110   1.570  11.764 -0.3782  0.3085  0.2624
  815MPD2    C112046   3.152   1.686  11.705 -0.4169  0.5502 -0.4976
  815MPD2    C212047   3.050   1.756  11.640  0.2624 -0.3728 -0.9345
  815MPD2    C312048   2.919   1.727  11.639 -0.1577  0.4656  0.1780
  815MPD2    C412049   2.888   1.615  11.706  0.1974  0.8938  0.4848
  815MPD2    C512050   2.978   1.538  11.775  0.1091  0.4994  0.0474
  815MPD2     H12051   3.073   1.846  11.584  0.1943  0.6148  0.6188
  815MPD2    H112052   2.785   1.583  11.719  0.4753 -0.0447  0.3567
  815MPD2    H212053   3.182   1.498  11.800 -0.0951 -0.1404 -1.1983
  815MPD2    H312054   2.954   1.449  11.832  0.7373 -0.0668 -0.5694
  815MPD2     N12055   2.829   1.811  11.566  0.7444 -0.1429 -0.5505
  815MPD2    H512056   2.866   1.897  11.528 -0.5606  0.6627  0.0098
  815MPD2    N112057   3.287   1.724  11.693  0.7497 -0.0174  0.1773
  815MPD2    H712058   3.355   1.679  11.753 -0.2520 -0.4150  1.0259
  816MPD2     C12059   2.556   1.574  16.965  0.2036  0.6311  0.0774
  816MPD2    C112060   2.578   1.612  16.832  0.0661 -0.2672 -0.0909
  816MPD2    C212061   2.628   1.517  16.742 -1.1665  1.0824  0.1035
  816MPD2    C312062   2.647   1.384  16.777  1.3921  0.5305  0.0344
  816MPD2    C412063   2.605   1.342  16.903 -0.0014 -0.2061  0.0685
  816MPD2    C512064   2.561   1.441  16.989 -0.0049 -1.4665  0.2322
  816MPD2     H12065   2.656   1.543  16.641 -1.1964  1.4940  0.1995
  816MPD2    H112066   2.610   1.242  16.946  0.0666 -0.7939 -1.2908
  816MPD2    H212067   2.514   1.627  17.050 -0.2008 -0.1005  0.3320
  816MPD2    H312068   2.544   1.417  17.093  1.2803  0.4281  0.8821
  816MPD2     N12069   2.707   1.289  16.694  0.1210 -0.2461  0.4508
  816MPD2    H512070   2.720   1.202  16.745 -2.4173 -0.5777  0.5587
  816MPD2    N112071   2.577   1.752  16.799  0.2385 -0.0205 -0.4877
  816MPD2    H712072   2.570   1.818  16.876 -0.3197 -0.5579 -0.0826
  817MPD2     C12073   3.200   3.420   9.596  0.5197 -0.4282  0.7979
  817MPD2    C112074   3.134   3.307   9.557  0.3254 -0.3339  0.5247
  817MPD2    C212075   3.007   3.323   9.505  0.1375  0.1340  0.0939
  817MPD2    C312076   2.949   3.451   9.493 -0.1010  0.4390 -0.0393
  817MPD2    C412077   3.011   3.560   9.543 -0.8729  0.0469 -0.0568
  817MPD2    C512078   3.137   3.545   9.593 -0.2474 -0.1050 -0.7113
  817MPD2     H12079   2.960   3.232   9.469  1.6484 -1.7181  2.8548
  817MPD2    H112080   2.961   3.656   9.541 -0.8831  0.0079 -1.4353
  817MPD2    H212081   3.297   3.415   9.644  0.6924 -1.2537  0.3615
  817MPD2    H312082   3.184   3.638   9.624 -0.4922  0.1322 -1.0544
  817MPD2     N12083   2.818   3.455   9.439 -0.3162 -0.2014  0.0707
  817MPD2    H512084   2.786   3.376   9.384  0.5231  0.0342 -0.7499
  817MPD2    N112085   3.170   3.168   9.573  0.3014  0.3268 -0.3381
  817MPD2    H712086   3.104   3.099   9.539  1.9707 -0.3945 -2.0750
  818MPD2     C12087   1.937   3.386  10.084  0.3316 -0.3921 -0.5037
  818MPD2    C112088   1.880   3.285  10.014  0.1695  0.0588  0.0585
  818MPD2    C212089   1.947   3.173   9.981  0.3659  0.1276 -0.3246
  818MPD2    C312090   2.082   3.157  10.013  0.4643  0.0238  0.4510
  818MPD2    C412091   2.141   3.254  10.091 -0.6378  0.7643  0.0048
  818MPD2    C512092   2.062   3.361  10.134  0.8397 -0.2481 -0.4635
  818MPD2     H12093   1.889   3.093   9.937 -0.4484  0.1267  0.7519
  818MPD2    H112094   2.241   3.245  10.131  0.8673 -2.8770 -4.5778
  818MPD2    H212095   1.889   3.481  10.102  3.6949  1.4685 -1.3107
  818MPD2    H312096   2.100   3.434  10.204 -1.6506 -0.1022  0.7362
  818MPD2     N12097   2.164   3.043   9.977 -0.0439  0.0600  0.3339
  818MPD2    H512098   2.260   3.031  10.010  0.3489  0.4821 -0.6530
  818MPD2    N112099   1.738   3.293   9.984 -0.0658 -0.5316 -0.5040
  818MPD2    H712100   1.699   3.215   9.931  2.8681 -2.0861 -0.4052
  819MPD2     C12101   4.147   4.649  15.975 -0.2413  0.0825 -0.7051
  819MPD2    C112102   4.177   4.602  15.844 -0.3258 -0.5254  0.2221
  819MPD2    C212103   4.310   4.587  15.812  0.1737  0.4130  0.6366
  819MPD2    C312104   4.401   4.569  15.912  0.0480 -0.1091  0.1423
  819MPD2    C412105   4.377   4.601  16.044  1.0135 -0.1280  0.2828
  819MPD2    C512106   4.253   4.648  16.069 -0.4385  0.6693  0.1824
  819MPD2     H12107   4.334   4.560  15.709  0.1328 -0.2179  0.7919
  819MPD2    H112108   4.442   4.582  16.129 -0.2679 -0.8986  1.0867
  819MPD2    H212109   4.044   4.659  16.005  0.0063 -1.6803  0.7206
  819MPD2    H312110   4.227   4.678  16.170  1.1324 -3.0263  1.6875
  819MPD2     N12111   4.520   4.507  15.884 -0.4105  0.1562  0.2476
  819MPD2    H512112   4.552   4.500  15.788 -3.3650  2.4062 -0.9308
  819MPD2    N112113   4.073   4.574  15.751  0.0269  0.5173 -0.1646
  819MPD2    H712114   4.099   4.555  15.654 -0.7776  2.7698 -0.8312
  820MPD2     C12115   3.775   4.601  14.850  0.4258  0.1114 -0.8044
  820MPD2    C112116   3.863   4.670  14.932  0.1232  0.2027 -0.4740
  820MPD2    C212117   3.879   4.619  15.064 -0.2732 -0.5079 -0.3823
  820MPD2    C312118   3.825   4.499  15.103 -0.2351  0.3231  0.2618
  820MPD2    C412119   3.738   4.437  15.011  0.0233  1.0623  0.1468
  820MPD2    C512120   3.713   4.490  14.886  0.1596  0.0406 -0.8465
  820MPD2     H12121   3.944   4.669  15.135 -1.1410  0.9308 -0.5963
  820MPD2    H112122   3.683   4.347  15.035 -0.9648  1.8659  0.8817
  820MPD2    H212123   3.758   4.645  14.752  2.4288 -1.4985 -1.8720
  820MPD2    H312124   3.652   4.444  14.809 -1.5231  1.0436 -0.1339
  820MPD2     N12125   3.847   4.436  15.228  0.0623  0.1681 -0.0526
  820MPD2    H512126   3.787   4.360  15.260 -0.9496  0.5797 -0.9608
  820MPD2    N112127   3.902   0.066  14.892 -0.4170 -0.3253 -0.1383
  820MPD2    H712128   3.887   0.099  14.797  3.1869 -0.2778 -0.7164
  821MPD2     C12129   0.222   0.889  13.323 -0.3141  0.6111  0.0779
  821MPD2    C112130   0.320   0.896  13.424 -0.3357  0.2230 -1.0176
  821MPD2    C212131   0.452   0.929  13.402  0.6039 -1.0974 -0.1611
  821MPD2    C312132   0.490   0.948  13.271 -0.1732 -0.4766 -0.2791
  821MPD2    C412133   0.398   0.953  13.170  0.1429  0.5608  0.2234
  821MPD2    C512134   0.267   0.915  13.198  0.2531  0.1425  0.0254
  821MPD2     H12135   0.519   0.912  13.485 -0.2683 -1.5456  0.4552
  821MPD2    H112136   0.428   0.979  13.069 -2.3161  0.7354 -0.4516
  821MPD2    H212137   0.117   0.876  13.344 -0.9858  3.4948 -1.5179
  821MPD2    H312138   0.193   0.901  13.120 -1.4009  0.3161  1.5630
  821MPD2     N12139   0.624   0.976  13.244  0.0779  0.7509 -0.0412
  821MPD2    H512140   0.650   0.959  13.147  3.5027 -0.0886  1.0311
  821MPD2    N112141   0.290   0.890  13.566 -0.1782 -0.4804 -0.1142
  821MPD2    H712142   0.364   0.896  13.636 -0.3006 -1.4095  0.0951
  822MPD2     C12143   0.617   1.337  15.917 -0.3930  0.5099  0.1058
  822MPD2    C112144   0.548   1.265  16.005  0.0361 -0.4643  0.5567
  822MPD2    C212145   0.468   1.334  16.089  0.4564  0.6343  0.2051
  822MPD2    C312146   0.466   1.475  16.094  0.3153  0.3897  0.9595
  822MPD2    C412147   0.550   1.545  16.014 -0.0914  0.6936 -0.5113
  822MPD2    C512148   0.620   1.473  15.922 -0.1011  0.2647  0.2682
  822MPD2     H12149   0.408   1.286  16.165  0.9778 -0.0435  0.1841
  822MPD2    H112150   0.568   1.651  16.015  1.2492  0.4549  0.6089
  822MPD2    H212151   0.652   1.290  15.826 -0.1291  1.0668 -0.0822
  822MPD2    H312152   0.682   1.532  15.856  0.2130 -0.6895 -0.2798
  822MPD2     N12153   0.388   1.531  16.201 -0.1255  0.2705  0.5704
  822MPD2    H512154   0.333   1.459  16.248 -1.4623  0.0138 -1.3777
  822MPD2    N112155   0.540   1.123  16.003  0.4329  0.6162  0.1497
  822MPD2    H712156   0.471   1.075  16.060  0.3227 -0.6092 -1.0331
  823MPD2     C12157   4.675   1.513  16.916 -0.2816 -0.4261 -0.3499
  823MPD2    C112158   4.715   1.460  16.797 -0.1656 -0.5069  0.0195
  823MPD2    C212159   4.669   1.332  16.771  0.1321  0.1680 -0.2584
  823MPD2    C312160   4.581   1.264  16.859 -0.5834 -0.5780  0.1718
  823MPD2    C412161   4.539   1.322  16.975  0.0948 -0.2653  0.1832
  823MPD2    C512162   4.592   1.445  17.003 -0.3795 -0.4018 -0.4018
  823MPD2     H12163   4.694   1.289  16.674 -1.3466  0.1205 -0.6219
  823MPD2    H112164   4.476   1.280  17.053 -1.2166 -2.1591 -1.8808
  823MPD2    H212165   4.717   1.606  16.950  0.0852 -1.2315  1.3855
  823MPD2    H312166   4.589   1.486  17.103 -0.8655 -1.7707  0.1518
  823MPD2     N12167   4.547   1.130  16.834 -0.5153 -0.2039  0.3575
  823MPD2    H512168   4.478   1.087  16.895 -0.4949 -0.0616  0.4823
  823MPD2    N112169   0.060   1.539  16.710  0.3734  0.4894 -0.2824
  823MPD2    H712170   0.076   1.628  16.757 -1.1932  0.2333  0.7387
  824MPD2     C12171   1.105   0.496  16.130 -0.4315 -0.2051  0.0024
  824MPD2    C112172   1.050   0.535  16.009 -0.1174 -0.5617 -0.3196
  824MPD2    C212173   1.121   0.502  15.895 -0.1708  0.7243 -0.2018
  824MPD2    C312174   1.242   0.437  15.891  0.0712 -0.7510  0.1028
  824MPD2    C412175   1.288   0.390  16.014 -0.0496  0.1435  0.0234
  824MPD2    C512176   1.221   0.425  16.128 -0.5547 -0.9101  0.1872
  824MPD2     H12177   1.066   0.522  15.804 -0.4139 -0.3467 -0.2908
  824MPD2    H112178   1.370   0.321  16.029 -1.7570 -1.7146  0.9114
  824MPD2    H212179   1.069   0.522  16.229  1.4079  0.1078  0.6053
  824MPD2    H312180   1.264   0.386  16.220 -1.0900 -0.8369  0.4689
  824MPD2     N12181   1.316   0.398  15.779 -0.3446  0.1984 -0.1947
  824MPD2    H512182   1.403   0.348  15.795  0.3779  0.6636 -2.7125
  824MPD2    N112183   0.929   0.610  16.003  0.1112  0.0548 -0.3172
  824MPD2    H712184   0.894   0.628  15.909 -0.2771  1.5340  0.1032
  825MPD2     C12185   1.846   0.751  15.110  0.5479  0.1736 -0.1483
  825MPD2    C112186   1.751   0.767  15.210 -0.5991 -0.1610  0.2596
  825MPD2    C212187   1.736   0.894  15.254  0.3830  0.5987  0.3107
  825MPD2    C312188   1.806   1.002  15.204  0.1203  0.3077 -0.2851
  825MPD2    C412189   1.900   0.988  15.105  1.0414  0.2601 -0.5429
  825MPD2    C512190   1.921   0.859  15.060  0.1565  0.2135  0.7078
  825MPD2     H12191   1.650   0.917  15.316  0.0960  0.2397  0.0387
  825MPD2    H112192   1.970   1.064  15.072  2.3659 -1.0835 -0.7915
  825MPD2    H212193   1.870   0.649  15.080  4.6527  1.3876 -1.0249
  825MPD2    H312194   2.006   0.839  14.997  0.8664  0.3237  1.6249
  825MPD2     N12195   1.782   1.136  15.249  0.8192  0.5157  0.3105
  825MPD2    H512196   1.831   1.204  15.192  0.3488  0.1744 -0.5089
  825MPD2    N112197   1.672   0.656  15.255 -0.4804 -0.2021  0.7061
  825MPD2    H712198   1.704   0.561  15.236 -1.4107 -0.3314 -0.1930
  826MPD2     C12199   1.763   0.740  13.878  0.0393  0.2775 -0.0190
  826MPD2    C112200   1.798   0.617  13.818  0.2053 -0.4127 -0.2322
  826MPD2    C212201   1.699   0.542  13.772 -0.2426  0.6721  0.1726
  826MPD2    C312202   1.562   0.567  13.786  1.2281  0.2008  0.9354
  826MPD2    C412203   1.527   0.691  13.840 -0.4621  0.5326  0.3586
  826MPD2    C512204   1.628   0.776  13.883  0.2247  0.4364 -1.0546
  826MPD2     H12205   1.720   0.441  13.738  2.6726  1.5585 -0.6433
  826MPD2    H112206   1.425   0.727  13.844  0.0865  2.0924  0.5708
  826MPD2    H212207   1.837   0.815  13.903  0.0495  0.6354 -1.0912
  826MPD2    H312208   1.597   0.869  13.928  0.0680 -0.4341  0.6151
  826MPD2     N12209   1.454   0.486  13.735 -0.3320 -0.2400 -0.4718
  826MPD2    H512210   1.360   0.518  13.758  0.1599  0.4407  0.6039
  826MPD2    N112211   1.935   0.589  13.799 -0.1568 -0.1649 -0.5413
  826MPD2    H712212   1.993   0.658  13.845 -0.9972  0.4185 -0.3493
  827MPD2     C12213   2.496   2.346   9.805 -0.8435 -0.4649 -0.0223
  827MPD2    C112214   2.458   2.288   9.922  0.0670  0.1086 -0.3010
  827MPD2    C212215   2.365   2.186   9.914 -0.8823  0.5752 -0.0215
  827MPD2    C312216   2.316   2.136   9.795  0.4544 -0.5266 -0.5894
  827MPD2    C412217   2.345   2.208   9.679 -0.0217 -0.1436  0.7912
  827MPD2    C512218   2.440   2.304   9.685 -0.2384 -1.0174 -0.2547
  827MPD2     H12219   2.354   2.131  10.007  3.6023  0.2878  0.3223
  827MPD2    H112220   2.311   2.188   9.578 -0.4450 -0.2461  0.9550
  827MPD2    H212221   2.586   2.407   9.814 -1.2677  0.2790 -0.8664
  827MPD2    H312222   2.476   2.334   9.587 -0.4894 -0.8801 -0.3050
  827MPD2     N12223   2.225   2.035   9.807  0.3032  0.3713 -0.0504
  827MPD2    H512224   2.184   2.011   9.897 -0.1539 -4.2092 -1.4720
  827MPD2    N112225   2.523   2.328  10.050 -0.1311 -0.4716  0.5311
  827MPD2    H712226   2.620   2.356  10.048  0.4033 -2.0352  3.9931
  828MPD2     C12227   1.164   1.302  12.393 -0.2242  0.9238  0.6735
  828MPD2    C112228   1.097   1.420  12.357 -0.5807 -0.5582  0.1964
  828MPD2    C212229   1.142   1.491  12.245  0.5568  0.4563  0.0988
  828MPD2    C312230   1.249   1.446  12.177  0.1669  0.0466 -0.6630
  828MPD2    C412231   1.319   1.335  12.220  0.2406 -0.1724 -0.2686
  828MPD2    C512232   1.278   1.263  12.326  0.3010  0.5501  0.2143
  828MPD2     H12233   1.085   1.576  12.209  1.3411 -0.0126 -2.2498
  828MPD2    H112234   1.408   1.302  12.166  0.8494 -0.1240  0.7014
  828MPD2    H212235   1.152   1.250  12.487 -0.1734  0.2759  0.3215
  828MPD2    H312236   1.345   1.186  12.363 -0.5924  0.5190  1.7694
  828MPD2     N12237   1.294   1.507  12.061 -0.2392  0.5168 -0.0387
  828MPD2    H512238   1.365   1.453  12.013  2.0031  0.7420  3.0507
  828MPD2    N112239   0.984   1.469  12.421 -0.3519 -0.1305 -0.1389
  828MPD2    H712240   0.954   1.565  12.408  2.0706  0.6234 -0.1595
  829MPD2     C12241   0.501   1.940  12.011 -0.2071  0.0164  0.1440
  829MPD2    C112242   0.403   1.869  12.076 -0.4824  0.2295 -0.0191
  829MPD2    C212243   0.436   1.803  12.192 -0.6044  0.3671 -0.2170
  829MPD2    C312244   0.569   1.808  12.239 -0.8068  0.1413  0.1043
  829MPD2    C412245   0.666   1.876  12.167  0.5373  0.6811  0.3818
  829MPD2    C512246   0.626   1.945  12.054  0.0948  0.4005 -0.4762
  829MPD2     H12247   0.361   1.759  12.257 -0.6087  0.8246  0.0969
  829MPD2    H112248   0.769   1.891  12.196  0.6765 -0.2552  0.3707
  829MPD2    H212249   0.479   1.987  11.916 -1.5007 -0.5115  0.1847
  829MPD2    H312250   0.691   2.008  11.995 -0.0505  0.9744 -0.0210
  829MPD2     N12251   0.617   1.742  12.351 -0.2918  0.2021 -0.1869
  829MPD2    H512252   0.715   1.750  12.377 -0.3021 -1.7421  0.4587
  829MPD2    N112253   0.271   1.864  12.029  0.4378 -0.2668 -0.0714
  829MPD2    H712254   0.202   1.822  12.091 -0.2002  0.9954  0.0693
  830MPD2     C12255   0.611   0.038  15.867 -0.2556 -0.1453  0.2853
  830MPD2    C112256   0.491   0.041  15.811  0.4824  0.0234  0.1594
  830MPD2    C212257   0.448   0.146  15.735 -0.1133  0.7117 -0.2417
  830MPD2    C312258   0.533   0.251  15.714  0.1640  0.2238 -0.3566
  830MPD2    C412259   0.658   0.249  15.775  0.5369  0.7355 -0.6156
  830MPD2    C512260   0.700   0.138  15.844  0.1694  0.5661 -0.5184
  830MPD2     H12261   0.346   0.153  15.702 -0.9070  2.4985  2.6132
  830MPD2    H112262   0.728   0.332  15.773  0.1870  1.0053 -1.6468
  830MPD2    H212263   0.644   4.688  15.928  0.0101  0.5253  1.0765
  830MPD2    H312264   0.794   0.131  15.898  0.7926  0.6823 -1.5903
  830MPD2     N12265   0.500   0.356  15.628 -0.7690 -0.3752  0.1764
  830MPD2    H512266   0.555   0.441  15.634 -0.1314 -0.6680 -1.4766
  830MPD2    N112267   0.408   4.667  15.843  0.2374 -0.2251 -0.3850
  830MPD2    H712268   0.444   4.616  15.922  0.4829 -0.7532 -0.8374
  831MPD2     C12269   0.568   1.380  16.579 -0.2912 -0.1855 -0.3654
  831MPD2    C112270   0.599   1.298  16.476  0.6583  0.9096 -0.5235
  831MPD2    C212271   0.495   1.216  16.433 -0.0790 -0.1795  0.2364
  831MPD2    C312272   0.372   1.200  16.497  0.0944  0.0156 -0.3498
  831MPD2    C412273   0.355   1.270  16.615 -0.6034  0.0773  0.4571
  831MPD2    C512274   0.450   1.361  16.654 -0.7437  0.1876  0.0033
  831MPD2     H12275   0.513   1.155  16.345 -0.8042  0.0650 -0.0793
  831MPD2    H112276   0.263   1.256  16.670 -0.9316 -0.2102 -0.1580
  831MPD2    H212277   0.636   1.453  16.622 -0.2804 -1.9178  2.5214
  831MPD2    H312278   0.434   1.433  16.733 -2.3654 -1.7002  1.3964
  831MPD2     N12279   0.255   1.127  16.437 -0.4518 -0.4654  0.3729
  831MPD2    H512280   0.171   1.127  16.493 -0.5090  2.6133  0.3203
  831MPD2    N112281   0.715   1.308  16.405 -0.1506  0.6704 -0.0284
  831MPD2    H712282   0.762   1.397  16.419 -1.4579  1.7816 -2.6141
  832MPD2     C12283   3.663   2.602  17.132 -0.2777  0.0389  0.0596
  832MPD2    C112284   3.670   2.724  17.073 -0.4112 -0.1458  0.5246
  832MPD2    C212285   3.661   2.740  16.937  0.7097  0.2374  0.6843
  832MPD2    C312286   3.626   2.638  16.860 -0.8294 -0.7604 -0.6736
  832MPD2    C412287   3.598   2.514  16.917  0.1593  0.2330 -0.5535
  832MPD2    C512288   3.633   2.496  17.050 -0.2876  0.3455  0.3241
  832MPD2     H12289   3.656   2.843  16.901 -1.7306  0.2459  1.0433
  832MPD2    H112290   3.561   2.437  16.850 -0.1650 -1.0127  1.0594
  832MPD2    H212291   3.689   2.577  17.234 -3.2405 -1.4595  0.4176
  832MPD2    H312292   3.626   2.396  17.090 -2.1136 -0.3417 -1.6593
  832MPD2     N12293   3.582   2.658  16.716  0.2473 -0.2509 -0.1221
  832MPD2    H512294   3.535   2.577  16.676 -1.2432  0.3261  0.4540
  832MPD2    N112295   3.688   2.831  17.167  0.1790 -0.4647 -0.4899
  832MPD2    H712296   3.674   2.806  17.264 -0.2983 -0.8961 -0.6679
  833MPD2     C12297   1.285   3.545  12.422  0.0702  0.4495 -0.8099
  833MPD2    C112298   1.339   3.671  12.423  0.6349  0.1588 -0.1001
  833MPD2    C212299   1.462   3.687  12.367 -0.0565 -0.4762  0.4281
  833MPD2    C312300   1.537   3.585  12.319  0.7518  0.3610 -0.5984
  833MPD2    C412301   1.483   3.455  12.313  0.8566  0.5694  0.2050
  833MPD2    C512302   1.353   3.442  12.356  0.6283  0.1035 -0.2652
  833MPD2     H12303   1.514   3.781  12.379  0.3078 -0.3654 -1.9633
  833MPD2    H112304   1.534   3.369  12.271  0.0835 -0.2061  0.8576
  833MPD2    H212305   1.193   3.522  12.474  0.4232  0.0596 -0.3545
  833MPD2    H312306   1.302   3.347  12.353  0.0120  0.2718  4.9105
  833MPD2     N12307   1.669   3.615  12.292 -0.4761  0.1853  0.7814
  833MPD2    H512308   1.711   3.707  12.303 -1.7629  0.9020 -0.3703
  833MPD2    N112309   1.266   3.774  12.484 -0.6657 -0.2091  0.5287
  833MPD2    H712310   1.176   3.752  12.525 -1.7182  0.7889 -1.2748
  834MPD2     C12311   1.657   3.685  11.403 -0.0147 -0.5904 -0.3092
  834MPD2    C112312   1.735   3.577  11.439  0.0804 -0.0028 -0.3418
  834MPD2    C212313   1.761   3.565  11.574  0.0998 -0.2167 -0.2622
  834MPD2    C312314   1.734   3.673  11.658 -0.1266 -0.2082 -0.4642
  834MPD2    C412315   1.652   3.776  11.615  0.1386  0.5913  0.0131
  834MPD2    C512316   1.616   3.779  11.488  0.1589  1.0840 -0.7856
  834MPD2     H12317   1.815   3.478  11.610  0.7998  0.3838  0.1535
  834MPD2    H112318   1.616   3.852  11.683 -1.5957  0.3579 -0.6340
  834MPD2    H212319   1.636   3.693  11.297 -1.2027  0.1753 -0.0170
  834MPD2    H312320   1.558   3.859  11.445 -2.3924 -0.4789 -0.2922
  834MPD2     N12321   1.791   3.673  11.792 -0.0417 -0.2248 -0.7564
  834MPD2    H512322   1.840   3.588  11.818 -1.1144  0.2776  2.9010
  834MPD2    N112323   1.773   3.483  11.342 -0.0525 -0.2278  0.1330
  834MPD2    H712324   1.745   3.511  11.248  0.6057  0.4713  0.1509
  835MPD2     C12325   1.642   1.556  11.163  0.3109  0.4008 -0.1761
  835MPD2    C112326   1.649   1.687  11.215 -0.0310 -0.0562 -0.2679
  835MPD2    C212327   1.748   1.719  11.300 -0.2593  0.6666 -1.1541
  835MPD2    C312328   1.842   1.630  11.337 -0.5573  0.2212 -0.1714
  835MPD2    C412329   1.837   1.501  11.286 -0.4423 -0.8166  0.0519
  835MPD2    C512330   1.730   1.465  11.204 -0.2054 -0.0950 -0.4056
  835MPD2     H12331   1.759   1.823  11.326 -0.2830  0.6599 -1.1171
  835MPD2    H112332   1.898   1.418  11.321 -0.4999 -0.2450  1.5222
  835MPD2    H212333   1.563   1.512  11.103 -0.0433 -0.4384  0.9026
  835MPD2    H312334   1.739   1.366  11.161  0.1726 -0.3197  0.1937
  835MPD2     N12335   1.933   1.661  11.441 -0.2012  0.3779 -0.7991
  835MPD2    H512336   1.970   1.576  11.482 -0.6197  1.2489  1.3546
  835MPD2    N112337   1.543   1.781  11.186 -0.5169  0.2876 -0.5422
  835MPD2    H712338   1.551   1.879  11.213 -0.1743 -0.3362  1.6535
  836MPD2     C12339   1.520   2.096  11.881 -0.6587 -0.2100 -0.2530
  836MPD2    C112340   1.552   1.967  11.927 -0.0943 -0.0201  0.0683
  836MPD2    C212341   1.487   1.915  12.036 -0.4032 -0.2240 -0.1216
  836MPD2    C312342   1.400   1.992  12.110  0.6617  0.7182 -0.4858
  836MPD2    C412343   1.377   2.130  12.072 -0.0432  1.0579  0.0844
  836MPD2    C512344   1.441   2.181  11.959 -0.4448  0.0430 -0.4166
  836MPD2     H12345   1.504   1.812  12.066  0.3122 -0.8361 -2.6171
  836MPD2    H112346   1.297   2.190  12.115  0.0773  0.7448  0.7456
  836MPD2    H212347   1.560   2.142  11.792  1.4929 -4.1850 -1.3260
  836MPD2    H312348   1.420   2.281  11.923 -1.8008 -0.6188 -1.4275
  836MPD2     N12349   1.341   1.947  12.234  0.6949  0.3459 -0.1568
  836MPD2    H512350   1.267   2.005  12.271 -0.1250 -0.8131 -0.0059
  836MPD2    N112351   1.660   1.903  11.862 -0.2282 -0.7304 -0.0452
  836MPD2    H712352   1.692   1.946  11.775 -1.1453  0.1795  0.0545
  837MPD2     C12353   4.615   1.659   9.917  0.2406 -0.1103 -0.3934
  837MPD2    C112354   4.490   1.695   9.945 -0.1127  0.9294  0.1434
  837MPD2    C212355   4.476   1.825   9.991 -0.1394  0.1054  0.3632
  837MPD2    C312356   4.576   1.919  10.010 -0.4568 -0.0044  0.2418
  837MPD2    C412357   4.700   1.868   9.984  0.2110  0.4057 -0.9042
  837MPD2    C512358   4.724   1.741   9.931 -0.3985 -0.4700  0.1731
  837MPD2     H12359   4.374   1.858  10.009  0.2716  1.3547  0.4344
  837MPD2    H112360   0.045   1.941   9.990 -0.2740  0.8284  0.3886
  837MPD2    H212361   4.633   1.556   9.887 -2.1311 -0.0626 -2.0561
  837MPD2    H312362   0.093   1.712   9.915  0.3600  0.9053  2.5335
  837MPD2     N12363   4.538   2.046  10.046  0.2425  0.6311  0.7120
  837MPD2    H512364   4.439   2.058  10.066  0.0991 -0.3648  0.5751
  837MPD2    N112365   4.381   1.619   9.917  0.4449 -0.6370 -0.6439
  837MPD2    H712366   4.292   1.660   9.945  0.5998 -0.8788  0.1972
  838MPD2     C12367   2.966   0.021  11.739  0.7884  0.5279  0.0285
  838MPD2    C112368   2.970   0.060  11.867  0.0499 -0.0759  0.0934
  838MPD2    C212369   2.922   4.703  11.959 -1.0940 -0.8424 -0.3331
  838MPD2    C312370   2.895   4.577  11.928  0.2797 -0.3719  0.1432
  838MPD2    C412371   2.898   4.533  11.798  0.1734  0.3353  0.2129
  838MPD2    C512372   2.931   4.629  11.703 -0.6693 -0.0568 -0.2899
  838MPD2     H12373   2.912   0.010  12.059  1.3059  2.6373 -1.5227
  838MPD2    H112374   2.858   4.436  11.769 -0.8197  0.3053  1.6980
  838MPD2    H212375   3.005   0.092  11.668  0.5381 -0.9914 -1.6255
  838MPD2    H312376   2.926   4.607  11.597  1.7562 -0.3243 -0.3471
  838MPD2     N12377   2.879   4.488  12.036  0.8428  0.4990 -0.0459
  838MPD2    H512378   2.852   4.538  12.120  0.6554 -2.4841  1.6288
  838MPD2    N112379   3.020   0.187  11.907 -0.2732  0.1802 -0.1718
  838MPD2    H712380   3.036   0.197  12.006 -1.5148 -1.9266  0.2541
  839MPD2     C12381   3.272   4.523  12.207 -0.7865  0.3980 -0.3294
  839MPD2    C112382   3.293   4.562  12.075 -0.5919 -0.0870 -0.6526
  839MPD2    C212383   3.313   4.697  12.053 -0.5521 -0.0344 -0.3554
  839MPD2    C312384   3.338   0.054  12.149 -0.4475 -0.3389 -0.5329
  839MPD2    C412385   3.331   0.009  12.280  0.0857 -0.2284  0.2947
  839MPD2    C512386   3.299   4.614  12.305  0.0650  0.0106 -0.4281
  839MPD2     H12387   3.318   0.005  11.954 -3.1596  0.6699 -0.1801
  839MPD2    H112388   3.370   0.070  12.361  0.3542  0.4491 -0.3442
  839MPD2    H212389   3.255   4.421  12.240  2.4841  0.4297  1.3462
  839MPD2    H312390   3.297   4.576  12.406  2.3842  1.8681  0.3100
  839MPD2     N12391   3.355   0.189  12.127  0.0336  0.0212 -0.1632
  839MPD2    H512392   3.345   0.258  12.201  0.5609  0.2732 -0.3248
  839MPD2    N112393   3.260   4.488  11.958 -0.7567 -0.0282  0.6927
  839MPD2    H712394   3.272   4.524  11.864  3.9502 -0.2008  1.2455
  840MPD2     C12395   3.108   2.486  10.011 -0.0363  0.4251 -0.4944
  840MPD2    C112396   3.095   2.454  10.147  0.8917  0.0176 -0.6497
  840MPD2    C212397   3.199   2.484  10.232 -0.3879 -0.5292  0.4417
  840MPD2    C312398   3.310   2.554  10.185  0.2365 -0.2569 -0.1514
  840MPD2    C412399   3.320   2.586  10.049 -0.2929  0.2858 -1.0523
  840MPD2    C512400   3.215   2.553   9.967  0.2999  0.6681 -0.3250
  840MPD2     H12401   3.181   2.448  10.333 -0.8032  0.0119  0.5612
  840MPD2    H112402   3.413   2.615  10.002  0.3390 -1.1506 -0.7073
  840MPD2    H212403   3.035   2.452   9.937 -0.5806  2.2973 -0.8144
  840MPD2    H312404   3.224   2.575   9.861  2.0645  0.5333 -0.2059
  840MPD2     N12405   3.413   2.604  10.271  0.3187 -0.2079 -0.1013
  840MPD2    H512406   3.500   2.635  10.230 -0.8184  0.6630 -1.8287
  840MPD2    N112407   2.973   2.395  10.186  0.1219 -0.1604  0.3495
  840MPD2    H712408   2.903   2.391  10.114 -0.9150 -2.4042  1.4810
  841MPD2     C12409   1.970   2.182  14.625  0.0203 -0.1721 -0.4424
  841MPD2    C112410   2.061   2.211  14.524 -0.5667  0.6659  1.0394
  841MPD2    C212411   2.199   2.210  14.548  0.0571  0.2331  0.4546
  841MPD2    C312412   2.239   2.167  14.671 -0.1727  0.0919  0.0857
  841MPD2    C412413   2.153   2.129  14.770  0.0318 -0.1297  0.8351
  841MPD2    C512414   2.014   2.148  14.749 -0.3967 -0.3189 -0.7651
  841MPD2     H12415   2.274   2.219  14.470 -2.6335 -0.2261 -2.1658
  841MPD2    H112416   2.185   2.098  14.868  1.3440  2.1612  1.1237
  841MPD2    H212417   1.863   2.188  14.611  0.2822  1.7408 -1.6153
  841MPD2    H312418   1.944   2.122  14.827 -0.5443  0.6835 -0.5620
  841MPD2     N12419   2.375   2.166  14.710  0.3388 -0.7008 -0.6236
  841MPD2    H512420   2.380   2.150  14.810 -2.6034 -0.4752 -0.4413
  841MPD2    N112421   2.030   2.232  14.390  0.4197  0.1640 -0.1066
  841MPD2    H712422   2.111   2.236  14.328  0.7973 -0.5689  0.3321
  842MPD2     C12423   2.992   2.431  16.694  0.7833 -0.2635  0.8170
  842MPD2    C112424   2.857   2.448  16.713  0.8850 -0.4480  0.3205
  842MPD2    C212425   2.810   2.457  16.851 -0.5376 -0.3437  0.4349
  842MPD2    C312426   2.900   2.447  16.956 -0.1161 -0.0829 -0.3846
  842MPD2    C412427   3.035   2.427  16.924  0.0385 -0.0889  0.5385
  842MPD2    C512428   3.076   2.432  16.800  0.3336  1.0130 -0.0205
  842MPD2     H12429   2.705   2.475  16.870 -0.5853  0.7733 -0.8967
  842MPD2    H112430   3.105   2.421  17.006 -0.3727 -1.1448  0.8203
  842MPD2    H212431   3.039   2.433  16.597 -1.3515  3.1114 -0.1415
  842MPD2    H312432   3.181   2.415  16.778  0.1730  0.6727 -0.5212
  842MPD2     N12433   2.871   2.444  17.092  0.3136  0.6721 -0.6864
  842MPD2    H512434   2.936   2.419  17.166 -1.8422 -2.7793  0.0352
  842MPD2    N112435   2.766   2.461  16.605 -0.2257 -0.0710 -0.0703
  842MPD2    H712436   2.801   2.499  16.517  0.1485 -2.0977 -0.7935
  843MPD2     C12437   4.493   3.840  17.507 -0.4348  0.1503 -0.2127
  843MPD2    C112438   4.511   3.791  17.632  0.5818 -0.0376 -0.4647
  843MPD2    C212439   4.581   3.870  17.721 -0.5064 -0.0238 -0.7171
  843MPD2    C312440   4.650   3.986  17.687 -0.4838 -0.0717 -0.0108
  843MPD2    C412441   4.638   4.030  17.553 -0.3202  0.0668 -0.2578
  843MPD2    C512442   4.557   3.954  17.472  0.0620  0.3547 -0.3354
  843MPD2     H12443   4.583   3.842   0.089 -0.3508 -2.7179 -1.4324
  843MPD2    H112444   4.694   4.117  17.519 -0.8362  1.6573  2.9495
  843MPD2    H212445   4.447   3.775  17.433 -1.8234  0.0394  0.7494
  843MPD2    H312446   4.565   3.971  17.365 -1.4662  2.0107 -0.1957
  843MPD2     N12447   0.006   4.059   0.028 -0.1433  0.2943 -0.1873
  843MPD2    H512448   0.052   4.137  17.719 -0.3334  1.1799  1.1467
  843MPD2    N112449   4.477   3.658  17.654 -0.4856  0.3935 -0.5098
  843MPD2    H712450   4.461   3.601  17.572 -0.0482 -0.4529 -0.0062
  844MPD2     C12451   3.724   2.052  16.619  0.1486 -0.6983  0.1168
  844MPD2    C112452   3.697   2.165  16.536 -0.0219 -0.4294 -0.3183
  844MPD2    C212453   3.751   2.290  16.562 -0.3271  0.3507 -0.1610
  844MPD2    C312454   3.837   2.301  16.670  0.6109 -0.2462 -0.1899
  844MPD2    C412455   3.867   2.190  16.740  0.9456 -0.6337 -0.5953
  844MPD2    C512456   3.814   2.069  16.723  1.0693  0.1592 -0.2050
  844MPD2     H12457   3.723   2.380  16.509  0.3931 -0.3108 -1.6923
  844MPD2    H112458   3.927   2.191  16.831 -1.6343 -1.9423  1.1219
  844MPD2    H212459   3.677   1.955  16.614 -2.1541  0.5323 -1.8491
  844MPD2    H312460   3.855   1.989  16.783  1.2289  0.0305 -0.4841
  844MPD2     N12461   3.898   2.420  16.711 -0.1203 -0.3123 -0.1840
  844MPD2    H512462   3.949   2.428  16.799 -0.8156 -0.5601  0.2412
  844MPD2    N112463   3.616   2.150  16.419 -0.1448 -0.0688 -0.8136
  844MPD2    H712464   3.599   2.227  16.356  0.0330 -0.4058 -1.2745
  845MPD2     C12465   3.650   3.407  16.703 -0.0416  0.0881 -0.9635
  845MPD2    C112466   3.585   3.305  16.764 -0.3293 -0.7766  0.0920
  845MPD2    C212467   3.652   3.185  16.769 -0.6112  0.4537 -0.0582
  845MPD2    C312468   3.783   3.172  16.716 -0.0343 -0.1000 -0.1364
  845MPD2    C412469   3.845   3.276  16.654  0.0383  0.5073 -0.0874
  845MPD2    C512470   3.777   3.394  16.650  0.8794  0.8025  0.5285
  845MPD2     H12471   3.605   3.098  16.812 -0.9184  0.6644  0.0373
  845MPD2    H112472   3.949   3.276  16.625 -0.6377 -1.4378 -2.5678
  845MPD2    H212473   3.609   3.508  16.711 -2.8105 -1.2890  2.4536
  845MPD2    H312474   3.826   3.486  16.620  1.1698  0.1399 -1.0118
  845MPD2     N12475   3.848   3.053  16.756  0.3553  0.4180  0.8223
  845MPD2    H512476   3.806   2.977  16.809 -0.7341  0.1813 -0.3767
  845MPD2    N112477   3.450   3.322  16.806 -0.0997  0.0616 -0.7008
  845MPD2    H712478   3.410   3.412  16.782 -1.1277 -0.1975  0.0719
  846MPD2     C12479   0.132   3.779  13.454  0.6033 -0.1231 -1.0216
  846MPD2    C112480   0.215   3.703  13.530  0.5040  0.3564  0.6545
  846MPD2    C212481   0.202   3.700  13.669 -0.3640  0.3057  0.0290
  846MPD2    C312482   0.092   3.760  13.732 -0.3734  0.6172 -0.0308
  846MPD2    C412483   0.006   3.827  13.650  0.1676  0.4713 -0.1827
  846MPD2    C512484   0.030   3.846  13.517 -0.1588  0.6518 -0.2126
  846MPD2     H12485   0.265   3.634  13.728  0.1751  1.0233  0.2576
  846MPD2    H112486   4.656   3.883  13.690 -0.0219 -0.7088  1.0859
  846MPD2    H212487   0.139   3.785  13.346 -0.0552 -0.4308 -1.0828
  846MPD2    H312488   4.687   3.894  13.459  0.0823  1.0344 -0.2123
  846MPD2     N12489   0.059   3.750  13.872  0.2710 -0.3984  0.0559
  846MPD2    H512490   0.124   3.698  13.930  0.4080 -0.6782 -0.3484
  846MPD2    N112491   0.318   3.626  13.473  0.5926 -0.3480 -0.5790
  846MPD2    H712492   0.392   3.597  13.537 -0.4509  1.6935  1.5533
  847MPD2     C12493   1.024   0.425  15.072  0.2480 -0.2876  0.7123
  847MPD2    C112494   1.048   0.556  15.045 -0.4459 -0.5758 -0.1326
  847MPD2    C212495   1.079   0.639  15.150 -0.1918  0.0601  0.1731
  847MPD2    C312496   1.078   0.597  15.284 -0.2254  0.2661 -0.2043
  847MPD2    C412497   1.056   0.461  15.305 -0.1113 -0.1611 -0.3169
  847MPD2    C512498   1.023   0.377  15.204  0.0814 -0.1705 -0.1794
  847MPD2     H12499   1.102   0.742  15.128  3.4827 -0.9311 -0.8066
  847MPD2    H112500   1.066   0.416  15.403  1.2110  2.1651  0.6173
  847MPD2    H212501   1.006   0.353  14.994 -1.9505 -0.7278  1.6279
  847MPD2    H312502   1.000   0.274  15.226 -0.4162 -0.0651 -0.2044
  847MPD2     N12503   1.096   0.676  15.399 -0.6230 -0.2647  0.8768
  847MPD2    H512504   1.085   0.619  15.482  3.3414 -1.1645  0.7645
  847MPD2    N112505   1.049   0.616  14.921 -0.0721 -0.1951  0.1494
  847MPD2    H712506   1.076   0.714  14.913 -0.3701  0.0383  1.8215
  848MPD2     C12507   3.493   3.183  16.026 -0.3133 -0.2009 -0.4474
  848MPD2    C112508   3.382   3.104  16.058 -0.2524  0.0488 -0.1134
  848MPD2    C212509   3.260   3.149  16.014  0.2205 -0.2020  0.4544
  848MPD2    C312510   3.254   3.271  15.938  0.0836  0.6129 -0.6730
  848MPD2    C412511   3.369   3.337  15.908  0.5063 -0.7468 -0.0862
  848MPD2    C512512   3.492   3.292  15.952 -0.1462  0.3432  0.0349
  848MPD2     H12513   3.163   3.113  16.045  0.5425  0.3181  2.1023
  848MPD2    H112514   3.371   3.418  15.835  1.9616  0.7453  1.6199
  848MPD2    H212515   3.586   3.164  16.079 -0.5875 -0.3397 -0.0139
  848MPD2    H312516   3.583   3.352  15.947  0.1648  0.0044  1.6645
  848MPD2     N12517   3.137   3.346  15.912 -0.5268 -0.6844  0.6554
  848MPD2    H512518   3.155   3.443  15.885 -2.5560 -0.7983 -1.0878
  848MPD2    N112519   3.385   2.993  16.150 -0.9327  0.1872 -0.7415
  848MPD2    H712520   3.299   2.942  16.171  0.8541 -2.1278  0.9054
  849MPD2     C12521   2.129   2.952  14.069  0.6807 -0.0027 -0.4584
  849MPD2    C112522   2.265   2.922  14.065  0.6432  0.5697 -0.6404
  849MPD2    C212523   2.329   2.856  14.169 -0.1845  0.4554 -0.2712
  849MPD2    C312524   2.253   2.798  14.265 -0.2176 -0.4433  0.2787
  849MPD2    C412525   2.115   2.802  14.262  0.3315 -0.4183 -0.6223
  849MPD2    C512526   2.059   2.882  14.165 -0.0704 -0.0322  0.6530
  849MPD2     H12527   2.435   2.838  14.159 -0.4805 -1.8953  0.9244
  849MPD2    H112528   2.045   2.750  14.326  0.4781  0.7821  0.5336
  849MPD2    H212529   2.076   3.017  14.000  1.1796 -0.0236 -0.8624
  849MPD2    H312530   1.951   2.891  14.165 -0.1153 -0.5566 -0.3258
  849MPD2     N12531   2.322   2.725  14.371  0.2435 -0.6651 -0.3706
  849MPD2    H512532   2.265   2.675  14.439  0.4190  2.3566  2.0057
  849MPD2    N112533   2.355   2.960  13.959  0.3545 -0.1413 -1.2464
  849MPD2    H712534   2.452   2.931  13.954  0.6220  0.2882  1.8448
  850MPD2     C12535   0.946   1.546  14.868 -0.1833 -0.3429 -0.0457
  850MPD2    C112536   0.991   1.531  15.001  0.1787 -1.2125 -0.2180
  850MPD2    C212537   1.120   1.478  15.024  0.1470 -0.3848 -0.3813
  850MPD2    C312538   1.199   1.426  14.924  0.4763  0.8386  0.1832
  850MPD2    C412539   1.138   1.421  14.802  0.0505  0.6472 -0.3264
  850MPD2    C512540   1.018   1.481  14.772 -0.2726  0.4131 -1.0940
  850MPD2     H12541   1.154   1.481  15.127  0.7276  0.3871 -0.5960
  850MPD2    H112542   1.199   1.376  14.725 -1.1657 -2.1544  0.3280
  850MPD2    H212543   0.852   1.594  14.846 -0.5845 -2.5441 -3.0313
  850MPD2    H312544   0.977   1.473  14.672 -0.8878 -0.9781 -0.7354
  850MPD2     N12545   1.318   1.354  14.952 -0.2482  0.0564  0.2368
  850MPD2    H512546   1.350   1.273  14.900 -0.2762  0.7352 -0.8470
  850MPD2    N112547   0.899   1.581  15.099 -0.1599 -0.2153 -0.7505
  850MPD2    H712548   0.812   1.619  15.064 -0.1794 -0.1332 -0.6159
  851MPD2     C12549   0.335   1.309  15.736 -0.4409  0.5167  0.2423
  851MPD2    C112550   0.434   1.304  15.639 -0.0539  0.0848  0.2367
  851MPD2    C212551   0.450   1.182  15.575  0.5222  0.5639  0.1263
  851MPD2    C312552   0.386   1.074  15.623  0.0108 -0.5621  0.0463
  851MPD2    C412553   0.294   1.068  15.724 -0.8455  0.2467 -0.8981
  851MPD2    C512554   0.265   1.193  15.770 -0.3024  0.8550  0.5470
  851MPD2     H12555   0.523   1.165  15.497  1.1353  2.1597  0.3499
  851MPD2    H112556   0.243   0.981  15.765 -0.8238  1.2171  1.1726
  851MPD2    H212557   0.319   1.404  15.786  1.0845  0.2087  1.3231
  851MPD2    H312558   0.182   1.201  15.840  1.2141 -1.5388  2.6026
  851MPD2     N12559   0.409   0.948  15.557  0.3313 -0.1605 -0.0517
  851MPD2    H512560   0.445   0.943  15.462  1.4522 -0.6629  0.3979
  851MPD2    N112561   0.508   1.424  15.604  0.6329 -0.0474 -0.3503
  851MPD2    H712562   0.480   1.509  15.653 -0.2668  0.3949 -1.6146
  852MPD2     C12563   0.732   3.520   9.150  0.4831 -0.3359 -0.0990
  852MPD2    C112564   0.688   3.522   9.278 -0.0874  0.3099 -0.3519
  852MPD2    C212565   0.646   3.644   9.317 -1.0278 -0.4371 -0.1891
  852MPD2    C312566   0.662   3.763   9.247  0.3355 -0.5286 -0.0343
  852MPD2    C412567   0.721   3.757   9.121  0.2227  0.6131 -0.1905
  852MPD2    C512568   0.746   3.632   9.076  0.4009 -0.7682 -0.7215
  852MPD2     H12569   0.605   3.663   9.416 -0.4772  1.6913 -0.3804
  852MPD2    H112570   0.734   3.847   9.063 -1.7390  1.3362  0.5105
  852MPD2    H212571   0.757   3.422   9.110  0.3970  0.5276 -2.2448
  852MPD2    H312572   0.789   3.632   8.976  0.6525 -0.3245 -0.6145
  852MPD2     N12573   0.624   3.885   9.309 -0.1527 -0.8860 -0.0590
  852MPD2    H512574   0.570   3.869   9.393  1.7849 -0.0357  1.3340
  852MPD2    N112575   0.668   3.408   9.352 -0.2210  0.5098 -0.2399
  852MPD2    H712576   0.600   3.407   9.427 -0.5617  1.5008 -0.5368
  853MPD2     C12577   2.700   3.176  12.230 -0.0059  0.0462  0.0969
  853MPD2    C112578   2.621   3.264  12.169  0.3872  0.1543 -0.4082
  853MPD2    C212579   2.620   3.270  12.031 -0.6638 -0.0811  0.0438
  853MPD2    C312580   2.681   3.169  11.953 -0.2504  0.2736  0.9306
  853MPD2    C412581   2.759   3.084  12.022  0.4204  0.0673 -0.0837
  853MPD2    C512582   2.776   3.096  12.157 -0.4171  0.1580  0.1874
  853MPD2     H12583   2.554   3.337  11.977 -1.4322  1.6279  3.0968
  853MPD2    H112584   2.813   3.009  11.965 -0.7281 -0.0073 -1.0767
  853MPD2    H212585   2.709   3.169  12.338 -1.5568  1.9173  0.3329
  853MPD2    H312586   2.845   3.027  12.205 -1.7431 -0.2799  1.4420
  853MPD2     N12587   2.662   3.151  11.810  1.0121 -0.2421 -0.1847
  853MPD2    H512588   2.687   3.057  11.780  0.9491 -1.2930  3.1148
  853MPD2    N112589   2.550   3.360  12.243  0.0434  0.0708 -0.0760
  853MPD2    H712590   2.561   3.367  12.343 -0.9731 -0.4454  0.0768
  854MPD2     C12591   3.863   3.436  12.608  0.3822  0.7101  0.1720
  854MPD2    C112592   3.888   3.485  12.736 -0.5450 -0.4058  0.4013
  854MPD2    C212593   3.952   3.403  12.830 -0.5276 -0.2487  0.0734
  854MPD2    C312594   3.981   3.274  12.793 -0.0542  0.3338  0.1638
  854MPD2    C412595   3.940   3.226  12.671 -0.4057  0.2681  0.0768
  854MPD2    C512596   3.873   3.304  12.584 -0.3367  0.0988 -0.0569
  854MPD2     H12597   3.978   3.440  12.929  0.4442 -1.3460  0.2254
  854MPD2    H112598   3.960   3.126  12.635  0.5732  0.6036 -0.3078
  854MPD2    H212599   3.808   3.491  12.532  0.6672  3.3055  1.8618
  854MPD2    H312600   3.852   3.269  12.484 -0.7442  0.0587  0.0432
  854MPD2     N12601   4.062   3.188  12.871 -0.4071 -0.0216 -0.5248
  854MPD2    H512602   4.083   3.096  12.833 -2.1790 -1.5967  2.3472
  854MPD2    N112603   3.828   3.611  12.763  0.8661  0.5630  0.2020
  854MPD2    H712604   3.800   3.666  12.682 -0.8349  0.5481  0.7701
  855MPD2     C12605   4.398   3.159  13.811  0.3760  1.0607 -0.1717
  855MPD2    C112606   4.389   3.035  13.760 -0.0970  0.5367 -0.4516
  855MPD2    C212607   4.369   3.009  13.627 -0.0056  0.1364  0.4186
  855MPD2    C312608   4.367   3.118  13.537  0.4217  0.3883  0.4738
  855MPD2    C412609   4.372   3.245  13.582 -0.0433 -0.6183  0.7487
  855MPD2    C512610   4.394   3.267  13.718 -0.4866 -0.3548 -0.0505
  855MPD2     H12611   4.361   2.908  13.589 -1.3478  1.2491 -2.2268
  855MPD2    H112612   4.357   3.336  13.524  2.1349 -0.9795 -0.3664
  855MPD2    H212613   4.414   3.181  13.916 -0.3078 -1.4723  0.4668
  855MPD2    H312614   4.412   3.368  13.751 -0.6909  0.2620 -1.8296
  855MPD2     N12615   4.346   3.093  13.401 -0.3545 -0.1168  0.1296
  855MPD2    H512616   4.317   3.181  13.360  0.7827  0.3910  0.4201
  855MPD2    N112617   4.398   2.912  13.832  0.3449 -0.0458 -0.4494
  855MPD2    H712618   4.397   2.821  13.785 -0.1751 -0.8169  1.0540
  856MPD2     C12619   1.687   3.577  14.035  0.0592 -0.6147 -0.6141
  856MPD2    C112620   1.668   3.712  14.033 -0.3753 -1.0746  0.4608
  856MPD2    C212621   1.551   3.760  14.085 -0.1254 -0.2071  0.8208
  856MPD2    C312622   1.446   3.675  14.131  0.1634 -0.2924  0.7635
  856MPD2    C412623   1.470   3.538  14.133 -0.3536 -0.6744  0.1044
  856MPD2    C512624   1.590   3.492  14.082  0.5206 -0.5695 -0.1829
  856MPD2     H12625   1.540   3.867  14.074 -1.0163 -0.3078  0.7368
  856MPD2    H112626   1.401   3.469  14.181 -1.8723  1.8217  1.5219
  856MPD2    H212627   1.776   3.527  13.998  0.1098 -0.1243 -1.1453
  856MPD2    H312628   1.611   3.385  14.078  0.5892 -0.5856  0.5320
  856MPD2     N12629   1.316   3.716  14.173 -0.1271 -0.4312 -0.4834
  856MPD2    H512630   1.250   3.647  14.206 -1.8044  1.6090  0.4676
  856MPD2    N112631   1.758   3.810  13.985  0.0793 -0.2522  0.5602
  856MPD2    H712632   1.731   3.906  14.003  0.4581 -0.0908  0.2536
  857MPD2     C12633   3.023   1.337  13.074  0.0684  0.5732 -0.6822
  857MPD2    C112634   3.155   1.331  13.020 -0.3077 -0.2459 -0.0869
  857MPD2    C212635   3.233   1.439  13.024 -0.3607 -0.4631 -0.0633
  857MPD2    C312636   3.184   1.556  13.072  0.5625 -0.1490 -0.3533
  857MPD2    C412637   3.055   1.560  13.122  0.4833  0.0554 -0.3930
  857MPD2    C512638   2.970   1.453  13.118 -0.0345 -0.7969  0.8639
  857MPD2     H12639   3.333   1.446  12.984 -0.4211  1.6744  0.1317
  857MPD2    H112640   3.014   1.649  13.168 -0.0078 -0.1931 -0.3414
  857MPD2    H212641   2.962   1.248  13.065  3.0626 -1.4226 -0.9332
  857MPD2    H312642   2.867   1.464  13.151 -0.5385  0.8283 -1.2428
  857MPD2     N12643   3.268   1.666  13.073 -0.1189 -0.4147  0.4859
  857MPD2    H512644   3.365   1.662  13.042 -0.7929  0.7679 -1.7602
  857MPD2    N112645   3.204   1.213  12.958  0.3007 -1.0461 -0.0056
  857MPD2    H712646   3.139   1.149  12.914 -0.9839  1.7346 -2.1903
  858MPD2     C12647   3.382   0.597  16.635 -0.3413  0.2745 -0.6318
  858MPD2    C112648   3.281   0.509  16.661 -0.2247 -0.7700  0.4276
  858MPD2    C212649   3.184   0.541  16.757  0.4597 -0.6182  0.2378
  858MPD2    C312650   3.181   0.664  16.813 -0.3490 -0.2709  0.4959
  858MPD2    C412651   3.276   0.756  16.769  0.0111  0.3720  0.0255
  858MPD2    C512652   3.384   0.723  16.689 -0.1074  0.0305 -0.1312
  858MPD2     H12653   3.109   0.472  16.793  1.4813 -0.8572  1.8980
  858MPD2    H112654   3.276   0.854  16.815  0.5685  0.2847  0.2069
  858MPD2    H212655   3.464   0.573  16.568  1.3703 -0.0297  1.6004
  858MPD2    H312656   3.460   0.794  16.658  0.5193 -1.4032 -1.8662
  858MPD2     N12657   3.085   0.719  16.906  0.0305 -0.1832 -0.0402
  858MPD2    H512658   3.085   0.820  16.917  2.5871 -0.3458  1.4844
  858MPD2    N112659   3.277   0.392  16.586  0.2836  0.2141 -0.0624
  858MPD2    H712660   3.364   0.365  16.542  0.6971  2.0538 -0.3654
  859MPD2     C12661   2.104   2.554  15.069 -0.2198  0.0452 -0.3323
  859MPD2    C112662   2.228   2.549  15.132  0.4778 -0.2393 -0.0488
  859MPD2    C212663   2.251   2.459  15.232  0.8542 -0.7847  0.2409
  859MPD2    C312664   2.146   2.381  15.284  0.1645 -0.1227  0.0180
  859MPD2    C412665   2.018   2.389  15.225  0.2554  0.1363  0.0859
  859MPD2    C512666   2.008   2.473  15.119 -0.5264  0.2976 -0.0797
  859MPD2     H12667   2.345   2.440  15.282 -0.3478  1.6082  3.3834
  859MPD2    H112668   1.932   2.330  15.253 -0.4421  0.8690 -0.5139
  859MPD2    H212669   2.070   2.619  14.989 -1.7038  1.2918  1.3008
  859MPD2    H312670   1.913   2.483  15.068 -1.4635 -0.9431  1.4153
  859MPD2     N12671   2.182   2.308  15.394  0.2955 -0.1112  0.3492
  859MPD2    H512672   2.281   2.315  15.418  0.7710 -0.0746 -1.6608
  859MPD2    N112673   2.328   2.632  15.082 -0.1423 -0.0265  0.4853
  859MPD2    H712674   2.304   2.684  14.998  1.3151  1.2662  0.8790
  860MPD2     C12675   0.535   2.651  11.580  0.2488 -0.0680 -0.1888
  860MPD2    C112676   0.541   2.762  11.671  0.0778  0.1473  0.0797
  860MPD2    C212677   0.446   2.766  11.773 -0.3251 -0.2204 -0.2292
  860MPD2    C312678   0.362   2.667  11.801  0.4840 -0.0784 -0.1399
  860MPD2    C412679   0.361   2.560  11.717 -0.0327 -0.0797 -0.0907
  860MPD2    C512680   0.443   2.553  11.607  0.2582 -0.3541  0.2599
  860MPD2     H12681   0.440   2.852  11.838 -1.5453 -2.3233  2.4215
  860MPD2    H112682   0.287   2.481  11.727 -0.9808  0.6921 -1.0106
  860MPD2    H212683   0.604   2.639  11.497 -1.3766 -1.3766 -1.3277
  860MPD2    H312684   0.439   2.469  11.539 -0.1313 -0.4820  0.4407
  860MPD2     N12685   0.271   2.680  11.913  0.0688 -0.4024  0.5246
  860MPD2    H512686   0.250   2.774  11.945  1.2072  0.2875 -0.7632
  860MPD2    N112687   0.633   2.864  11.658 -1.0696  0.1070  0.0495
  860MPD2    H712688   0.631   2.923  11.741 -2.4586  0.6470 -0.3772
  861MPD2     C12689   4.524   1.108  10.944  0.0920  0.4155  0.4825
  861MPD2    C112690   4.412   1.149  11.005  0.2993  1.6294 -0.1920
  861MPD2    C212691   4.315   1.225  10.939 -0.1390 -0.3180  0.4702
  861MPD2    C312692   4.330   1.258  10.809  0.3241  0.2396 -0.3393
  861MPD2    C412693   4.449   1.230  10.752 -0.5134 -0.1027 -0.1273
  861MPD2    C512694   4.544   1.150  10.815  0.6276 -0.0670  0.3649
  861MPD2     H12695   4.222   1.255  10.986  0.1097  0.1987  0.6360
  861MPD2    H112696   4.468   1.263  10.650  0.9141 -1.0582 -0.1846
  861MPD2    H212697   4.606   1.056  10.993 -0.8099  0.0339  1.5640
  861MPD2    H312698   4.641   1.135  10.769  1.1297  0.7084  1.1831
  861MPD2     N12699   4.232   1.316  10.729  0.0559  0.0290 -0.1985
  861MPD2    H512700   4.258   1.360  10.641  0.0537 -0.0727 -0.2492
  861MPD2    N112701   4.377   1.113  11.137  0.1576 -0.0515  0.6734
  861MPD2    H712702   4.301   1.161  11.182 -1.5273 -0.6690 -1.5226
  862MPD2     C12703   3.580   1.616  10.394 -0.1510  0.0228 -0.7274
  862MPD2    C112704   3.702   1.563  10.435 -0.6025  0.2119  0.0056
  862MPD2    C212705   3.704   1.445  10.507 -0.5595  0.5562  0.4679
  862MPD2    C312706   3.590   1.379  10.542 -0.3445 -0.1103  0.0818
  862MPD2    C412707   3.461   1.431  10.497  0.5165 -0.4432 -0.0116
  862MPD2    C512708   3.461   1.545  10.415 -0.3569  0.9768  0.4035
  862MPD2     H12709   3.799   1.399  10.533  0.5257  2.8994  0.6089
  862MPD2    H112710   3.368   1.383  10.525  0.4102 -0.4445 -0.3711
  862MPD2    H212711   3.576   1.696  10.322 -2.8740  1.3184  0.8645
  862MPD2    H312712   3.367   1.589  10.382  0.4299  3.3580  1.3791
  862MPD2     N12713   3.583   1.267  10.628  0.5930  0.3818  0.1407
  862MPD2    H512714   3.494   1.230  10.660  0.2373  0.9196 -0.2352
  862MPD2    N112715   3.823   1.633  10.391  0.0191 -0.7660  0.1512
  862MPD2    H712716   3.809   1.683  10.304 -2.1110  0.0920  0.9915
  863MPD2     C12717   1.815   4.192  16.713  0.6419 -0.0658  0.3055
  863MPD2    C112718   1.753   4.288  16.786 -0.0814  0.0078 -0.0608
  863MPD2    C212719   1.773   4.297  16.925 -0.1997  0.0563  0.0025
  863MPD2    C312720   1.868   4.210  16.982 -0.0643  0.3420 -0.6465
  863MPD2    C412721   1.929   4.115  16.903  0.3510  0.5233 -0.2754
  863MPD2    C512722   1.902   4.105  16.767 -1.0103 -0.2341 -0.5393
  863MPD2     H12723   1.722   4.371  16.984  0.1220 -0.3813  0.8223
  863MPD2    H112724   1.989   4.038  16.950 -1.3121 -0.2506  0.5850
  863MPD2    H212725   1.797   4.170  16.608  2.1446 -1.6416  0.3629
  863MPD2    H312726   1.942   4.025  16.707 -0.5696 -0.4314  0.0174
  863MPD2     N12727   1.918   4.221  17.112 -0.6552  0.2978  0.4044
  863MPD2    H512728   1.985   4.151  17.144 -2.5171 -0.8687  1.7164
  863MPD2    N112729   1.655   4.369  16.714  0.6975  0.4328 -0.1421
  863MPD2    H712730   1.646   4.358  16.613  1.4669  1.3210 -0.3136
  864MPD2     C12731   2.186   0.781  16.747  0.0805 -0.0382  0.2294
  864MPD2    C112732   2.227   0.745  16.627  0.4934  0.1104  0.5270
  864MPD2    C212733   2.260   0.838  16.531  0.3182 -0.2840  0.0285
  864MPD2    C312734   2.269   0.971  16.567  0.6874  0.2167 -0.4491
  864MPD2    C412735   2.240   1.009  16.699 -0.0537 -0.1363 -0.2741
  864MPD2    C512736   2.194   0.915  16.790  0.3298 -0.1738  0.2081
  864MPD2     H12737   2.277   0.812  16.427 -1.9381 -0.2614 -0.3520
  864MPD2    H112738   2.244   1.111  16.735 -3.5539  0.4026 -1.3482
  864MPD2    H212739   2.177   0.710  16.829 -0.6432 -1.8842 -1.4757
  864MPD2    H312740   2.151   0.940  16.887 -1.9385 -1.2277 -0.5324
  864MPD2     N12741   2.306   1.074  16.483  0.1164  0.1781 -0.2664
  864MPD2    H512742   2.312   1.161  16.534 -1.1915  1.5242 -2.4432
  864MPD2    N112743   2.221   0.608  16.600  0.1033  0.4394 -0.4054
  864MPD2    H712744   2.188   0.542  16.670  0.3634  0.4428 -0.2791
  865MPD2     C12745   2.127   0.701  15.781 -0.6947  0.4915  0.8088
  865MPD2    C112746   2.259   0.708  15.732 -0.4683 -0.8694 -0.2456
  865MPD2    C212747   2.340   0.791  15.808  0.4794  0.7869 -0.0112
  865MPD2    C312748   2.297   0.866  15.919  0.1747  0.5338 -0.3324
  865MPD2    C412749   2.163   0.854  15.956 -0.1237 -0.6312  0.0118
  865MPD2    C512750   2.089   0.756  15.896 -0.0885  0.1139 -0.6979
  865MPD2     H12751   2.440   0.801  15.769  1.7093 -1.5129  2.5457
  865MPD2    H112752   2.128   0.910  16.042  1.5108  1.1284 -0.4693
  865MPD2    H212753   2.058   0.633  15.731 -1.7230  2.7338 -0.8087
  865MPD2    H312754   1.987   0.752  15.933  0.0168 -1.4890 -0.5997
  865MPD2     N12755   2.382   0.951  15.995 -0.5005  0.0568 -0.0457
  865MPD2    H512756   2.337   0.981  16.081  0.9285  0.9520  0.3756
  865MPD2    N112757   2.303   0.633  15.621  0.0745 -0.0068 -0.3699
  865MPD2    H712758   2.239   0.572  15.570 -0.8683  0.6416  0.0361
  866MPD2     C12759   0.130   1.136  11.330  0.5176 -0.4447  0.0147
  866MPD2    C112760   0.137   1.167  11.198 -0.0266 -0.3416  0.1145
  866MPD2    C212761   0.054   1.269  11.160  0.0579 -0.4821 -0.2920
  866MPD2    C312762   4.709   1.343  11.244  0.0728 -0.3196  0.8438
  866MPD2    C412763   4.713   1.320  11.377  0.2604  0.4370 -0.5138
  866MPD2    C512764   0.066   1.222  11.419  0.1810 -0.2716  0.0173
  866MPD2     H12765   0.059   1.291  11.054  2.2462  0.0342 -0.0796
  866MPD2    H112766   4.655   1.380  11.446  1.8212 -0.0751  1.2281
  866MPD2    H212767   0.198   1.066  11.376  1.5927  0.5527 -0.0449
  866MPD2    H312768   0.083   1.211  11.525  1.1032 -0.0665 -0.1098
  866MPD2     N12769   4.630   1.452  11.197 -0.7085 -0.1566  0.3421
  866MPD2    H512770   4.580   1.503  11.269 -1.0284 -0.4369  0.3173
  866MPD2    N112771   0.218   1.081  11.115  0.2134 -0.1004 -0.6100
  866MPD2    H712772   0.266   1.008  11.167 -1.6347 -0.0440  1.1471
  867MPD2     C12773   1.500   1.146  16.721 -0.4208  0.4345 -0.9736
  867MPD2    C112774   1.498   1.110  16.855 -0.6824 -0.7270  0.7209
  867MPD2    C212775   1.523   1.217  16.943  0.0654 -0.5830 -0.2228
  867MPD2    C312776   1.562   1.341  16.899 -0.7129  0.5936  0.3108
  867MPD2    C412777   1.557   1.371  16.762 -0.6432 -0.1634 -0.0026
  867MPD2    C512778   1.523   1.271  16.673  0.1150 -0.3096  0.1208
  867MPD2     H12779   1.538   1.204  17.049 -2.5270 -1.1174  0.0871
  867MPD2    H112780   1.571   1.470  16.720 -2.0841  0.6039  1.2945
  867MPD2    H212781   1.469   1.070  16.650  1.2148  1.3706 -2.7136
  867MPD2    H312782   1.530   1.293  16.567 -0.4798 -1.2782 -0.1166
  867MPD2     N12783   1.598   1.440  16.983 -0.2476 -0.4555 -0.2943
  867MPD2    H512784   1.659   1.511  16.945 -1.2008  0.1211 -0.7414
  867MPD2    N112785   1.477   0.979  16.897 -0.3928  0.4296  0.4806
  867MPD2    H712786   1.444   0.915  16.826 -0.8236  0.9494  0.2045
  868MPD2     C12787   2.923   4.634  13.089 -0.2077 -0.0294 -0.3182
  868MPD2    C112788   3.013   4.670  13.184  0.1558  0.8149 -0.3206
  868MPD2    C212789   2.976   4.688  13.310  0.4244  0.1062  0.0439
  868MPD2    C312790   2.846   4.681  13.353  0.1509 -0.2745  0.1730
  868MPD2    C412791   2.751   4.655  13.258 -0.1893 -0.2097  0.3275
  868MPD2    C512792   2.794   4.630  13.132  0.2471  0.5404 -0.5455
  868MPD2     H12793   3.053   4.712  13.382  0.8026  0.8529 -0.6142
  868MPD2    H112794   2.647   4.657  13.288 -0.3512  2.3071 -0.4547
  868MPD2    H212795   2.948   4.616  12.985 -0.3982 -0.1004 -0.3515
  868MPD2    H312796   2.715   4.636  13.057  1.4206  0.4569 -1.7818
  868MPD2     N12797   2.821   4.684  13.493 -0.4331  0.2583  0.0741
  868MPD2    H512798   2.888   4.705  13.566  0.0723 -0.3450 -0.2182
  868MPD2    N112799   3.141   4.698  13.139 -0.5272  0.5199 -0.4744
  868MPD2    H712800   3.161   4.666  13.045  1.3714  0.4740 -0.0577
  869MPD2     C12801   4.690   2.040   0.659 -0.2001 -0.0760 -0.0321
  869MPD2    C112802   4.584   2.127   0.681  0.4776  0.7930 -0.5599
  869MPD2    C212803   4.615   2.249   0.740 -0.6580 -0.3144 -0.5180
  869MPD2    C312804   0.009   2.288   0.781  0.1224 -0.5256  0.3969
  869MPD2    C412805   0.107   2.196   0.756 -0.3496 -0.1730 -0.0322
  869MPD2    C512806   0.079   2.075   0.695 -0.7391  0.6617  0.2393
  869MPD2     H12807   4.538   2.323   0.755 -0.1404 -0.0822  1.0468
  869MPD2    H112808   0.210   2.227   0.768 -0.1804 -0.0799 -1.6516
  869MPD2    H212809   4.670   1.943   0.613  1.5471  0.6319 -2.2644
  869MPD2    H312810   0.166   2.016   0.670 -1.8052  0.2512 -2.4695
  869MPD2     N12811   0.040   2.415   0.837 -0.4497  0.6172  0.2594
  869MPD2    H512812   0.136   2.439   0.863 -0.4790  0.9123  0.0857
  869MPD2    N112813   4.457   2.084   0.640  0.1405  0.2313 -0.3765
  869MPD2    H712814   4.455   1.989   0.604  1.9538 -1.1259  3.0343
  870MPD2     C12815   4.456   1.642   1.239 -0.2118  0.5538  0.0334
  870MPD2    C112816   4.374   1.568   1.156  0.3318 -1.1813  0.1355
  870MPD2    C212817   4.255   1.621   1.132  0.2306  0.6759 -0.6633
  870MPD2    C312818   4.208   1.741   1.193  0.8472  0.2923 -0.1100
  870MPD2    C412819   4.296   1.810   1.277  0.1037  0.6059  0.3512
  870MPD2    C512820   4.414   1.751   1.303 -0.0257 -0.0986  0.6413
  870MPD2     H12821   4.180   1.560   1.081  1.0324  1.6104 -2.9767
  870MPD2    H112822   4.272   1.906   1.320  0.2051  0.7577  0.0715
  870MPD2    H212823   4.558   1.607   1.247 -0.1831  0.4050 -0.9978
  870MPD2    H312824   4.484   1.804   1.367  1.3209  0.6742 -1.4974
  870MPD2     N12825   4.086   1.793   1.153  0.2199 -0.0088  0.2726
  870MPD2    H512826   4.031   1.729   1.096 -0.4339  1.3740 -0.6280
  870MPD2    N112827   4.430   1.455   1.093  0.3132  0.6691  0.6139
  870MPD2    H712828   4.521   1.419   1.123  0.8966  1.2792 -0.4254
  871MPD2     C12829   4.372   0.813  16.127 -0.1150 -0.0238 -0.1257
  871MPD2    C112830   4.447   0.746  16.221  1.2679  0.1807 -0.0697
  871MPD2    C212831   4.548   0.661  16.176 -0.2502 -0.3757  0.3731
  871MPD2    C312832   4.561   0.633  16.042 -0.0866  0.3099  0.2438
  871MPD2    C412833   4.490   0.706  15.952  0.1259  0.7172 -0.3709
  871MPD2    C512834   4.396   0.798  15.990  0.0359  0.6819 -0.7904
  871MPD2     H12835   4.615   0.607  16.242 -1.6704 -0.5606  1.6467
  871MPD2    H112836   4.485   0.694  15.845 -0.6444  0.8562 -0.3497
  871MPD2    H212837   4.286   0.876  16.150  1.0569  0.5162  2.7354
  871MPD2    H312838   4.340   0.847  15.912  0.6118  0.4539 -1.3451
  871MPD2     N12839   4.663   0.548  15.996  0.0771 -0.3180  0.5740
  871MPD2    H512840   4.662   0.526  15.897 -1.0966 -1.7873  0.9200
  871MPD2    N112841   4.423   0.771  16.356  0.2538  0.2972 -0.1159
  871MPD2    H712842   4.364   0.852  16.376 -1.5592 -1.1875  0.4928
  872MPD2     C12843   1.222   3.363  13.721 -0.1659 -0.2708 -0.4283
  872MPD2    C112844   1.262   3.448  13.821 -0.0584  0.4035  0.2473
  872MPD2    C212845   1.175   3.465  13.927 -0.0525  0.8546  1.1434
  872MPD2    C312846   1.065   3.378  13.954 -0.5736 -0.1254 -0.5482
  872MPD2    C412847   1.033   3.289  13.849  0.7398 -0.0732  0.1980
  872MPD2    C512848   1.113   3.284  13.744  0.5288 -0.2942  0.6040
  872MPD2     H12849   1.207   3.534  14.003  1.4057  0.4686  0.8795
  872MPD2    H112850   0.948   3.222  13.858  2.4094 -2.0215  1.6702
  872MPD2    H212851   1.273   3.352  13.626 -1.2264  2.6778 -1.3364
  872MPD2    H312852   1.081   3.214  13.668 -1.9305  0.5572  0.8450
  872MPD2     N12853   0.987   3.384  14.070 -0.0318  1.1826 -0.0630
  872MPD2    H512854   0.909   3.320  14.070  0.5490  0.4693  0.0160
  872MPD2    N112855   1.373   3.534  13.811  0.1550  0.2753 -0.0092
  872MPD2    H712856   1.368   3.618  13.868 -0.9245  1.4930 -1.8693
  873MPD2     C12857   3.157   3.282   1.104  0.5397  0.1483  0.0419
  873MPD2    C112858   3.065   3.223   1.188 -0.2773  0.8261 -0.4791
  873MPD2    C212859   3.021   3.094   1.175 -0.7728  0.3488 -0.2892
  873MPD2    C312860   3.071   3.011   1.072  0.1258  0.5569 -0.6123
  873MPD2    C412861   3.155   3.074   0.979 -0.3046 -0.1402  0.2091
  873MPD2    C512862   3.195   3.209   0.997 -0.3684 -0.0964  0.3577
  873MPD2     H12863   2.943   3.048   1.235  0.2167 -0.5955  0.2829
  873MPD2    H112864   3.201   3.021   0.896 -0.0348 -0.6401  0.6700
  873MPD2    H212865   3.187   3.385   1.116 -1.1373  0.8977 -2.0695
  873MPD2    H312866   3.268   3.260   0.936 -2.7551  2.4065 -0.3827
  873MPD2     N12867   3.036   2.873   1.053 -0.0927 -0.0403  0.2612
  873MPD2    H512868   3.066   2.838   0.962  0.5766  1.6166 -0.1571
  873MPD2    N112869   3.009   3.312   1.286 -0.2189 -0.4797  0.6702
  873MPD2    H712870   3.056   3.401   1.299 -0.4503 -0.1147 -0.9340
  874MPD2     C12871   2.365   2.816  15.950 -0.9647  0.1909 -0.4719
  874MPD2    C112872   2.453   2.843  16.053  0.0550  0.2748  0.5762
  874MPD2    C212873   2.534   2.955  16.048 -0.7153  0.1032  1.1967
  874MPD2    C312874   2.522   3.042  15.943 -0.0263 -0.0131 -0.5685
  874MPD2    C412875   2.429   3.014  15.847  0.0095 -0.2506  0.2137
  874MPD2    C512876   2.356   2.903  15.850 -0.1046 -0.0486  0.0920
  874MPD2     H12877   2.608   2.975  16.124 -0.9358  3.0243  0.6223
  874MPD2    H112878   2.408   3.070  15.757 -0.8235 -1.6077 -0.4378
  874MPD2    H212879   2.301   2.729  15.956 -1.8444  0.9976  1.6700
  874MPD2    H312880   2.282   2.884  15.774  1.4891 -0.0710 -1.4614
  874MPD2     N12881   2.591   3.161  15.953  0.6222 -0.4191 -0.0402
  874MPD2    H512882   2.644   3.179  16.037  0.7525  0.0086 -0.2144
  874MPD2    N112883   2.459   2.746  16.155  0.4939 -0.1965  0.3574
  874MPD2    H712884   2.396   2.668  16.141  0.0225  0.1441  0.5881
  875MPD2     C12885   4.028   1.426  14.484  0.5686  0.4466 -0.3359
  875MPD2    C112886   3.908   1.434  14.556 -0.2010  0.2300 -0.3053
  875MPD2    C212887   3.905   1.506  14.674  0.1676 -0.0399 -0.4144
  875MPD2    C312888   4.023   1.530  14.745  1.0686  0.0407  0.1888
  875MPD2    C412889   4.143   1.521  14.678  0.0729  0.5832  0.8686
  875MPD2    C512890   4.135   1.474  14.549 -0.5561  0.2019 -0.6167
  875MPD2     H12891   3.809   1.535  14.715  0.7335 -0.5624  1.2598
  875MPD2    H112892   4.238   1.556  14.717  1.3712 -0.6426 -1.2226
  875MPD2    H212893   4.029   1.375  14.389 -2.8744 -2.4209  1.1407
  875MPD2    H312894   4.231   1.455  14.502  0.4440 -0.0302  1.4932
  875MPD2     N12895   4.016   1.585  14.876  0.0112 -0.0339  0.1871
  875MPD2    H512896   4.096   1.620  14.928  1.3373  0.5836 -2.2929
  875MPD2    N112897   3.790   1.380  14.502 -0.3078  0.1684  0.2809
  875MPD2    H712898   3.709   1.402  14.558  2.0606 -0.3222  3.8827
  876MPD2     C12899   2.423   2.735  15.569  0.3256 -0.3961 -0.8122
  876MPD2    C112900   2.550   2.770  15.625 -0.4648 -0.4251 -0.0129
  876MPD2    C212901   2.596   2.669  15.711  0.3560  0.0370  0.5666
  876MPD2    C312902   2.523   2.557  15.744 -0.1874 -0.6340  0.5429
  876MPD2    C412903   2.396   2.534  15.687  0.7059 -0.0446 -0.3043
  876MPD2    C512904   2.354   2.621  15.595 -0.2110 -0.2647 -0.2942
  876MPD2     H12905   2.684   2.675  15.775 -0.1324  3.1494  0.9492
  876MPD2    H112906   2.330   2.456  15.722 -0.4480  1.1695  0.2081
  876MPD2    H212907   2.379   2.812  15.506 -1.3109  1.9778  3.2503
  876MPD2    H312908   2.253   2.611  15.559  0.5584  0.8558 -2.7663
  876MPD2     N12909   2.585   2.457  15.825  0.3901 -0.0095  0.7452
  876MPD2    H512910   2.686   2.459  15.834  0.7072  0.3657 -2.7281
  876MPD2    N112911   2.611   2.891  15.587 -0.2023 -0.0276  0.3824
  876MPD2    H712912   2.567   2.958  15.525 -0.4695  1.4169  2.1362
  877MPD2     C12913   2.522   3.247  15.044 -0.0045  0.7501 -0.4817
  877MPD2    C112914   2.652   3.276  15.067  0.4093  0.4973 -0.3502
  877MPD2    C212915   2.738   3.332  14.969  0.4898 -0.2893 -0.1353
  877MPD2    C312916   2.702   3.333  14.837 -0.1331  0.2860 -0.4367
  877MPD2    C412917   2.572   3.304  14.816  0.3888  0.0530  0.2124
  877MPD2    C512918   2.486   3.260  14.913  0.7268  0.0845 -0.2944
  877MPD2     H12919   2.841   3.353  14.995  0.6487  1.5549 -2.2200
  877MPD2    H112920   2.536   3.315  14.715  1.2122 -0.8042 -0.1732
  877MPD2    H212921   2.452   3.209  15.118  0.9573  2.6013  1.3849
  877MPD2    H312922   2.382   3.244  14.884  0.2685  2.1505  0.1657
  877MPD2     N12923   2.779   3.370  14.725 -0.2667  0.5863 -0.5211
  877MPD2    H512924   2.740   3.348  14.634  1.8164 -2.2178 -0.7565
  877MPD2    N112925   2.705   3.260  15.199  0.2540 -0.3898 -0.3599
  877MPD2    H712926   2.803   3.277  15.217 -0.0153 -0.5177  1.2189
  878MPD2     C12927   2.480   2.429  13.093  0.2049  0.1605  0.8863
  878MPD2    C112928   2.604   2.472  13.127  0.3082  0.0651 -0.6517
  878MPD2    C212929   2.615   2.565  13.226 -0.0763 -0.6788  0.3427
  878MPD2    C312930   2.503   2.624  13.284  0.1946  0.6766  0.2648
  878MPD2    C412931   2.380   2.583  13.250  0.7140 -0.7719  0.3101
  878MPD2    C512932   2.375   2.482  13.155 -0.7368 -0.3021 -0.1556
  878MPD2     H12933   2.710   2.602  13.264  0.3918  1.0506 -2.4861
  878MPD2    H112934   2.294   2.607  13.311 -0.6251  1.0310 -2.2787
  878MPD2    H212935   2.466   2.355  13.015 -1.0927  1.3546 -0.0243
  878MPD2    H312936   2.274   2.449  13.132 -1.7585  2.2690  0.6330
  878MPD2     N12937   2.524   2.724  13.380 -0.1122  0.1573  0.3878
  878MPD2    H512938   2.620   2.734  13.413  0.1345 -0.1537 -0.2302
  878MPD2    N112939   2.703   2.423  13.045 -1.1566  0.4186  0.3781
  878MPD2    H712940   2.680   2.357  12.971 -2.8575  0.5334  0.8021
  879MPD2     C12941   2.353   3.641  17.479  0.5688  0.2068  1.2626
  879MPD2    C112942   2.381   3.729  17.371 -0.6433 -0.4205 -0.1707
  879MPD2    C212943   2.365   3.677  17.244  0.1531 -0.5723  0.0370
  879MPD2    C312944   2.335   3.546  17.225  0.2686  0.0656 -0.5249
  879MPD2    C412945   2.311   3.463  17.325  0.2118  0.6754 -0.3323
  879MPD2    C512946   2.320   3.507  17.451  0.8241  0.5522  0.6579
  879MPD2     H12947   2.392   3.743  17.162  1.0856  0.8010  1.4557
  879MPD2    H112948   2.285   3.358  17.316  1.4616  0.2972  0.4195
  879MPD2    H212949   2.345   3.671  17.583  1.8738  1.4275  1.0238
  879MPD2    H312950   2.296   3.446  17.537 -0.8283 -2.4925 -1.9189
  879MPD2     N12951   2.350   3.491  17.097 -1.0885 -0.1150  0.0210
  879MPD2    H512952   2.355   3.390  17.089  2.6331 -0.0719  1.8521
  879MPD2    N112953   2.436   3.855  17.398 -0.4531 -0.3304  0.1221
  879MPD2    H712954   2.458   3.869  17.496 -0.0087 -1.7494  0.2316
  880MPD2     C12955   3.571   0.944   0.188 -0.2615  0.3721  0.4270
  880MPD2    C112956   3.692   1.007   0.206 -0.2622 -0.2978 -0.2560
  880MPD2    C212957   3.802   0.933   0.238  0.1792 -0.2662 -0.6296
  880MPD2    C312958   3.795   0.804   0.267 -0.0703 -1.0075 -0.3226
  880MPD2    C412959   3.677   0.734   0.253  0.0308 -0.2768  0.2920
  880MPD2    C512960   3.564   0.805   0.205 -0.2954  0.5134  0.3227
  880MPD2     H12961   3.899   0.981   0.236  0.0845 -0.0915 -1.0910
  880MPD2    H112962   3.665   0.627   0.270 -2.3879  0.2444  1.8103
  880MPD2    H212963   3.474   0.990   0.171 -0.0334  0.1944 -1.3618
  880MPD2    H312964   3.464   0.764   0.197 -0.2254  0.4630 -0.3414
  880MPD2     N12965   3.915   0.750   0.319 -0.0578  0.1635 -0.1915
  880MPD2    H512966   3.983   0.825   0.327 -0.1243  0.2533 -0.4633
  880MPD2    N112967   3.694   1.142   0.181  0.6569 -0.5434  0.1554
  880MPD2    H712968   3.601   1.178   0.159  0.0396 -1.3216  1.4781
  881MPD2     C12969   4.278   1.978  17.494 -0.0617  0.0915  0.8697
  881MPD2    C112970   4.272   1.842  17.464 -0.5956  0.1683  0.1343
  881MPD2    C212971   4.178   1.764  17.524 -0.3952 -0.0876  0.1980
  881MPD2    C312972   4.111   1.810  17.636  0.2599  0.2242 -0.5164
  881MPD2    C412973   4.140   1.937  17.680 -0.2235 -0.0898  0.4381
  881MPD2    C512974   4.214   2.021  17.602  0.1056 -0.3970 -0.0786
  881MPD2     H12975   4.153   1.664  17.490 -2.6290 -0.0677  1.8032
  881MPD2    H112976   4.105   1.972   0.040 -0.2703  0.5604  0.1856
  881MPD2    H212977   4.347   2.051  17.453 -0.6101  0.1176  0.0032
  881MPD2    H312978   4.245   2.115  17.646  0.5919 -0.3132 -0.5946
  881MPD2     N12979   4.023   1.732  17.715 -0.1046 -0.0997 -0.0061
  881MPD2    H512980   3.994   1.782   0.062  0.6253  1.6068 -0.7559
  881MPD2    N112981   4.330   1.816  17.338  0.3918 -0.2972  0.1986
  881MPD2    H712982   4.374   1.898  17.299 -0.5451  0.9999  1.8235
  882MPD2     C12983   2.724   3.337  13.948  0.1244 -0.7565  0.1362
  882MPD2    C112984   2.699   3.382  14.084 -0.4095  0.2757 -0.4729
  882MPD2    C212985   2.565   3.411  14.120 -1.1679  0.5703  0.1907
  882MPD2    C312986   2.456   3.411  14.028  0.1310 -1.1110 -0.4497
  882MPD2    C412987   2.483   3.366  13.899  0.3969  0.3152 -0.2678
  882MPD2    C512988   2.618   3.333  13.861  0.2453 -0.0415  0.0344
  882MPD2     H12989   2.547   3.438  14.223  0.0539  0.1483  0.5144
  882MPD2    H112990   2.401   3.359  13.829  1.6282 -1.6904 -1.4972
  882MPD2    H212991   2.822   3.315  13.906  0.7765 -0.9360  1.7421
  882MPD2    H312992   2.639   3.306  13.758  0.6688 -1.1638  0.4150
  882MPD2     N12993   2.322   3.437  14.066  0.8271 -0.3122 -0.8371
  882MPD2    H512994   2.253   3.429  13.991 -0.3120  0.0009  0.1794
  882MPD2    N112995   2.809   3.396  14.169  0.3312  1.1141 -0.1249
  882MPD2    H712996   2.895   3.354  14.136  0.3447  0.6116  0.5502
  883MPD2     C12997   4.537   3.864  15.824 -0.7285 -0.0463  0.2566
  883MPD2    C112998   4.517   3.772  15.930 -0.8405 -0.1642 -0.7616
  883MPD2    C212999   4.609   3.785  16.032 -0.7169 -0.1905  0.2330
  883MPD2    C313000   4.698   3.887  16.034  0.0526 -0.2408 -0.1366
  883MPD2    C413001   4.702   3.987  15.941  0.2171  0.3003  0.0208
  883MPD2    C513002   4.622   3.969  15.835  0.1102 -0.1562  0.5520
  883MPD2     H13003   4.598   3.720  16.117 -0.4249 -0.9924 -0.3441
  883MPD2    H113004   0.044   4.065  15.937  0.0573  0.5018  0.8260
  883MPD2    H213005   4.482   3.857  15.731 -1.5225  1.3338  0.6351
  883MPD2    H313006   4.634   4.029  15.745 -1.1180 -1.6000 -0.5839
  883MPD2     N13007   0.055   3.894  16.140  0.0881 -0.6946 -0.4273
  883MPD2    H513008   0.050   3.823  16.212 -1.0125 -0.9397 -0.7478
  883MPD2    N113009   4.430   3.662  15.934  0.6535 -0.3970 -0.0362
  883MPD2    H713010   4.445   3.591  16.005  1.2688 -1.6506 -1.4229
  884MPD2     C13011   1.361   3.972  15.283 -0.5292 -0.2097  0.1889
  884MPD2    C113012   1.436   4.087  15.271  0.2347  0.7375  0.3997
  884MPD2    C213013   1.378   4.203  15.300  0.2565  0.2116  0.0719
  884MPD2    C313014   1.249   4.211  15.356 -0.1856  0.2123  0.1118
  884MPD2    C413015   1.179   4.097  15.366 -0.5129 -0.1518 -0.0861
  884MPD2    C513016   1.236   3.979  15.330  0.2795 -1.0320 -0.1823
  884MPD2     H13017   1.425   4.298  15.276 -1.0498  0.8936  0.1962
  884MPD2    H113018   1.085   4.096  15.420 -0.5098  1.5024 -0.0466
  884MPD2    H213019   1.390   3.870  15.260 -1.5787 -0.6453  0.7514
  884MPD2    H313020   1.179   3.887  15.335 -1.2148 -0.0841  0.1810
  884MPD2     N13021   1.198   4.338  15.377 -0.0800 -0.0644  0.0120
  884MPD2    H513022   1.257   4.417  15.354 -1.5635  1.6294  1.9477
  884MPD2    N113023   1.559   4.092  15.202  0.2364  0.1870 -0.0807
  884MPD2    H713024   1.587   4.181  15.162 -1.7364  1.2308  0.9279
  885MPD2     C13025   4.360   0.332  17.720 -0.0139 -0.5930  0.2304
  885MPD2    C113026   4.335   0.194  17.700  0.0735  0.3591  0.0609
  885MPD2    C213027   4.303   0.145  17.572 -0.1692 -0.4035  0.5474
  885MPD2    C313028   4.317   0.234  17.465 -0.4643  0.7691 -0.0560
  885MPD2    C413029   4.347   0.372  17.484  0.3118 -0.4631  0.7725
  885MPD2    C513030   4.364   0.417  17.614  0.3466 -0.8009 -0.1338
  885MPD2     H13031   4.279   0.040  17.555  0.6331 -0.2995 -1.2584
  885MPD2    H113032   4.355   0.450  17.409 -2.0979  0.6079  1.6345
  885MPD2    H213033   4.374   0.374   0.082  0.6909 -1.5198  0.5199
  885MPD2    H313034   4.369   0.523  17.633 -2.3770 -0.6754 -0.1392
  885MPD2     N13035   4.287   0.186  17.334 -0.2604  0.1414 -0.0532
  885MPD2    H513036   4.262   0.088  17.329 -0.1699  0.1469 -0.5458
  885MPD2    N113037   4.339   0.115   0.081 -0.3577  0.3539  0.2416
  885MPD2    H713038   4.343   0.165   0.168 -0.6139  1.2439 -0.2571
  886MPD2     C13039   1.109   2.874  15.324  0.2078  0.0037  0.0486
  886MPD2    C113040   1.236   2.849  15.334  0.4333  1.0876 -0.3695
  886MPD2    C213041   1.319   2.921  15.249 -0.1640  0.0289  0.6069
  886MPD2    C313042   1.266   3.001  15.146  0.1407  0.1256 -0.1837
  886MPD2    C413043   1.124   3.019  15.132  0.9937 -0.1319  0.3317
  886MPD2    C513044   1.051   2.950  15.220  0.0127  0.1651  0.3119
  886MPD2     H13045   1.427   2.910  15.260  0.3376  2.2255 -2.2065
  886MPD2    H113046   1.076   3.054  15.041 -0.3190  2.8648  2.1485
  886MPD2    H213047   1.031   2.817  15.373 -0.7219 -0.7481 -2.2562
  886MPD2    H313048   0.944   2.945  15.204  0.0157  0.4609  0.2052
  886MPD2     N13049   1.345   3.063  15.047  0.1536  0.6898  0.8356
  886MPD2    H513050   1.298   3.126  14.983  0.4986  0.8186  0.7136
  886MPD2    N113051   1.297   2.760  15.427  0.3114 -0.2669 -0.2722
  886MPD2    H713052   1.395   2.746  15.405  0.3703 -0.2901  0.0036
  887MPD2     C13053   1.922   2.608  15.476  0.3149 -0.0405  0.0973
  887MPD2    C113054   1.859   2.674  15.581 -0.3594 -0.2377  0.4187
  887MPD2    C213055   1.896   2.801  15.628 -0.7843  0.4331 -0.3514
  887MPD2    C313056   1.989   2.877  15.556  0.2914  0.0936  0.2357
  887MPD2    C413057   2.057   2.810  15.456 -0.5567  0.6711  0.0488
  887MPD2    C513058   2.027   2.684  15.416 -0.0263 -0.3105  0.2203
  887MPD2     H13059   1.836   2.842  15.709  0.3557  1.7786 -0.1765
  887MPD2    H113060   2.137   2.860  15.403  1.8550 -0.4998  2.5944
  887MPD2    H213061   1.888   2.522  15.419 -2.7319  1.3323 -0.1678
  887MPD2    H313062   2.073   2.629  15.334  1.4262  1.9861 -0.4964
  887MPD2     N13063   2.019   3.005  15.605  0.5362  0.1177 -0.9184
  887MPD2    H513064   1.971   3.041  15.687 -1.4442 -2.3050 -1.0483
  887MPD2    N113065   1.736   2.630  15.630  0.0468 -0.5836 -0.6229
  887MPD2    H713066   1.673   2.688  15.686  1.1540 -0.5216  0.5668
  888MPD2     C13067   3.871   2.815  14.795 -0.3111 -0.1454  1.1082
  888MPD2    C113068   3.821   2.864  14.913  0.3636 -0.3065  0.1861
  888MPD2    C213069   3.857   2.986  14.955  0.7859 -0.1929 -0.0510
  888MPD2    C313070   3.947   3.061  14.878  0.0401  0.1878  0.0592
  888MPD2    C413071   4.013   3.003  14.771  0.1418 -0.3027  0.3144
  888MPD2    C513072   3.968   2.878  14.732 -0.7457  0.2735  0.3238
  888MPD2     H13073   3.812   3.035  15.041 -1.4015 -3.0971  0.4565
  888MPD2    H113074   4.086   3.053  14.708  0.9701 -1.5819  0.2461
  888MPD2    H213075   3.844   2.715  14.765 -1.3229  0.0029  1.5114
  888MPD2    H313076   4.022   2.819  14.659  2.2061  1.8974  1.1857
  888MPD2     N13077   3.979   3.187  14.939 -0.0957 -1.0289  0.3458
  888MPD2    H513078   3.925   3.210  15.022  0.0680 -0.2641  0.2437
  888MPD2    N113079   3.725   2.791  14.983 -0.4043  0.0201 -0.1715
  888MPD2    H713080   3.680   2.835  15.063  0.0521  0.7293 -0.3078
  889MPD2     C13081   3.203   2.245  12.653  0.4210 -0.1578  0.1483
  889MPD2    C113082   3.295   2.283  12.751 -0.5658 -0.7226  0.4628
  889MPD2    C213083   3.351   2.408  12.736 -0.4172  0.4131 -0.6771
  889MPD2    C313084   3.289   2.509  12.678 -1.1963 -0.3161  0.2452
  889MPD2    C413085   3.189   2.486  12.590 -0.2272  0.1644 -0.6848
  889MPD2    C513086   3.150   2.348  12.586  1.1904  0.1705 -0.2245
  889MPD2     H13087   3.435   2.433  12.800 -0.2568 -1.4710 -0.1484
  889MPD2    H113088   3.142   2.564  12.531 -0.2039  0.4452 -0.3322
  889MPD2    H213089   3.160   2.146  12.644 -0.6966  0.4157 -0.8700
  889MPD2    H313090   3.069   2.322  12.519 -0.4434 -1.0844  2.2675
  889MPD2     N13091   3.354   2.639  12.695 -0.2741 -0.3238  0.3192
  889MPD2    H513092   3.441   2.644  12.746 -1.2913  0.4511  1.9910
  889MPD2    N113093   3.361   2.181  12.814  0.3073  0.0304  0.2820
  889MPD2    H713094   3.324   2.087  12.805  1.2313 -0.0430 -2.5204
  890MPD2     C13095   2.812   3.929  14.411  0.2280  0.9632 -0.1662
  890MPD2    C113096   2.938   3.960  14.456  0.0238  0.8274 -0.0822
  890MPD2    C213097   2.985   3.903  14.575  0.1387  0.9574  0.1535
  890MPD2    C313098   2.892   3.833  14.653  0.2963  0.0380 -0.1840
  890MPD2    C413099   2.765   3.822  14.609 -0.7127 -0.2484 -0.4877
  890MPD2    C513100   2.730   3.850  14.481 -0.0184  0.0653  0.0125
  890MPD2     H13101   3.087   3.912  14.609  0.4054 -0.9076 -0.1926
  890MPD2    H113102   2.694   3.775  14.676  1.1419 -4.1624 -1.2994
  890MPD2    H213103   2.767   3.981  14.327 -0.8753 -1.7285 -1.2116
  890MPD2    H313104   2.626   3.851  14.450  0.0116 -0.0862 -0.0923
  890MPD2     N13105   2.948   3.775  14.774  0.1851 -0.5296 -0.2893
  890MPD2    H513106   3.042   3.808  14.790  0.1522 -0.9013  0.6945
  890MPD2    N113107   3.013   4.064  14.389  0.7452 -0.1769 -0.1128
  890MPD2    H713108   2.959   4.124  14.329  0.7045 -0.3693 -0.2696
  891MPD2     C13109   0.871   3.084  16.558 -0.7002 -0.2440 -0.1227
  891MPD2    C113110   0.806   3.057  16.667  0.2560  0.1488  0.2222
  891MPD2    C213111   0.867   3.020  16.787 -0.0807  0.2198 -0.1002
  891MPD2    C313112   1.003   3.019  16.790 -0.2591 -0.1755 -0.4805
  891MPD2    C413113   1.071   3.054  16.676 -0.3431  0.9061 -0.4323
  891MPD2    C513114   1.007   3.082  16.560 -0.7633  0.5445  0.1619
  891MPD2     H13115   0.808   2.998  16.876 -0.9984  3.6895  0.1513
  891MPD2    H113116   1.178   3.067  16.665  0.0463 -1.6439  0.5109
  891MPD2    H213117   0.831   3.100  16.458  1.9101  2.3395 -0.7548
  891MPD2    H313118   1.061   3.131  16.479 -1.0468  0.1476 -0.2670
  891MPD2     N13119   1.060   2.986  16.913  0.0073 -0.0210  0.2782
  891MPD2    H513120   0.998   2.950  16.984 -0.7518 -0.2877 -0.5106
  891MPD2    N113121   0.666   3.067  16.646 -0.1474  0.1089  0.1740
  891MPD2    H713122   0.637   3.097  16.553  2.1340  1.4603 -0.0850
  892MPD2     C13123   1.882   3.485  14.983  0.1870 -0.2465  0.3226
  892MPD2    C113124   1.790   3.525  14.894  0.1904 -0.1566 -0.9837
  892MPD2    C213125   1.822   3.543  14.763 -0.6658  0.3848 -0.5569
  892MPD2    C313126   1.949   3.514  14.720  0.3996  0.1326  0.1015
  892MPD2    C413127   2.043   3.474  14.812 -0.5736  0.0415 -0.1144
  892MPD2    C513128   2.007   3.463  14.938  0.1000  0.2204 -0.3110
  892MPD2     H13129   1.748   3.581  14.694  0.2948 -0.0888 -1.8323
  892MPD2    H113130   2.141   3.441  14.779 -0.1394  1.1972  0.0204
  892MPD2    H213131   1.861   3.470  15.088 -1.0348 -0.9769 -0.0162
  892MPD2    H313132   2.082   3.418  15.003  0.4438  1.4537  0.1425
  892MPD2     N13133   1.991   3.495  14.581  0.3449 -0.4721 -0.1440
  892MPD2    H513134   2.085   3.461  14.566  0.0182 -1.5413  0.2217
  892MPD2    N113135   1.663   3.551  14.941  0.2424  0.6090 -0.3117
  892MPD2    H713136   1.589   3.578  14.877 -0.5773 -3.4165 -1.0344
  893MPD2     C13137   3.397   2.893   1.322 -0.0549  1.0892 -0.4394
  893MPD2    C113138   3.476   2.848   1.424 -0.1257  0.5785 -0.7063
  893MPD2    C213139   3.433   2.818   1.550 -0.2251 -0.4439  0.3796
  893MPD2    C313140   3.298   2.824   1.577  0.7364 -0.0749 -0.1704
  893MPD2    C413141   3.214   2.865   1.480 -0.2272  0.1244 -0.3603
  893MPD2    C513142   3.265   2.895   1.352 -0.1265  0.6879 -0.0585
  893MPD2     H13143   3.503   2.800   1.630 -0.4810  2.1904  1.1987
  893MPD2    H113144   3.109   2.871   1.505  1.0081  2.4096  4.3209
  893MPD2    H213145   3.436   2.924   1.226  3.3436 -0.4602  0.4429
  893MPD2    H313146   3.191   2.918   1.275  0.8614 -1.5523 -1.6735
  893MPD2     N13147   3.239   2.804   1.711 -0.1988 -0.4938  0.0419
  893MPD2    H513148   3.140   2.823   1.722 -0.4963 -1.4263 -1.0799
  893MPD2    N113149   3.612   2.838   1.388 -0.0921 -0.5055 -0.1742
  893MPD2    H713150   3.631   2.847   1.289 -0.1030 -0.9598 -0.2170
  894MPD2     C13151   1.456   4.229   1.408 -0.2660  0.2920 -0.7706
  894MPD2    C113152   1.351   4.314   1.393 -0.1794  0.7801  0.5676
  894MPD2    C213153   1.376   4.437   1.332  0.4126 -0.0926  0.1237
  894MPD2    C313154   1.508   4.475   1.310 -0.4356  0.5844  0.2054
  894MPD2    C413155   1.614   4.386   1.318  0.7359  0.6847  0.2742
  894MPD2    C513156   1.586   4.267   1.384  1.0161  0.7016 -0.3799
  894MPD2     H13157   1.293   4.504   1.310  3.6318  3.9050  0.0992
  894MPD2    H113158   1.715   4.411   1.288  1.5431 -1.8183  0.9398
  894MPD2    H213159   1.451   4.125   1.440 -0.6523  1.3164  2.4890
  894MPD2    H313160   1.665   4.197   1.409 -1.2469 -1.6609  0.1665
  894MPD2     N13161   1.525   4.600   1.248 -0.0338  0.2087  0.3908
  894MPD2    H513162   1.445   4.654   1.218 -0.9002 -2.1311 -1.4871
  894MPD2    N113163   1.220   4.274   1.426 -0.4103 -0.4157  0.0569
  894MPD2    H713164   1.157   4.354   1.424  0.8472  0.4966 -2.5130
  895MPD2     C13165   0.749   2.997  13.454  0.0748  0.5420 -0.7635
  895MPD2    C113166   0.731   2.872  13.392 -0.1952  0.2227 -0.0174
  895MPD2    C213167   0.845   2.802  13.364 -0.9091  0.4056  1.0671
  895MPD2    C313168   0.968   2.848  13.405  0.3215 -0.4169 -0.5221
  895MPD2    C413169   0.979   2.977  13.459  0.5020 -0.9616  0.2934
  895MPD2    C513170   0.871   3.045  13.478  0.2850 -0.2676 -0.3285
  895MPD2     H13171   0.834   2.698  13.334  0.7650  0.9911 -1.5905
  895MPD2    H113172   1.074   3.029  13.462  1.3339 -2.4384 -0.3066
  895MPD2    H213173   0.667   3.059  13.487  0.2321 -0.1684  0.9242
  895MPD2    H313174   0.886   3.144  13.520 -1.3018  0.1676 -0.7874
  895MPD2     N13175   1.089   2.769  13.381 -0.3703  0.0842 -0.5930
  895MPD2    H513176   1.080   2.680  13.334 -1.1216  0.8125 -1.7913
  895MPD2    N113177   0.600   2.816  13.374  0.3471  0.1067 -0.6374
  895MPD2    H713178   0.591   2.737  13.310  1.3320  0.2685 -0.9746
  896MPD2     C13179   3.251   0.744   1.067  0.2238 -0.9096  0.5360
  896MPD2    C113180   3.209   0.755   0.939 -0.4238  0.2397 -0.1682
  896MPD2    C213181   3.091   0.707   0.899 -0.8462 -0.5845 -0.7480
  896MPD2    C313182   3.001   0.634   0.981  0.5289 -0.3886  0.3283
  896MPD2    C413183   3.047   0.624   1.109 -1.0379  0.7268 -0.3139
  896MPD2    C513184   3.169   0.674   1.151 -0.1221  0.6524 -0.6034
  896MPD2     H13185   3.078   0.708   0.791 -0.1100  0.6665 -0.8268
  896MPD2    H113186   2.985   0.580   1.186  0.8308 -0.3055  0.5814
  896MPD2    H213187   3.343   0.787   1.105  1.6290 -3.0870 -0.3721
  896MPD2    H313188   3.195   0.658   1.255  0.4900  2.8591 -0.4145
  896MPD2     N13189   2.885   0.570   0.939  0.3701 -0.1645  0.0215
  896MPD2    H513190   2.865   0.587   0.841  0.2093  0.7685  0.2148
  896MPD2    N113191   3.298   0.831   0.855  0.2765 -0.2193 -0.1583
  896MPD2    H713192   3.393   0.850   0.884  0.3645 -1.5077  0.4000
  897MPD2     C13193   0.250   1.811  10.383 -0.5491  0.1901  0.1921
  897MPD2    C113194   0.220   1.944  10.364  0.8153 -0.2311 -0.8032
  897MPD2    C213195   0.130   2.002  10.455 -0.5701 -0.1101  0.0854
  897MPD2    C313196   0.067   1.932  10.556 -0.2008 -0.7354 -0.5158
  897MPD2    C413197   0.105   1.801  10.577  0.1416 -0.4183  0.0417
  897MPD2    C513198   0.182   1.741  10.482 -0.4040  0.3756 -0.2515
  897MPD2     H13199   0.083   2.098  10.437  0.7813  1.1547  3.2216
  897MPD2    H113200   0.066   1.741  10.659  0.2619  0.4623  0.7416
  897MPD2    H213201   0.332   1.769  10.325  0.3052  1.6129  0.3575
  897MPD2    H313202   0.208   1.637  10.493  3.9572  1.5654  0.8512
  897MPD2     N13203   4.714   2.010  10.629 -0.4608 -0.5979 -0.2569
  897MPD2    H513204   4.690   2.101  10.591  1.6172 -0.2996 -0.8093
  897MPD2    N113205   0.263   2.012  10.249 -0.2948 -0.1584  0.8443
  897MPD2    H713206   0.286   1.949  10.172  2.6921  0.6609  1.0616
  898MPD2     C13207   1.301   3.194   0.097  0.1437 -0.0240 -0.2238
  898MPD2    C113208   1.410   3.252   0.036  0.2211 -0.2104  0.2771
  898MPD2    C213209   1.410   3.387   0.016  0.2666 -0.1802  0.2486
  898MPD2    C313210   1.304   3.461   0.056 -0.1806  0.1892  0.1531
  898MPD2    C413211   1.191   3.401   0.107  0.2176  0.1923  0.3567
  898MPD2    C513212   1.190   3.262   0.129  0.3743 -0.2035 -0.0281
  898MPD2     H13213   1.494   3.434  17.702 -0.9095 -1.1952 -2.6660
  898MPD2    H113214   1.106   3.460   0.139 -0.1147  0.5854 -1.2268
  898MPD2    H213215   1.295   3.087   0.117  0.1988  0.1184  0.5411
  898MPD2    H313216   1.107   3.216   0.182  1.8959 -1.3986  1.3265
  898MPD2     N13217   1.311   3.600   0.031  0.3313 -0.1484 -0.1337
  898MPD2    H513218   1.401   3.632  17.734  0.5853 -1.5870 -0.8496
  898MPD2    N113219   1.521   3.179  17.727  0.1000 -0.2487 -0.6680
  898MPD2    H713220   1.601   3.220  17.679  0.0753  1.6661  0.9224
  899MPD2     C13221   2.053   3.735  17.422 -0.2044  0.2108 -0.0598
  899MPD2    C113222   2.052   3.828  17.531  0.6677 -0.6837 -0.4618
  899MPD2    C213223   2.006   3.797  17.658 -0.3729  0.1371 -0.0174
  899MPD2    C313224   1.952   3.670  17.667 -0.9781 -1.0428  0.4479
  899MPD2    C413225   1.952   3.584  17.560  0.6600 -0.2662 -0.7569
  899MPD2    C513226   2.006   3.609  17.440  0.1176 -0.0476  0.2996
  899MPD2     H13227   2.003   3.873  17.735 -2.3567 -0.2597  0.2945
  899MPD2    H113228   1.895   3.492  17.569  2.0810 -1.0915 -0.1275
  899MPD2    H213229   2.096   3.752  17.324  0.2710 -1.1226 -0.0874
  899MPD2    H313230   2.006   3.542  17.355 -2.0418 -2.1504  1.9507
  899MPD2     N13231   1.887   3.631   0.054  0.0667  0.2423 -0.3997
  899MPD2    H513232   1.832   3.546   0.056  0.9784 -0.3226  0.6927
  899MPD2    N113233   2.078   3.959  17.488 -0.3552 -0.3890 -0.5403
  899MPD2    H713234   2.082   3.974  17.388 -0.3073 -1.7233 -0.7333
  900MPD2     C13235   2.605   0.234  12.605 -0.3060  0.2298  0.0409
  900MPD2    C113236   2.496   0.150  12.618  0.0308  0.2429 -0.1701
  900MPD2    C213237   2.380   0.186  12.543  0.0553  0.5815 -0.2250
  900MPD2    C313238   2.374   0.293  12.457 -0.0354 -0.0416  0.9436
  900MPD2    C413239   2.483   0.380  12.460 -0.0405  0.1708  0.0473
  900MPD2    C513240   2.589   0.353  12.538 -0.0040  0.4814  0.1463
  900MPD2     H13241   2.290   0.125  12.551  1.0816 -0.9341 -0.3986
  900MPD2    H113242   2.485   0.465  12.393 -1.5924 -1.7784 -2.4977
  900MPD2    H213243   2.700   0.220  12.656  0.0680  0.3636 -0.6171
  900MPD2    H313244   2.678   0.415  12.539  0.0262  0.4423 -1.2297
  900MPD2     N13245   2.249   0.311  12.392 -0.2747  0.2011  0.4833
  900MPD2    H513246   2.170   0.252  12.418  0.0879 -0.2968  0.4538
  900MPD2    N113247   2.499   0.042  12.711 -0.1719 -0.5853  0.4538
  900MPD2    H713248   2.587   0.018  12.757  0.0504 -0.2201  0.2211
  901MPD2     C13249   2.154   3.907  13.231  0.2114  0.5295 -0.2587
  901MPD2    C113250   2.277   3.897  13.161  0.7554  0.1688 -0.7487
  901MPD2    C213251   2.338   4.006  13.108  0.2082 -0.4345 -0.6480
  901MPD2    C313252   2.289   4.130  13.135 -0.5711 -0.2267 -0.4112
  901MPD2    C413253   2.170   4.142  13.204  0.1657  0.5122 -0.2397
  901MPD2    C513254   2.101   4.031  13.248  0.7646  0.0790  0.5194
  901MPD2     H13255   2.422   4.004  13.040  0.7787 -0.8175  0.0633
  901MPD2    H113256   2.130   4.240  13.228 -0.4618 -0.0601  1.0530
  901MPD2    H213257   2.099   3.819  13.263  0.3954  0.3056 -0.5638
  901MPD2    H313258   2.004   4.044  13.295  1.1812  1.1894  1.0738
  901MPD2     N13259   2.360   4.238  13.086  0.2594 -0.7681  0.6693
  901MPD2    H513260   2.444   4.212  13.036  1.6292 -0.8137  2.9772
  901MPD2    N113261   2.316   3.764  13.117  0.3473 -0.2438 -0.8194
  901MPD2    H713262   2.248   3.690  13.132  0.9242 -0.7773 -0.8522
  902MPD2     C13263   1.637   3.250  13.051 -0.2616 -0.1813 -0.7166
  902MPD2    C113264   1.566   3.270  12.936 -0.6733 -0.0974  0.6548
  902MPD2    C213265   1.616   3.227  12.817  0.2335  0.4527 -0.0628
  902MPD2    C313266   1.732   3.158  12.803 -0.1142  0.1903  0.0611
  902MPD2    C413267   1.801   3.126  12.920 -0.1967  0.1174 -0.4660
  902MPD2    C513268   1.756   3.179  13.039 -0.3259  0.3525  0.5454
  902MPD2     H13269   1.550   3.235  12.731 -1.8531  1.1501  1.6049
  902MPD2    H113270   1.899   3.080  12.913 -0.4064 -0.1714 -1.4603
  902MPD2    H213271   1.606   3.279  13.151  1.8319  0.5801 -0.2953
  902MPD2    H313272   1.804   3.161  13.134  0.3164 -3.2195 -0.4707
  902MPD2     N13273   1.765   3.083  12.688  0.2855  0.1257 -0.1388
  902MPD2    H513274   1.815   2.995  12.696 -0.8344 -0.6169 -1.3832
  902MPD2    N113275   1.446   3.341  12.946 -0.1230  0.6105 -0.2875
  902MPD2    H713276   1.446   3.389  13.035 -1.0204 -0.2276  0.1542
  903MPD2     C13277   1.662   2.891  11.776  0.4432 -1.1526  0.0644
  903MPD2    C113278   1.586   2.904  11.891  0.5031  0.0378 -0.2196
  903MPD2    C213279   1.447   2.938  11.881  0.0536  0.6978 -0.0231
  903MPD2    C313280   1.390   2.946  11.755 -0.6331  0.4366  0.5988
  903MPD2    C413281   1.465   2.913  11.644  0.1318 -0.0689 -0.0298
  903MPD2    C513282   1.602   2.891  11.655 -0.1164  0.0225 -0.2714
  903MPD2     H13283   1.389   2.956  11.971 -0.5074  0.6922 -0.3866
  903MPD2    H113284   1.429   2.922  11.542  0.7370 -1.6074 -0.3875
  903MPD2    H213285   1.770   2.878  11.772  0.6701  0.7836 -0.2868
  903MPD2    H313286   1.668   2.886  11.569  2.1876 -0.5366  1.5200
  903MPD2     N13287   1.254   2.962  11.758 -0.1728 -0.2389 -0.0876
  903MPD2    H513288   1.205   2.982  11.845  1.7568  3.2149  0.2087
  903MPD2    N113289   1.661   2.906  12.016 -0.0172  0.4907  0.1832
  903MPD2    H713290   1.755   2.868  12.015 -0.9831 -1.8878  1.0485
  904MPD2     C13291   0.944   2.469  13.643  0.1550  0.2721  0.4344
  904MPD2    C113292   0.946   2.362  13.724  0.4818 -0.0952 -0.6831
  904MPD2    C213293   1.036   2.356  13.827 -0.3655  0.0754  0.0994
  904MPD2    C313294   1.124   2.465  13.848  0.7021 -0.1971  0.3491
  904MPD2    C413295   1.111   2.578  13.772  0.0705  0.5456 -0.3851
  904MPD2    C513296   1.018   2.582  13.674 -0.2718 -0.6138 -0.0596
  904MPD2     H13297   1.042   2.265  13.885 -0.2805  0.1569  0.2156
  904MPD2    H113298   1.155   2.675  13.791 -0.1886  0.8089 -1.1290
  904MPD2    H213299   0.872   2.483  13.563 -0.5512 -0.2209  0.9770
  904MPD2    H313300   1.002   2.664  13.605  0.8134 -0.3079  0.0548
  904MPD2     N13301   1.225   2.450  13.945  0.1002  0.3517  0.3574
  904MPD2    H513302   1.232   2.362  13.996 -3.0498  0.6984  1.3951
  904MPD2    N113303   0.846   2.269  13.716 -0.6267 -0.5399  0.0404
  904MPD2    H713304   0.817   2.214  13.796 -0.6552 -1.9008 -0.9068
  905MPD2     C13305   0.684   2.561  13.140  0.2877  0.5832  0.0091
  905MPD2    C113306   0.743   2.450  13.204  0.5883 -0.4159 -0.4314
  905MPD2    C213307   0.879   2.447  13.210  0.9134  0.4107 -0.1650
  905MPD2    C313308   0.963   2.542  13.149 -1.2544 -0.7869  0.1640
  905MPD2    C413309   0.899   2.641  13.076 -0.3874  0.7299  0.3467
  905MPD2    C513310   0.763   2.644  13.064 -0.4244 -0.2656 -0.0089
  905MPD2     H13311   0.920   2.358  13.255  1.9278 -0.7163 -3.3258
  905MPD2    H113312   0.951   2.717  13.019  2.1972 -0.4855  1.0761
  905MPD2    H213313   0.577   2.577  13.142  0.2252  0.1432  0.2698
  905MPD2    H313314   0.718   2.728  13.012  0.5282 -0.4777 -1.1746
  905MPD2     N13315   1.105   2.533  13.154 -0.3532 -0.1394 -0.2614
  905MPD2    H513316   1.163   2.603  13.110 -0.1267  1.2624  2.2813
  905MPD2    N113317   0.672   2.362  13.285  0.8467 -0.1623 -0.0258
  905MPD2    H713318   0.729   2.321  13.359  0.9536 -1.5222 -0.8501
  906MPD2     C13319   3.639   2.636  11.053  0.4184 -0.8252  0.0420
  906MPD2    C113320   3.608   2.570  10.941  1.4059 -0.3080  0.7524
  906MPD2    C213321   3.551   2.441  10.955  0.0616  0.1294  0.5396
  906MPD2    C313322   3.531   2.382  11.086  0.1263  0.4706 -0.1340
  906MPD2    C413323   3.563   2.454  11.198  0.2992  0.0672  0.3010
  906MPD2    C513324   3.624   2.574  11.173 -0.4946  0.0552  0.2097
  906MPD2     H13325   3.531   2.387  10.864 -1.1822 -1.8521  1.9791
  906MPD2    H113326   3.548   2.417  11.299  0.3499 -1.8947 -0.4263
  906MPD2    H213327   3.674   2.738  11.057  0.4854 -0.8496  0.0951
  906MPD2    H313328   3.649   2.624  11.266  0.9664  2.6305 -1.5813
  906MPD2     N13329   3.474   2.253  11.102 -0.2505 -0.2476  0.0928
  906MPD2    H513330   3.453   2.214  11.193  0.5194 -2.2643 -0.5896
  906MPD2    N113331   3.613   2.621  10.807 -0.8560 -0.1991  0.7697
  906MPD2    H713332   3.572   2.574  10.727 -1.0584 -0.3250  0.9468
  907MPD2     C13333   1.631   1.586  15.958  0.2026 -0.0744 -0.1795
  907MPD2    C113334   1.708   1.482  15.909 -0.1487 -0.3334 -0.0483
  907MPD2    C213335   1.757   1.391  16.005 -0.2046 -0.2950 -0.1923
  907MPD2    C313336   1.735   1.404  16.140  0.3638  0.1034 -0.3623
  907MPD2    C413337   1.663   1.509  16.183 -0.0890 -0.5421  0.5023
  907MPD2    C513338   1.619   1.604  16.094  0.2976  0.0352 -0.6357
  907MPD2     H13339   1.819   1.314  15.959  1.0247  1.8301 -2.0864
  907MPD2    H113340   1.638   1.528  16.287 -0.6302 -3.6548  0.9342
  907MPD2    H213341   1.582   1.657  15.892 -2.3646 -0.6563  1.1106
  907MPD2    H313342   1.566   1.687  16.139 -1.1850 -0.8275 -0.8046
  907MPD2     N13343   1.781   1.297  16.224 -0.5327  0.3436 -0.3552
  907MPD2    H513344   1.827   1.219  16.179  0.6292 -0.4901  2.2762
  907MPD2    N113345   1.728   1.458  15.772 -0.0100 -0.0820 -0.0589
  907MPD2    H713346   1.788   1.379  15.750  1.2984  0.9106 -0.0748
  908MPD2     C13347   0.404   1.790   9.372  0.1868 -0.2814  0.2490
  908MPD2    C113348   0.316   1.746   9.471  0.6140 -0.1960 -0.0463
  908MPD2    C213349   0.304   1.807   9.598 -0.2282 -0.3599  0.4867
  908MPD2    C313350   0.376   1.927   9.613  0.5787  0.2610  0.6252
  908MPD2    C413351   0.465   1.967   9.513 -0.3046  0.1898  0.6893
  908MPD2    C513352   0.470   1.907   9.393  0.2354  1.2311  0.9283
  908MPD2     H13353   0.241   1.770   9.679 -2.0393  2.6856  0.4699
  908MPD2    H113354   0.526   2.056   9.524  0.7198 -0.2222 -1.7030
  908MPD2    H213355   0.412   1.736   9.278 -1.2358 -1.0423  0.5665
  908MPD2    H313356   0.544   1.941   9.321 -0.4779 -0.8140 -0.7569
  908MPD2     N13357   0.362   2.003   9.738 -0.1611  0.1060 -0.1340
  908MPD2    H513358   0.304   1.958   9.807  0.4852  0.0485  0.3622
  908MPD2    N113359   0.249   1.626   9.443 -0.2605 -0.6086 -0.3477
  908MPD2    H713360   0.250   1.593   9.347  0.7383 -0.4097 -0.4001
  909MPD2     C13361   0.171   0.039  11.901  0.0330  0.2167  0.0338
  909MPD2    C113362   0.210   0.171  11.879  0.3780 -0.0669  0.3221
  909MPD2    C213363   0.157   0.272  11.963 -0.3256 -0.5711 -0.3210
  909MPD2    C313364   0.065   0.232  12.063  0.0394  0.2755 -0.5016
  909MPD2    C413365   0.031   0.097  12.080  0.0893 -0.2763  0.4032
  909MPD2    C513366   0.085   0.006  11.996  0.7850 -0.4020 -0.2691
  909MPD2     H13367   0.191   0.373  11.943  0.3944 -1.0579 -1.5311
  909MPD2    H113368   4.696   0.061  12.155 -1.5420  1.5034 -0.2431
  909MPD2    H213369   0.206   4.691  11.839 -1.6859  0.8730 -1.8396
  909MPD2    H313370   0.059   4.635  12.005 -2.4543  0.5378  1.4581
  909MPD2     N13371   0.003   0.337  12.137  0.3411 -0.4066  0.4172
  909MPD2    H513372   0.044   0.430  12.132 -1.8503  0.6228  1.6794
  909MPD2    N113373   0.293   0.217  11.766 -0.2330 -0.0387  0.7261
  909MPD2    H713374   0.325   0.313  11.768 -1.8139  0.4309  3.1139
  910MPD2     C13375   0.839   2.334  16.046  0.2964 -0.0915 -0.1463
  910MPD2    C113376   0.927   2.283  15.955  0.1400  0.1057 -0.4173
  910MPD2    C213377   0.930   2.332  15.825 -0.1729  0.2903 -0.3031
  910MPD2    C313378   0.844   2.435  15.790 -0.4499 -0.1264 -0.6379
  910MPD2    C413379   0.755   2.493  15.882 -0.5248  0.1214  0.1003
  910MPD2    C513380   0.752   2.439  16.006 -0.0016 -0.2470  0.1921
  910MPD2     H13381   0.995   2.288  15.751 -0.9722 -1.2442 -0.0954
  910MPD2    H113382   0.682   2.565  15.846  0.3583  1.2271  0.5281
  910MPD2    H213383   0.826   2.295  16.146  1.6626  0.7426  0.3633
  910MPD2    H313384   0.666   2.457  16.069 -0.2540  1.2354 -0.5774
  910MPD2     N13385   0.830   2.479  15.659 -1.0667 -0.4451  0.2587
  910MPD2    H513386   0.765   2.557  15.650  0.9049  1.2519  0.4990
  910MPD2    N113387   1.020   2.177  15.981 -0.0345 -0.3287 -0.2088
  910MPD2    H713388   1.073   2.136  15.904  1.1817 -0.5053  0.7235
  911MPD2     C13389   4.092   2.207  16.449  0.5290  0.0221  0.0483
  911MPD2    C113390   4.182   2.308  16.499 -0.0155 -0.8367  0.3989
  911MPD2    C213391   4.165   2.440  16.444  0.6311  0.0546 -0.3162
  911MPD2    C313392   4.068   2.466  16.355 -0.4471  0.8688  0.0587
  911MPD2    C413393   3.989   2.372  16.304  0.1477 -0.0715  0.3006
  911MPD2    C513394   4.003   2.242  16.346 -0.2463 -0.2998 -1.0015
  911MPD2     H13395   4.222   2.522  16.486  3.0379 -0.2492 -2.9834
  911MPD2    H113396   3.924   2.395  16.221 -1.5161  0.3710  1.7208
  911MPD2    H213397   4.099   2.103  16.479  0.2939 -1.0072 -3.3533
  911MPD2    H313398   3.940   2.162  16.309  0.1797 -1.1399  0.1149
  911MPD2     N13399   4.031   2.595  16.307  0.0256 -0.3715 -0.4711
  911MPD2    H513400   3.939   2.608  16.266 -0.1221  0.8620  0.2557
  911MPD2    N113401   4.275   2.278  16.612 -0.6446  0.1327 -0.2227
  911MPD2    H713402   4.289   2.181  16.638 -0.3645  0.4062  0.6229
  912MPD2     C13403   3.429   2.761  15.912 -0.5483  0.0605 -0.0201
  912MPD2    C113404   3.543   2.700  15.972  0.7012  0.3559 -0.2832
  912MPD2    C213405   3.518   2.578  16.030  0.0761  0.9958 -0.1509
  912MPD2    C313406   3.396   2.508  16.021 -0.6717  0.0052 -0.6487
  912MPD2    C413407   3.300   2.565  15.954  1.3054 -0.0230  0.4422
  912MPD2    C513408   3.316   2.691  15.896  0.1833 -0.3570 -0.2654
  912MPD2     H13409   3.601   2.523  16.072 -0.9281 -0.4983 -0.1197
  912MPD2    H113410   3.201   2.523  15.944  1.1332  0.4189  0.2863
  912MPD2    H213411   3.438   2.865  15.881 -1.5506  0.1501 -0.0276
  912MPD2    H313412   3.230   2.727  15.840  0.1571  1.1123  0.7228
  912MPD2     N13413   3.379   2.389  16.093  0.3174 -0.5099  0.1886
  912MPD2    H513414   3.457   2.357  16.149 -0.7947  1.9837  3.1562
  912MPD2    N113415   3.658   2.779  15.997 -0.1650  0.1904  0.0987
  912MPD2    H713416   3.672   2.874  15.967  1.8543  0.3558  1.6189
  913MPD2     C13417   0.047   3.325  10.279  0.6720  0.3137  0.5130
  913MPD2    C113418   0.121   3.394  10.377  0.0054 -0.0841  0.4088
  913MPD2    C213419   0.110   3.530  10.377 -0.3566 -0.6532  0.8059
  913MPD2    C313420   0.034   3.597  10.281 -0.0640  0.0069  0.1502
  913MPD2    C413421   4.686   3.526  10.193 -0.6398  0.6769  0.1319
  913MPD2    C513422   4.694   3.390  10.186 -0.9242  0.1253 -0.2030
  913MPD2     H13423   0.180   3.584  10.440  0.5297 -1.4683  0.5161
  913MPD2    H113424   4.625   3.572  10.116  1.4497  0.8557 -1.4090
  913MPD2    H213425   0.054   3.218  10.265 -1.8657  0.0795  1.0282
  913MPD2    H313426   4.630   3.336  10.118 -0.6530  0.0903 -0.4297
  913MPD2     N13427   0.038   3.738  10.268 -0.4469 -0.0872  0.7072
  913MPD2    H513428   4.731   3.782  10.186  0.6745  1.7331  1.1284
  913MPD2    N113429   0.178   3.298  10.468 -0.1038  0.2731 -0.2481
  913MPD2    H713430   0.170   3.203  10.435  2.9861 -0.3747  0.8281
  914MPD2     C13431   2.787   3.704  12.275  0.3965 -0.4841 -0.2107
  914MPD2    C113432   2.748   3.802  12.359 -0.4900  0.7651 -0.2212
  914MPD2    C213433   2.687   3.771  12.480  0.4690 -0.2936  0.0152
  914MPD2    C313434   2.683   3.642  12.522 -0.7056  0.0154  0.0782
  914MPD2    C413435   2.724   3.543  12.435  0.6830 -0.5375  0.0292
  914MPD2    C513436   2.765   3.576  12.311 -0.4836  0.5591 -0.5415
  914MPD2     H13437   2.664   3.842  12.558 -3.8728  0.7229 -2.1682
  914MPD2    H113438   2.727   3.438  12.462  1.9321 -0.5315 -0.0860
  914MPD2    H213439   2.828   3.726  12.177 -0.3497  1.0849 -0.1529
  914MPD2    H313440   2.795   3.498  12.242  1.1678  0.2362  0.5593
  914MPD2     N13441   2.641   3.614  12.656  0.2346 -0.3353  0.0902
  914MPD2    H513442   2.622   3.697  12.711 -0.6573 -0.3280 -0.2345
  914MPD2    N113443   2.764   3.941  12.317  0.2483  0.1070 -0.0622
  914MPD2    H713444   2.819   3.957  12.233  3.2049  1.5959  2.1882
  915MPD2     C13445   4.349   4.339  16.560 -0.4603  0.4598 -0.2618
  915MPD2    C113446   4.262   4.372  16.456 -0.1418  0.0864  0.9564
  915MPD2    C213447   4.157   4.456  16.482  0.0334 -0.6617  0.1680
  915MPD2    C313448   4.145   4.513  16.607  0.4663 -0.2525  0.3569
  915MPD2    C413449   4.234   4.475  16.705 -0.2227 -0.8002  0.0749
  915MPD2    C513450   4.332   4.387  16.681 -0.0628  0.4580 -0.6650
  915MPD2     H13451   4.088   4.496  16.407  0.6403 -0.2397 -0.1645
  915MPD2    H113452   4.217   4.513  16.805  1.4220 -0.7334  0.3180
  915MPD2    H213453   4.434   4.273  16.542 -0.6157  0.6826 -1.8195
  915MPD2    H313454   4.405   4.365  16.758 -2.6223 -0.9060  1.4025
  915MPD2     N13455   4.041   4.608  16.622  0.2429  0.5170  0.1970
  915MPD2    H513456   3.976   4.621  16.545  2.0329 -0.8942 -1.5510
  915MPD2    N113457   4.283   4.308  16.334 -0.2944  0.7575 -0.1077
  915MPD2    H713458   4.369   4.254  16.330 -1.4869 -1.2645  1.8293
  916MPD2     C13459   2.991   2.118  15.517 -0.3579  0.1914  0.3797
  916MPD2    C113460   3.008   2.070  15.646 -0.6972  0.1840  0.1660
  916MPD2    C213461   3.112   1.978  15.676 -0.0710 -0.2211 -0.9049
  916MPD2    C313462   3.183   1.923  15.571 -0.1957  0.0054 -0.3149
  916MPD2    C413463   3.166   1.969  15.440 -0.2527  0.1044 -0.7635
  916MPD2    C513464   3.068   2.063  15.412 -0.2270  0.4264  0.1878
  916MPD2     H13465   3.130   1.936  15.773  3.7442 -0.4185 -1.7217
  916MPD2    H113466   3.225   1.942  15.353 -0.1295  1.2878 -1.0492
  916MPD2    H213467   2.902   2.177  15.500  0.7787  1.8906  0.3861
  916MPD2    H313468   3.049   2.089  15.308  1.0935 -3.2895 -0.9576
  916MPD2     N13469   3.281   1.825  15.605 -0.1146  0.0450  0.6537
  916MPD2    H513470   3.310   1.811  15.702  1.2961  3.1215  0.6495
  916MPD2    N113471   2.912   2.111  15.738 -0.3009  0.3882 -0.9970
  916MPD2    H713472   2.833   2.164  15.703  0.6942  1.7331 -1.2315
  917MPD2     C13473   3.856   4.238  11.028  0.3075  1.0008 -0.2071
  917MPD2    C113474   3.858   4.302  11.147 -0.0967 -0.2594 -0.0213
  917MPD2    C213475   3.930   4.422  11.163  0.1278 -0.1537  0.4348
  917MPD2    C313476   3.989   4.486  11.055 -0.0133  0.3113  0.2639
  917MPD2    C413477   3.974   4.421  10.939  0.3323 -0.2469  0.4765
  917MPD2    C513478   3.918   4.299  10.917 -0.3887  0.5560 -0.0036
  917MPD2     H13479   3.951   4.452  11.265 -0.0258 -0.8847  0.6813
  917MPD2    H113480   4.014   4.458  10.845  0.3490 -1.3807  0.0268
  917MPD2    H213481   3.800   4.147  11.009  1.8518  0.2445 -1.1326
  917MPD2    H313482   3.918   4.244  10.824  0.6375  0.8048 -0.1465
  917MPD2     N13483   4.060   4.610  11.057  0.5969  0.4626 -0.2293
  917MPD2    H513484   4.093   4.645  10.968 -0.5854  0.1006 -0.8097
  917MPD2    N113485   3.781   4.247  11.252  0.7011  0.2534  0.9086
  917MPD2    H713486   3.746   4.156  11.227 -0.1043  0.0089  2.9573
  918MPD2     C13487   3.630   4.443  12.265  0.6305 -0.4020  0.6310
  918MPD2    C113488   3.644   4.539  12.167  0.1346  0.2668  0.3819
  918MPD2    C213489   3.639   4.487  12.036  0.1533 -0.7108 -0.1111
  918MPD2    C313490   3.605   4.356  12.003 -0.0907 -0.4697 -0.0495
  918MPD2    C413491   3.584   4.271  12.107  0.1813 -0.0352  0.3481
  918MPD2    C513492   3.617   4.312  12.235 -0.2524 -0.0196 -0.0777
  918MPD2     H13493   3.648   4.559  11.957  2.3196 -1.9690 -1.0022
  918MPD2    H113494   3.564   4.165  12.094 -0.6932  0.3646 -1.5382
  918MPD2    H213495   3.650   4.457  12.371  0.3978 -0.0414  0.6256
  918MPD2    H313496   3.603   4.238  12.313  0.4322 -3.7820 -3.5228
  918MPD2     N13497   3.583   4.326  11.867  0.0033  0.2482  0.5864
  918MPD2    H513498   3.608   4.400  11.803  1.1131 -1.1741 -0.6163
  918MPD2    N113499   3.682   4.673  12.181 -0.2391 -0.3852  1.0059
  918MPD2    H713500   3.703   4.726  12.097 -1.5835  0.8163  1.4297
  919MPD2     C13501   4.608   3.510  11.514 -0.4070 -0.0777 -0.7106
  919MPD2    C113502   4.610   3.388  11.450  0.7169 -0.0058 -0.0499
  919MPD2    C213503   4.611   3.387  11.309 -0.1794 -0.3594  0.6278
  919MPD2    C313504   4.590   3.501  11.234 -0.0795 -0.2616 -0.1209
  919MPD2    C413505   4.570   3.615  11.311 -0.4418  0.5807 -0.6298
  919MPD2    C513506   4.582   3.629  11.452  0.1079  0.1012 -0.5385
  919MPD2     H13507   4.613   3.290  11.262 -1.5430 -1.0552  2.0297
  919MPD2    H113508   4.557   3.710  11.262  1.2893  0.3611 -1.5183
  919MPD2    H213509   4.627   3.518  11.621  0.0205 -0.3655 -0.7610
  919MPD2    H313510   4.591   3.725  11.502  0.4254  0.7295 -1.7983
  919MPD2     N13511   4.577   3.509  11.095 -0.7801  0.3316  0.4048
  919MPD2    H513512   4.544   3.593  11.049  1.6573  2.4835  2.6021
  919MPD2    N113513   4.635   3.266  11.523 -0.0846  0.0596  0.1335
  919MPD2    H713514   4.676   3.192  11.468 -0.9963 -1.5933  1.6762
  920MPD2     C13515   4.372   4.095  10.349  0.0136 -0.2739 -0.1756
  920MPD2    C113516   4.328   3.974  10.296  0.5411  0.2114  0.1986
  920MPD2    C213517   4.375   3.857  10.352 -0.2981 -0.0902 -0.2838
  920MPD2    C313518   4.463   3.863  10.463  0.2865  0.2842 -0.2330
  920MPD2    C413519   4.497   3.982  10.516 -0.2104 -0.3188 -0.0337
  920MPD2    C513520   4.454   4.099  10.456  0.3751  0.0860  0.4088
  920MPD2     H13521   4.350   3.761  10.308 -0.6249 -1.0395  1.9560
  920MPD2    H113522   4.555   3.985  10.607  2.2169  0.8047 -1.6190
  920MPD2    H213523   4.331   4.192  10.323 -0.9160 -0.9822 -1.3595
  920MPD2    H313524   4.472   4.194  10.506 -1.6895 -0.0443  1.4065
  920MPD2     N13525   4.500   3.737  10.524 -0.4609  1.1619 -0.5896
  920MPD2    H513526   4.462   3.649  10.491  0.9319 -0.4357  2.0081
  920MPD2    N113527   4.250   3.966  10.182  0.3136 -0.2292 -0.1778
  920MPD2    H713528   4.231   3.871  10.153 -0.7949 -0.0159 -0.1214
  921MPD2     C13529   4.574   3.039  17.063 -0.2098  0.0064 -0.1407
  921MPD2    C113530   4.657   2.959  16.988 -0.3807 -0.0504  0.0083
  921MPD2    C213531   4.642   2.823  16.985  0.7249 -0.0637 -0.8194
  921MPD2    C313532   4.539   2.764  17.050  0.2217  0.3992  0.1588
  921MPD2    C413533   4.459   2.844  17.130  0.1714 -0.1805 -0.3060
  921MPD2    C513534   4.474   2.984  17.137 -0.5893 -0.0684 -0.4520
  921MPD2     H13535   4.703   2.763  16.919 -0.9121  0.1216 -2.5199
  921MPD2    H113536   4.384   2.799  17.193 -0.2199  0.4031 -0.3533
  921MPD2    H213537   4.580   3.147  17.071 -0.1493  0.0202 -0.3698
  921MPD2    H313538   4.400   3.045  17.188  0.1892 -1.2901  2.1442
  921MPD2     N13539   4.517   2.626  17.038 -0.0349  0.1428 -0.0478
  921MPD2    H513540   4.445   2.576  17.090  0.4984 -0.0608  0.4903
  921MPD2    N113541   0.007   3.028  16.896 -0.5179 -1.1234  0.5160
  921MPD2    H713542   0.013   3.127  16.917 -0.7484 -1.1037  0.4849
  922MPD2     C13543   0.634   0.507  16.632  0.1053  0.3997 -0.1413
  922MPD2    C113544   0.594   0.497  16.765 -0.1424 -0.4875 -0.7114
  922MPD2    C213545   0.519   0.386  16.805 -0.6665  0.0816 -0.3005
  922MPD2    C313546   0.496   0.281  16.718 -0.4950  0.2933  0.7991
  922MPD2    C413547   0.546   0.295  16.588 -1.2290 -0.0962  0.7722
  922MPD2    C513548   0.606   0.405  16.542  0.2166  0.4267 -0.1216
  922MPD2     H13549   0.481   0.383  16.906 -1.1630 -0.1334 -0.4919
  922MPD2    H113550   0.532   0.219  16.513  0.2346  0.3603  0.0425
  922MPD2    H213551   0.674   0.602  16.599  0.5229  0.1984 -0.2067
  922MPD2    H313552   0.634   0.420  16.439  1.9442  0.5425  0.3777
  922MPD2     N13553   0.442   0.153  16.745 -0.3592 -0.0436  0.2230
  922MPD2    H513554   0.454   0.086  16.670 -0.9841 -1.7772  1.6644
  922MPD2    N113555   0.634   0.594  16.867  0.6564  0.0457 -0.5053
  922MPD2    H713556   0.582   0.591  16.954  0.3614 -2.2524 -0.7455
  923MPD2     C13557   2.237   2.085   9.284  0.6521 -0.2725 -0.2596
  923MPD2    C113558   2.193   2.215   9.290  0.5499  0.7763  0.8414
  923MPD2    C213559   2.289   2.318   9.298  0.2505  0.5028 -0.3343
  923MPD2    C313560   2.428   2.290   9.314 -0.2599 -1.0305 -0.1373
  923MPD2    C413561   2.466   2.157   9.305 -0.0629  0.5401  0.4458
  923MPD2    C513562   2.370   2.061   9.298 -0.0979 -0.0949  0.2765
  923MPD2     H13563   2.259   2.422   9.287  0.9407  0.9996  2.3228
  923MPD2    H113564   2.573   2.139   9.307 -0.2551 -0.6951 -0.2796
  923MPD2    H213565   2.172   1.998   9.289  1.4284 -0.8490 -0.0936
  923MPD2    H313566   2.399   1.957   9.287 -1.3982 -0.8223  3.7802
  923MPD2     N13567   2.533   2.384   9.337  0.3718 -0.1299 -0.0386
  923MPD2    H513568   2.623   2.339   9.347  1.6799  2.9185  1.8907
  923MPD2    N113569   2.059   2.236   9.293 -0.5589 -0.1693  0.3924
  923MPD2    H713570   2.005   2.152   9.306  0.5850 -0.5748  2.4617
  924MPD2     C13571   1.770   0.395  16.295 -0.2514  0.5388 -0.0272
  924MPD2    C113572   1.772   0.498  16.204  0.3974 -0.4229  0.5232
  924MPD2    C213573   1.842   0.614  16.227 -0.2679 -0.6311  0.1721
  924MPD2    C313574   1.903   0.630  16.350 -0.5532 -0.6781 -0.6817
  924MPD2    C413575   1.894   0.526  16.441  0.4107  0.0988 -0.4000
  924MPD2    C513576   1.829   0.404  16.416 -0.2924 -0.1283  0.2536
  924MPD2     H13577   1.838   0.689  16.149  0.3198 -0.8935 -0.1130
  924MPD2    H113578   1.940   0.532  16.539  2.5373  1.3432 -1.4707
  924MPD2    H213579   1.730   0.300  16.262  0.3416  0.2859 -0.0127
  924MPD2    H313580   1.846   0.321  16.484 -2.8247 -0.4617  0.4576
  924MPD2     N13581   1.954   0.756  16.398  0.0727  0.1988  0.3593
  924MPD2    H513582   1.992   0.756  16.492 -0.5792  0.5165  0.6230
  924MPD2    N113583   1.696   0.473  16.086  0.4069 -0.1026  0.4030
  924MPD2    H713584   1.675   0.378  16.057  1.0574 -0.3333  0.6824
  925MPD2     C13585   0.864   3.629  14.845  0.8011  0.1517  0.2758
  925MPD2    C113586   0.824   3.498  14.842  0.4421 -0.0826 -0.6524
  925MPD2    C213587   0.763   3.446  14.957 -0.1890  0.4692  0.6155
  925MPD2    C313588   0.726   3.520  15.067  0.1434 -0.0180  0.0165
  925MPD2    C413589   0.764   3.657  15.066 -0.7999  0.6025  0.3388
  925MPD2    C513590   0.835   3.707  14.958  0.0792 -0.3257 -0.9909
  925MPD2     H13591   0.733   3.342  14.962 -1.1524  0.5249 -3.5168
  925MPD2    H113592   0.723   3.719  15.145 -0.4577 -0.3151  1.2436
  925MPD2    H213593   0.895   3.682  14.756 -0.5672  1.3125  0.4907
  925MPD2    H313594   0.867   3.810  14.958  1.4262 -0.7403 -3.2945
  925MPD2     N13595   0.656   3.471  15.179 -0.0483 -0.5423 -0.4565
  925MPD2    H513596   0.646   3.536  15.256  0.1521 -2.3208  1.0709
  925MPD2    N113597   0.855   3.410  14.745 -0.2646 -0.6327 -0.3799
  925MPD2    H713598   0.808   3.320  14.750 -0.5187 -0.5012 -0.4464
  926MPD2     C13599   0.113   1.605  13.261 -0.1971 -0.3326 -0.1762
  926MPD2    C113600   0.027   1.708  13.252 -0.1477  0.6095 -0.2148
  926MPD2    C213601   0.031   1.806  13.156  0.2159  0.0514 -0.1012
  926MPD2    C313602   0.128   1.794  13.061 -0.0298  0.0412 -0.4571
  926MPD2    C413603   0.223   1.691  13.076  0.0338  0.0258 -0.3630
  926MPD2    C513604   0.219   1.599  13.177  0.0940  0.6579 -0.2327
  926MPD2     H13605   4.691   1.884  13.158  0.5522  0.3471  0.5903
  926MPD2    H113606   0.295   1.681  12.996  0.6204 -0.4386  0.2313
  926MPD2    H213607   0.118   1.541  13.349  1.0034  1.2044  0.8856
  926MPD2    H313608   0.302   1.529  13.183 -1.0462 -0.9024 -2.7345
  926MPD2     N13609   0.133   1.872  12.941 -0.1891 -0.3586 -0.0573
  926MPD2    H513610   0.207   1.845  12.878  0.3323  0.0401  0.3886
  926MPD2    N113611   4.657   1.718  13.346 -0.1585  0.3533 -0.0594
  926MPD2    H713612   4.599   1.799  13.331  0.3234 -0.0323 -3.9697
  927MPD2     C13613   3.141   4.158   0.069  0.1642 -0.2189  0.1463
  927MPD2    C113614   3.244   4.086   0.127 -0.4099  0.1270  0.1664
  927MPD2    C213615   3.368   4.097   0.064 -0.1945  0.5138  0.2223
  927MPD2    C313616   3.385   4.165  17.677  0.0784  0.2871 -0.3207
  927MPD2    C413617   3.277   4.237  17.628 -0.1128 -0.4904 -0.1836
  927MPD2    C513618   3.153   4.236  17.692 -0.9199 -0.5508  0.4184
  927MPD2     H13619   3.456   4.041   0.095 -1.0388 -0.7530  0.3300
  927MPD2    H113620   3.284   4.303  17.542  1.1542  1.6059  1.5255
  927MPD2    H213621   3.042   4.155   0.113  0.0316 -0.1992 -0.1528
  927MPD2    H313622   3.064   4.283  17.651  0.4011  1.0121 -0.6429
  927MPD2     N13623   3.518   4.171  17.626  0.1247  0.0707  0.2191
  927MPD2    H513624   3.590   4.107  17.657 -0.3892 -1.3163 -1.5393
  927MPD2    N113625   3.218   4.004   0.236 -0.1832  0.4674 -0.0264
  927MPD2    H713626   3.136   4.029   0.290 -0.0224 -0.8831  0.8334
  928MPD2     C13627   2.153   2.105   1.348  0.0644 -0.0604 -0.3131
  928MPD2    C113628   2.119   2.240   1.330  0.3079 -0.3705 -0.1335
  928MPD2    C213629   2.177   2.305   1.222 -0.3102  0.1060  0.1904
  928MPD2    C313630   2.234   2.230   1.123 -0.2822 -0.0844  0.1378
  928MPD2    C413631   2.246   2.093   1.134 -0.2332 -0.0263 -0.2676
  928MPD2    C513632   2.220   2.035   1.255  0.1632 -0.4611  0.3337
  928MPD2     H13633   2.161   2.412   1.215 -0.0387  0.0802 -0.8143
  928MPD2    H113634   2.298   2.036   1.058 -0.1041  0.7376 -0.7450
  928MPD2    H213635   2.124   2.060   1.443 -3.0567 -0.1907 -1.3416
  928MPD2    H313636   2.267   1.941   1.280 -0.9229 -0.5288  2.1312
  928MPD2     N13637   2.267   2.303   1.005  0.0605  0.2052 -0.6524
  928MPD2    H513638   2.268   2.404   1.011  1.6605  0.1760 -0.3700
  928MPD2    N113639   2.049   2.302   1.432 -0.0332 -0.5807 -0.4248
  928MPD2    H713640   2.036   2.257   1.522 -0.6093 -3.2033 -1.8070
  929MPD2     C13641   2.524   2.650  10.615 -0.6246  0.4866  0.5914
  929MPD2    C113642   2.392   2.625  10.587  0.4100 -0.8374 -0.1681
  929MPD2    C213643   2.349   2.613  10.451 -0.1529  0.7416 -0.1660
  929MPD2    C313644   2.440   2.641  10.349 -0.3032 -0.8730  0.0844
  929MPD2    C413645   2.569   2.676  10.388 -0.2606  0.1376  0.2827
  929MPD2    C513646   2.615   2.667  10.514 -0.3221 -0.2504 -0.0078
  929MPD2     H13647   2.244   2.613  10.424 -0.0713  4.4823 -0.4815
  929MPD2    H113648   2.641   2.720  10.319 -0.6571  0.4681  0.0742
  929MPD2    H213649   2.568   2.660  10.714  2.8381  1.7228 -1.0490
  929MPD2    H313650   2.715   2.698  10.542 -0.7744  2.2140 -1.1179
  929MPD2     N13651   2.416   2.658  10.208 -0.1857  0.6562  1.0427
  929MPD2    H513652   2.496   2.684  10.151 -1.1892  1.4600  0.0255
  929MPD2    N113653   2.304   2.600  10.692  0.4211 -0.1984 -0.3318
  929MPD2    H713654   2.337   2.618  10.787  1.2511 -0.3405 -0.5957
  930MPD2     C13655   4.088   4.381  14.323 -0.7265  0.0058  0.5804
  930MPD2    C113656   4.047   4.495  14.243  0.3675 -0.1718 -0.5032
  930MPD2    C213657   3.933   4.488  14.166  0.2904 -0.1038 -0.0633
  930MPD2    C313658   3.876   4.370  14.136  0.1693 -0.2782  0.0255
  930MPD2    C413659   3.924   4.259  14.201  0.0910  0.2584  0.0330
  930MPD2    C513660   4.017   4.261  14.308  0.2365 -0.2872 -0.5689
  930MPD2     H13661   3.887   4.580  14.130 -0.2000  0.1393  1.1813
  930MPD2    H113662   3.873   4.164  14.194 -1.7123  1.0584  2.1586
  930MPD2    H213663   4.176   4.382  14.386 -0.4599  0.2393  0.2053
  930MPD2    H313664   4.043   4.169  14.360 -1.4324 -0.7553 -0.5566
  930MPD2     N13665   3.771   4.363  14.035  0.4487  0.1137 -0.0601
  930MPD2    H513666   3.721   4.277  14.014 -0.2336  0.5126 -0.0286
  930MPD2    N113667   4.116   4.622  14.259 -0.4376  0.3591  0.3697
  930MPD2    H713668   4.186   4.620  14.332 -1.2230  2.6976  1.1786
  931MPD2     C13669   3.593   3.376   0.546 -0.4903  0.2363  0.3763
  931MPD2    C113670   3.560   3.462   0.644  0.4642  0.0749  0.4170
  931MPD2    C213671   3.640   3.466   0.758 -0.2895 -0.1890  0.5693
  931MPD2    C313672   3.739   3.371   0.771 -0.1198  0.1716 -0.7628
  931MPD2    C413673   3.759   3.274   0.674  0.3103 -0.7765  0.6652
  931MPD2    C513674   3.689   3.283   0.555 -0.2163 -0.2190 -0.0239
  931MPD2     H13675   3.615   3.540   0.834  0.0381  0.4094  0.0895
  931MPD2    H113676   3.822   3.188   0.694  0.3614 -1.5352 -2.7671
  931MPD2    H213677   3.535   3.371   0.454  1.1124  0.4205 -0.6557
  931MPD2    H313678   3.688   3.204   0.481 -0.4439 -2.4952  2.4097
  931MPD2     N13679   3.817   3.363   0.890 -0.0277 -0.5272  0.0963
  931MPD2    H513680   3.869   3.276   0.887 -0.0447 -0.5168 -0.6704
  931MPD2    N113681   3.465   3.558   0.605 -0.1463  0.4336 -0.6561
  931MPD2    H713682   3.432   3.551   0.509 -1.2950  2.5007 -0.4199
  932MPD2     C13683   2.368   2.926  11.073  0.7461 -0.4044 -0.3594
  932MPD2    C113684   2.273   2.921  11.172 -0.6821  0.0111 -1.1452
  932MPD2    C213685   2.304   2.845  11.282 -0.1899  0.4641  0.0896
  932MPD2    C313686   2.421   2.771  11.292 -0.5660 -0.0248 -0.3467
  932MPD2    C413687   2.514   2.775  11.189  0.0360  0.3326  0.3737
  932MPD2    C513688   2.488   2.856  11.080 -0.9242 -0.5402 -0.0270
  932MPD2     H13689   2.239   2.850  11.369 -1.6542 -1.5898 -0.8842
  932MPD2    H113690   2.609   2.723  11.182 -0.0739 -0.0197  1.5094
  932MPD2    H213691   2.356   2.981  10.981  2.2712  1.1889  0.4022
  932MPD2    H313692   2.563   2.877  11.005 -2.3178 -0.0943 -1.2931
  932MPD2     N13693   2.430   2.695  11.410 -0.0241  0.2376  0.0537
  932MPD2    H513694   2.353   2.712  11.474  0.3540 -0.7164  0.7612
  932MPD2    N113695   2.156   2.996  11.174 -0.5571 -0.4693  0.6654
  932MPD2    H713696   2.104   3.003  11.261  0.0521 -1.1681  1.0835
  933MPD2     C13697   1.519   2.891   1.918 -0.2325  0.6753  0.2953
  933MPD2    C113698   1.581   2.902   1.798  0.8315 -0.1005 -0.4173
  933MPD2    C213699   1.527   2.995   1.708  0.0343 -0.7294  0.2846
  933MPD2    C313700   1.427   3.081   1.746  0.1304 -0.7041 -0.2777
  933MPD2    C413701   1.380   3.075   1.878  0.9717  1.1366 -0.7754
  933MPD2    C513702   1.434   2.980   1.960  0.2969 -0.1731  0.4975
  933MPD2     H13703   1.572   2.992   1.610 -2.2547  3.1270 -0.8977
  933MPD2    H113704   1.318   3.150   1.924 -0.7491 -0.5883 -0.2635
  933MPD2    H213705   1.556   2.817   1.988  0.3623  0.5460 -0.1628
  933MPD2    H313706   1.385   2.970   2.056  0.9974  2.4462  1.1216
  933MPD2     N13707   1.386   3.173   1.652  0.0291  0.6554 -0.5134
  933MPD2    H513708   1.429   3.180   1.560  0.8473 -2.0042 -0.3452
  933MPD2    N113709   1.687   2.817   1.771 -0.1866 -0.2207  0.6501
  933MPD2    H713710   1.699   2.754   1.850 -1.5094 -0.4425  0.6725
  934MPD2     C13711   3.193   0.455   1.554 -0.1620 -0.6269 -0.2971
  934MPD2    C113712   3.214   0.384   1.436  0.3119 -0.2561 -0.8991
  934MPD2    C213713   3.122   0.287   1.394  0.1579 -0.0933 -0.3205
  934MPD2    C313714   3.005   0.265   1.467  0.1825  0.3280  0.2092
  934MPD2    C413715   2.999   0.330   1.591  0.0985 -0.1496  0.2889
  934MPD2    C513716   3.087   0.421   1.636  0.1128  0.4322  0.7249
  934MPD2     H13717   3.122   0.245   1.294 -1.8976  1.0401 -0.8016
  934MPD2    H113718   2.912   0.317   1.654 -1.1922 -1.9222 -1.8695
  934MPD2    H213719   3.260   0.532   1.590 -2.4764  1.1904  0.1609
  934MPD2    H313720   3.062   0.467   1.730  0.7243  2.0806  0.0787
  934MPD2     N13721   2.885   0.195   1.423  0.6221  0.1217  0.1959
  934MPD2    H513722   2.805   0.183   1.485 -0.1899 -1.0786 -1.0984
  934MPD2    N113723   3.325   0.409   1.352 -0.0088 -0.0388 -0.2116
  934MPD2    H713724   3.319   0.357   1.265 -3.4222  0.5738 -0.3560
  935MPD2     C13725   2.802   3.988   1.343 -0.4036 -0.2624 -1.1191
  935MPD2    C113726   2.684   4.027   1.291  0.1276 -0.8220 -0.0080
  935MPD2    C213727   2.660   4.164   1.287  0.9522 -0.4979  0.0780
  935MPD2    C313728   2.750   4.258   1.311  0.0237  0.2070 -0.3008
  935MPD2    C413729   2.878   4.221   1.348 -0.7686 -0.4171  0.2021
  935MPD2    C513730   2.899   4.084   1.363 -0.5075  0.4832 -0.0023
  935MPD2     H13731   2.561   4.190   1.251  1.1362 -0.8197 -0.6604
  935MPD2    H113732   2.957   4.291   1.374 -0.9128 -0.4214  0.6542
  935MPD2    H213733   2.845   3.888   1.347  0.4178  0.1590  0.3588
  935MPD2    H313734   2.999   4.051   1.387 -0.6767  0.7983  1.1289
  935MPD2     N13735   2.729   4.397   1.293 -0.3113 -0.4672 -0.3803
  935MPD2    H513736   2.804   4.463   1.312 -1.5195  1.4269 -2.1234
  935MPD2    N113737   2.589   3.944   1.234  0.2615  0.2784  0.6482
  935MPD2    H713738   2.518   3.976   1.168 -0.3505  1.1176  1.7016
  936MPD2     C13739   2.158   1.362  12.714  0.5294  0.2029 -0.1055
  936MPD2    C113740   2.062   1.457  12.722  0.0036  0.1590  0.2297
  936MPD2    C213741   2.023   1.525  12.606  0.6613 -1.0023  0.0021
  936MPD2    C313742   2.065   1.486  12.480  0.3997  0.0582 -0.2803
  936MPD2    C413743   2.162   1.389  12.473 -0.4049 -0.3935  0.1725
  936MPD2    C513744   2.211   1.335  12.588 -0.6572 -0.0376 -0.5168
  936MPD2     H13745   1.959   1.611  12.617 -0.8684 -1.8685 -2.0639
  936MPD2    H113746   2.199   1.359  12.376 -3.2249 -0.7975 -0.7755
  936MPD2    H213747   2.180   1.297  12.798  0.4693 -0.1328 -0.3484
  936MPD2    H313748   2.285   1.256  12.575 -2.8668 -1.5793 -3.7381
  936MPD2     N13749   2.021   1.548  12.362  0.0244 -0.4987  0.3505
  936MPD2    H513750   2.064   1.530  12.272 -0.8903  2.6631 -0.7148
  936MPD2    N113751   1.990   1.503  12.838 -0.0535 -0.5311 -0.8020
  936MPD2    H713752   1.940   1.589  12.823 -0.6024 -0.0468  4.0473
  937MPD2     C13753   0.196   2.644  11.402 -0.1660 -0.5887 -0.2027
  937MPD2    C113754   0.191   2.786  11.405  0.3999 -0.1488 -0.6162
  937MPD2    C213755   0.228   2.846  11.287 -0.3578  0.2083  0.2252
  937MPD2    C313756   0.296   2.786  11.186  0.6363 -0.2891 -0.3218
  937MPD2    C413757   0.314   2.645  11.192  0.3998  0.3426 -0.1166
  937MPD2    C513758   0.270   2.582  11.307 -0.2872 -0.6144 -0.9932
  937MPD2     H13759   0.213   2.954  11.292  2.2466  0.6585 -1.3105
  937MPD2    H113760   0.360   2.586  11.114 -0.3825 -1.1692  0.5661
  937MPD2    H213761   0.158   2.573  11.475 -1.9969  0.7268  0.1246
  937MPD2    H313762   0.287   2.475  11.314  1.9027 -0.2966 -1.3520
  937MPD2     N13763   0.359   2.868  11.093 -0.5898 -0.2049  0.7595
  937MPD2    H513764   0.355   2.964  11.125 -0.4785  0.1391 -0.2630
  937MPD2    N113765   0.111   2.861  11.498 -0.3358 -0.4706  0.6192
  937MPD2    H713766   0.071   2.952  11.477  0.8392 -0.2044 -0.4210
  938MPD2     C13767   1.252   4.468   0.902 -0.3462 -0.1037  0.5937
  938MPD2    C113768   1.385   4.446   0.879  0.1283  0.2735 -0.2117
  938MPD2    C213769   1.446   4.337   0.927 -0.2158 -0.4134  0.2338
  938MPD2    C313770   1.378   4.252   1.008 -0.4246 -0.0565  0.0518
  938MPD2    C413771   1.244   4.276   1.042 -0.1413  0.3992 -0.5921
  938MPD2    C513772   1.178   4.386   0.986  0.6781 -0.1585  0.1315
  938MPD2     H13773   1.552   4.323   0.910 -0.0278  2.3933 -0.8280
  938MPD2    H113774   1.189   4.206   1.103  1.9950 -0.8136 -0.0696
  938MPD2    H213775   1.212   4.563   0.868 -1.9440 -1.1689 -0.5286
  938MPD2    H313776   1.075   4.400   1.014  0.3310 -1.0892 -0.6829
  938MPD2     N13777   1.434   4.143   1.075 -0.3581  0.5381  0.3203
  938MPD2    H513778   1.374   4.086   1.133  0.5367 -1.7799 -1.0325
  938MPD2    N113779   1.470   4.535   0.806 -0.1216 -0.2148  0.2323
  938MPD2    H713780   1.571   4.529   0.816 -0.0650  0.4295  0.0566
  939MPD2     C13781   2.877   1.485   0.860 -0.4194  0.1847  0.7424
  939MPD2    C113782   2.968   1.401   0.798 -0.5794 -0.0388  0.1238
  939MPD2    C213783   2.925   1.331   0.685 -0.3803  0.7768  0.8688
  939MPD2    C313784   2.796   1.342   0.635  0.2797  0.6499  0.3684
  939MPD2    C413785   2.705   1.432   0.703 -0.1827  0.3999 -0.1915
  939MPD2    C513786   2.746   1.495   0.814  0.9060 -0.3110  0.1394
  939MPD2     H13787   2.990   1.258   0.639 -0.8501  0.5769  0.5131
  939MPD2    H113788   2.610   1.457   0.657 -2.2639 -2.7007  2.3662
  939MPD2    H213789   2.898   1.546   0.947  0.0649 -0.1576  0.8662
  939MPD2    H313790   2.671   1.561   0.856 -2.0564 -2.5411 -1.6134
  939MPD2     N13791   2.752   1.276   0.513 -0.1012 -0.0587  0.1869
  939MPD2    H513792   2.810   1.224   0.448  0.6704  1.1131 -0.0577
  939MPD2    N113793   3.103   1.419   0.835  0.0321 -0.3558 -0.6004
  939MPD2    H713794   3.118   1.480   0.915 -2.2849  0.3916 -0.7360
  940MPD2     C13795   2.709   1.501  12.902  0.6227 -0.3175  0.2462
  940MPD2    C113796   2.603   1.442  12.962  0.4475 -0.0993  0.0293
  940MPD2    C213797   2.548   1.321  12.917  0.1015 -0.0774 -0.2372
  940MPD2    C313798   2.599   1.260  12.795 -0.2461 -0.6771  0.0349
  940MPD2    C413799   2.698   1.325  12.734  0.3965 -0.1954  0.4452
  940MPD2    C513800   2.753   1.447  12.779 -0.2587 -0.5199  0.4289
  940MPD2     H13801   2.463   1.275  12.968 -0.4862 -0.1778 -1.3179
  940MPD2    H113802   2.727   1.286  12.637  1.3703  1.7401 -0.0314
  940MPD2    H213803   2.728   1.607  12.907 -0.1828 -0.0539 -2.1467
  940MPD2    H313804   2.838   1.495  12.731 -1.8528  0.1103 -1.7379
  940MPD2     N13805   2.544   1.148  12.725 -0.0209  0.5282 -0.7673
  940MPD2    H513806   2.593   1.112  12.644  0.0937  0.2626 -0.5796
  940MPD2    N113807   2.536   1.510  13.069 -0.4201 -0.2621 -0.2557
  940MPD2    H713808   2.445   1.472  13.095  0.5780 -3.2214 -1.1286
  941MPD2     C13809   2.036   0.830  10.381 -0.0843  0.0830 -0.3408
  941MPD2    C113810   1.947   0.924  10.426  0.8891  0.0588 -0.3128
  941MPD2    C213811   1.848   0.890  10.516  0.0922 -0.1672 -0.6929
  941MPD2    C313812   1.827   0.755  10.549 -0.0125 -0.2415  0.0122
  941MPD2    C413813   1.918   0.666  10.501 -0.4452 -0.3437 -0.3428
  941MPD2    C513814   2.023   0.700  10.425  0.7934 -0.7116 -0.8563
  941MPD2     H13815   1.783   0.968  10.553 -0.0988  0.1729 -1.7458
  941MPD2    H113816   1.891   0.561  10.511  1.0608 -0.7676 -0.7245
  941MPD2    H213817   2.115   0.850  10.310 -0.0794  1.0026 -0.0718
  941MPD2    H313818   2.095   0.624  10.399  0.3134 -0.7464 -2.0937
  941MPD2     N13819   1.719   0.697  10.624  0.1283  0.1461 -0.0313
  941MPD2    H513820   1.734   0.598  10.642  2.5792  0.6392  0.5849
  941MPD2    N113821   1.957   1.068  10.402 -0.2315  0.3644 -0.0965
  941MPD2    H713822   1.905   1.141  10.450  0.3216  1.3102 -0.9437
  942MPD2     C13823   2.918   1.143  10.033  0.2838 -0.2458 -0.2165
  942MPD2    C113824   3.033   1.065  10.037 -0.2028  0.6891  0.1691
  942MPD2    C213825   3.121   1.077   9.940 -0.7601 -0.7879 -0.7360
  942MPD2    C313826   3.104   1.167   9.837 -0.1476 -0.1492 -0.1767
  942MPD2    C413827   2.992   1.251   9.831 -0.5806  0.2180 -0.6682
  942MPD2    C513828   2.898   1.233   9.926  0.1685 -0.5047  0.6037
  942MPD2     H13829   3.205   1.009   9.935  0.8569  1.1976 -0.3850
  942MPD2    H113830   2.976   1.326   9.754  1.0207 -0.5666 -1.7527
  942MPD2    H213831   2.838   1.137  10.107  0.4866  0.4315  0.0586
  942MPD2    H313832   2.806   1.289   9.932 -0.6354 -2.0847  3.1578
  942MPD2     N13833   3.189   1.182   9.721 -0.2268 -0.4636 -0.1799
  942MPD2    H513834   3.170   1.264   9.664 -4.1297 -1.0804  0.2350
  942MPD2    N113835   3.060   0.976  10.143 -0.1322 -0.2538 -0.5625
  942MPD2    H713836   3.148   0.926  10.132  1.2778  1.7358  1.7043
  943MPD2     C13837   0.632   0.293  10.060  0.6249 -0.0371 -0.6045
  943MPD2    C113838   0.705   0.332  10.165  0.3182  0.0179 -0.1678
  943MPD2    C213839   0.756   0.455  10.158 -0.0256 -0.6671 -0.4861
  943MPD2    C313840   0.719   0.542  10.060 -0.3105 -0.2770 -0.4150
  943MPD2    C413841   0.634   0.514   9.961  0.0065  0.3353 -0.0692
  943MPD2    C513842   0.595   0.382   9.959  1.0271  0.3001 -0.2350
  943MPD2     H13843   0.833   0.487  10.227 -0.1318  0.3736 -0.8557
  943MPD2    H113844   0.594   0.578   9.883  1.3812 -0.2071 -1.2148
  943MPD2    H213845   0.581   0.197  10.057  2.6548 -1.1259 -0.3086
  943MPD2    H313846   0.524   0.342   9.888  0.1621  0.0495  0.7774
  943MPD2     N13847   0.768   0.678  10.056  0.2976  0.1292 -0.5110
  943MPD2    H513848   0.742   0.734   9.975  1.2886  0.9699 -0.2484
  943MPD2    N113849   0.731   0.243  10.273 -0.0952  0.4508 -0.0696
  943MPD2    H713850   0.691   0.150  10.271 -0.9112  0.7621  1.4998
  944MPD2     C13851   0.255   4.243  11.436 -0.3601  0.6445  0.2861
  944MPD2    C113852   0.338   4.350  11.418  0.2594 -0.3711 -0.1396
  944MPD2    C213853   0.289   4.477  11.452  0.4084  0.2568 -0.0823
  944MPD2    C313854   0.162   4.487  11.501 -0.5753 -0.2770 -0.7564
  944MPD2    C413855   0.087   4.378  11.524  0.3595  0.2121 -0.3864
  944MPD2    C513856   0.141   4.255  11.500 -0.2503 -0.0117  0.8930
  944MPD2     H13857   0.351   4.561  11.423  1.0348 -0.8690 -1.9948
  944MPD2    H113858   4.718   4.384  11.557  0.7478  0.3059  0.7938
  944MPD2    H213859   0.288   4.144  11.409 -0.8747  0.6101 -0.2187
  944MPD2    H313860   0.087   4.165  11.525  1.5312 -1.6300 -1.1563
  944MPD2     N13861   0.122   4.622  11.537 -0.0274  0.1127  0.3783
  944MPD2    H513862   0.187   4.697  11.517  0.6185 -0.4591  0.3632
  944MPD2    N113863   0.465   4.334  11.366 -0.0674 -0.2821  0.4667
  944MPD2    H713864   0.486   4.249  11.315  2.7880  1.3116 -1.0170
    1TMC1    C113865   2.249   1.295  13.728 -0.3505 -0.1034  0.2837
    1TMC1    C213866   2.307   1.170  13.749  0.5872  0.2225 -0.9146
    1TMC1    C313867   2.264   1.071  13.666 -0.2038 -0.2556 -0.5351
    1TMC1    C413868   2.176   1.321  13.614 -0.2640  0.1494  0.6446
    1TMC1    C513869   2.132   1.214  13.545  0.6153  0.2692  0.1218
    1TMC1    C613870   2.175   1.085  13.564  0.0017 -0.4964  0.1230
    1TMC1     C13871   2.302   1.409  13.799 -0.5519 -0.1505 -0.3209
    1TMC1     O13872   2.230   1.512  13.799 -0.2697  0.3229 -0.6626
    1TMC1     H13873   2.371   1.150  13.835  0.1824 -0.1073 -0.6876
    1TMC1    H113874   2.132   1.420  13.604 -0.1622  0.1848  0.5502
    1TMC1    H213875   2.161   1.017  13.482  0.7392 -1.2235  0.6025
    1TMC1    C713876   2.073   1.237  13.417  0.1646 -0.0211 -0.3638
    1TMC1    C813877   2.288   0.934  13.704 -0.5681  0.6936 -0.3174
    1TMC1    O113878   2.083   1.352  13.368  0.4054  0.4972  0.5435
    1TMC1    O213879   2.402   0.890  13.731 -0.7215  0.4451  0.6199
    1TMC1    O313880   1.985   1.136  13.391 -0.4191  0.0526 -0.5397
    1TMC1    H313881   1.977   1.078  13.470 -0.0732  0.7897  0.0357
    1TMC1    O513882   2.191   0.860  13.648 -0.4374 -0.3459  0.1185
    1TMC1    H513883   2.108   0.910  13.637 -0.0812  0.2007 -0.0949
    2MPD2     C13884   2.709   1.727  13.907  0.0390 -0.3627 -0.2166
    2MPD2    C113885   2.746   1.597  13.869  0.4403 -0.2939 -0.2678
    2MPD2    C213886   2.655   1.499  13.849 -0.0943  0.1290  0.4038
    2MPD2    C313887   2.522   1.515  13.848 -0.3384  0.2076  0.1440
    2MPD2    C413888   2.481   1.641  13.876  0.3767 -0.6423  0.4823
    2MPD2    C513889   2.570   1.750  13.898 -0.1017 -0.7369 -0.6252
    2MPD2     H13890   2.690   1.399  13.827 -3.1636 -0.8364 -0.0234
    2MPD2    H113891   2.376   1.664  13.890  0.7729  0.7607  1.1612
    2MPD2    H213892   2.771   1.816  13.913  0.9441 -0.8988 -1.6763
    2MPD2    H313893   2.524   1.847  13.912  0.6294 -0.5314  0.3747
    2MPD2     N13894   2.441   1.403  13.822 -0.2298  0.2780 -0.2284
    2MPD2    H513895   2.493   1.318  13.804  2.8499  2.2192 -0.4527
    2MPD2    N113896   2.885   1.575  13.858  0.2804  0.3712  0.0183
    2MPD2    H713897   2.950   1.646  13.889  1.3551 -0.4607 -0.3082
    3TMC2    C113898   3.097   1.455  13.807 -0.0533 -0.4030 -0.1572
    3TMC2    C213899   3.161   1.361  13.730  0.6940 -0.1351  0.0931
    3TMC2    C313900   3.305   1.351  13.738 -0.2443 -0.2407  0.3953
    3TMC2    C413901   3.164   1.536  13.894  0.3219 -0.0131 -0.1262
    3TMC2    C513902   3.300   1.515  13.902 -0.0870  0.0269 -0.2201
    3TMC2    C613903   3.368   1.415  13.841  0.1477 -0.0737 -0.2146
    3TMC2     C13904   2.951   1.472  13.781  0.3441  0.4426 -0.4361
    3TMC2     O13905   2.904   1.394  13.698 -0.0714 -0.3274  0.1692
    3TMC2     H13906   3.109   1.303  13.654 -0.1322  0.6177  0.0764
    3TMC2    H113907   3.111   1.607  13.957 -0.7153  0.5650 -1.6392
    3TMC2    H213908   3.475   1.403  13.852  0.2451 -0.0628 -1.2220
    3TMC2    C713909   3.379   1.636  13.927  0.0323 -0.4321  0.0470
    3TMC2    C813910   3.363   1.219  13.702 -0.2510  0.4767  0.8617
    3TMC2    O113911   3.502   1.617  13.930  0.1408  0.3040  0.7307
    3TMC2    O213912   3.291   1.127  13.663  0.3382 -0.2143  0.0238
    3TMC2    O513913   3.495   1.235  13.668  0.4778  0.1649  0.3312
    3TMC2    H513914   3.528   1.327  13.665 -0.6633  0.5263 -1.0298
    4TMC2    C113915   2.921   2.427  13.472 -0.3627  0.1081 -0.1064
    4TMC2    C213916   3.001   2.518  13.421  0.3079  0.0443 -0.0812
    4TMC2    C313917   3.133   2.495  13.444 -0.2458  0.0097 -0.6175
    4TMC2    C413918   2.964   2.307  13.524  0.1038 -0.1312  0.0233
    4TMC2    C513919   3.102   2.295  13.548  0.1701  0.3717 -0.4076
    4TMC2    C613920   3.186   2.378  13.502  0.8091 -0.2736 -0.2845
    4TMC2     C13921   2.780   2.459  13.477  0.4847 -0.0362  0.0179
    4TMC2     O13922   2.754   2.574  13.514 -0.0273 -0.0123 -1.0992
    4TMC2     H13923   2.968   2.617  13.395  0.4949  0.2216  0.3555
    4TMC2    H113924   2.894   2.233  13.561  0.5723 -1.0125 -0.8602
    4TMC2    H213925   3.293   2.365  13.503  0.9357  0.8078  0.0482
    4TMC2    C713926   3.144   2.175  13.622 -0.2935  0.1895  0.1981
    4TMC2    C813927   3.223   2.599  13.392 -0.1250  0.3621 -0.6952
    4TMC2    O113928   3.078   2.074  13.597  0.0725 -0.3868 -0.2784
    4TMC2    O213929   3.187   2.711  13.356  0.4293  0.3682  0.5486
    4TMC2    O513930   3.331   2.532  13.340  0.1156  0.1936 -0.5358
    4TMC2    H513931   3.326   2.434  13.336 -1.4210  0.2330  0.3316
    5MPD2     C13932   2.284   2.343  13.549  0.0566 -0.7238  0.2064
    5MPD2    C113933   2.329   2.273  13.444  0.7533  0.0161  0.3271
    5MPD2    C213934   2.468   2.270  13.423 -0.0259 -0.1440 -0.0262
    5MPD2    C313935   2.553   2.353  13.489  0.1683 -0.3079  0.1511
    5MPD2    C413936   2.505   2.442  13.580  1.1541  0.6167  0.1054
    5MPD2    C513937   2.376   2.419  13.621 -0.2476  0.0557  0.4698
    5MPD2     H13938   2.509   2.198  13.353  0.0165  0.1007 -0.2553
    5MPD2    H113939   2.567   2.509  13.638  0.2997  1.5155 -0.0242
    5MPD2    H213940   2.178   2.339  13.574 -0.0835 -0.2965 -0.3259
    5MPD2    H313941   2.333   2.470  13.707 -1.2938 -0.1315  0.0574
    5MPD2     N13942   2.692   2.349  13.454  0.3253  0.3633 -0.0199
    5MPD2    H513943   2.729   2.266  13.409  1.5132  0.6934  0.3363
    5MPD2    N113944   2.239   2.191  13.384 -0.0444 -0.3206  0.4661
    5MPD2    H713945   2.144   2.210  13.415 -1.4304  0.1639 -4.0725
    6MPD1     C13946   0.882   3.277  13.023  0.6328 -0.0819  0.1486
    6MPD1    C113947   0.928   3.221  12.903  0.3541 -0.3008 -0.1456
    6MPD1    C213948   1.046   3.151  12.912 -0.4462  0.2144 -0.3572
    6MPD1    C313949   1.119   3.133  13.029 -0.1047  0.4158  0.0946
    6MPD1    C413950   1.068   3.192  13.142  0.1913  0.0730  0.4189
    6MPD1    C513951   0.953   3.263  13.139 -0.2792  0.2735  0.3873
    6MPD1     H13952   1.086   3.116  12.818 -1.6385 -2.5742  0.1865
    6MPD1    H113953   1.120   3.184  13.237 -0.5609  2.4618  1.0341
    6MPD1    H213954   0.786   3.325  13.039  0.1107 -1.3359  0.7618
    6MPD1    H313955   0.920   3.314  13.228  2.1559 -0.5837  1.7837
    6MPD1     N13956   1.245   3.068  13.033 -0.3644 -0.0715  0.3566
    6MPD1    H513957   1.290   3.079  13.124  0.6157  0.9511 -0.2490
    6MPD1    N113958   0.870   3.252  12.779  0.6985  0.1367  0.2671
    6MPD1    H613959   0.898   3.180  12.713  0.9906 -0.1683  0.7204
    6MPD1    H713960   0.768   3.255  12.787  0.3510 -1.0822 -3.4997
    7MPD2     C13961   1.711   2.631  13.451 -0.0407 -0.0939  0.1750
    7MPD2    C113962   1.712   2.593  13.319 -0.1966  0.4257  0.3986
    7MPD2    C213963   1.754   2.462  13.285 -0.6320 -0.0217  0.0831
    7MPD2    C313964   1.786   2.362  13.371 -0.0667  0.2044 -0.2787
    7MPD2    C413965   1.767   2.397  13.502 -0.6020  0.0548 -0.0345
    7MPD2    C513966   1.744   2.527  13.543 -0.7071  0.1119 -0.2874
    7MPD2     H13967   1.765   2.442  13.179 -0.1501  0.5416  0.0234
    7MPD2    H113968   1.786   2.324  13.579  1.5839  0.2183 -0.3942
    7MPD2    H213969   1.691   2.733  13.484 -0.0773 -0.4739  1.3378
    7MPD2    H313970   1.744   2.563  13.645 -1.0079 -3.1605  0.8642
    7MPD2     N13971   1.840   2.238  13.325  0.3005 -0.4618 -0.2378
    7MPD2    H513972   1.875   2.176  13.397 -0.2897  0.0669  0.5123
    7MPD2    N113973   1.698   2.689  13.213  0.0444 -0.2237 -0.0718
    7MPD2    H713974   1.708   2.660  13.116 -1.4049 -1.6152  0.1955
    8TMC3    C113975   1.915   2.069  13.178  0.1771 -0.0018 -0.0049
    8TMC3    C213976   2.028   2.062  13.244  0.0789  0.2019 -0.2555
    8TMC3    C313977   2.150   2.092  13.182  0.8751  0.1709  0.2444
    8TMC3    C413978   1.923   2.048  13.039  0.2926  0.9537 -0.1140
    8TMC3    C513979   2.044   2.073  12.974 -0.2840 -0.2164  0.2911
    8TMC3    C613980   2.156   2.109  13.043 -0.1014  0.1620 -0.7296
    8TMC3     C13981   1.841   2.190  13.200  0.0388 -0.3012 -0.0580
    8TMC3     O13982   1.793   2.240  13.100  0.6919 -0.5925  0.2542
    8TMC3     H13983   2.025   2.050  13.351 -0.1048  1.4799 -0.1146
    8TMC3    H113984   1.831   2.038  12.982 -0.3768 -0.2264  1.1852
    8TMC3    H213985   2.247   2.144  12.995 -0.5828  3.7175  0.9710
    8TMC3    C713986   2.034   2.128  12.839  0.1707  0.5587  0.6573
    8TMC3    C813987   2.266   2.132  13.263  0.6709 -0.3433 -0.6647
    8TMC3    O113988   2.126   2.114  12.763  0.8475 -0.1113  0.6685
    8TMC3    O213989   2.366   2.128  13.194 -0.7487 -0.1091 -0.4946
    9TMC3    C113990   1.437   2.948  12.942  0.7997  0.2527  0.3459
    9TMC3    C213991   1.508   2.901  12.831 -0.0910 -0.5460  0.5678
    9TMC3    C313992   1.621   2.832  12.856 -0.0139 -0.1642 -0.2519
    9TMC3    C413993   1.473   2.911  13.069  0.6691  0.2981 -0.4246
    9TMC3    C513994   1.592   2.849  13.083 -0.3056 -0.3018  0.1709
    9TMC3    C613995   1.668   2.805  12.978 -0.0871  0.1470  0.3658
    9TMC3     C13996   1.309   3.014  12.924 -0.2269  0.2365  0.1274
    9TMC3     O13997   1.273   3.014  12.806  0.8884 -0.1188 -0.0896
    9TMC3     H13998   1.469   2.902  12.730  0.8192 -2.5193  0.1955
    9TMC3    H113999   1.426   2.957  13.156  2.9561  2.8353 -0.5028
    9TMC3    H214000   1.766   2.761  12.991 -0.7502 -0.9497  1.6190
    9TMC3    C714001   1.620   2.806  13.218 -0.6467 -0.3128  0.1024
    9TMC3    C814002   1.657   2.744  12.745  0.1707  0.3047 -0.3240
    9TMC3    O114003   1.573   2.867  13.316 -0.3673 -0.2528 -0.1655
    9TMC3    O214004   1.640   2.779  12.628 -0.2888  0.8284  0.0425
   10MPD2     C14005   1.911   2.320  12.620  0.1797  0.5558 -0.0144
   10MPD2    C114006   1.881   2.314  12.751  0.1531 -0.3783 -0.3768
   10MPD2    C214007   1.797   2.410  12.801 -0.0297 -0.4850  0.3656
   10MPD2    C314008   1.769   2.523  12.733  0.7330 -0.1686 -0.6448
   10MPD2    C414009   1.813   2.536  12.604  0.2820  0.4556 -0.6815
   10MPD2    C514010   1.878   2.430  12.539  0.0314 -0.4540 -0.4942
   10MPD2     H14011   1.765   2.405  12.905  0.5692 -0.2651  0.5616
   10MPD2    H114012   1.794   2.628  12.549  0.0544 -0.6778 -2.5228
   10MPD2    H214013   1.986   2.256  12.573 -0.6440 -0.3117 -0.1416
   10MPD2    H314014   1.920   2.425  12.439  0.7061 -0.7804 -0.1944
   10MPD2     N14015   1.713   2.632  12.800 -0.4846  0.7565  1.4020
   10MPD2    H514016   1.692   2.614  12.897 -1.4225  1.4137  1.3152
   10MPD2    N114017   1.927   2.215  12.844 -0.4310 -0.0667 -0.3862
   10MPD2    H714018   1.887   2.229  12.936  0.6812  0.5854 -0.0086
   11MPD2     C14019   3.482   1.915  13.901  0.8501 -0.0254  0.2916
   11MPD2    C114020   3.361   1.873  13.853  0.9713 -0.6285 -0.0396
   11MPD2    C214021   3.280   1.964  13.783  0.4684  0.0660  0.6468
   11MPD2    C314022   3.330   2.088  13.750 -0.4127  0.3319 -0.1497
   11MPD2    C414023   3.459   2.122  13.787 -0.1036  0.1652 -0.2466
   11MPD2    C514024   3.533   2.034  13.858  0.6829  0.1434  0.3351
   11MPD2     H14025   3.182   1.931  13.752  0.2232  1.1581  0.2426
   11MPD2    H114026   3.495   2.223  13.770 -1.3097  0.3735 -1.5187
   11MPD2    H214027   3.543   1.850  13.963  1.6941  1.6836  1.2391
   11MPD2    H314028   3.631   2.052  13.901  0.1659 -0.6965  1.8713
   11MPD2     N14029   3.264   2.187  13.685  0.3914  0.1839 -0.8674
   11MPD2    H514030   3.306   2.279  13.683  1.9362 -0.4577  2.4786
   11MPD2    N114031   3.308   1.748  13.885  0.2379  0.7000 -0.2387
   11MPD2    H714032   3.210   1.733  13.860  1.3430 -1.3128 -3.4968
    1MPD1     C14033   4.640   2.551  17.468 -0.2132 -0.0533 -0.2725
    1MPD1    C114034   4.670   2.644  17.567 -0.2913 -0.5854  0.0398
    1MPD1    C214035   4.720   2.762  17.530 -0.9893  0.2530  0.3483
    1MPD1    C314036   0.036   2.791  17.396 -0.6922  0.7759 -0.8228
    1MPD1    C414037   0.007   2.691  17.309  0.1589  0.1670 -0.0169
    1MPD1    C514038   4.681   2.580  17.343 -0.7921 -0.0530  0.0384
    1MPD1     H14039   4.727   2.837  17.608 -0.9468  1.1159 -0.4750
    1MPD1    H114040   0.046   2.695  17.208  0.8733 -0.6705  0.2259
    1MPD1    H214041   4.581   2.461  17.482  1.4455 -0.9095  1.1434
    1MPD1    H314042   4.663   2.509  17.264 -1.0106  0.0111  0.0318
    1MPD1     N14043   0.100   2.912  17.348 -0.3895 -0.3148 -0.2041
    1MPD1    H514044   0.129   2.915  17.251  0.9383  3.3780  0.2859
    1MPD1    N114045   4.611   2.623  17.693  0.3578  0.7952  0.0672
    1MPD1    H614046   4.656   2.674   0.033  1.6469 -0.7253  0.3142
    1MPD1    H714047   4.623   2.523  17.709 -2.4911  0.7271  1.6986
    2MPD1     C14048   0.816   3.576  17.673  0.1950 -0.3244  0.9970
    2MPD1    C114049   0.857   3.447  17.645 -0.1718  0.4876  0.1588
    2MPD1    C214050   0.759   3.369  17.591 -0.0132  0.2427  0.0087
    2MPD1    C314051   0.629   3.417  17.577 -0.3602  0.9460 -0.5838
    2MPD1    C414052   0.591   3.538  17.622 -0.6525 -0.5422  0.1691
    2MPD1    C514053   0.685   3.620  17.670  0.3417  0.0893  0.7978
    2MPD1     H14054   0.777   3.275  17.541  0.4803  0.5759 -0.4503
    2MPD1    H114055   0.490   3.578  17.617  0.8158  3.4242  1.9599
    2MPD1    H214056   0.888   3.648  17.710  0.5027 -0.7044  1.1430
    2MPD1    H314057   0.660   3.724  17.688  0.9074  0.3915 -0.1725
    2MPD1     N14058   0.554   3.339  17.492  0.2074 -0.0654  0.1400
    2MPD1    H514059   0.594   3.249  17.468 -0.5755 -0.2431 -0.4831
    2MPD1    N114060   0.991   3.417  17.626 -0.2139  0.0873 -0.1472
    2MPD1    H614061   1.024   3.323  17.644  0.0601 -0.1140 -1.7758
    2MPD1    H714062   1.054   3.482  17.673 -1.0028 -0.4207  1.6207
    3TMC3    C114063   0.387   3.280  17.339  0.6219 -0.3661 -0.2883
    3TMC3    C214064   0.345   3.319  17.219 -0.9725  0.2724 -0.3827
    3TMC3    C314065   0.246   3.246  17.163  0.3487  0.0010  0.9223
    3TMC3    C414066   0.326   3.177  17.414  0.0282  0.2578 -0.8713
    3TMC3    C514067   0.226   3.104  17.350 -0.3239  0.3087  0.5278
    3TMC3    C614068   0.191   3.133  17.223 -0.2286  0.9357 -0.1253
    3TMC3     C14069   0.443   3.380  17.422  0.4482 -0.1236 -0.5329
    3TMC3     O14070   0.412   3.495  17.404  0.0854 -0.6306  0.2615
    3TMC3     H14071   0.382   3.404  17.163 -0.8409  1.3319  1.3169
    3TMC3    H114072   0.352   3.159  17.517 -2.2300  0.8555 -0.2011
    3TMC3    H214073   0.103   3.092  17.175  0.1806  0.7313 -0.7014
    3TMC3    C714074   0.149   3.010  17.428  0.7170 -0.1795  0.3180
    3TMC3    C814075   0.188   3.297  17.047  0.1376  0.5347 -0.4116
    3TMC3    O114076   0.148   3.019  17.550  0.2316  0.2546 -0.7271
    3TMC3    O214077   0.072   3.267  17.021  0.0687 -0.0284  0.4175
    4MPD1     C14078   0.205   3.544  16.600  0.6827 -0.2821 -0.1221
    4MPD1    C114079   0.334   3.498  16.627  0.0923 -0.8004  0.6801
    4MPD1    C214080   0.362   3.446  16.753  0.9294  0.7926  0.0707
    4MPD1    C314081   0.256   3.431  16.841  0.5476 -0.0109 -0.7873
    4MPD1    C414082   0.130   3.467  16.809 -0.0594 -0.8839 -0.0619
    4MPD1    C514083   0.105   3.525  16.686  0.7163  0.3888  0.3469
    4MPD1     H14084   0.464   3.419  16.778  1.6651  1.8498 -1.8279
    4MPD1    H114085   0.051   3.425  16.872  1.8169 -0.4017  2.6040
    4MPD1    H214086   0.175   3.590  16.506 -0.2388  0.4283  0.5167
    4MPD1    H314087   0.003   3.547  16.656  1.8205  4.7218 -0.2587
    4MPD1     N14088   0.283   3.355  16.962  0.1598  0.3382  0.0192
    4MPD1    H514089   0.381   3.345  16.987  0.1809 -0.3497 -0.3229
    4MPD1    N114090   0.435   3.517  16.536  0.2350 -0.2787 -0.1417
    4MPD1    H614091   0.399   3.534  16.442 -2.1656  1.4897  1.0920
    4MPD1    H714092   0.498   3.438  16.528  2.2731  1.4999 -1.6748
    1TCq1    O114093   2.107   3.037  11.743  0.4886  0.7032 -0.3559
    1TCq1    C114094   2.241   3.053  11.764  0.1934 -0.5173  0.1881
    1TCq1    O214095   2.320   3.020  11.679 -0.4097 -0.1340 -0.2687
    1TCq1    C214096   2.275   3.020  11.898  0.0742 -0.5240  0.9873
    1TCq1    C314097   2.220   3.092  11.998  0.1806 -0.1092  0.1289
    1TCq1    C414098   2.240   3.044  12.126 -0.6289 -0.0204  0.1434
    1TCq1    C514099   2.331   2.942  12.159 -0.9761 -0.5503  0.4961
    1TCq1    C614100   2.389   2.878  12.054  0.4512 -0.1371 -0.2630
    1TCq1    C714101   2.364   2.912  11.923 -0.1989 -0.6014 -0.1675
    1TCq1    C814102   2.517   2.814  12.077  0.3496 -0.0753 -0.1398
    1TCq1    O414103   2.570   2.752  11.984  0.2722 -0.3178  0.2478
    1TCq1    C914104   2.195   3.134  12.238 -0.9346 -0.3031 -0.8118
    1TCq1    O514105   2.234   3.101  12.355 -0.3380 -0.0224  0.3142
    1TCq1    O614106   2.127   3.235  12.212 -0.0052 -0.7204  0.1761
    1TCq1    H114107   2.062   3.057  11.828 -2.9882 -0.0637 -2.0107
    1TCq1    H214108   2.152   3.175  11.982 -2.2796 -1.8461  1.7825
    1TCq1    H314109   2.342   2.924  12.266 -0.2484  0.6544  0.6205
    1TCq1    H414110   2.419   2.865  11.842 -0.2331  0.7511 -0.9904
    2MPD1     C14111   2.967   2.777  12.325  0.2944 -0.5039 -0.3340
    2MPD1    C114112   2.878   2.827  12.417 -0.6905 -0.0086 -0.0972
    2MPD1    C214113   2.748   2.846  12.373  0.0391 -0.2275  0.0241
    2MPD1    C314114   2.695   2.796  12.253 -0.0997 -0.0768 -0.3863
    2MPD1    C414115   2.782   2.730  12.169 -0.0837 -0.7248  0.2776
    2MPD1    C514116   2.916   2.720  12.210  0.2680  0.0215 -0.2315
    2MPD1     H14117   2.683   2.900  12.440 -2.1152  0.2198 -2.3988
    2MPD1    H114118   2.750   2.669  12.086 -0.7340 -0.8522  0.6229
    2MPD1    H214119   3.069   2.758  12.355 -0.2133  0.4891  1.9609
    2MPD1    H314120   2.980   2.655  12.152  0.6497  1.9496 -1.9659
    2MPD1     N14121   2.565   2.833  12.211  0.1324  0.2072  0.4468
    2MPD1    H514122   2.509   2.890  12.275 -0.5590  0.8519 -0.7212
    2MPD1    N114123   2.926   2.899  12.527 -0.0154 -0.0058 -0.2970
    2MPD1    H614124   2.869   2.904  12.611 -1.7722  0.7374 -1.5259
    2MPD1    H714125   3.015   2.861  12.557 -0.0557  1.5575  1.7976
    1TMC1    C114126   3.057   3.105  16.402 -0.2704  0.2286  0.3528
    1TMC1    C214127   2.941   3.153  16.346 -0.4017  0.7583 -0.2425
    1TMC1    C314128   2.817   3.099  16.380 -0.4077  0.5968  1.1817
    1TMC1    C414129   3.047   3.000  16.488 -0.5694 -1.1776  0.2404
    1TMC1    C514130   2.930   2.939  16.500  0.1338 -0.8312  0.6707
    1TMC1    C614131   2.811   2.988  16.459  0.8576 -1.1346  0.9390
    1TMC1     C14132   3.181   3.182  16.412 -0.4131  0.1110  0.4938
    1TMC1     O14133   3.270   3.129  16.474  0.3880  0.3295 -0.7935
    1TMC1     H14134   2.945   3.239  16.280 -2.4490  1.0564  0.0053
    1TMC1    H114135   3.138   2.951  16.520  0.0561 -0.2563 -0.1571
    1TMC1    H214136   2.718   2.935  16.474  0.0346 -0.0952 -0.4377
    1TMC1    C714137   2.940   2.810  16.545 -0.4911  0.1282  0.0258
    1TMC1    C814138   2.704   3.163  16.316 -0.2153  0.0093  0.5370
    1TMC1    O114139   3.022   2.765  16.620 -0.1001  0.7092 -0.1434
    1TMC1    O214140   2.709   3.183  16.194  0.2526 -0.0598 -0.4405
    1TMC1    O314141   2.864   2.742  16.457  0.4611 -0.2857 -0.4437
    1TMC1    H314142   2.806   2.795  16.399  1.0036 -1.1956 -1.8286
    1TMC1    O514143   2.599   3.139  16.396  0.0626 -0.2443  0.3505
    1TMC1    H514144   2.627   3.137  16.490 -0.2725 -2.2599  0.4068
    2MPD1     C14145   3.488   3.583  16.310  0.2236 -0.4940 -0.0787
    2MPD1    C114146   3.373   3.596  16.235  0.0607  0.1980  0.6503
    2MPD1    C214147   3.272   3.498  16.252 -0.3021 -0.0895  0.6539
    2MPD1    C314148   3.293   3.390  16.330 -0.1787 -0.4407 -0.0435
    2MPD1    C414149   3.420   3.362  16.381  0.6109  0.5081 -0.3518
    2MPD1    C514150   3.513   3.467  16.381 -0.0797  0.1059  0.4693
    2MPD1     H14151   3.181   3.497  16.193  0.1755 -1.4808 -0.0621
    2MPD1    H114152   3.449   3.272  16.435  0.7741 -0.0019 -1.2859
    2MPD1    H214153   3.551   3.671  16.318 -0.4871  0.0152 -0.0658
    2MPD1    H314154   3.602   3.459  16.443  1.4895  0.2851 -1.7874
    2MPD1     N14155   3.176   3.306  16.347  0.0704  0.0010 -0.2859
    2MPD1    H514156   3.088   3.346  16.316  1.3492  1.5568 -1.8951
    2MPD1    N114157   3.347   3.715  16.167  0.5596 -0.0651 -0.0291
    2MPD1    H614158   3.432   3.754  16.124  1.1794 -1.4247 -0.0344
    2MPD1    H714159   3.289   3.680  16.091  0.1417  1.0454 -0.2295
    1MPD1     C14160   4.642   2.443  11.309 -0.5691  0.1980  0.6788
    1MPD1    C114161   4.562   2.380  11.400 -0.4614  1.4328 -0.4417
    1MPD1    C214162   4.464   2.458  11.458 -0.8291 -0.1884  0.3929
    1MPD1    C314163   4.447   2.591  11.438  0.2971 -0.5128 -0.1224
    1MPD1    C414164   4.550   2.653  11.361 -0.3005 -0.1920  0.3734
    1MPD1    C514165   4.641   2.578  11.296 -0.4430  0.1185  0.6537
    1MPD1     H14166   4.380   2.418  11.514 -1.8319  0.3023 -0.7801
    1MPD1    H114167   4.545   2.759  11.340  3.1761 -0.1928 -0.3463
    1MPD1    H214168   4.719   2.391  11.253 -1.6981  0.2769 -0.9454
    1MPD1    H314169   4.713   2.611  11.224  0.2540  0.4486  1.5038
    1MPD1     N14170   4.341   2.657  11.499 -0.8572 -0.2409  0.1251
    1MPD1    H514171   4.263   2.600  11.529 -1.8202  1.0040 -0.0107
    1MPD1    N114172   4.553   2.241  11.407 -0.6377 -0.9770 -0.2541
    1MPD1    H614173   4.644   2.197  11.388  1.5853  2.7810  1.7093
    1MPD1    H714174   4.512   2.196  11.489 -0.4094  1.8136  1.3791
    2MPD1     C14175   3.400   3.150  10.989 -0.1894  0.2038  0.1834
    2MPD1    C114176   3.267   3.153  10.939  0.2247  0.0668 -0.2057
    2MPD1    C214177   3.252   3.118  10.808  0.3645 -0.5426 -0.4277
    2MPD1    C314178   3.361   3.102  10.719  0.2335 -0.5631  0.0039
    2MPD1    C414179   3.482   3.143  10.765  0.1964 -0.0008  0.4949
    2MPD1    C514180   3.507   3.156  10.899  0.2316  0.0753 -0.6455
    2MPD1     H14181   3.152   3.098  10.770 -0.2263  2.0649 -0.2478
    2MPD1    H114182   3.567   3.149  10.698  0.8237 -1.1653  1.1704
    2MPD1    H214183   3.411   3.148  11.096  1.0566  1.6436  0.0772
    2MPD1    H314184   3.609   3.166  10.934 -0.3825  2.0168  0.5998
    2MPD1     N14185   3.360   3.072  10.581 -0.1927 -0.1763 -0.1754
    2MPD1    H514186   3.446   3.055  10.530 -0.1687 -1.2239  0.2275
    2MPD1    N114187   3.161   3.131  11.031  0.0044 -0.6262 -0.3877
    2MPD1    H614188   3.075   3.154  10.983  0.5579 -2.9462 -2.5017
    2MPD1    H714189   3.165   3.179  11.121  2.6061 -0.7593 -0.4378
    3MPD1     C14190   2.755   3.404   9.927 -0.0986 -0.0838  0.4093
    3MPD1    C114191   2.720   3.337  10.040  0.2527 -0.3110  0.6875
    3MPD1    C214192   2.812   3.239  10.080  0.3331  0.0095 -0.3322
    3MPD1    C314193   2.938   3.230  10.012 -0.1778  0.1302  0.5118
    3MPD1    C414194   2.971   3.309   9.901  0.2467  0.2614 -0.2433
    3MPD1    C514195   2.868   3.385   9.852  0.6424  0.0705 -0.1748
    3MPD1     H14196   2.789   3.179  10.168 -0.3200 -1.4373 -1.4947
    3MPD1    H114197   3.069   3.320   9.855 -0.0763 -0.4911 -1.1020
    3MPD1    H214198   2.690   3.479   9.882  1.3831  0.8438 -0.1730
    3MPD1    H314199   2.888   3.440   9.761  1.3500 -1.6599 -1.0671
    3MPD1     N14200   3.018   3.130  10.076  0.3270  0.4027  0.2021
    3MPD1    H514201   2.980   3.087  10.160  1.9803 -0.9329  0.2562
    3MPD1    N114202   2.594   3.342  10.099  0.2607  0.4462 -0.3262
    3MPD1    H614203   2.597   3.348  10.200 -0.4924 -0.4206 -0.2574
    3MPD1    H714204   2.545   3.426  10.067 -1.9252 -0.7337 -0.0382
    4MPD2     C14205   4.172   3.320  11.234 -1.1098  0.0749 -0.1879
    4MPD2    C114206   4.114   3.203  11.200 -0.2800 -0.0283  0.5842
    4MPD2    C214207   4.097   3.167  11.067 -0.3809  0.9270  0.0616
    4MPD2    C314208   4.139   3.254  10.969  0.1883  0.7675 -0.3433
    4MPD2    C414209   4.186   3.378  11.004 -0.5363 -0.2680  0.0101
    4MPD2    C514210   4.207   3.407  11.137  0.4065  0.5740 -0.1337
    4MPD2     H14211   4.075   3.065  11.038 -0.0541  1.8544 -3.5664
    4MPD2    H114212   4.227   3.443  10.927  0.7924 -0.9579  0.1446
    4MPD2    H214213   4.208   3.346  11.333  0.0122  2.7815 -1.3173
    4MPD2    H314214   4.253   3.498  11.172  0.8361  0.4482 -0.3661
    4MPD2     N14215   4.160   3.195  10.842  0.3509 -0.6071  0.0915
    4MPD2    H514216   4.147   3.095  10.833  1.2638 -0.9154  2.1868
    4MPD2    N114217   4.072   3.107  11.298  0.1982  0.1995 -0.2778
    4MPD2    H714218   4.020   3.027  11.262  0.2098 -0.3362  0.8801
    5TMC3    C114219   4.040   3.001  11.505 -0.0186 -0.1261  0.2348
    5TMC3    C214220   4.153   2.945  11.546  0.2458  0.2326  0.1565
    5TMC3    C314221   4.179   2.815  11.520  0.2520  0.0260  0.4889
    5TMC3    C414222   3.951   2.929  11.436  0.1897 -1.1643 -0.1061
    5TMC3    C514223   3.981   2.799  11.401  0.7726 -0.1142 -0.1155
    5TMC3    C614224   4.088   2.735  11.456  0.4566 -0.0477 -0.9161
    5TMC3     C14225   4.073   3.123  11.432  0.7242  0.0629  0.1757
    5TMC3     O14226   4.134   3.204  11.497 -0.5664  0.1296 -0.5977
    5TMC3     H14227   4.230   3.006  11.593 -0.2609  0.5851  0.5252
    5TMC3    H114228   3.860   2.972  11.395  0.8428  0.2497 -0.0824
    5TMC3    H214229   4.129   2.647  11.408  0.5697 -0.6145  0.2117
    5TMC3    C714230   3.953   2.773  11.263  0.4141 -0.0533 -0.1382
    5TMC3    C814231   4.320   2.794  11.488  0.6727 -0.0640 -0.3373
    5TMC3    O114232   3.931   2.872  11.191  0.2959 -0.0958 -0.8480
    5TMC3    O214233   4.389   2.892  11.465 -0.7135  0.0444 -0.2298
    6TMC3    C114234   3.266   3.029  10.369 -0.5034  0.0785  0.1776
    6TMC3    C214235   3.180   3.071  10.269 -0.5300 -0.8174  1.2275
    6TMC3    C314236   3.223   3.045  10.139  0.5643  0.3849 -0.1745
    6TMC3    C414237   3.384   2.964  10.341 -0.6471 -1.0238  0.1932
    6TMC3    C514238   3.417   2.943  10.204  0.4518  0.2606  0.3544
    6TMC3    C614239   3.341   3.000  10.105  0.8191 -0.1458  0.1734
    6TMC3     C14240   3.242   3.072  10.508  0.7775 -0.2837  0.6849
    6TMC3     O14241   3.132   3.111  10.546 -0.2005  0.3424 -0.6010
    6TMC3     H14242   3.094   3.133  10.295 -1.3468  0.7240 -5.3100
    6TMC3    H114243   3.458   2.931  10.412  0.6178  2.5965  0.5742
    6TMC3    H214244   3.379   2.983  10.005  0.0567  0.6309 -0.2472
    6TMC3    C714245   3.562   2.952  10.184 -0.5575  0.2489  0.1745
    6TMC3    C814246   3.144   3.098  10.032 -0.1140 -0.6517 -0.0526
    6TMC3    O114247   3.628   2.881  10.254 -0.2689  0.5457  0.4908
    6TMC3    O214248   3.199   3.106   9.922  0.7278  0.6957  0.6351
    7MPD2     C14249   4.038   2.507  10.827 -0.8044 -0.0170 -0.0519
    7MPD2    C114250   4.063   2.634  10.859 -0.5545 -0.2667  0.5965
    7MPD2    C214251   4.038   2.685  10.989 -0.6972  0.2973 -0.2506
    7MPD2    C314252   3.988   2.603  11.086  0.0109  0.0976 -0.3183
    7MPD2    C414253   3.978   2.472  11.053  0.2401 -0.2185  0.2311
    7MPD2    C514254   3.991   2.423  10.926 -0.4085 -1.3097  0.9080
    7MPD2     H14255   4.057   2.790  11.009  2.1622 -0.4304  0.9149
    7MPD2    H114256   3.941   2.403  11.128  0.1882  0.3143  0.6957
    7MPD2    H214257   4.073   2.476  10.730 -0.7882 -2.6886  0.8154
    7MPD2    H314258   3.988   2.318  10.902  2.6864 -1.6943  2.2300
    7MPD2     N14259   3.978   2.639  11.223 -0.3815  0.6759 -0.1809
    7MPD2    H514260   3.970   2.573  11.300 -0.4326  1.1222  0.1885
    7MPD2    N114261   4.129   2.722  10.762  0.0469  0.2161  0.3711
    7MPD2    H714262   4.135   2.693  10.664  1.8964 -2.6464  1.3296
    8TMC3    C114263   4.252   2.914  10.670 -0.2959 -0.2297 -0.1413
    8TMC3    C214264   4.177   2.903  10.558  0.2788  0.2620 -0.5371
    8TMC3    C314265   4.154   3.018  10.485 -0.2485  0.4780  0.4795
    8TMC3    C414266   4.299   3.034  10.714  0.3937  0.1038  0.0176
    8TMC3    C514267   4.255   3.143  10.650  0.5718  0.4577  1.2996
    8TMC3    C614268   4.185   3.144  10.533  0.3519  0.0680 -0.6434
    8TMC3     C14269   4.207   2.836  10.788  0.1379  0.3407 -0.1429
    8TMC3     O14270   4.222   2.892  10.896  0.1141  0.6692 -0.2168
    8TMC3     H14271   4.121   2.811  10.542 -0.2063  0.3911  0.4253
    8TMC3    H114272   4.352   3.052  10.807 -1.9963  1.5450  1.0819
    8TMC3    H214273   4.170   3.242  10.488 -3.6317  0.7548  2.2104
    8TMC3    C714274   4.210   3.252  10.728  0.2227  0.0487 -0.6227
    8TMC3    C814275   4.052   3.008  10.375  0.2949  0.0302  0.5450
    8TMC3    O114276   4.243   3.362  10.685 -0.2821  0.3002  0.8607
    8TMC3    O214277   3.983   2.906  10.375  0.5725 -0.2102 -0.0859
    9MPD2     C14278   3.948   3.276  10.147 -0.4463  0.3365 -0.8834
    9MPD2    C114279   3.943   3.150  10.202 -0.3006 -0.1776 -0.0990
    9MPD2    C214280   3.827   3.071  10.189  0.3223 -0.5370  0.0720
    9MPD2    C314281   3.724   3.111  10.114  0.0266  0.1792 -0.1952
    9MPD2    C414282   3.742   3.222  10.033 -0.3174  0.5199 -0.2672
    9MPD2    C514283   3.855   3.302  10.057 -0.6119 -0.3391  0.2930
    9MPD2     H14284   3.832   2.977  10.243  0.7140 -0.6824 -0.2203
    9MPD2    H114285   3.669   3.268   9.968 -0.9991 -0.4811 -0.1996
    9MPD2    H214286   4.022   3.350  10.172 -2.8358  1.6089  2.4526
    9MPD2    H314287   3.848   3.400  10.012  1.6982  0.5344  1.8689
    9MPD2     N14288   3.600   3.052  10.105 -0.2900  0.1701 -0.3750
    9MPD2    H514289   3.535   3.083  10.034 -0.5714  0.2297 -0.0934
    9MPD2    N114290   4.045   3.118  10.298  0.4042  0.0432  0.1837
    9MPD2    H714291   4.132   3.171  10.302  0.1781  0.4237  0.1170
    1MPD1     C14292   3.139   1.752  16.715  0.2346 -0.0849  0.4670
    1MPD1    C114293   3.193   1.764  16.583  0.8488  0.3731 -0.5009
    1MPD1    C214294   3.111   1.727  16.480 -0.4635 -0.4217 -0.3498
    1MPD1    C314295   2.981   1.668  16.504 -0.8881  0.2312  0.4107
    1MPD1    C414296   2.937   1.650  16.632 -0.0310  0.7413  0.6254
    1MPD1    C514297   3.010   1.697  16.738 -0.1561 -0.8374  0.2376
    1MPD1     H14298   3.143   1.747  16.378 -0.0409 -1.8781 -0.4991
    1MPD1    H114299   2.854   1.585  16.657  1.9227 -2.8984 -2.2713
    1MPD1    H214300   3.195   1.785  16.802 -1.4654 -0.9167  1.8956
    1MPD1    H314301   2.969   1.697  16.838  1.1966 -3.0950  0.7890
    1MPD1     N14302   2.888   1.630  16.405 -0.0011  0.2694  0.0584
    1MPD1    H514303   2.819   1.567  16.445  1.6679 -0.9665  1.0135
    1MPD1    N114304   3.309   1.845  16.575 -0.7365  0.6394  0.1475
    1MPD1    H614305   3.362   1.794  16.504 -1.3257  0.8771 -0.4591
    1MPD1    H714306   3.361   1.827  16.661 -0.9976  2.3188  0.6549
    2TMC2    C114307   2.712   1.459  16.032  0.1333  0.3346  0.1730
    2TMC2    C214308   2.595   1.424  16.104  0.2550 -0.3312 -0.4616
    2TMC2    C314309   2.582   1.470  16.232  0.1730  0.3747  0.5766
    2TMC2    C414310   2.803   1.550  16.081 -0.0629 -0.2790  0.0870
    2TMC2    C514311   2.777   1.592  16.211  0.6113 -0.1198  0.3666
    2TMC2    C614312   2.667   1.568  16.283 -0.2470 -1.1121 -0.0017
    2TMC2     C14313   2.741   1.377  15.916 -0.4382 -0.2286  0.1083
    2TMC2     O14314   2.687   1.269  15.915 -0.1575  0.1141 -1.0510
    2TMC2     H14315   2.520   1.353  16.069  0.5531 -1.3444  0.9652
    2TMC2    H114316   2.904   1.553  16.043 -0.5692 -0.4786 -1.2914
    2TMC2    H214317   2.647   1.631  16.369 -2.0754 -0.1796 -1.1160
    2TMC2    C714318   2.884   1.660  16.274  0.0633  0.6129 -0.4504
    2TMC2    C814319   2.453   1.471  16.286 -0.1988 -0.3703 -0.0454
    2TMC2    O114320   2.969   1.711  16.205  0.4103 -0.7035 -0.0743
    2TMC2    O214321   2.355   1.429  16.227 -0.3562 -0.6714  0.3253
    2TMC2    O514322   2.493   1.423  16.405 -0.3726 -0.4837 -0.5825
    2TMC2    H514323   2.586   1.436  16.433 -0.5037 -0.0023 -0.3761
    3MPD1     C14324   2.955   1.302  15.447 -0.3202 -0.1393  0.6942
    3MPD1    C114325   2.983   1.431  15.489  1.0071  0.7990 -0.3931
    3MPD1    C214326   2.929   1.480  15.609  0.0551  0.6228 -0.6001
    3MPD1    C314327   2.852   1.393  15.693  0.8377  0.3339  0.3826
    3MPD1    C414328   2.826   1.266  15.646  0.6437 -0.6368  0.3449
    3MPD1    C514329   2.869   1.219  15.524 -0.4021 -0.3425 -0.4470
    3MPD1     H14330   2.943   1.584  15.639 -0.6221 -0.2977  2.9126
    3MPD1    H114331   2.765   1.204  15.711 -0.9931  0.4946 -0.0797
    3MPD1    H214332   3.002   1.270  15.355 -1.6413  1.1004 -0.4169
    3MPD1    H314333   2.845   1.121  15.484  1.0468 -0.2321 -1.5623
    3MPD1     N14334   2.818   1.446  15.820 -0.7664 -0.9271  0.4566
    3MPD1    H514335   2.854   1.539  15.838  0.0075 -0.7009 -2.3658
    3MPD1    N114336   3.050   1.518  15.397  0.0194 -0.1562 -0.3222
    3MPD1    H614337   3.130   1.476  15.351 -1.3089 -1.2862 -1.5880
    3MPD1    H714338   3.087   1.600  15.446  0.2802 -0.0742 -0.6522
    1TMC1    C114339   1.158   4.584  13.190 -0.6805  0.2852 -0.1258
    1TMC1    C214340   1.281   4.531  13.210 -0.0033 -0.1036  0.0534
    1TMC1    C314341   1.288   4.397  13.246  1.1160  0.2144 -0.3211
    1TMC1    C414342   1.050   4.501  13.184 -0.6755 -0.2437  0.2629
    1TMC1    C514343   1.057   4.366  13.213 -0.5403  0.5421 -0.4203
    1TMC1    C614344   1.175   4.316  13.256 -0.4176 -0.5128  1.0359
    1TMC1     C14345   1.139   4.726  13.181  0.2637 -0.2248 -0.1168
    1TMC1     O14346   1.034   0.030  13.133 -0.3220  0.4869 -0.1027
    1TMC1     H14347   1.371   4.589  13.190  0.6233 -0.9320  0.4974
    1TMC1    H114348   0.948   4.537  13.174 -0.1407  1.5545  1.2851
    1TMC1    H214349   1.192   4.213  13.284  0.3060 -0.2061  1.7003
    1TMC1    C714350   0.935   4.311  13.277 -0.1875 -0.3102 -0.1569
    1TMC1    C814351   1.404   4.319  13.219 -0.7279  0.1868 -0.0012
    1TMC1    O114352   0.834   4.374  13.305 -0.0990 -0.2260 -0.3264
    1TMC1    O214353   1.397   4.207  13.172  0.2525 -0.2081 -0.0394
    1TMC1    O314354   0.952   4.180  13.264 -0.3564 -0.5620 -0.1882
    1TMC1    H314355   1.033   4.141  13.224  1.2969  0.8688  1.7737
    1TMC1    O514356   1.492   4.360  13.309  0.1632  0.0566  0.0341
    1TMC1    H514357   1.475   4.452  13.339  0.0227  0.8685 -2.5552
    2MPD2     C14358   1.131   0.292  13.202  0.8713  0.0465  0.2469
    2MPD2    C114359   1.247   0.210  13.231 -0.1880  0.2196 -0.2458
    2MPD2    C214360   1.355   0.273  13.279 -0.2977  0.6892  0.8111
    2MPD2    C314361   1.364   0.409  13.287  0.4632  0.0481  0.2766
    2MPD2    C414362   1.246   0.488  13.259  0.1308  0.2687  0.1937
    2MPD2    C514363   1.133   0.422  13.222 -0.6198  0.4061 -0.2188
    2MPD2     H14364   1.439   0.211  13.307  0.2482  0.9072 -0.3533
    2MPD2    H114365   1.252   0.595  13.273  0.9951  0.4649 -1.5923
    2MPD2    H214366   1.038   0.247  13.170  0.0652  2.5427 -0.8647
    2MPD2    H314367   1.040   0.476  13.207 -0.6151  0.6500  0.6194
    2MPD2     N14368   1.490   0.470  13.329 -0.8136  0.2704 -0.6378
    2MPD2    H514369   1.568   0.406  13.343 -0.2923  0.7013 -1.6190
    2MPD2    N114370   1.243   0.067  13.234  0.1497 -0.6250 -0.3985
    2MPD2    H714371   1.328   0.021  13.265  0.7530  0.0820 -0.9889
    3TCq1    O114372   1.966   0.416  13.342  0.6327 -0.2852  0.3112
    3TCq1    C114373   1.985   0.548  13.328 -0.3690 -0.2901  1.1591
    3TCq1    O214374   2.096   0.596  13.323 -0.1599  0.5985 -0.4907
    3TCq1    C214375   1.865   0.618  13.380 -0.2349  0.0407 -0.0137
    3TCq1    C314376   1.890   0.730  13.452 -0.0269  0.4597  0.0164
    3TCq1    C414377   1.781   0.805  13.494  0.7779  0.1126 -0.1897
    3TCq1    C514378   1.650   0.756  13.493  0.4874  0.9812 -0.2341
    3TCq1    C614379   1.638   0.644  13.414  0.1959  0.7846 -0.2155
    3TCq1    C714380   1.740   0.573  13.355  0.5996 -0.0119 -0.6703
    3TCq1    C814381   1.502   0.596  13.391 -0.0702 -0.3633  0.2799
    3TCq1    O414382   1.419   0.679  13.425  0.1568  0.3290 -0.0902
    3TCq1    C914383   1.809   0.928  13.562  0.2630 -0.2968 -0.5186
    3TCq1    O514384   1.711   1.009  13.584 -0.7481  0.2188 -0.6930
    3TCq1    O614385   1.932   0.952  13.570  0.4325 -0.2243  0.1569
    3TCq1    H114386   1.878   0.387  13.374  0.6373 -1.2048 -0.5050
    3TCq1    H214387   1.991   0.765  13.469 -0.4839  2.0845 -0.6127
    3TCq1    H314388   1.570   0.814  13.538  0.1052  0.9001 -0.8053
    3TCq1    H414389   1.723   0.499  13.278  1.2201 -0.6497 -0.1894
    1MPD2     C14390   1.148   1.850  14.919  0.0606 -0.5187 -0.1818
    1MPD2    C114391   1.050   1.881  14.823  0.8240 -0.8507 -0.2425
    1MPD2    C214392   1.073   1.838  14.694 -0.5895  0.0354 -0.1379
    1MPD2    C314393   1.183   1.758  14.661  0.2839 -0.4340 -0.5881
    1MPD2    C414394   1.275   1.735  14.761 -0.1414 -0.8423 -0.2972
    1MPD2    C514395   1.259   1.788  14.886 -0.2526 -0.4963 -0.7693
    1MPD2     H14396   0.988   1.825  14.628 -1.3832  1.7396  0.5420
    1MPD2    H114397   1.356   1.662  14.755  0.2899 -0.2817 -1.3038
    1MPD2    H214398   1.124   1.858  15.024 -1.6838 -1.1419 -0.5252
    1MPD2    H314399   1.332   1.758  14.961 -1.0318  2.4209  1.1618
    1MPD2     N14400   1.181   1.680  14.542  0.0215  0.0194  0.2983
    1MPD2    H514401   1.096   1.679  14.486  0.2216 -1.2329  0.0161
    1MPD2    N114402   0.936   1.937  14.868  0.8242  0.1303 -0.9820
    1MPD2    H714403   0.912   1.943  14.967 -3.3606 -1.2164 -1.9025
    2TMC3    C114404   0.727   2.067  14.847  0.3957 -0.2326 -0.1463
    2TMC3    C214405   0.642   1.976  14.892  0.0031 -0.8047  0.1103
    2TMC3    C314406   0.508   1.983  14.842  0.7353 -0.6496 -0.6087
    2TMC3    C414407   0.693   2.176  14.782 -0.7714  0.0807  0.1801
    2TMC3    C514408   0.561   2.186  14.733  0.2513  0.3604 -0.0434
    2TMC3    C614409   0.471   2.085  14.767  0.4994  0.2227 -0.1970
    2TMC3     C14410   0.843   2.006  14.790  0.1026  0.4964  0.8286
    2TMC3     O14411   0.865   2.045  14.676 -0.9541 -0.3524  0.0598
    2TMC3     H14412   0.670   1.885  14.946  2.3229  0.4859  1.0831
    2TMC3    H114413   0.774   2.243  14.756 -1.0357  0.8299  1.2820
    2TMC3    H214414   0.368   2.101  14.736 -0.4702 -1.2326  2.2324
    2TMC3    C714415   0.509   2.279  14.634  0.7627 -0.4175 -0.0685
    2TMC3    C814416   0.450   1.855  14.796 -0.2539  0.6256  0.0378
    2TMC3    O114417   0.412   2.239  14.568 -0.0804  0.5017 -0.7303
    2TMC3    O214418   0.331   1.818  14.799 -0.5715 -0.4936 -0.3874
    3TCq1    O114419   1.166   3.150  14.203 -0.1567 -0.4016 -0.6634
    3TCq1    C114420   1.199   3.165  14.334  0.8671 -0.3278  0.1150
    3TCq1    O214421   1.281   3.230  14.395 -0.0854 -0.1663 -0.0251
    3TCq1    C214422   1.099   3.091  14.410 -0.1814  0.0233 -0.3517
    3TCq1    C314423   1.122   3.101  14.544  0.2161  0.6014 -0.2547
    3TCq1    C414424   1.030   3.050  14.634  0.1445 -0.4251  0.6941
    3TCq1    C514425   0.921   2.983  14.583 -0.4080  0.3443  0.2981
    3TCq1    C614426   0.900   2.977  14.447 -0.3300  0.6248  0.4246
    3TCq1    C714427   0.987   3.030  14.354  0.1342 -0.0988 -1.2642
    3TCq1    C814428   0.791   2.909  14.384 -0.2787  0.0724  0.5877
    3TCq1    O414429   0.752   2.931  14.270 -0.4810 -0.7999  0.4209
    3TCq1    C914430   1.045   3.069  14.773 -0.4021 -0.0774  0.5543
    3TCq1    O514431   0.934   3.042  14.830 -0.2789  0.1039  0.0430
    3TCq1    O614432   1.156   3.114  14.823  0.1868  0.2330 -0.3224
    3TCq1    H114433   1.227   3.196  14.142 -0.2542 -0.4331 -0.7853
    3TCq1    H214434   1.209   3.150  14.586  0.5523  1.7824 -2.3286
    3TCq1    H314435   0.849   2.936  14.649 -0.3973  1.6827  1.2734
    3TCq1    H414436   0.973   3.015  14.248 -2.5415  0.8641 -1.0277
    4MPD2     C14437   0.594   2.685  14.321 -0.1688  0.2190 -0.5830
    4MPD2    C114438   0.679   2.689  14.426  0.5214 -0.8219 -0.9650
    4MPD2    C214439   0.669   2.596  14.533  1.0941  0.4015 -0.0478
    4MPD2    C314440   0.573   2.493  14.533  0.1760  0.2893  0.2131
    4MPD2    C414441   0.487   2.495  14.430  0.7628 -0.1043 -0.4067
    4MPD2    C514442   0.504   2.583  14.322  0.2912 -0.7667  0.2339
    4MPD2     H14443   0.743   2.603  14.613 -0.3754  1.1556  1.2419
    4MPD2    H114444   0.408   2.422  14.419 -0.3678  1.2674 -1.3448
    4MPD2    H214445   0.603   2.753  14.237  0.2209  1.7205  0.6823
    4MPD2    H314446   0.442   2.571  14.234 -1.4551  2.3793  1.0003
    4MPD2     N14447   0.589   2.387  14.623 -0.1580  0.0060  0.3125
    4MPD2    H514448   0.666   2.404  14.688 -0.8399 -1.6555  1.5576
    4MPD2    N114449   0.763   2.797  14.457  0.0683  0.2439  0.7040
    4MPD2    H714450   0.814   2.780  14.544 -0.0485 -1.5399  0.4166
    5TMC2    C114451   0.980   1.470  14.328 -0.4586  0.0132  0.2560
    5TMC2    C214452   0.986   1.338  14.359  0.5159  0.2971  0.1847
    5TMC2    C314453   1.103   1.283  14.404  0.7025  0.4213 -0.4173
    5TMC2    C414454   1.093   1.546  14.352  0.1957  0.0854 -0.3328
    5TMC2    C514455   1.204   1.490  14.412  0.4801 -0.5042 -0.6054
    5TMC2    C614456   1.214   1.355  14.437  0.5249 -0.0408 -0.3816
    5TMC2     C14457   0.876   1.543  14.396 -0.3004 -0.1909  0.5064
    5TMC2     O14458   0.917   1.651  14.435 -0.0046 -0.2925  0.5359
    5TMC2     H14459   0.901   1.279  14.326  1.9412 -0.5278 -2.0503
    5TMC2    H114460   1.100   1.645  14.307  0.3504 -0.7707 -2.1907
    5TMC2    H214461   1.300   1.312  14.487 -1.6752 -0.9107  2.6079
    5TMC2    C714462   1.267   1.576  14.511 -0.1907 -0.0083  0.6745
    5TMC2    C814463   1.101   1.142  14.363 -0.5583 -0.2043 -1.4846
    5TMC2    O114464   1.371   1.530  14.563  0.5210  0.3432  0.4657
    5TMC2    O214465   1.032   1.092  14.277  0.1711 -0.1896  0.7025
    5TMC2    O514466   1.192   1.073  14.436  0.0398 -0.1895 -0.0001
    5TMC2    H514467   1.229   1.121  14.513  1.1937 -0.7052 -0.2319
    6MPD2     C14468   0.431   1.582  14.663  0.1414 -0.3592  0.2264
    6MPD2    C114469   0.540   1.671  14.654 -0.1472  0.4250 -0.3659
    6MPD2    C214470   0.652   1.633  14.582 -0.0300 -0.3916 -0.4717
    6MPD2    C314471   0.657   1.516  14.510  0.0745  0.8598  0.2628
    6MPD2    C414472   0.544   1.430  14.508  0.7063 -0.1613  0.2700
    6MPD2    C514473   0.436   1.466  14.584  0.0595 -0.3898  0.3482
    6MPD2     H14474   0.739   1.697  14.586 -0.1172 -0.3552  0.8513
    6MPD2    H114475   0.539   1.348  14.437 -0.1451  3.0498 -3.3778
    6MPD2    H214476   0.349   1.604  14.731  0.6865  0.3977  0.6523
    6MPD2    H314477   0.355   1.394  14.595 -1.1333  0.5583 -2.0255
    6MPD2     N14478   0.773   1.466  14.437 -0.3547 -0.6495 -0.0538
    6MPD2    H514479   0.756   1.374  14.399 -1.9979 -0.0336 -0.7804
    6MPD2    N114480   0.548   1.783  14.735  0.2201  0.5254  0.1939
    6MPD2    H714481   0.636   1.835  14.726 -0.0591  0.9015 -0.4018
  945NH4     N114482   0.287   3.473   7.701  0.0094  0.4418 -0.0173
  945NH4     H214483   0.234   3.463   7.790  0.4602 -3.4952 -0.2129
  945NH4     H314484   0.347   3.558   7.707  1.9288 -0.9796  0.5852
  945NH4     H414485   0.219   3.478   7.622  0.1621  0.3674 -0.1534
  945NH4     H514486   0.344   3.388   7.684 -0.9742  0.0848 -1.5829
  946SOD     NA14487   3.402   3.402  13.426 -0.5018  0.3719  0.4365
  947SOD     NA14488   0.396   4.323  13.262 -0.1226  0.1239  0.2826
  948SOD     NA14489   4.534   4.285  12.000  0.7780  0.3164 -0.1927
  949SOD     NA14490   1.428   4.519  17.408 -0.1467  0.1480  0.8143
  950SOD     NA14491   1.783   4.316   2.149 -0.1850 -0.2107  0.1682
  951SOD     NA14492   2.113   3.669   3.086  0.4745  0.3698 -0.4790
  952SOD     NA14493   4.415   1.010  13.752  0.0966  0.2603  0.0328
  953SOL     OW14494   1.500   2.175   8.003  0.3142  0.2232  0.5873
  953SOL    HW114495   1.437   2.136   7.943  0.5507  0.5096  0.1483
  953SOL    HW214496   1.588   2.138   7.995  1.3343  2.9965 -1.1983
  954SOL     OW14497   4.331   1.004   3.469  0.0868  0.3242 -0.4354
  954SOL    HW114498   4.283   1.069   3.521 -2.0680 -1.7100  0.1303
  954SOL    HW214499   4.265   0.988   3.402  1.1471  1.8424 -1.8249
  955SOL     OW14500   1.826   0.246   3.010 -0.2605  0.0155  0.1732
  955SOL    HW114501   1.869   0.283   2.933 -0.1082 -0.2529  0.1286
  955SOL    HW214502   1.879   0.298   3.071 -1.8449  1.3389  0.4138
  956SOL     OW14503   1.718   2.598   2.863 -0.5623 -0.1739 -0.5587
  956SOL    HW114504   1.780   2.585   2.791 -1.3431 -1.1620 -1.0487
  956SOL    HW214505   1.769   2.669   2.903  1.7411 -1.9590 -0.3288
  957SOL     OW14506   0.907   3.313  15.394  0.3333  0.1085  0.2496
  957SOL    HW114507   0.944   3.337  15.309 -1.7942  0.4974 -0.5642
  957SOL    HW214508   0.992   3.291  15.431 -0.2912 -1.1864  0.9393
  958SOL     OW14509   1.521   2.894  16.163 -0.8791  0.0141  0.3214
  958SOL    HW114510   1.479   2.959  16.108 -0.1453  1.0844  1.0157
  958SOL    HW214511   1.486   2.915  16.250 -1.1837 -2.4215  0.7723
  959SOL     OW14512   1.975   3.440   8.411  0.6305  0.2614  0.1132
  959SOL    HW114513   2.004   3.468   8.498  1.3268  0.5925 -0.2303
  959SOL    HW214514   1.966   3.345   8.420  2.2185  0.1304  0.2120
  960SOL     OW14515   1.452   0.276   2.991 -0.5008  0.2380  0.2803
  960SOL    HW114516   1.489   0.203   3.041  0.5052  0.0551 -0.7152
  960SOL    HW214517   1.414   0.330   3.060 -0.8416 -1.4303  1.3832
  961SOL     OW14518   0.616   1.734   3.244  0.4584  0.2976  0.0369
  961SOL    HW114519   0.548   1.799   3.226  0.4591  0.0478 -0.8325
  961SOL    HW214520   0.650   1.712   3.158  0.6299 -0.9332  0.4274
  962SOL     OW14521   3.969   1.568   2.438  0.2595 -0.1369  0.1074
  962SOL    HW114522   3.899   1.505   2.451 -0.1889  0.3171 -0.0715
  962SOL    HW214523   4.010   1.548   2.354  0.3504 -0.8556  0.3269
  963SOL     OW14524   3.118   1.646  12.523 -0.0832 -0.0683  0.2349
  963SOL    HW114525   3.104   1.668  12.615  1.4170  0.8501  0.2450
  963SOL    HW214526   3.188   1.707  12.500 -0.4857 -0.0221 -0.9024
  964SOL     OW14527   3.514   3.270   6.924 -0.1835  0.1882  0.0643
  964SOL    HW114528   3.456   3.339   6.893 -0.0624  0.9954  1.6057
  964SOL    HW214529   3.603   3.304   6.924 -0.0176 -0.2535 -0.7974
  965SOL     OW14530   2.440   1.185   8.960 -0.1074  0.5937 -0.0119
  965SOL    HW114531   2.425   1.227   9.044  2.0847  0.5548  0.4032
  965SOL    HW214532   2.429   1.093   8.986  0.1152  0.3587 -0.7298
  966SOL     OW14533   0.543   4.604   7.535  0.1560  0.1684 -0.3568
  966SOL    HW114534   0.539   4.696   7.559  0.0729 -0.0323  0.4121
  966SOL    HW214535   0.620   4.579   7.586 -0.7068  1.8953  1.8161
  967SOL     OW14536   3.584   0.646   6.354 -0.1189  0.4492 -0.4336
  967SOL    HW114537   3.554   0.736   6.372  0.6377  0.5230  0.4898
  967SOL    HW214538   3.506   0.596   6.380  0.3351 -0.1731 -0.2956
  968SOL     OW14539   1.151   3.110   0.428 -0.1051 -0.1603 -0.0050
  968SOL    HW114540   1.177   3.036   0.481 -0.6774  0.2432  0.8434
  968SOL    HW214541   1.093   3.071   0.363 -0.1462  1.9459 -1.2526
  969SOL     OW14542   2.730   1.636   1.885 -0.6358 -0.4799 -0.5807
  969SOL    HW114543   2.725   1.579   1.962 -1.9961  2.4818  1.5129
  969SOL    HW214544   2.679   1.596   1.814  2.0617  0.2606 -2.9357
  970SOL     OW14545   3.564   2.606   4.928  0.1538 -0.6240 -0.2368
  970SOL    HW114546   3.649   2.584   4.889  1.6922  0.0453  2.7440
  970SOL    HW214547   3.509   2.604   4.850  0.5510 -2.4480 -0.4562
  971SOL     OW14548   2.076   0.013   6.292  0.3658 -0.3160  0.0809
  971SOL    HW114549   2.053   0.029   6.201  0.1322 -0.4677  0.1128
  971SOL    HW214550   2.169   4.730   6.281  0.0101 -2.6264  0.6884
  972SOL     OW14551   1.702   3.867   8.679 -0.0733  0.1381  0.2836
  972SOL    HW114552   1.767   3.884   8.612  0.3810  1.3752  1.0392
  972SOL    HW214553   1.617   3.852   8.638 -1.4134  0.6952  2.8542
  973SOL     OW14554   3.152   4.529   5.872 -0.0947 -0.5432 -0.0977
  973SOL    HW114555   3.212   4.499   5.940  1.0433 -0.4468 -1.0574
  973SOL    HW214556   3.156   4.445   5.826  1.5046 -0.8951  0.6935
  974SOL     OW14557   2.931   2.383   2.782 -0.1927  0.2657 -0.6581
  974SOL    HW114558   2.852   2.370   2.729 -0.4534 -0.6175 -0.0548
  974SOL    HW214559   2.921   2.476   2.800 -2.4198  0.0140 -0.5281
  975SOL     OW14560   3.191   3.725  15.626  0.2866  0.0051  0.1360
  975SOL    HW114561   3.137   3.696  15.552 -1.2665  0.8676  0.9466
  975SOL    HW214562   3.259   3.768  15.574  0.5003 -0.1421  0.2957
  976SOL     OW14563   4.336   2.504   9.642 -0.4529 -0.2223  0.5302
  976SOL    HW114564   4.395   2.436   9.673 -0.3606 -0.3781  0.0113
  976SOL    HW214565   4.382   2.533   9.564 -2.3618  1.6366  0.0741
  977SOL     OW14566   0.074   0.884   5.442 -0.3518 -0.0041  0.4099
  977SOL    HW114567   0.085   0.856   5.533  0.0816 -3.8926 -0.8352
  977SOL    HW214568   0.015   0.816   5.408 -0.5597  0.1111  0.5359
  978SOL     OW14569   4.407   3.534   1.587 -0.3540  0.0978 -0.8615
  978SOL    HW114570   4.313   3.534   1.604 -0.1456 -0.5901  0.3154
  978SOL    HW214571   4.428   3.444   1.610  2.1847  0.9728  0.3009
  979SOL     OW14572   1.652   0.206  14.427 -0.1051  0.0407 -0.3617
  979SOL    HW114573   1.676   0.235  14.339 -2.1288 -0.7266 -1.1602
  979SOL    HW214574   1.579   0.150  14.398  2.2438 -2.2297 -1.8997
  980SOL     OW14575   1.869   2.491  10.494  0.5257 -0.2825 -0.1553
  980SOL    HW114576   1.963   2.490  10.513  0.9179 -0.9264 -2.1342
  980SOL    HW214577   1.858   2.582  10.466 -0.6849  0.1443  1.7273
  981SOL     OW14578   3.489   1.092   4.149 -0.1034 -0.1580  0.2174
  981SOL    HW114579   3.464   1.090   4.241  0.6755 -0.2459  0.4216
  981SOL    HW214580   3.556   1.023   4.152  0.0002 -0.0096  1.0698
  982SOL     OW14581   4.353   2.966   8.246  0.1200 -0.1990  0.3400
  982SOL    HW114582   4.359   2.992   8.154 -1.2448 -2.5925 -0.3998
  982SOL    HW214583   4.435   3.004   8.279  0.4586 -0.0414 -0.6678
  983SOL     OW14584   1.550   0.199   1.476 -0.7261 -0.1062 -0.2547
  983SOL    HW114585   1.515   0.233   1.558 -1.4867  0.0731 -0.6556
  983SOL    HW214586   1.528   0.272   1.418  1.7462  0.3402 -0.6224
  984SOL     OW14587   0.622   1.853   0.610  0.2425  0.2617  0.4668
  984SOL    HW114588   0.656   1.924   0.666  2.3219 -0.3988  0.0423
  984SOL    HW214589   0.669   1.781   0.652  0.5059 -1.4539 -2.7721
  985SOL     OW14590   3.614   1.196   1.066 -0.3006  0.2653 -0.2370
  985SOL    HW114591   3.545   1.236   1.119 -0.5415 -1.3902  0.7258
  985SOL    HW214592   3.583   1.107   1.048  0.0770  0.3206 -1.1372
  986SOL     OW14593   3.291   1.728   2.079 -0.1159  0.0652 -0.2642
  986SOL    HW114594   3.339   1.798   2.034  1.5568 -2.3799 -2.3056
  986SOL    HW214595   3.325   1.654   2.029 -0.3567 -0.9071  1.0307
  987SOL     OW14596   1.640   1.041   4.561  0.5291  0.0998  0.5901
  987SOL    HW114597   1.633   1.120   4.507  1.3541  0.1202  0.5090
  987SOL    HW214598   1.590   1.071   4.637  0.3330  2.6734 -0.5612
  988SOL     OW14599   1.038   3.034   2.949  0.2961  0.0935  0.0932
  988SOL    HW114600   1.046   3.017   2.855 -1.0711 -1.0430  0.1833
  988SOL    HW214601   1.112   3.094   2.957 -1.0884  1.8338 -0.0421
  989SOL     OW14602   2.749   2.070  12.355  0.7461 -0.2598  0.3541
  989SOL    HW114603   2.684   2.100  12.419  0.7055  0.9804 -0.2560
  989SOL    HW214604   2.812   2.031  12.416 -0.2708  0.3872  1.8248
  990SOL     OW14605   4.004   3.823   3.433 -0.3368  0.1118  0.0857
  990SOL    HW114606   4.012   3.867   3.348 -0.1482 -0.6154 -0.2675
  990SOL    HW214607   4.014   3.903   3.485  1.8441 -0.1860  0.1123
  991SOL     OW14608   0.935   3.044   6.098  0.3785 -0.3336 -0.0173
  991SOL    HW114609   0.869   2.979   6.071 -0.9809  1.0109  0.0522
  991SOL    HW214610   0.989   2.992   6.157  0.2647  2.3035  2.3967
  992SOL     OW14611   4.580   1.896   1.578  0.3018  0.3379 -0.5804
  992SOL    HW114612   4.493   1.936   1.578 -0.2599 -0.9032  0.3608
  992SOL    HW214613   4.556   1.803   1.584  1.8427  0.0663  1.2752
  993SOL     OW14614   4.252   2.666  13.612  0.4887  0.1144  0.3745
  993SOL    HW114615   4.330   2.620  13.643  1.0064  0.7142 -0.0390
  993SOL    HW214616   4.238   2.645  13.520 -0.6531 -0.1304  0.6021
  994SOL     OW14617   1.683   1.963   6.252  0.7626  0.5638  0.2828
  994SOL    HW114618   1.649   2.039   6.299 -1.9507 -0.7983  0.5319
  994SOL    HW214619   1.757   1.940   6.308  0.2306 -0.5303  0.5279
  995SOL     OW14620   4.364   3.265   1.010  0.0931  0.1821 -0.3698
  995SOL    HW114621   4.436   3.204   0.992 -0.9577 -0.5270 -2.1952
  995SOL    HW214622   4.294   3.205   1.033 -0.4159  0.8090 -0.2931
  996SOL     OW14623   2.296   3.935   7.809 -0.1778 -0.2079  0.3031
  996SOL    HW114624   2.356   3.861   7.809  1.0665  0.8037  1.5731
  996SOL    HW214625   2.232   3.909   7.875 -0.7872  0.0709 -0.1761
  997SOL     OW14626   1.227   0.811   6.989 -0.1385 -0.0028  0.4828
  997SOL    HW114627   1.288   0.819   7.062  1.1349  1.1276 -0.7378
  997SOL    HW214628   1.174   0.732   7.004 -1.6842  0.6856 -1.2993
  998SOL     OW14629   1.264   3.047  12.326 -0.0831 -0.0302 -0.8231
  998SOL    HW114630   1.348   3.033  12.281 -0.0976 -1.9597 -0.2533
  998SOL    HW214631   1.286   3.088  12.410 -2.0071 -0.1881 -0.2466
  999SOL     OW14632   4.687   2.702   4.086  0.3975 -0.3427  0.0354
  999SOL    HW114633   4.606   2.651   4.094  0.1039  0.0704 -0.2933
  999SOL    HW214634   0.005   2.638   4.038  1.6005  1.3181 -0.8651
 1000SOL     OW14635   2.482   1.382   4.024 -0.2442 -0.1234  0.3628
 1000SOL    HW114636   2.467   1.466   4.067  2.2728 -0.8759  2.7661
 1000SOL    HW214637   2.568   1.357   4.058  0.4260  2.0204  0.2448
 1001SOL     OW14638   3.055   1.902   2.359  0.1605  0.3174  0.0434
 1001SOL    HW114639   3.058   1.815   2.318  0.3432  0.0430  0.6424
 1001SOL    HW214640   2.995   1.951   2.302  0.4828 -0.6462 -1.1249
 1002SOL     OW14641   1.286   1.678   4.181 -0.2906 -0.4063  0.2762
 1002SOL    HW114642   1.347   1.744   4.147 -1.0261  0.2914  0.3015
 1002SOL    HW214643   1.340   1.625   4.239 -0.4723 -0.8307  0.0564
 1003SOL     OW14644   1.870   0.376  17.161  0.1130 -0.3143 -0.0899
 1003SOL    HW114645   1.800   0.385  17.226 -0.8964 -0.1246 -1.2089
 1003SOL    HW214646   1.863   0.281  17.159  0.9355 -0.4321  1.9293
 1004SOL     OW14647   1.246   0.456   2.741  0.4484 -0.1333  0.2840
 1004SOL    HW114648   1.207   0.534   2.782  0.7473 -0.5808  1.3928
 1004SOL    HW214649   1.240   0.387   2.807 -0.2356 -1.4086 -1.1226
 1005SOL     OW14650   4.657   2.742   6.008  0.1537  0.1503  0.3415
 1005SOL    HW114651   4.655   2.795   6.088  0.7478  2.0256 -0.8917
 1005SOL    HW214652   4.604   2.806   5.960  0.3182 -0.0637 -0.1154
 1006SOL     OW14653   4.281   3.409  11.570  0.5978 -0.1887  0.7823
 1006SOL    HW114654   4.231   3.332  11.544  2.9696 -2.1418  1.9518
 1006SOL    HW214655   4.370   3.376  11.586  0.9195  0.8143  1.1077
 1007SOL     OW14656   2.865   3.901  12.784 -0.2349 -0.3968 -0.3651
 1007SOL    HW114657   2.778   3.931  12.759 -1.3176 -3.4767 -0.3151
 1007SOL    HW214658   2.882   3.961  12.857 -2.0526  0.8129 -0.9467
 1008SOL     OW14659   1.284   2.083   6.778 -0.5193  0.1449 -0.4277
 1008SOL    HW114660   1.350   2.014   6.775 -0.7665 -0.1300  0.6695
 1008SOL    HW214661   1.312   2.136   6.852 -1.3870  0.0667 -0.0435
 1009SOL     OW14662   1.703   1.292   0.965  0.1872  0.1235  0.0645
 1009SOL    HW114663   1.708   1.252   0.878  0.6953 -0.2312  0.2568
 1009SOL    HW214664   1.736   1.226   1.026  0.1541  0.9910  1.0394
 1010SOL     OW14665   0.798   3.394  11.427  0.5490  0.0429 -0.0364
 1010SOL    HW114666   0.737   3.337  11.473  0.4712  0.8723  0.8999
 1010SOL    HW214667   0.868   3.333  11.401  0.4052 -0.8770  1.7339
 1011SOL     OW14668   2.363   4.661   6.351  0.2412  0.0949  0.5351
 1011SOL    HW114669   2.390   4.575   6.320  1.4954  0.7064 -0.0663
 1011SOL    HW214670   2.366   4.649   6.446  1.6349 -1.1874  0.3271
 1012SOL     OW14671   1.325   0.725   5.157 -0.0743 -0.0018  0.0214
 1012SOL    HW114672   1.383   0.654   5.186 -1.7248 -2.4744 -2.5998
 1012SOL    HW214673   1.351   0.798   5.212  0.3023  0.1814 -0.3936
 1013SOL     OW14674   2.659   1.768   5.232 -0.3836 -0.5061 -0.4109
 1013SOL    HW114675   2.655   1.757   5.327  0.5859  0.0723 -0.3016
 1013SOL    HW214676   2.706   1.688   5.209  1.1841  0.3732 -0.2569
 1014SOL     OW14677   3.282   1.547   4.848  0.0271  0.2398  0.4291
 1014SOL    HW114678   3.328   1.470   4.884  1.2401 -0.0209 -1.6693
 1014SOL    HW214679   3.276   1.520   4.757  0.9157 -2.0566  1.0502
 1015SOL     OW14680   2.586   1.099   9.408  0.0966  0.3522 -0.0712
 1015SOL    HW114681   2.677   1.093   9.438 -0.2174 -0.0764  0.7985
 1015SOL    HW214682   2.545   1.055   9.482 -0.8842 -2.3093 -2.1635
 1016SOL     OW14683   3.109   0.777   5.647 -0.2085  0.9056  0.7799
 1016SOL    HW114684   3.124   0.739   5.733  1.1661 -0.0255  0.1281
 1016SOL    HW214685   3.037   0.724   5.614  1.7189 -1.3549  0.2324
 1017SOL     OW14686   2.126   4.049   2.947  0.7443 -0.2253  0.0642
 1017SOL    HW114687   2.067   4.037   2.873 -1.4486  4.3248  1.0650
 1017SOL    HW214688   2.213   4.033   2.910  1.2930  2.7395  0.0782
 1018SOL     OW14689   1.195   1.242  16.415 -0.1881 -0.2117  0.3917
 1018SOL    HW114690   1.201   1.147  16.410 -0.9214 -0.2268 -0.1542
 1018SOL    HW214691   1.271   1.268  16.466  0.2386  1.5461 -1.1323
 1019SOL     OW14692   2.530   1.500  12.520  0.3622  0.1411  0.0118
 1019SOL    HW114693   2.515   1.406  12.529 -1.2192  0.5607  1.6325
 1019SOL    HW214694   2.488   1.530  12.439 -0.2678 -1.2793 -0.1700
 1020SOL     OW14695   2.857   3.338  13.487  0.2078 -0.5899  0.3057
 1020SOL    HW114696   2.781   3.356  13.431  0.0744  1.7307  1.2242
 1020SOL    HW214697   2.869   3.416  13.540 -0.4651  0.9789 -1.8445
 1021SOL     OW14698   4.666   3.645   5.936  0.4652  0.1053 -0.2754
 1021SOL    HW114699   0.015   3.687   5.914  0.3827 -0.5344 -1.7868
 1021SOL    HW214700   4.670   3.657   6.031 -0.8041 -1.8911  0.0429
 1022SOL     OW14701   3.145   4.008  15.592  0.6153  0.1297 -0.4503
 1022SOL    HW114702   3.159   4.094  15.553 -0.1180  0.2039 -0.5490
 1022SOL    HW214703   3.192   3.954  15.529 -0.1293 -0.4985 -0.4541
 1023SOL     OW14704   1.793   3.820  16.690 -0.2713  0.4483  0.0040
 1023SOL    HW114705   1.873   3.777  16.716 -0.8502 -1.0450 -0.6892
 1023SOL    HW214706   1.729   3.796  16.756 -1.5313 -0.4860 -1.5497
 1024SOL     OW14707   1.615   1.512  14.034  0.5272  0.2359 -0.6976
 1024SOL    HW114708   1.710   1.518  14.030  0.7858 -2.0164  1.6500
 1024SOL    HW214709   1.603   1.419  14.011  0.1048  0.5883 -1.8928
 1025SOL     OW14710   0.744   2.261  14.404 -0.4824 -0.2994 -0.1163
 1025SOL    HW114711   0.701   2.336  14.445  0.3673 -0.0344  0.3024
 1025SOL    HW214712   0.697   2.183  14.431  1.0723 -0.0808  3.3773
 1026SOL     OW14713   1.141   0.710   2.878 -0.1721  0.1923  0.7249
 1026SOL    HW114714   1.145   0.716   2.973 -2.7231  2.1441  0.7249
 1026SOL    HW214715   1.227   0.745   2.855  0.6287 -1.1319  1.7022
 1027SOL     OW14716   1.766   3.235   6.977 -0.2133 -0.3314 -0.3896
 1027SOL    HW114717   1.826   3.169   6.942  0.0299  0.1703 -0.8949
 1027SOL    HW214718   1.766   3.216   7.071 -3.1059  0.6008 -0.1906
 1028SOL     OW14719   0.204   4.132  13.775 -0.5545  0.9113  0.2677
 1028SOL    HW114720   0.217   4.225  13.756 -1.8643  0.7469 -1.4441
 1028SOL    HW214721   0.172   4.106  13.688  0.8092  0.7280 -0.1712
 1029SOL     OW14722   0.312   1.542   6.119  0.1175 -0.6551 -0.3590
 1029SOL    HW114723   0.311   1.582   6.032 -2.3570  0.1759  0.0739
 1029SOL    HW214724   0.404   1.522   6.137  0.3168  0.9920  0.4630
 1030SOL     OW14725   3.625   0.829   1.517 -0.4847 -0.7306  0.3630
 1030SOL    HW114726   3.682   0.871   1.581 -2.0249  0.2424  1.0963
 1030SOL    HW214727   3.667   0.743   1.530  0.3584 -0.6665 -1.9072
 1031SOL     OW14728   3.834   4.447   3.538 -0.3680  0.0385 -0.4637
 1031SOL    HW114729   3.860   4.447   3.446 -0.1826  1.0590 -0.4181
 1031SOL    HW214730   3.771   4.520   3.533  0.3637  0.5955 -1.5765
 1032SOL     OW14731   0.066   3.416   5.268  0.4129  0.3008  0.1009
 1032SOL    HW114732   0.019   3.403   5.350 -1.0991  0.8441 -0.6766
 1032SOL    HW214733   0.156   3.414   5.300 -0.8358 -0.2690  3.6091
 1033SOL     OW14734   2.362   2.883   2.750 -0.1209  0.0539  0.0448
 1033SOL    HW114735   2.423   2.813   2.775  0.5320  0.8349  0.6346
 1033SOL    HW214736   2.428   2.952   2.743  0.0913 -0.1960 -0.3969
 1034SOL     OW14737   0.403   1.736   4.570 -0.4054  0.4047  0.1614
 1034SOL    HW114738   0.352   1.656   4.561 -0.0487  0.1643  0.3053
 1034SOL    HW214739   0.354   1.788   4.635 -1.3499 -0.3311  0.0341
 1035SOL     OW14740   1.170   1.552  13.390  0.1591 -0.2763 -0.5338
 1035SOL    HW114741   1.100   1.542  13.455  0.5724  0.7138  0.0531
 1035SOL    HW214742   1.232   1.598  13.447 -1.0313  0.1896  0.3819
 1036SOL     OW14743   3.952   3.976   3.112  0.2177  0.3536  0.5233
 1036SOL    HW114744   3.861   3.949   3.119  0.7852 -1.8458 -0.7919
 1036SOL    HW214745   3.999   3.900   3.079 -0.4451 -0.6762  1.9811
 1037SOL     OW14746   1.850   2.828   4.213 -0.2444 -0.3790 -0.6562
 1037SOL    HW114747   1.782   2.875   4.261  0.0986  0.3645 -0.9088
 1037SOL    HW214748   1.836   2.860   4.125  1.2212  2.5110  0.1754
 1038SOL     OW14749   4.170   0.065   1.468 -0.0700 -0.4847 -0.3567
 1038SOL    HW114750   4.110   4.731   1.497  0.0312 -1.3069 -2.0886
 1038SOL    HW214751   4.254   0.019   1.462 -0.5855 -1.1828 -2.1232
 1039SOL     OW14752   0.245   3.487   0.814 -0.2655 -0.1094 -0.1120
 1039SOL    HW114753   0.163   3.516   0.772  0.7223 -0.2766 -2.1375
 1039SOL    HW214754   0.269   3.574   0.847 -2.9977  0.3827  0.6696
 1040SOL     OW14755   2.044   4.173   7.274  0.0581 -0.0557  0.3646
 1040SOL    HW114756   1.991   4.196   7.197  1.0964  1.5410  0.1218
 1040SOL    HW214757   2.105   4.247   7.276  0.3292 -0.2696 -0.0128
 1041SOL     OW14758   0.762   1.416   0.410  0.0238  0.5753 -0.0495
 1041SOL    HW114759   0.668   1.431   0.422  0.1458  1.1590  0.2245
 1041SOL    HW214760   0.772   1.323   0.390  2.6219  0.2985  2.5982
 1042SOL     OW14761   3.352   1.288   9.007 -0.2813  0.2821  0.2261
 1042SOL    HW114762   3.394   1.339   9.077 -0.3697  0.6585  0.0049
 1042SOL    HW214763   3.300   1.221   9.051  0.8810  0.1416  1.3665
 1043SOL     OW14764   2.338   3.696   6.824  0.1359  0.0918 -0.0768
 1043SOL    HW114765   2.391   3.755   6.770  0.6983  0.5529  0.9925
 1043SOL    HW214766   2.409   3.676   6.885 -1.5056 -0.2654  1.7098
 1044SOL     OW14767   1.061   1.089   5.124  0.4217 -0.3009 -0.6777
 1044SOL    HW114768   1.139   1.080   5.069  1.9109 -0.0653  1.4282
 1044SOL    HW214769   1.032   1.175   5.093  1.1253  0.5149  0.9340
 1045SOL     OW14770   4.222   3.197   7.234  0.5165  0.0035  0.2874
 1045SOL    HW114771   4.162   3.128   7.264 -0.1688  2.2044  3.8513
 1045SOL    HW214772   4.230   3.172   7.141 -1.4080 -2.4756  0.7838
 1046SOL     OW14773   0.371   3.550   2.560 -0.3439 -0.0205  0.0350
 1046SOL    HW114774   0.281   3.551   2.526 -0.5373  0.6776  0.5594
 1046SOL    HW214775   0.350   3.632   2.606 -2.8790 -0.4793 -0.2575
 1047SOL     OW14776   2.116   0.898   6.292 -0.6354 -0.2356 -0.2611
 1047SOL    HW114777   2.205   0.935   6.286  0.2526 -2.2127  0.7241
 1047SOL    HW214778   2.078   0.927   6.375  0.4414  0.0863  0.1203
 1048SOL     OW14779   2.845   2.814   0.561  0.1570 -0.2625  0.2141
 1048SOL    HW114780   2.751   2.831   0.570 -0.0545 -0.6431 -1.2303
 1048SOL    HW214781   2.860   2.736   0.614 -0.3586  1.1071  2.3579
 1049SOL     OW14782   2.406   2.488  14.805 -0.2122 -0.1175 -0.0146
 1049SOL    HW114783   2.318   2.519  14.787 -0.0215 -0.9279 -2.3791
 1049SOL    HW214784   2.389   2.401  14.841  0.4820 -1.1822 -2.1943
 1050SOL     OW14785   2.846   0.187   1.854  0.0609  0.4425 -0.1695
 1050SOL    HW114786   2.843   0.280   1.877 -0.9462  0.5543 -0.7654
 1050SOL    HW214787   2.811   0.141   1.930 -0.3582 -0.6822 -1.0376
 1051SOL     OW14788   2.268   4.200   1.994  0.1219  0.0281 -0.2076
 1051SOL    HW114789   2.190   4.243   1.960  0.4390  0.2178 -0.6969
 1051SOL    HW214790   2.318   4.161   1.922 -0.3512  0.3890 -0.7314
 1052SOL     OW14791   0.229   2.696  13.711  0.1157  0.3672  0.2849
 1052SOL    HW114792   0.258   2.787  13.718  0.3133  0.1459  2.3106
 1052SOL    HW214793   0.315   2.657  13.699  0.0149  0.2804 -0.1566
 1053SOL     OW14794   3.698   1.415   7.042 -0.0728 -0.1354 -0.8012
 1053SOL    HW114795   3.706   1.486   7.105 -1.2512  0.0552 -0.8741
 1053SOL    HW214796   3.782   1.424   6.997 -0.1522  2.1640 -0.4858
 1054SOL     OW14797   0.411   4.557  13.287  0.2496  0.3300 -0.3038
 1054SOL    HW114798   0.439   4.612  13.360 -0.1980  0.5950 -0.3281
 1054SOL    HW214799   0.339   4.614  13.259 -0.0809  1.0490  2.0582
 1055SOL     OW14800   1.972   1.893   8.409 -0.5630  0.2545  0.2921
 1055SOL    HW114801   2.050   1.888   8.464 -1.7683 -3.2824  1.7050
 1055SOL    HW214802   1.972   1.823   8.344 -0.4098 -0.4958  1.0923
 1056SOL     OW14803   1.797   2.978  11.350  0.5653 -0.7392  0.7798
 1056SOL    HW114804   1.764   3.034  11.421  0.5678 -1.4846  1.3723
 1056SOL    HW214805   1.891   2.971  11.369  0.8318  0.3477 -0.1307
 1057SOL     OW14806   3.857   3.334   8.102 -0.3572  0.0151 -0.0796
 1057SOL    HW114807   3.771   3.339   8.060  0.0087  3.0995 -0.4436
 1057SOL    HW214808   3.840   3.355   8.194  0.4830  2.7091 -0.5231
 1058SOL     OW14809   3.508   3.645   3.123 -0.4334 -0.0124  0.7574
 1058SOL    HW114810   3.496   3.739   3.109  0.9189 -0.0104 -0.4181
 1058SOL    HW214811   3.583   3.637   3.183  0.3655  1.3401 -0.0405
 1059SOL     OW14812   3.256   1.437   2.307 -0.4157 -0.4687  0.4277
 1059SOL    HW114813   3.324   1.489   2.351 -0.1224 -0.7486  0.2943
 1059SOL    HW214814   3.304   1.356   2.292 -3.1733 -1.3699 -3.5161
 1060SOL     OW14815   3.034   0.229   5.606  0.5369 -0.1195 -0.3673
 1060SOL    HW114816   3.007   0.150   5.653 -0.3619  1.7869  2.2874
 1060SOL    HW214817   2.962   0.239   5.545 -0.5700  2.1074  1.3120
 1061SOL     OW14818   3.831   0.906  12.578 -0.0535 -0.0576 -0.0844
 1061SOL    HW114819   3.776   0.984  12.582 -0.7577 -0.5984  0.7546
 1061SOL    HW214820   3.914   0.940  12.544 -1.2095  1.5675 -1.2835
 1062SOL     OW14821   2.703   4.137   1.742 -0.3686 -0.0463  0.8026
 1062SOL    HW114822   2.776   4.194   1.718 -0.7248 -0.3118 -0.9410
 1062SOL    HW214823   2.628   4.189   1.712 -0.9021 -2.6239 -2.2842
 1063SOL     OW14824   3.095   3.690   5.578 -0.4676 -0.1879  0.4539
 1063SOL    HW114825   3.040   3.616   5.553 -0.4919 -0.5061  1.4502
 1063SOL    HW214826   3.158   3.638   5.627 -2.9395 -2.0633  1.6708
 1064SOL     OW14827   1.424   2.838  11.116  0.1458 -0.3883 -0.4424
 1064SOL    HW114828   1.490   2.904  11.096 -0.3515  0.7781  1.7653
 1064SOL    HW214829   1.376   2.884  11.185  0.5400 -0.9235  0.1903
 1065SOL     OW14830   0.581   3.598   2.395 -0.0951 -0.3428 -0.2710
 1065SOL    HW114831   0.576   3.519   2.342 -0.1172 -1.0285  0.7613
 1065SOL    HW214832   0.496   3.587   2.436  0.7229 -1.7818  1.0149
 1066SOL     OW14833   0.855   1.176  17.326  0.2356 -0.4055  0.2619
 1066SOL    HW114834   0.933   1.153  17.277  0.1386 -0.4225  0.1151
 1066SOL    HW214835   0.867   1.268  17.348 -1.9366 -0.0918  0.2014
 1067SOL     OW14836   0.434   3.916  15.473  0.2397 -0.3732 -0.1861
 1067SOL    HW114837   0.464   3.993  15.521  2.0239  0.2280 -2.2858
 1067SOL    HW214838   0.406   3.946  15.386 -1.9823 -1.3180  0.2089
 1068SOL     OW14839   2.712   4.622   6.552  0.2086  0.2407 -0.2620
 1068SOL    HW114840   2.716   4.590   6.462 -2.1321 -0.7096 -0.0258
 1068SOL    HW214841   2.733   4.715   6.548  0.6995  0.1158 -0.5269
 1069SOL     OW14842   2.596   0.126   4.003 -0.6446 -0.3201  0.0731
 1069SOL    HW114843   2.640   0.042   3.991  1.9993  1.1432 -0.4545
 1069SOL    HW214844   2.512   0.091   4.033 -0.1594 -1.7403 -0.2463
 1070SOL     OW14845   2.445   3.548   9.976 -0.2465 -0.2330 -0.4559
 1070SOL    HW114846   2.469   3.614  10.042  0.5198 -1.5436  0.5684
 1070SOL    HW214847   2.487   3.584   9.898 -0.7174  1.9434  0.2958
 1071SOL     OW14848   3.840   2.969   3.421 -0.4347  0.5283  0.1145
 1071SOL    HW114849   3.765   2.969   3.361 -1.5315 -0.4015  1.4705
 1071SOL    HW214850   3.827   2.885   3.465  1.5546  0.6944  1.0121
 1072SOL     OW14851   3.341   0.275   4.820  0.1806  0.4052 -0.2811
 1072SOL    HW114852   3.434   0.260   4.833  0.6692  2.0467 -1.9867
 1072SOL    HW214853   3.306   0.232   4.898  1.1935  2.0631  1.0797
 1073SOL     OW14854   3.177   3.845   6.705 -0.6180  0.0116  0.2184
 1073SOL    HW114855   3.213   3.765   6.743 -0.4486 -0.8646 -1.7980
 1073SOL    HW214856   3.122   3.890   6.769 -1.3782 -2.4776  1.2723
 1074SOL     OW14857   2.831   2.406   6.046  0.1969  0.1432 -0.5105
 1074SOL    HW114858   2.925   2.409   6.025  0.2613  1.5806 -0.0496
 1074SOL    HW214859   2.822   2.313   6.064  2.6422  0.1933  1.0010
 1075SOL     OW14860   0.555   0.429  13.849 -0.9915  0.4606  0.3633
 1075SOL    HW114861   0.541   0.349  13.901 -1.8355  1.1114  1.1344
 1075SOL    HW214862   0.633   0.468  13.888 -1.6651  1.1252  1.0413
 1076SOL     OW14863   1.262   1.564   3.333  0.1587  0.5503  0.1183
 1076SOL    HW114864   1.220   1.588   3.415  0.6071  2.7271 -0.2932
 1076SOL    HW214865   1.225   1.623   3.268  1.7248  1.2776 -0.1160
 1077SOL     OW14866   0.308   0.351   2.248 -0.2582 -0.2072  0.5906
 1077SOL    HW114867   0.237   0.367   2.186  0.6627  1.6852  0.0125
 1077SOL    HW214868   0.294   0.418   2.315 -1.6659  0.1675 -0.0761
 1078SOL     OW14869   0.045   3.667   6.199  0.2130  0.2223 -0.7623
 1078SOL    HW114870   0.104   3.593   6.215 -1.0022 -0.6023 -0.0836
 1078SOL    HW214871   0.001   3.670   6.284  1.5195  0.4531 -0.0994
 1079SOL     OW14872   3.375   3.579   5.370 -0.2281  0.1620  0.2525
 1079SOL    HW114873   3.444   3.617   5.424  0.1335  0.3211 -0.3312
 1079SOL    HW214874   3.337   3.540   5.450 -2.3215 -1.2537 -1.4262
 1080SOL     OW14875   4.083   1.414   1.398 -0.1448 -0.3543 -0.1254
 1080SOL    HW114876   4.029   1.458   1.464 -1.9619  0.3008 -2.0760
 1080SOL    HW214877   4.168   1.422   1.442  0.2378  2.4410 -1.3745
 1081SOL     OW14878   3.748   1.839   9.072  0.1206  0.0666 -0.0912
 1081SOL    HW114879   3.687   1.896   9.024 -1.6511  0.3573  2.5034
 1081SOL    HW214880   3.694   1.766   9.100 -0.3283  0.2061 -0.5841
 1082SOL     OW14881   1.959   0.496   7.868  0.0276  0.1355  0.0192
 1082SOL    HW114882   1.931   0.451   7.789 -1.1489 -1.7837  1.5178
 1082SOL    HW214883   1.992   0.579   7.834 -0.0196  0.0041 -0.3450
 1083SOL     OW14884   3.330   2.482   6.002 -0.1377  0.1914  0.1057
 1083SOL    HW114885   3.413   2.446   5.971 -0.5393 -0.9637  0.4030
 1083SOL    HW214886   3.336   2.437   6.086 -0.8613  1.1802  0.6813
 1084SOL     OW14887   0.040   1.182   2.019 -0.1074  0.0334  0.3872
 1084SOL    HW114888   0.065   1.091   2.030  1.0182  0.3336  0.2487
 1084SOL    HW214889   0.081   1.209   1.937  0.7096  1.2491  1.1926
 1085SOL     OW14890   4.191   1.024   8.935  0.0839 -0.0821  0.4723
 1085SOL    HW114891   4.138   0.946   8.955  0.4080 -0.8612 -1.7447
 1085SOL    HW214892   4.197   1.016   8.840  4.5248 -0.3018  0.7695
 1086SOL     OW14893   3.138   1.596   7.255 -0.1454  0.0898  0.4520
 1086SOL    HW114894   3.169   1.513   7.220  2.9838  1.3008  0.3253
 1086SOL    HW214895   3.108   1.637   7.174  0.4325  0.0104  0.1966
 1087SOL     OW14896   3.980   0.144   2.492 -0.4905  0.0019 -0.3485
 1087SOL    HW114897   3.989   0.105   2.405  1.9198  1.7918 -0.8914
 1087SOL    HW214898   3.905   0.201   2.473  0.0651  1.1615  0.9553
 1088SOL     OW14899   2.939   0.468   9.477 -0.5781 -0.5357 -0.1598
 1088SOL    HW114900   2.916   0.560   9.488 -0.5310 -0.4928 -0.4015
 1088SOL    HW214901   3.015   0.470   9.418 -0.0231 -2.9596  0.4891
 1089SOL     OW14902   2.415   1.638   2.338 -0.4930  0.2236 -0.3689
 1089SOL    HW114903   2.499   1.604   2.370 -0.5281 -0.2461 -0.7693
 1089SOL    HW214904   2.354   1.565   2.348  1.4817 -1.3814 -0.1116
 1090SOL     OW14905   0.014   1.771  16.086  0.1526 -0.1260 -0.6734
 1090SOL    HW114906   4.698   1.774  16.005 -1.0311 -1.9055  0.0024
 1090SOL    HW214907   0.081   1.710  16.057  0.5826 -0.5661  1.2018
 1091SOL     OW14908   3.902   0.818   3.165 -0.2395  0.1622  0.0676
 1091SOL    HW114909   3.965   0.746   3.168 -0.0511  0.2139 -2.2053
 1091SOL    HW214910   3.897   0.843   3.257 -0.9301 -1.6825  0.5241
 1092SOL     OW14911   1.007   0.030   3.329 -0.1307  0.3100 -0.4291
 1092SOL    HW114912   0.997   0.085   3.252 -0.9365 -1.3270 -1.4857
 1092SOL    HW214913   0.918   0.033   3.363 -0.6812  1.6610 -2.0005
 1093SOL     OW14914   2.104   0.468  16.836 -0.1897  0.0668 -0.3920
 1093SOL    HW114915   2.029   0.408  16.835 -0.6788  0.6764 -0.0784
 1093SOL    HW214916   2.069   0.530  16.899 -2.8769 -0.5763 -1.2450
 1094SOL     OW14917   3.901   1.446   7.887 -0.4467 -0.3962 -0.0218
 1094SOL    HW114918   3.985   1.493   7.892 -0.4204 -0.1971 -2.2344
 1094SOL    HW214919   3.932   1.356   7.897  0.5978 -0.3774 -3.1132
 1095SOL     OW14920   2.365   1.467   3.476  0.1213  0.3021  0.2187
 1095SOL    HW114921   2.327   1.416   3.405 -0.9776 -0.5496  1.4339
 1095SOL    HW214922   2.386   1.552   3.437 -1.0899 -0.8240 -2.8341
 1096SOL     OW14923   2.459   3.282   6.783  0.1871 -0.0602 -0.7527
 1096SOL    HW114924   2.377   3.331   6.796 -0.3666 -0.6632 -1.9527
 1096SOL    HW214925   2.519   3.320   6.847 -0.2712 -0.1183 -0.2837
 1097SOL     OW14926   3.469   4.180   5.289  0.2983 -0.1110 -0.7437
 1097SOL    HW114927   3.416   4.165   5.211 -0.1570 -0.9746 -0.2643
 1097SOL    HW214928   3.520   4.099   5.300  0.6439  0.4629  1.7888
 1098SOL     OW14929   2.116   3.064   5.887 -0.5576  0.4275  0.3234
 1098SOL    HW114930   2.059   3.094   5.957  1.1304 -0.8295  2.2642
 1098SOL    HW214931   2.076   3.115   5.818  1.8041  0.3480 -1.1101
 1099SOL     OW14932   2.995   0.947   6.858  0.3362 -0.4427 -0.2706
 1099SOL    HW114933   2.900   0.956   6.864  0.2885  0.9142 -3.0642
 1099SOL    HW214934   2.992   0.861   6.815  1.0090 -0.4970 -0.1992
 1100SOL     OW14935   2.595   2.255   5.087  0.3947 -0.0203 -0.2584
 1100SOL    HW114936   2.587   2.174   5.036  0.7850  0.7029 -1.4372
 1100SOL    HW214937   2.666   2.307   5.051  0.0949 -0.2082 -1.1102
 1101SOL     OW14938   4.355   3.351  12.747  0.2642 -0.1183  0.2604
 1101SOL    HW114939   4.279   3.385  12.794 -0.6255  1.5987 -2.3865
 1101SOL    HW214940   4.418   3.421  12.760  0.4378 -0.3978  0.9193
 1102SOL     OW14941   3.061   2.410   8.122  0.0604  0.4498  0.4186
 1102SOL    HW114942   3.152   2.438   8.127 -0.0036  0.7550 -0.1746
 1102SOL    HW214943   3.022   2.495   8.101 -1.2293 -0.2392  0.0372
 1103SOL     OW14944   3.854   3.570   8.776 -0.9229 -0.0477 -0.4693
 1103SOL    HW114945   3.932   3.515   8.763  0.2079  0.8812  2.3961
 1103SOL    HW214946   3.817   3.532   8.856  0.1622 -1.7084 -0.7355
 1104SOL     OW14947   3.716   2.414   3.730 -0.1871 -0.3218  0.0293
 1104SOL    HW114948   3.760   2.416   3.645  1.3012  3.6427  0.9037
 1104SOL    HW214949   3.785   2.461   3.777 -1.0731  0.0328  0.9570
 1105SOL     OW14950   4.453   3.479  16.162  0.2039  0.4731 -0.1525
 1105SOL    HW114951   4.536   3.456  16.205  1.0404  1.0366 -1.4751
 1105SOL    HW214952   4.418   3.393  16.137 -1.0514  1.0482 -0.3377
 1106SOL     OW14953   3.324   0.751  11.993 -0.3879 -0.8428  0.0991
 1106SOL    HW114954   3.384   0.804  11.941 -0.2052 -0.1268  1.0178
 1106SOL    HW214955   3.265   0.825  12.010  0.9599  0.3326 -0.3535
 1107SOL     OW14956   0.861   2.492   2.369  0.1977 -0.1730 -0.5595
 1107SOL    HW114957   0.768   2.495   2.389 -0.1053 -3.3837 -1.4626
 1107SOL    HW214958   0.899   2.513   2.455 -0.5116  2.0147 -0.7972
 1108SOL     OW14959   0.884   1.928   1.670 -0.5772 -0.4169 -0.1447
 1108SOL    HW114960   0.823   1.857   1.689  0.3793 -1.2809 -0.2680
 1108SOL    HW214961   0.950   1.906   1.736  1.8520  0.7476 -2.1700
 1109SOL     OW14962   3.904   0.209   3.449  0.5185  0.3743  0.5819
 1109SOL    HW114963   3.889   0.296   3.413 -1.4623  0.8989  2.6979
 1109SOL    HW214964   3.971   0.178   3.388  0.5281  1.4406  0.0636
 1110SOL     OW14965   3.336   3.867   2.550  0.2919 -0.1430  0.3485
 1110SOL    HW114966   3.424   3.877   2.513  0.6439 -1.0461  0.9108
 1110SOL    HW214967   3.293   3.847   2.467 -1.4956 -0.8518  1.4546
 1111SOL     OW14968   3.259   1.917   5.984  0.0358  0.6801 -0.0887
 1111SOL    HW114969   3.281   1.826   5.962  1.0332  0.5963  1.2568
 1111SOL    HW214970   3.290   1.949   5.899 -2.2840  3.2850  0.0713
 1112SOL     OW14971   2.813   2.414   7.116 -0.0944  0.6915 -0.2836
 1112SOL    HW114972   2.804   2.435   7.209 -0.3416  0.8358 -0.3421
 1112SOL    HW214973   2.740   2.467   7.084 -1.0803 -0.4060  0.1446
 1113SOL     OW14974   1.828   1.394  10.809  0.7339  0.1890  0.5422
 1113SOL    HW114975   1.861   1.320  10.758  0.7043 -0.0564  0.8740
 1113SOL    HW214976   1.756   1.431  10.758  0.1785 -0.3174  0.9547
 1114SOL     OW14977   3.681   2.849   0.385 -0.3873  1.1477 -0.0746
 1114SOL    HW114978   3.626   2.924   0.409 -1.1423  1.1063 -1.6963
 1114SOL    HW214979   3.666   2.790   0.459 -1.0424  0.9648 -0.3595
 1115SOL     OW14980   1.737   0.361  10.540  0.4199 -0.0529  0.1066
 1115SOL    HW114981   1.808   0.321  10.589 -0.4780 -1.1050  0.5694
 1115SOL    HW214982   1.748   0.318  10.455 -2.4307 -1.5287  0.4781
 1116SOL     OW14983   0.223   0.201   9.107 -0.7475  0.3425  0.6102
 1116SOL    HW114984   0.203   0.198   9.013 -2.4998 -0.8189  1.0176
 1116SOL    HW214985   0.139   0.174   9.144 -0.2668  0.8773  2.0614
 1117SOL     OW14986   1.626   0.340   5.015 -0.2106  0.2416 -0.4744
 1117SOL    HW114987   1.638   0.274   5.083 -0.2129  1.3859  0.6414
 1117SOL    HW214988   1.653   0.290   4.938 -1.6999 -1.7038  0.2844
 1118SOL     OW14989   3.429   3.819   8.054 -0.4253  0.0000 -0.4817
 1118SOL    HW114990   3.392   3.742   8.097 -0.9004  0.3923 -0.1914
 1118SOL    HW214991   3.494   3.841   8.120 -1.4080 -1.3328  0.9298
 1119SOL     OW14992   2.898   0.511  15.908 -0.7338 -0.3574  0.4696
 1119SOL    HW114993   2.989   0.536  15.888  0.0046 -2.1880  1.5106
 1119SOL    HW214994   2.901   0.446  15.978  2.5650  2.0075  2.5198
 1120SOL     OW14995   3.370   0.530   6.506 -0.2721  0.1362 -0.4269
 1120SOL    HW114996   3.308   0.458   6.491 -0.3205  0.1339 -0.2178
 1120SOL    HW214997   3.367   0.538   6.601 -0.1226  1.7236 -0.5522
 1121SOL     OW14998   3.246   4.732  13.762 -0.7357  0.5792 -0.1615
 1121SOL    HW114999   3.315   0.027  13.822  0.0682 -0.6579 -0.4850
 1121SOL    HW215000   3.171   0.029  13.813 -0.2436  1.3752  0.0762
 1122SOL     OW15001   2.958   1.903   6.263  0.1616 -0.7513 -0.4315
 1122SOL    HW115002   2.975   1.993   6.238 -0.2987 -1.2307 -2.4788
 1122SOL    HW215003   2.867   1.907   6.290  0.2511  1.1984 -0.4551
 1123SOL     OW15004   1.509   3.356   7.653  0.0802  0.0424  0.0753
 1123SOL    HW115005   1.432   3.310   7.685  0.0465 -1.4937 -2.2071
 1123SOL    HW215006   1.471   3.433   7.610 -0.9506  0.1396  1.1705
 1124SOL     OW15007   0.930   1.215  15.755  0.2377 -0.5053  0.2433
 1124SOL    HW115008   0.891   1.303  15.759  0.6670 -0.3931  2.1737
 1124SOL    HW215009   0.856   1.166  15.792 -1.6981  1.4192 -1.0330
 1125SOL     OW15010   1.982   3.283   2.553  0.4375 -0.3751  0.4678
 1125SOL    HW115011   1.983   3.197   2.510 -0.5282 -0.1332 -0.0175
 1125SOL    HW215012   1.918   3.331   2.501  0.1914 -1.9073 -0.6393
 1126SOL     OW15013   0.489   2.862  12.090  0.0257 -0.4470 -0.1368
 1126SOL    HW115014   0.423   2.916  12.046 -0.2781 -2.2911 -1.9428
 1126SOL    HW215015   0.452   2.777  12.067 -0.2871  0.0836 -1.5826
 1127SOL     OW15016   1.767   1.077  14.153  0.0776  0.8149 -0.4965
 1127SOL    HW115017   1.684   1.112  14.121  0.5031  1.3764 -0.9590
 1127SOL    HW215018   1.826   1.112  14.087 -0.4110 -0.3355 -1.5540
 1128SOL     OW15019   0.536   2.473   2.079 -0.1814 -0.5511 -0.0465
 1128SOL    HW115020   0.530   2.381   2.102  0.2385 -0.4002  0.7050
 1128SOL    HW215021   0.622   2.478   2.037  0.4038  2.0998  1.4307
 1129SOL     OW15022   3.566   3.380   3.553 -0.1129 -0.1195  0.2987
 1129SOL    HW115023   3.639   3.332   3.592  0.3770  1.0229  0.7794
 1129SOL    HW215024   3.503   3.390   3.625  0.3571 -1.2988  0.8712
 1130SOL     OW15025   3.549   4.252   7.817  0.2035  0.1160 -0.1072
 1130SOL    HW115026   3.579   4.251   7.908 -2.9447 -0.5497  0.9243
 1130SOL    HW215027   3.527   4.160   7.805  2.2375 -0.3132 -0.6377
 1131SOL     OW15028   1.317   1.783   3.785  0.1922 -0.6281 -0.4233
 1131SOL    HW115029   1.344   1.872   3.807 -2.2231 -0.5219  2.0538
 1131SOL    HW215030   1.350   1.793   3.695  2.2174 -0.6291  0.3328
 1132SOL     OW15031   0.955   1.280   4.165 -0.3174 -0.0447 -1.1443
 1132SOL    HW115032   0.924   1.203   4.116  1.8217 -1.7024  0.1061
 1132SOL    HW215033   1.011   1.328   4.105  0.0111  0.2167 -0.6269
 1133SOL     OW15034   1.861   2.287   6.960  0.7160 -0.8600  0.2154
 1133SOL    HW115035   1.947   2.279   7.002  1.2012 -0.7958 -0.7730
 1133SOL    HW215036   1.884   2.359   6.902 -0.4052 -0.7233 -0.0680
 1134SOL     OW15037   4.455   2.910   9.834 -0.0641  0.1469  0.2345
 1134SOL    HW115038   4.361   2.923   9.826 -0.0562 -0.3934 -0.8334
 1134SOL    HW215039   4.478   2.851   9.906 -2.6020 -3.5968 -1.9858
 1135SOL     OW15040   1.208   4.043   4.016 -0.1933 -1.0114 -0.2676
 1135SOL    HW115041   1.285   3.993   4.043  1.0043  0.6404 -0.6191
 1135SOL    HW215042   1.189   4.100   4.090  1.7473 -0.4685 -0.2038
 1136SOL     OW15043   4.162   4.068   6.873  0.7742  0.0719  0.0654
 1136SOL    HW115044   4.176   4.141   6.934  2.1188  0.7477 -1.0329
 1136SOL    HW215045   4.129   4.111   6.794  1.3940  2.5996  1.1820
 1137SOL     OW15046   0.658   1.277  17.715  0.2515  0.4081  0.1629
 1137SOL    HW115047   0.594   1.206  17.711  0.8576 -0.2023  1.2806
 1137SOL    HW215048   0.623   1.327  17.642 -0.5171 -0.4572 -0.0537
 1138SOL     OW15049   4.567   1.412  11.686 -0.1588  0.0058  0.2020
 1138SOL    HW115050   4.647   1.451  11.721 -0.5418  1.3790 -0.5006
 1138SOL    HW215051   4.501   1.465  11.730  0.7064 -0.7008  2.3693
 1139SOL     OW15052   4.597   2.154   0.335 -0.2331  0.4506 -0.4837
 1139SOL    HW115053   4.662   2.084   0.335 -0.0291  0.6393 -0.8799
 1139SOL    HW215054   4.535   2.132   0.265  0.3652 -1.7128 -0.3450
 1140SOL     OW15055   1.200   3.770   9.965 -0.6173  0.2060  0.3356
 1140SOL    HW115056   1.196   3.692   9.910  2.5609  1.5128 -1.7523
 1140SOL    HW215057   1.160   3.727  10.041 -1.3044  0.4576  0.1205
 1141SOL     OW15058   1.365   1.872   7.645  0.5862 -0.0610 -0.3799
 1141SOL    HW115059   1.296   1.863   7.579  1.2456 -0.2240 -1.0431
 1141SOL    HW215060   1.423   1.932   7.598 -1.6677  0.5564 -2.3389
 1142SOL     OW15061   3.100   0.819   0.037  0.6085 -0.1142 -0.2678
 1142SOL    HW115062   3.031   0.805  17.708  0.5376  1.1191 -0.4523
 1142SOL    HW215063   3.164   0.751   0.015  1.4666 -0.1391  2.3064
 1143SOL     OW15064   0.800   0.819   0.704 -0.3855 -0.3180 -0.6763
 1143SOL    HW115065   0.778   0.865   0.623 -2.9954 -0.8806 -0.3012
 1143SOL    HW215066   0.894   0.805   0.693  0.0357  0.6258  1.6561
 1144SOL     OW15067   3.743   0.649   1.954 -0.2732  0.1725  0.3844
 1144SOL    HW115068   3.667   0.705   1.943 -1.6251 -1.4784  1.3065
 1144SOL    HW215069   3.756   0.647   2.049 -1.4389 -0.3229  0.5341
 1145SOL     OW15070   1.883   0.440   2.711  0.1361  0.1024 -1.1442
 1145SOL    HW115071   1.890   0.462   2.618  0.8217  4.3119 -0.0848
 1145SOL    HW215072   1.798   0.396   2.714  0.4088 -0.6503 -4.1100
 1146SOL     OW15073   3.160   0.427  11.206  0.0792  0.3299 -0.1222
 1146SOL    HW115074   3.246   0.468  11.212 -0.0897  0.2558  2.8911
 1146SOL    HW215075   3.108   0.499  11.242  1.3217 -0.1539  2.5944
 1147SOL     OW15076   3.364   1.523   6.571 -0.3838 -0.0472 -0.1269
 1147SOL    HW115077   3.355   1.460   6.642  1.7675  0.4651  0.5919
 1147SOL    HW215078   3.345   1.603   6.620 -1.4315 -0.3875  0.0176
 1148SOL     OW15079   2.708   0.691   7.200  0.0728 -0.3780 -0.1050
 1148SOL    HW115080   2.679   0.617   7.146 -0.9143 -0.1113  0.0634
 1148SOL    HW215081   2.632   0.749   7.203  0.6782  0.5844 -2.8277
 1149SOL     OW15082   1.304   4.678  17.315 -0.0156  0.1170  0.0030
 1149SOL    HW115083   1.214   4.709  17.303 -0.1079  0.2547  1.0499
 1149SOL    HW215084   1.353   0.025  17.302 -0.3595  0.1056 -1.3645
 1150SOL     OW15085   2.465   3.049   2.347  0.0675 -0.1134  1.1638
 1150SOL    HW115086   2.540   3.001   2.383  1.2075  1.4500  0.8591
 1150SOL    HW215087   2.506   3.108   2.284 -1.8586 -0.6053 -0.5508
 1151SOL     OW15088   1.582   3.346   7.920 -0.6255 -0.2085 -0.3235
 1151SOL    HW115089   1.572   3.360   7.825  0.4146  1.9308 -0.1233
 1151SOL    HW215090   1.664   3.297   7.929 -1.8046 -1.8270  1.4193
 1152SOL     OW15091   4.725   0.640   0.793 -0.2512 -0.3732  0.2093
 1152SOL    HW115092   0.056   0.621   0.726  1.3479  0.9206  1.4258
 1152SOL    HW215093   0.029   0.595   0.868  0.5546  0.1269  0.0994
 1153SOL     OW15094   1.948   0.899   7.240  1.1003 -0.4083 -0.5631
 1153SOL    HW115095   1.952   0.803   7.242  1.4208 -0.3659  0.6778
 1153SOL    HW215096   1.902   0.913   7.322  1.2504 -3.0186 -0.0414
 1154SOL     OW15097   3.843   0.042   9.086 -0.8194 -0.6451 -0.1591
 1154SOL    HW115098   3.885   0.046   9.173 -1.5225 -3.9288  0.3278
 1154SOL    HW215099   3.748   0.033   9.091 -0.8268  1.0206  2.9356
 1155SOL     OW15100   3.132   2.796   4.815  0.4245  0.5202  0.2656
 1155SOL    HW115101   3.201   2.769   4.875  0.1082  0.8443  0.7743
 1155SOL    HW215102   3.115   2.713   4.770 -1.8018 -0.2661  2.5812
 1156SOL     OW15103   0.421   2.691  16.981 -0.0986 -0.1342  0.2364
 1156SOL    HW115104   0.387   2.610  17.020 -2.6548  1.7752  1.9684
 1156SOL    HW215105   0.351   2.720  16.922  0.6065 -1.1729 -1.1246
 1157SOL     OW15106   1.861   1.005   8.872 -0.0746 -0.0198 -0.6972
 1157SOL    HW115107   1.954   1.024   8.882 -0.4153  1.3031 -0.0913
 1157SOL    HW215108   1.869   0.911   8.854 -0.2062  0.2679 -2.2711
 1158SOL     OW15109   4.489   4.662   3.513 -0.5496 -0.0901 -0.0650
 1158SOL    HW115110   4.529   4.688   3.596 -0.8836 -0.9979  0.3759
 1158SOL    HW215111   4.566   4.643   3.459 -0.9235  0.2142 -0.7074
 1159SOL     OW15112   3.764   1.312   8.123 -0.2271 -0.1994  0.1865
 1159SOL    HW115113   3.764   1.272   8.036 -1.4099 -3.2596  1.6075
 1159SOL    HW215114   3.814   1.394   8.117 -0.6231  0.0129 -0.2371
 1160SOL     OW15115   2.796   2.593   8.200 -0.3558 -0.3176  0.1299
 1160SOL    HW115116   2.775   2.674   8.246  1.3877 -0.4870  1.2173
 1160SOL    HW215117   2.835   2.552   8.277 -0.2422  0.0699  0.2755
 1161SOL     OW15118   1.144   0.943   0.495 -0.3138 -0.2562  0.0614
 1161SOL    HW115119   1.178   0.918   0.580 -2.7556 -1.3978  0.7038
 1161SOL    HW215120   1.123   0.856   0.461  1.3316 -0.2851 -0.9074
 1162SOL     OW15121   4.659   0.592   1.920 -0.2631  0.0637  0.2436
 1162SOL    HW115122   4.648   0.682   1.953 -2.5943 -0.3791  0.6408
 1162SOL    HW215123   4.664   0.608   1.826  2.3178 -1.4630  0.1206
 1163SOL     OW15124   4.190   2.243   8.981  0.4926 -0.1709 -0.1379
 1163SOL    HW115125   4.106   2.217   8.941  0.2591 -2.5141  1.8688
 1163SOL    HW215126   4.158   2.275   9.065 -0.2077 -0.1677 -0.4066
 1164SOL     OW15127   1.930   0.768   0.315 -0.3151  0.4385 -0.9310
 1164SOL    HW115128   1.973   0.744   0.233  0.1935 -0.7128 -0.3253
 1164SOL    HW215129   1.983   0.712   0.371 -1.4115  0.6393  0.3270
 1165SOL     OW15130   1.114   2.165   7.204 -0.2484  0.2634 -0.9663
 1165SOL    HW115131   1.090   2.148   7.295  1.2399 -0.4690 -0.7064
 1165SOL    HW215132   1.037   2.183   7.151 -0.7906 -0.7629 -0.5236
 1166SOL     OW15133   1.511   2.414  10.497  0.1453 -0.3001  0.6962
 1166SOL    HW115134   1.529   2.438  10.587 -0.4630  0.5317  0.5881
 1166SOL    HW215135   1.550   2.326  10.500  1.0965  0.1043  0.2101
 1167SOL     OW15136   3.275   4.613   4.786 -0.5858  0.3012 -0.0238
 1167SOL    HW115137   3.242   4.548   4.848  0.7374  2.0162  2.4749
 1167SOL    HW215138   3.248   4.692   4.832  0.4362 -0.5329  2.0041
 1168SOL     OW15139   3.320   4.580  11.130  0.5265 -0.1077  0.1754
 1168SOL    HW115140   3.321   4.600  11.223 -0.1688 -1.6512  0.5216
 1168SOL    HW215141   3.226   4.565  11.118  0.5818  1.5666 -2.3885
 1169SOL     OW15142   0.054   4.682   5.462  0.1698  0.2742 -0.4159
 1169SOL    HW115143   4.726   0.012   5.496 -0.9734 -1.6659  1.0982
 1169SOL    HW215144   0.090   0.004   5.393 -0.4200 -0.1143 -1.0324
 1170SOL     OW15145   0.040   0.636  17.171 -0.2596 -0.4811 -0.2478
 1170SOL    HW115146   0.113   0.585  17.137  0.3282 -0.1210  0.4815
 1170SOL    HW215147   4.698   0.612  17.118 -0.2797  2.1761 -1.4087
 1171SOL     OW15148   4.615   1.541   8.950 -0.2912 -0.1549 -0.4909
 1171SOL    HW115149   4.589   1.457   8.988  2.0207 -0.1835  1.0095
 1171SOL    HW215150   4.538   1.557   8.895 -0.8668 -0.1987  0.3001
 1172SOL     OW15151   0.401   3.837   3.747  0.3610 -0.4467  0.1171
 1172SOL    HW115152   0.408   3.910   3.809 -0.3532 -0.8010  0.6103
 1172SOL    HW215153   0.307   3.828   3.731  0.1096 -0.9193  1.8360
 1173SOL     OW15154   1.653   1.742   0.720  0.3112 -0.2774  0.1396
 1173SOL    HW115155   1.610   1.738   0.805 -0.5487 -1.8496 -0.3723
 1173SOL    HW215156   1.703   1.822   0.733 -1.4903  0.7349  0.8818
 1174SOL     OW15157   1.860   1.951   5.768 -0.2353  0.6256 -0.6215
 1174SOL    HW115158   1.852   2.041   5.798 -3.1781  0.6612 -1.4840
 1174SOL    HW215159   1.834   1.901   5.844  2.6444  1.6971  1.0664
 1175SOL     OW15160   3.456   1.613   2.425 -0.5104 -0.8281  0.1095
 1175SOL    HW115161   3.429   1.704   2.409  0.0751 -0.4607  1.2398
 1175SOL    HW215162   3.542   1.602   2.385  0.3758 -0.4229  1.9011
 1176SOL     OW15163   3.686   3.839   4.088  0.0798  0.0084  0.2286
 1176SOL    HW115164   3.634   3.770   4.129 -1.1059  0.0029 -1.2579
 1176SOL    HW215165   3.640   3.919   4.113 -0.5788 -0.0492 -0.8134
 1177SOL     OW15166   3.937   4.451   4.938 -0.0647  0.9103  0.0684
 1177SOL    HW115167   3.910   4.542   4.931  2.9592  1.8869  1.3851
 1177SOL    HW215168   4.007   4.456   4.872 -0.9607  1.6796 -0.8100
 1178SOL     OW15169   3.539   3.401   2.693 -0.5185 -0.5604 -0.0073
 1178SOL    HW115170   3.602   3.342   2.736  1.5215  1.9565  0.4561
 1178SOL    HW215171   3.535   3.471   2.758 -1.0352 -0.3447 -0.2736
 1179SOL     OW15172   3.048   0.512  16.216 -0.3117 -0.5001 -0.4458
 1179SOL    HW115173   3.020   0.543  16.302  0.0112  0.2029 -0.5978
 1179SOL    HW215174   2.965   0.471  16.189 -0.1932 -0.0544 -1.4857
 1180SOL     OW15175   3.138   3.434   9.038  0.7211 -0.5651  0.2154
 1180SOL    HW115176   3.104   3.345   9.047  2.6163 -1.3460 -0.3489
 1180SOL    HW215177   3.225   3.424   9.076  0.4067  0.5164  1.2514
 1181SOL     OW15178   2.302   0.118   5.527  0.1398  0.3590 -0.4552
 1181SOL    HW115179   2.389   0.080   5.522 -0.1681 -0.3914 -0.1753
 1181SOL    HW215180   2.277   0.110   5.619  0.2980  1.7379 -0.3057
 1182SOL     OW15181   3.610   1.451   7.450  0.1721  0.3783  0.4610
 1182SOL    HW115182   3.577   1.366   7.479 -2.7505  1.0904 -0.8144
 1182SOL    HW215183   3.589   1.497   7.532 -0.0754  3.2063 -1.2057
 1183SOL     OW15184   3.767   2.125  17.247 -0.1386  0.4800 -0.4210
 1183SOL    HW115185   3.839   2.083  17.294 -2.1257 -3.0769 -0.5768
 1183SOL    HW215186   3.799   2.212  17.225  0.2151  0.2966 -0.6238
 1184SOL     OW15187   0.148   1.432   8.319 -0.1738 -0.0583 -0.3317
 1184SOL    HW115188   0.163   1.478   8.402 -1.9341 -1.6993  0.8976
 1184SOL    HW215189   0.071   1.471   8.279 -0.3085 -1.8697 -1.8404
 1185SOL     OW15190   1.724   2.001   8.168  0.2403  0.3605  0.3598
 1185SOL    HW115191   1.673   2.062   8.221 -1.0629  0.4769 -1.0375
 1185SOL    HW215192   1.811   2.021   8.204  1.5243 -1.0016 -2.0191
 1186SOL     OW15193   3.747   0.193  11.213  0.2507 -0.1486 -0.3114
 1186SOL    HW115194   3.751   0.100  11.234 -2.0542 -0.1905 -0.0891
 1186SOL    HW215195   3.653   0.206  11.219  0.2792  1.0557 -2.5824
 1187SOL     OW15196   1.957   0.730   5.930 -0.5167 -0.2666 -0.2856
 1187SOL    HW115197   1.871   0.697   5.903 -2.2850  3.8885  0.2125
 1187SOL    HW215198   2.014   0.671   5.881 -2.3180 -0.2606 -2.4143
 1188SOL     OW15199   2.790   4.219   5.211 -0.5998 -0.0117 -0.1897
 1188SOL    HW115200   2.704   4.238   5.172 -0.6718 -0.2478 -0.1461
 1188SOL    HW215201   2.765   4.138   5.256 -0.7031  1.0034  1.5779
 1189SOL     OW15202   3.134   2.076  16.419  0.7783  0.0433 -0.0778
 1189SOL    HW115203   3.167   2.001  16.469 -0.0389 -1.6531 -2.0957
 1189SOL    HW215204   3.140   2.051  16.327  0.2139 -0.9259  0.1424
 1190SOL     OW15205   3.201   1.167   1.219  0.2979 -0.5151 -0.1255
 1190SOL    HW115206   3.129   1.145   1.278 -0.3077  2.6344  0.3160
 1190SOL    HW215207   3.192   1.097   1.154 -1.0131  0.0433 -0.5575
 1191SOL     OW15208   0.642   3.560   6.897  0.2104  0.6252 -0.1566
 1191SOL    HW115209   0.616   3.605   6.977  1.7210 -2.8569  2.2340
 1191SOL    HW215210   0.737   3.556   6.908  0.1581  0.1171  0.1007
 1192SOL     OW15211   1.807   2.941   6.915  0.4926  0.2821  0.6866
 1192SOL    HW115212   1.809   2.906   7.004  0.3885 -1.0114  0.1861
 1192SOL    HW215213   1.885   2.996   6.922  0.1243  0.9924 -0.8922
 1193SOL     OW15214   1.217   3.957   6.470  0.2310 -0.2322 -0.4773
 1193SOL    HW115215   1.205   3.972   6.376  1.2839 -0.0621 -0.5943
 1193SOL    HW215216   1.288   3.894   6.463  0.1181 -0.1813 -1.9530
 1194SOL     OW15217   0.309   4.458   5.346 -0.1885  0.4289 -0.0304
 1194SOL    HW115218   0.217   4.433   5.335  0.2591 -0.2021 -2.3946
 1194SOL    HW215219   0.317   4.436   5.438 -2.2238  1.5678  0.4287
 1195SOL     OW15220   2.795   3.720   5.456 -0.2412  0.6264 -0.6028
 1195SOL    HW115221   2.837   3.636   5.477  1.1058  0.3988 -4.2294
 1195SOL    HW215222   2.716   3.716   5.510  0.7621 -3.3290  0.5695
 1196SOL     OW15223   0.758   4.194   6.085  0.4255 -0.5691 -0.3209
 1196SOL    HW115224   0.777   4.236   6.001 -1.6362  1.6606  0.3466
 1196SOL    HW215225   0.810   4.246   6.147 -1.6519  1.4535 -0.2733
 1197SOL     OW15226   2.391   2.971  16.976  0.5496  0.1730  0.2980
 1197SOL    HW115227   2.378   2.903  17.042  0.4909  2.2001  2.3755
 1197SOL    HW215228   2.402   2.914  16.900  1.0776  0.1375  0.4007
 1198SOL     OW15229   0.154   3.565   1.505 -0.4302 -0.4050  0.0160
 1198SOL    HW115230   0.144   3.652   1.545 -1.1440  0.0349 -1.1286
 1198SOL    HW215231   0.078   3.565   1.446  0.4649 -1.6555 -1.1139
 1199SOL     OW15232   4.036   4.108   0.684 -0.0657 -0.2440  0.0004
 1199SOL    HW115233   4.089   4.072   0.613 -0.1497 -2.4956  1.1057
 1199SOL    HW215234   3.963   4.135   0.627 -0.4138  0.8745  0.9741
 1200SOL     OW15235   3.781   3.407  10.726 -0.4727 -0.0454 -0.2501
 1200SOL    HW115236   3.695   3.444  10.747  0.1405  0.6232  1.0532
 1200SOL    HW215237   3.816   3.391  10.813 -4.0238  1.6467  1.4995
 1201SOL     OW15238   4.629   2.079   4.548  0.1906 -0.1880  0.3570
 1201SOL    HW115239   4.551   2.113   4.503  0.7977 -0.9037 -1.2185
 1201SOL    HW215240   4.593   2.026   4.620 -1.4886 -2.1561 -1.9236
 1202SOL     OW15241   1.454   0.547   7.157 -0.3336  0.2212  0.7929
 1202SOL    HW115242   1.445   0.511   7.069  1.0090  0.1089  0.7091
 1202SOL    HW215243   1.498   0.628   7.130  0.6407 -0.8296 -0.7675
 1203SOL     OW15244   1.558   2.943  14.551 -0.0243 -0.8267  0.0590
 1203SOL    HW115245   1.491   2.939  14.619  0.9181  0.1494  1.0509
 1203SOL    HW215246   1.497   2.942  14.478 -0.4781 -0.5020  0.4315
 1204SOL     OW15247   1.621   0.410   8.588  0.0910 -0.4925 -0.5126
 1204SOL    HW115248   1.613   0.506   8.585 -3.4809 -0.8301 -2.0421
 1204SOL    HW215249   1.541   0.382   8.633  0.6374  0.0422  0.7680
 1205SOL     OW15250   0.572   4.352   3.382  0.3975 -0.5775  0.2478
 1205SOL    HW115251   0.577   4.352   3.287 -1.9272 -0.4003  0.1127
 1205SOL    HW215252   0.496   4.300   3.408  0.1479 -0.4099 -0.1407
 1206SOL     OW15253   2.488   0.708   1.037 -0.3305  0.8825  0.0323
 1206SOL    HW115254   2.510   0.725   1.129  1.5454 -2.6011  0.2152
 1206SOL    HW215255   2.402   0.752   1.036 -0.0085  1.5346  0.9351
 1207SOL     OW15256   1.588   2.311  11.186 -0.3660  0.0905 -0.2115
 1207SOL    HW115257   1.505   2.358  11.181  0.8188  2.3750  1.3496
 1207SOL    HW215258   1.622   2.349  11.105  1.1594  0.2378  0.5047
 1208SOL     OW15259   1.847   4.643   4.405 -0.4311 -0.0033  0.3549
 1208SOL    HW115260   1.919   4.678   4.353  0.6396 -0.5117  1.5088
 1208SOL    HW215261   1.865   4.549   4.405  2.8858  0.6234  1.6156
 1209SOL     OW15262   0.593   1.415   2.192  0.2773  0.0929 -0.2943
 1209SOL    HW115263   0.646   1.342   2.160  1.2131  1.6988 -2.3892
 1209SOL    HW215264   0.578   1.387   2.283  1.8216  0.1949 -0.0114
 1210SOL     OW15265   3.939   3.528   3.959  0.4206  0.1090 -0.4109
 1210SOL    HW115266   4.021   3.568   3.989  0.8599  0.1813 -1.7454
 1210SOL    HW215267   3.900   3.509   4.045  2.1433 -0.4853  0.2338
 1211SOL     OW15268   4.548   2.870   2.939  0.0338 -0.3313  0.4682
 1211SOL    HW115269   4.582   2.797   2.992  2.0569  1.1056  1.1874
 1211SOL    HW215270   4.571   2.848   2.849 -1.3647 -1.6539  0.4362
 1212SOL     OW15271   0.418   3.360   3.214  0.0521 -0.3689  0.8818
 1212SOL    HW115272   0.497   3.360   3.269 -0.2938  2.3175  1.3842
 1212SOL    HW215273   0.450   3.314   3.136 -0.8942 -0.7802  0.7382
 1213SOL     OW15274   4.504   2.039   7.423 -0.4131  0.1902 -0.3037
 1213SOL    HW115275   4.587   2.084   7.440  0.6692 -1.6319 -0.8093
 1213SOL    HW215276   4.500   2.035   7.327 -0.8506 -2.3514 -0.1752
 1214SOL     OW15277   2.194   4.115   2.469 -0.2626 -0.0074 -0.0476
 1214SOL    HW115278   2.206   4.067   2.387 -0.0398  0.7337 -0.4497
 1214SOL    HW215279   2.226   4.045   2.525 -1.7650  1.3033  2.4231
 1215SOL     OW15280   2.900   2.551   7.738 -0.1664  0.1501  0.0541
 1215SOL    HW115281   2.848   2.505   7.804 -0.5445 -1.8163 -1.6385
 1215SOL    HW215282   2.910   2.476   7.680  0.6744 -0.1872  0.6179
 1216SOL     OW15283   3.021   0.776   4.222 -0.0178  0.3185 -0.3139
 1216SOL    HW115284   2.964   0.720   4.169 -0.8857  1.1575 -0.2661
 1216SOL    HW215285   3.072   0.702   4.255  0.1480  0.7147  0.3158
 1217SOL     OW15286   2.235   3.572   0.164  0.1479  0.2077  0.2239
 1217SOL    HW115287   2.279   3.537   0.242  0.1634 -3.4580 -1.4339
 1217SOL    HW215288   2.170   3.503   0.153 -1.2870  1.5785  0.1156
 1218SOL     OW15289   0.696   1.680   5.571 -0.0798 -0.2828  0.2365
 1218SOL    HW115290   0.608   1.652   5.592 -1.0013  1.1316 -1.7272
 1218SOL    HW215291   0.715   1.740   5.644  0.7724  1.2120 -1.2264
 1219SOL     OW15292   1.002   0.203   4.415 -0.5227 -0.0063 -0.2915
 1219SOL    HW115293   1.032   0.281   4.367  2.6559 -1.0485 -0.0068
 1219SOL    HW215294   1.013   0.138   4.345  0.0175  1.1062 -1.2464
 1220SOL     OW15295   0.207   1.283   7.456 -0.2197  0.5270 -0.5419
 1220SOL    HW115296   0.210   1.277   7.361 -1.7126  1.0844 -0.6234
 1220SOL    HW215297   0.302   1.296   7.461  0.0423 -0.1801 -3.6800
 1221SOL     OW15298   4.667   3.133  15.021  0.2479 -0.0403  0.2676
 1221SOL    HW115299   0.021   3.149  15.057 -0.4911  1.3857  1.4513
 1221SOL    HW215300   4.691   3.063  14.960 -1.3210 -1.2534  1.0553
 1222SOL     OW15301   4.149   3.901   7.996 -0.2767 -0.7580 -0.1598
 1222SOL    HW115302   4.239   3.876   7.974 -0.5029 -0.0126 -1.9469
 1222SOL    HW215303   4.147   3.927   8.088  0.0115 -1.2573 -0.0167
 1223SOL     OW15304   4.174   0.737   6.023  0.2367  0.0291  0.2962
 1223SOL    HW115305   4.264   0.755   5.996 -0.0527  1.6822  0.4305
 1223SOL    HW215306   4.185   0.766   6.114  0.9212  0.6097  0.0315
 1224SOL     OW15307   2.497   3.740   7.762 -0.5031 -0.3197 -0.2935
 1224SOL    HW115308   2.518   3.659   7.716  0.8942  0.0687 -0.3508
 1224SOL    HW215309   2.582   3.761   7.802 -1.6073  3.4667  0.0763
 1225SOL     OW15310   0.140   1.497   4.788 -0.2997  0.1009 -0.4897
 1225SOL    HW115311   0.220   1.492   4.840 -2.1107  2.6284  2.5687
 1225SOL    HW215312   0.108   1.587   4.797  1.1186  0.3487  2.1401
 1226SOL     OW15313   1.928   4.278   4.843 -0.1774 -0.2284  0.3945
 1226SOL    HW115314   1.995   4.297   4.909  0.7954 -0.8663 -0.4122
 1226SOL    HW215315   1.899   4.190   4.867 -1.7724 -0.3684 -2.0220
 1227SOL     OW15316   2.754   3.852  11.494  0.0015  0.0224 -0.7119
 1227SOL    HW115317   2.815   3.908  11.542 -1.6801  0.0327  1.4269
 1227SOL    HW215318   2.797   3.768  11.509 -3.3118 -1.3894  0.8977
 1228SOL     OW15319   4.675   1.136  13.068  0.6281 -0.1401  0.5933
 1228SOL    HW115320   0.011   1.135  13.003  0.9163 -1.5639  0.9186
 1228SOL    HW215321   4.656   1.229  13.059  2.1748  0.1096 -0.0551
 1229SOL     OW15322   0.866   3.677   7.648 -0.8228 -0.8463  0.1921
 1229SOL    HW115323   0.843   3.767   7.668  0.2312 -0.6503  0.5316
 1229SOL    HW215324   0.784   3.636   7.621 -0.2071 -0.9772 -1.4407
 1230SOL     OW15325   0.163   2.471   1.383  0.6416 -0.1261 -0.0950
 1230SOL    HW115326   0.162   2.497   1.476  1.2405 -2.2019  0.5022
 1230SOL    HW215327   0.216   2.392   1.392 -0.6171 -0.7547  1.8940
 1231SOL     OW15328   2.416   3.945  14.336  0.0851  0.4754  0.3222
 1231SOL    HW115329   2.343   3.980  14.286  0.3387  0.3754 -0.1206
 1231SOL    HW215330   2.448   3.865  14.293 -0.5662  0.1705  0.4072
 1232SOL     OW15331   3.655   0.286   9.131  0.3966  0.3945 -0.6880
 1232SOL    HW115332   3.671   0.232   9.208  1.0921  1.7849  0.1432
 1232SOL    HW215333   3.564   0.258   9.129  0.9165 -1.3751  0.4217
 1233SOL     OW15334   3.083   4.366   3.251  0.0718  0.1597  0.0521
 1233SOL    HW115335   3.120   4.376   3.338  0.0417 -0.1315  0.0986
 1233SOL    HW215336   3.164   4.355   3.201  0.1889  1.2138  0.0031
 1234SOL     OW15337   0.585   0.836   7.004  0.3203  0.4558  0.0328
 1234SOL    HW115338   0.588   0.741   7.000  0.1140  0.4764 -0.5066
 1234SOL    HW215339   0.675   0.863   7.024 -0.1654  1.1116  1.3201
 1235SOL     OW15340   3.851   3.213  15.220 -0.2694 -0.6797  0.0941
 1235SOL    HW115341   3.758   3.190  15.231 -0.6216 -0.1161 -1.7449
 1235SOL    HW215342   3.892   3.141  15.268 -0.5029 -0.8909 -0.0190
 1236SOL     OW15343   2.015   1.109   4.101  0.0012 -0.2102 -0.1785
 1236SOL    HW115344   2.085   1.104   4.036  1.7043  3.7072  1.3323
 1236SOL    HW215345   1.998   1.020   4.132 -2.8370  0.6011  0.6115
 1237SOL     OW15346   4.389   1.785   4.715 -0.1636 -0.2083  0.2552
 1237SOL    HW115347   4.451   1.767   4.644 -0.6296  0.8986 -0.4343
 1237SOL    HW215348   4.441   1.748   4.786  0.6010  2.4344  1.0743
 1238SOL     OW15349   4.589   4.404  15.627  0.3476 -0.6373  0.8141
 1238SOL    HW115350   4.596   4.383  15.534 -0.4269  0.1468  0.5729
 1238SOL    HW215351   4.507   4.362  15.650 -0.0527  0.7789  1.9817
 1239SOL     OW15352   3.362   3.897   6.364 -0.2481  0.0103  0.4219
 1239SOL    HW115353   3.282   3.909   6.312  0.5262  0.9327 -0.5513
 1239SOL    HW215354   3.331   3.832   6.427  0.3906 -1.0129 -0.3188
 1240SOL     OW15355   3.954   1.718  16.956  0.0085 -0.1745  0.7637
 1240SOL    HW115356   4.024   1.673  16.908 -0.4088  0.7600 -0.7185
 1240SOL    HW215357   3.877   1.667  16.930 -1.2068  0.8119  2.4134
 1241SOL     OW15358   4.049   2.341  13.325  0.1170  0.0775 -0.0193
 1241SOL    HW115359   3.963   2.373  13.354 -0.6439 -1.6803 -0.2788
 1241SOL    HW215360   4.098   2.390  13.391 -0.7356  0.0235  0.6588
 1242SOL     OW15361   4.690   2.857   7.721 -0.2774 -0.4008  0.0410
 1242SOL    HW115362   4.622   2.804   7.677 -2.3359  0.8338  1.7588
 1242SOL    HW215363   4.692   2.942   7.677  0.7251  0.3822  1.6172
 1243SOL     OW15364   2.301   4.165   3.146  0.3801 -0.1513  0.3960
 1243SOL    HW115365   2.261   4.229   3.205 -0.7064 -0.3933 -0.0729
 1243SOL    HW215366   2.233   4.153   3.079  1.0435 -2.4816  0.1530
 1244SOL     OW15367   1.552   1.718   7.931  0.6642  0.1975 -0.1147
 1244SOL    HW115368   1.533   1.710   8.024  0.9859  0.8110  0.0062
 1244SOL    HW215369   1.482   1.768   7.890 -0.2130  0.1452  1.3168
 1245SOL     OW15370   2.601   3.922   1.833  0.2266  0.3778 -0.2380
 1245SOL    HW115371   2.540   3.959   1.897 -0.6461 -0.4085 -0.6230
 1245SOL    HW215372   2.660   3.997   1.820  0.1307  0.4823 -0.0716
 1246SOL     OW15373   0.757   2.988   1.828 -0.6501 -0.8214  0.2070
 1246SOL    HW115374   0.754   3.051   1.756  1.2511  1.4532  2.1460
 1246SOL    HW215375   0.848   3.001   1.853 -0.7892  0.0379  0.2681
 1247SOL     OW15376   4.665   4.468   9.690  0.7051 -0.6284 -0.5214
 1247SOL    HW115377   4.582   4.461   9.737  2.4829  4.0114  3.3582
 1247SOL    HW215378   4.641   4.410   9.618  0.2396 -0.0423 -0.8432
 1248SOL     OW15379   2.752   0.973   3.110 -0.2824 -0.2957 -0.8487
 1248SOL    HW115380   2.755   0.892   3.160  1.9616  0.4928  0.3182
 1248SOL    HW215381   2.790   1.036   3.172  1.0582 -2.0543  0.0964
 1249SOL     OW15382   3.896   4.684   1.038  0.0827  0.5175  0.3979
 1249SOL    HW115383   3.847   0.024   1.003  1.9346  1.4173 -0.2369
 1249SOL    HW215384   3.958   4.725   1.097  1.6625  1.0215 -1.6182
 1250SOL     OW15385   1.819   0.480   3.776 -0.7360  0.0595  0.2048
 1250SOL    HW115386   1.789   0.548   3.716 -3.7404 -2.3374 -0.9831
 1250SOL    HW215387   1.753   0.474   3.845  0.9508  3.0468  2.0920
 1251SOL     OW15388   2.437   3.937  12.589 -0.2714 -0.4425 -0.0372
 1251SOL    HW115389   2.506   3.984  12.541 -0.6734  0.0187 -0.1670
 1251SOL    HW215390   2.361   3.937  12.531  0.9198 -0.1369 -1.6396
 1252SOL     OW15391   1.615   3.901  15.523  0.2646 -0.1618  0.0353
 1252SOL    HW115392   1.678   3.894  15.451 -0.4219  0.5491 -0.6377
 1252SOL    HW215393   1.606   3.996  15.533  0.4849 -0.1517  0.1475
 1253SOL     OW15394   2.078   1.566   4.714  0.3684 -0.0156 -1.0256
 1253SOL    HW115395   2.132   1.578   4.636  0.7680 -0.6687 -0.8536
 1253SOL    HW215396   2.136   1.620   4.768 -0.7733 -1.0414  1.2032
 1254SOL     OW15397   2.969   2.917  14.749 -0.0101 -0.5415  0.2750
 1254SOL    HW115398   3.000   2.984  14.688  0.5552 -0.8396  0.2285
 1254SOL    HW215399   2.936   2.850  14.689  1.0615  0.0759 -1.0233
 1255SOL     OW15400   1.995   0.021  11.357  0.0991 -1.1172 -0.1229
 1255SOL    HW115401   2.062   4.709  11.307  0.9223 -0.3477  0.2545
 1255SOL    HW215402   1.942   4.676  11.360 -1.4850  0.0571  2.8904
 1256SOL     OW15403   2.428   2.082   2.797  0.1141 -0.3979 -0.1397
 1256SOL    HW115404   2.481   2.051   2.724 -0.2792  1.8520 -1.3755
 1256SOL    HW215405   2.452   2.021   2.867  0.3530  1.2547  1.1928
 1257SOL     OW15406   2.418   4.720   4.127  0.9254  0.0429 -0.0941
 1257SOL    HW115407   2.361   4.653   4.165 -0.5355  2.4745  1.9534
 1257SOL    HW215408   2.443   0.037   4.203 -1.5284  1.6491 -0.3501
 1258SOL     OW15409   4.085   3.275   8.819  0.6875 -0.1653  0.6302
 1258SOL    HW115410   4.175   3.271   8.787  0.4767 -1.6318  0.2134
 1258SOL    HW215411   4.089   3.335   8.894  0.3639  0.2326  0.3314
 1259SOL     OW15412   2.548   1.900   6.109 -0.1575  0.7574 -0.0315
 1259SOL    HW115413   2.483   1.916   6.041  0.5602 -0.0226 -0.8915
 1259SOL    HW215414   2.619   1.844   6.078 -2.7159 -2.1926 -0.4588
 1260SOL     OW15415   3.738   3.768   6.536 -0.4397  0.0130  0.2519
 1260SOL    HW115416   3.801   3.732   6.475 -2.8947 -1.4499 -1.4406
 1260SOL    HW215417   3.783   3.844   6.573 -0.5221 -0.5075  1.4229
 1261SOL     OW15418   2.562   4.247   6.968 -0.0570 -0.4629 -0.2203
 1261SOL    HW115419   2.565   4.197   6.887  0.7381  1.2819 -1.2542
 1261SOL    HW215420   2.652   4.250   7.002  0.2452 -1.9402 -0.9165
 1262SOL     OW15421   3.307   1.016  14.329  0.5238  0.3464 -0.2452
 1262SOL    HW115422   3.369   0.943  14.329  0.2914  0.1468 -1.4504
 1262SOL    HW215423   3.224   0.976  14.355 -0.0431 -1.3895 -4.5901
 1263SOL     OW15424   4.679   1.858   2.218 -0.4959 -0.6900  0.6279
 1263SOL    HW115425   4.686   1.833   2.310  1.3585  0.8938  0.9241
 1263SOL    HW215426   4.700   1.776   2.173  0.5195  0.9960 -1.9623
 1264SOL     OW15427   2.772   3.743   4.261  0.3244  0.4621 -0.1487
 1264SOL    HW115428   2.810   3.690   4.330 -0.7734 -1.8244 -1.3176
 1264SOL    HW215429   2.684   3.763   4.292  1.2401  3.3400  0.6607
 1265SOL     OW15430   1.379   3.003   7.881 -0.2948  0.0756 -0.5235
 1265SOL    HW115431   1.472   3.014   7.899 -0.2787  0.8294 -1.0867
 1265SOL    HW215432   1.353   3.085   7.840 -0.0351  1.4926  2.2152
 1266SOL     OW15433   3.535   1.982   7.790 -0.0551  0.0770  0.4155
 1266SOL    HW115434   3.584   1.999   7.870  0.5441  1.1395 -0.1730
 1266SOL    HW215435   3.498   1.895   7.807 -0.2738 -0.4309 -2.7022
 1267SOL     OW15436   4.616   1.566   8.197  0.5583  0.4186 -0.3959
 1267SOL    HW115437   4.537   1.559   8.143  0.5067  1.7600 -0.4910
 1267SOL    HW215438   4.638   1.659   8.202 -0.1247  0.6206 -1.1158
 1268SOL     OW15439   3.767   2.968   7.689 -0.3622  0.3249 -1.0051
 1268SOL    HW115440   3.834   2.905   7.714 -0.1578  0.1484 -1.9997
 1268SOL    HW215441   3.690   2.926   7.727  0.3085 -2.5557 -2.8240
 1269SOL     OW15442   0.691   4.391   0.633 -0.5997  0.1925 -0.5375
 1269SOL    HW115443   0.607   4.431   0.656  0.8777  1.6336  2.2423
 1269SOL    HW215444   0.654   4.344   0.559  2.5889 -2.1241 -0.6553
 1270SOL     OW15445   3.170   4.085   9.200 -0.3616  0.0045  0.1522
 1270SOL    HW115446   3.263   4.093   9.181 -0.8677  0.4650 -2.1660
 1270SOL    HW215447   3.148   4.178   9.208  0.4111  0.4603 -3.0443
 1271SOL     OW15448   1.707   0.635   9.784  0.4496 -0.4791 -0.3002
 1271SOL    HW115449   1.728   0.555   9.832  3.5008 -2.1751 -4.4061
 1271SOL    HW215450   1.722   0.601   9.695 -2.2735  0.3862 -1.0757
 1272SOL     OW15451   3.674   0.091   3.210  0.2180  0.3708 -0.4747
 1272SOL    HW115452   3.653   0.112   3.119  0.7845 -0.6369 -0.8378
 1272SOL    HW215453   3.724   0.010   3.213 -0.9559 -0.3193  0.4565
 1273SOL     OW15454   4.258   2.395  17.433  0.5100  0.9903 -0.2541
 1273SOL    HW115455   4.284   2.457  17.502 -2.7756 -0.6694  2.4457
 1273SOL    HW215456   4.163   2.399  17.440  0.5588 -1.1072  1.4220
 1274SOL     OW15457   4.625   4.064   4.820 -0.4945 -0.6960 -0.3785
 1274SOL    HW115458   4.715   4.040   4.842 -0.4726 -1.0500 -0.8509
 1274SOL    HW215459   4.628   4.079   4.725 -0.7427  1.4165 -0.0420
 1275SOL     OW15460   4.421   2.991   6.771  0.4966 -0.2630 -0.2317
 1275SOL    HW115461   4.508   2.973   6.734  0.3974  1.0160 -1.1310
 1275SOL    HW215462   4.407   2.902   6.803  0.0379  0.5361  1.7674
 1276SOL     OW15463   0.890   3.081   3.908 -0.3384  0.2248 -0.2034
 1276SOL    HW115464   0.834   3.016   3.950  0.1487 -0.5535 -0.7513
 1276SOL    HW215465   0.953   3.093   3.979  0.8171 -1.2673 -0.9687
 1277SOL     OW15466   4.625   1.403   5.738  0.2352 -0.3652  0.3424
 1277SOL    HW115467   4.674   1.485   5.735  0.8863 -0.8135 -1.5450
 1277SOL    HW215468   4.611   1.403   5.832 -0.7628  2.4526  0.1796
 1278SOL     OW15469   1.952   2.525   4.290 -0.0254 -0.1049  0.3269
 1278SOL    HW115470   1.915   2.484   4.212 -0.4591  0.4580  0.2376
 1278SOL    HW215471   1.908   2.610   4.286 -2.0741 -1.2316 -1.1145
 1279SOL     OW15472   2.327   4.112   1.131  0.3263  0.1074  0.3214
 1279SOL    HW115473   2.282   4.190   1.162 -1.6819 -1.0254  0.2888
 1279SOL    HW215474   2.324   4.130   1.037  2.3595 -0.4437  0.1536
 1280SOL     OW15475   2.066   3.405   3.616 -0.6275  0.1576 -0.4187
 1280SOL    HW115476   2.098   3.318   3.640  1.6152  0.6110 -1.7602
 1280SOL    HW215477   2.039   3.437   3.702 -0.1521  2.1939 -1.0407
 1281SOL     OW15478   1.904   1.659   8.955 -0.1044  0.0847  0.4348
 1281SOL    HW115479   1.944   1.672   8.869 -1.5320 -1.8264 -0.5326
 1281SOL    HW215480   1.972   1.682   9.018 -0.0891 -2.5160  1.3736
 1282SOL     OW15481   2.636   2.972   9.919  0.2977  0.2569 -0.1013
 1282SOL    HW115482   2.654   2.992   9.827  0.7749  0.2493 -0.0082
 1282SOL    HW215483   2.557   3.022   9.939  0.0740  0.1509 -0.7338
 1283SOL     OW15484   1.509   2.245  15.211  0.5217  0.8166 -0.3358
 1283SOL    HW115485   1.463   2.177  15.162  3.5360 -2.2680  1.1766
 1283SOL    HW215486   1.558   2.190  15.272  0.2698  1.0745  0.0906
 1284SOL     OW15487   0.592   4.283  13.380 -0.5392 -0.3428  0.0777
 1284SOL    HW115488   0.660   4.348  13.361  1.2538 -2.6475 -1.3449
 1284SOL    HW215489   0.618   4.282  13.472 -0.6463 -1.4459  0.0976
 1285SOL     OW15490   2.019   4.579  10.130 -0.9888 -0.6917 -0.0901
 1285SOL    HW115491   2.044   4.495  10.091  1.6327 -0.8408  1.9043
 1285SOL    HW215492   2.066   4.639  10.071 -1.4521 -0.2735 -0.0273
 1286SOL     OW15493   2.976   0.965   5.865 -0.4941  0.0703  0.1277
 1286SOL    HW115494   2.926   0.928   5.792 -0.1892  0.6312 -0.3631
 1286SOL    HW215495   3.002   1.043   5.816  1.0779 -0.1226  0.6551
 1287SOL     OW15496   3.670   3.908   3.088 -0.7280  0.3523 -0.6580
 1287SOL    HW115497   3.680   3.891   2.995  4.3119  0.0286 -0.0690
 1287SOL    HW215498   3.577   3.928   3.081 -0.8394  0.0493 -0.0400
 1288SOL     OW15499   0.593   3.430   8.735 -0.0103  0.0834 -0.4687
 1288SOL    HW115500   0.548   3.510   8.707  2.0174  1.6922  0.8361
 1288SOL    HW215501   0.599   3.382   8.653 -0.8073  1.5586 -1.3977
 1289SOL     OW15502   1.899   1.670   2.662 -0.0583  0.3005 -0.0830
 1289SOL    HW115503   1.966   1.603   2.647 -0.1097  0.1533  0.3405
 1289SOL    HW215504   1.887   1.663   2.757 -0.1319 -2.4185 -0.2901
 1290SOL     OW15505   1.119   0.201   5.786  0.5114  0.4484 -0.2767
 1290SOL    HW115506   1.188   0.145   5.751 -0.6191  0.6666 -2.8838
 1290SOL    HW215507   1.092   0.239   5.703 -1.0764 -1.4367 -0.6278
 1291SOL     OW15508   2.704   1.042  12.411 -0.2783  0.0297  0.2249
 1291SOL    HW115509   2.795   1.030  12.386 -0.8165 -0.0222 -1.6819
 1291SOL    HW215510   2.670   0.964  12.367  1.0948 -0.5651  0.2343
 1292SOL     OW15511   3.209   0.851   9.182  0.2832  0.4661 -0.0293
 1292SOL    HW115512   3.225   0.935   9.137  0.8515  1.1045  1.3666
 1292SOL    HW215513   3.179   0.794   9.112 -0.6704  0.4637  0.3767
 1293SOL     OW15514   0.835   1.349   8.420  0.0265 -0.1681 -0.4188
 1293SOL    HW115515   0.881   1.303   8.490 -1.9346  0.6597  1.4210
 1293SOL    HW215516   0.872   1.435   8.439  3.1169 -1.8075  1.0982
 1294SOL     OW15517   0.448   3.775   4.380 -0.1767 -0.1313  0.3930
 1294SOL    HW115518   0.439   3.680   4.390  0.4689 -0.2518 -0.1516
 1294SOL    HW215519   0.544   3.778   4.378 -0.2161 -0.1706 -2.2045
 1295SOL     OW15520   3.027   3.293   3.205 -0.3240 -0.2139  0.9307
 1295SOL    HW115521   2.946   3.313   3.251 -0.1267 -0.4899  1.4007
 1295SOL    HW215522   3.086   3.356   3.248 -1.0576  1.0181  0.1230
 1296SOL     OW15523   3.710   3.547  14.024 -0.2451 -0.2144 -0.2962
 1296SOL    HW115524   3.681   3.538  13.933  1.6727  2.1714 -1.1361
 1296SOL    HW215525   3.746   3.636  14.028  0.8312 -0.7245  1.1013
 1297SOL     OW15526   1.394   2.944   3.815 -0.0157 -0.3150 -0.1621
 1297SOL    HW115527   1.426   3.010   3.876 -0.1135 -0.8171  0.4258
 1297SOL    HW215528   1.416   2.863   3.859  1.3746  0.4273  0.5230
 1298SOL     OW15529   4.439   3.317   2.349  0.1677  0.4774  0.0565
 1298SOL    HW115530   4.384   3.369   2.407 -0.9348 -1.3916  0.6895
 1298SOL    HW215531   4.486   3.380   2.293  0.0535 -0.8644 -1.5566
 1299SOL     OW15532   2.529   0.724   5.229  0.5259  0.4409  0.6164
 1299SOL    HW115533   2.438   0.702   5.208  0.7601 -0.4117  0.4943
 1299SOL    HW215534   2.576   0.641   5.227  0.6020  0.5663 -2.0179
 1300SOL     OW15535   2.174   0.364   8.631  0.1467  0.9717  0.2091
 1300SOL    HW115536   2.088   0.329   8.608 -0.7536  3.4855 -0.2264
 1300SOL    HW215537   2.227   0.291   8.599 -1.1171  0.7131 -1.3040
 1301SOL     OW15538   2.601   2.792   7.751  0.1528 -0.1063  0.3165
 1301SOL    HW115539   2.526   2.827   7.800  1.3264  0.5029  1.6868
 1301SOL    HW215540   2.556   2.722   7.704 -2.3632  0.5208  1.7507
 1302SOL     OW15541   2.577   3.512   6.122  0.7665  0.6547 -0.3160
 1302SOL    HW115542   2.529   3.508   6.205  3.2342  1.6651  1.1420
 1302SOL    HW215543   2.549   3.436   6.072 -0.0868  1.2442 -0.7353
 1303SOL     OW15544   3.134   2.693  17.148 -0.2189 -0.3358 -0.1717
 1303SOL    HW115545   3.188   2.768  17.122  1.0140 -0.3754  2.2477
 1303SOL    HW215546   3.188   2.619  17.122  0.1563 -0.0953 -0.0869
 1304SOL     OW15547   3.116   0.068  10.027 -0.4415 -0.0138  0.5035
 1304SOL    HW115548   3.117   0.005   9.955 -1.1426 -0.6272  1.0291
 1304SOL    HW215549   3.194   0.119  10.006 -0.8654 -0.6908 -2.7893
 1305SOL     OW15550   1.388   2.494   4.355 -0.1775 -0.5831 -0.3093
 1305SOL    HW115551   1.352   2.407   4.370  0.1557 -0.6635  0.0361
 1305SOL    HW215552   1.392   2.526   4.445 -1.9786 -1.0012 -0.0834
 1306SOL     OW15553   3.852   3.943   5.831  0.4730 -0.4601 -0.2307
 1306SOL    HW115554   3.882   3.853   5.823 -0.6965 -0.7335 -1.7051
 1306SOL    HW215555   3.784   3.938   5.898  0.6163 -1.9799 -0.2076
 1307SOL     OW15556   3.111   2.060   2.009 -0.0335 -0.0441 -0.1860
 1307SOL    HW115557   3.173   2.050   2.081  1.0142 -0.3587 -1.1398
 1307SOL    HW215558   3.167   2.102   1.944 -0.7907  1.0493 -0.1448
 1308SOL     OW15559   3.892   1.622   5.162  0.2364  0.3743 -0.7388
 1308SOL    HW115560   3.908   1.616   5.257  0.5093  0.2971 -0.7902
 1308SOL    HW215561   3.845   1.705   5.166 -0.9351 -0.3108 -0.1252
 1309SOL     OW15562   1.419   0.571   9.526 -0.0682 -0.5586  0.1752
 1309SOL    HW115563   1.423   0.507   9.596 -5.2175 -0.1231  0.9136
 1309SOL    HW215564   1.326   0.597   9.526 -0.2187 -1.0835 -0.8233
 1310SOL     OW15565   3.550   4.562  12.598  0.0017  0.3722  0.0555
 1310SOL    HW115566   3.608   4.610  12.538  0.3210 -0.2101 -0.1099
 1310SOL    HW215567   3.489   4.635  12.607 -0.8568 -0.7799  3.4002
 1311SOL     OW15568   2.658   1.993  17.666 -0.2811 -0.0743 -0.1030
 1311SOL    HW115569   2.704   2.001  17.582  0.8922  1.2085  0.6535
 1311SOL    HW215570   2.572   2.026  17.641  0.0461  0.8823  0.0290
 1312SOL     OW15571   0.703   0.765   9.192  0.3550  0.6920 -0.2490
 1312SOL    HW115572   0.709   0.830   9.262  0.8615  0.7514 -0.3511
 1312SOL    HW215573   0.629   0.715   9.228  1.4577  0.1253  1.2259
 1313SOL     OW15574   0.490   0.052   4.201 -0.8117 -0.7272 -0.2849
 1313SOL    HW115575   0.450   0.111   4.264 -0.8433  1.9126 -2.8140
 1313SOL    HW215576   0.584   0.050   4.222 -1.0224  0.2355  0.7660
 1314SOL     OW15577   1.052   2.316  16.987  0.0676  0.0881  0.3272
 1314SOL    HW115578   1.102   2.365  16.922 -0.6234 -0.5886 -0.7280
 1314SOL    HW215579   1.033   2.235  16.939  0.8956  1.7892 -2.8491
 1315SOL     OW15580   0.890   1.991  13.029  0.0795  0.0504  1.1199
 1315SOL    HW115581   0.928   2.037  13.104  1.2251 -0.0530  0.5942
 1315SOL    HW215582   0.805   1.960  13.060 -0.1319  0.2342  0.7254
 1316SOL     OW15583   1.457   2.692   3.873  0.2422 -0.7946  0.3246
 1316SOL    HW115584   1.392   2.638   3.828  0.8215 -1.1995 -0.0253
 1316SOL    HW215585   1.513   2.625   3.911  0.2505 -0.1897  1.3911
 1317SOL     OW15586   4.709   2.171  17.466 -0.3649  0.4764 -0.0900
 1317SOL    HW115587   0.069   2.154  17.462 -0.3777  0.4891 -0.5442
 1317SOL    HW215588   4.678   2.129  17.546  1.9527 -0.2203  0.4365
 1318SOL     OW15589   2.483   4.377   4.443 -0.5200  1.0730 -0.2582
 1318SOL    HW115590   2.534   4.329   4.509 -0.4436 -0.9552 -1.7785
 1318SOL    HW215591   2.557   4.412   4.393 -1.2717  0.6837 -1.6190
 1319SOL     OW15592   4.540   3.021   9.088 -0.4748  0.3462  0.0688
 1319SOL    HW115593   4.559   2.999   8.997  2.1100 -2.3659  1.3083
 1319SOL    HW215594   4.618   2.998   9.138  0.1983 -0.1011 -1.2106
 1320SOL     OW15595   3.231   4.086   3.395 -0.0699 -0.2498  0.0044
 1320SOL    HW115596   3.170   4.089   3.468  0.1677  3.6300  0.0323
 1320SOL    HW215597   3.315   4.094   3.442  0.0961  1.4450 -0.5784
 1321SOL     OW15598   3.144   1.231  15.071  0.2282  0.6207  0.0073
 1321SOL    HW115599   3.197   1.158  15.103  0.9178  0.2771 -1.9139
 1321SOL    HW215600   3.081   1.177  15.023  1.1719  1.0336 -1.7010
 1322SOL     OW15601   0.838   4.368   6.747  0.6490 -0.4875 -0.6737
 1322SOL    HW115602   0.790   4.388   6.827  1.3965 -0.6978 -0.1701
 1322SOL    HW215603   0.806   4.442   6.695  3.3624  1.5396  0.4851
 1323SOL     OW15604   3.556   1.581   5.055  0.4782 -0.5281 -0.3681
 1323SOL    HW115605   3.628   1.521   5.073  1.7568  0.5747 -1.7598
 1323SOL    HW215606   3.495   1.562   5.126  0.0920  2.0126 -0.0185
 1324SOL     OW15607   2.984   3.885   1.641  0.0402  0.2531 -0.1444
 1324SOL    HW115608   2.898   3.862   1.606  0.1784  1.0588 -1.0276
 1324SOL    HW215609   2.976   3.980   1.652 -2.3799 -0.0399  0.5616
 1325SOL     OW15610   3.063   4.407   4.148 -0.5208 -0.1647  0.6662
 1325SOL    HW115611   2.970   4.385   4.140 -0.5483  0.0107  0.4994
 1325SOL    HW215612   3.045   4.490   4.192 -0.6316  0.5859 -0.8045
 1326SOL     OW15613   3.683   0.889   8.742  0.8105  0.2349  0.1842
 1326SOL    HW115614   3.692   0.939   8.661  0.4301 -3.7192 -2.3193
 1326SOL    HW215615   3.633   0.955   8.790  0.7954 -0.1500  0.6988
 1327SOL     OW15616   2.376   4.670   7.967 -0.0661 -0.0861 -0.3769
 1327SOL    HW115617   2.365   4.586   7.922  0.1388 -1.2404  1.7036
 1327SOL    HW215618   2.291   4.713   7.980  1.2740  2.6985 -0.8112
 1328SOL     OW15619   0.016   4.664   9.518  0.1626 -0.2639 -0.4364
 1328SOL    HW115620   0.040   0.002   9.575 -0.1329 -0.3580 -0.1949
 1328SOL    HW215621   0.000   4.595   9.582 -0.2004  0.9942  0.8300
 1329SOL     OW15622   3.914   0.386   7.513 -0.1755 -0.5843 -0.5871
 1329SOL    HW115623   3.981   0.445   7.478  0.0018 -1.0626 -1.0626
 1329SOL    HW215624   3.843   0.448   7.526  0.6161 -0.0649  1.1863
 1330SOL     OW15625   4.478   0.830   2.750  0.3029 -0.3292 -0.0817
 1330SOL    HW115626   4.484   0.879   2.832  0.3305  0.8395 -0.7860
 1330SOL    HW215627   4.385   0.809   2.745 -0.5065  2.9094  1.2171
 1331SOL     OW15628   3.515   4.521   1.300  0.2089  0.2861  0.2455
 1331SOL    HW115629   3.567   4.532   1.379 -1.9720  4.2361  1.1073
 1331SOL    HW215630   3.513   4.425   1.291  0.1597  0.2529  0.5869
 1332SOL     OW15631   3.943   1.120   1.661 -0.1788  0.3179  0.9636
 1332SOL    HW115632   3.967   1.108   1.569 -2.2108  0.0924  0.4539
 1332SOL    HW215633   3.998   1.192   1.692 -0.1777  0.4071  0.7551
 1333SOL     OW15634   3.628   3.500   4.961 -0.0802  0.6622  0.3987
 1333SOL    HW115635   3.706   3.540   4.922  2.1282 -1.3427  2.8584
 1333SOL    HW215636   3.573   3.523   4.885  0.0140 -1.9761 -0.4471
 1334SOL     OW15637   0.036   1.035   2.531 -0.1292 -0.2864  0.3789
 1334SOL    HW115638   4.730   1.081   2.605  0.7257 -0.0161  0.6669
 1334SOL    HW215639   4.722   1.072   2.457 -0.5793 -0.3072  0.6623
 1335SOL     OW15640   0.622   3.542   1.960 -0.0050 -0.1057  0.3676
 1335SOL    HW115641   0.651   3.574   1.875  0.5626  1.2344  1.0774
 1335SOL    HW215642   0.569   3.466   1.933  1.5720 -0.0568 -2.9504
 1336SOL     OW15643   1.449   1.684  13.911 -0.4562  0.4983 -0.9964
 1336SOL    HW115644   1.517   1.639  13.961 -0.6720  1.2057 -0.0668
 1336SOL    HW215645   1.500   1.757  13.878 -2.0397  1.2031 -1.9012
 1337SOL     OW15646   4.684   1.908   7.052  0.7717 -0.2539  0.6603
 1337SOL    HW115647   4.725   1.976   6.998 -2.0937 -0.5779 -1.9411
 1337SOL    HW215648   0.019   1.866   7.102  2.3910  1.1484 -0.4142
 1338SOL     OW15649   2.771   2.369   4.917  0.3982  0.6283 -0.2057
 1338SOL    HW115650   2.742   2.439   4.859  0.6985  0.2268 -0.8347
 1338SOL    HW215651   2.766   2.291   4.863 -1.1375 -0.7813  1.9646
 1339SOL     OW15652   1.749   2.910   4.906 -0.1113  0.1144 -0.2870
 1339SOL    HW115653   1.812   2.941   4.971  0.1455 -0.0779 -0.4439
 1339SOL    HW215654   1.674   2.970   4.898 -0.8127 -0.6482  0.6414
 1340SOL     OW15655   2.953   1.293   4.096  0.5680 -0.3414 -0.3291
 1340SOL    HW115656   2.960   1.331   4.008  0.0917 -1.2149 -0.7343
 1340SOL    HW215657   2.860   1.277   4.105  0.3868  0.9563  0.1473
 1341SOL     OW15658   4.326   4.089   3.826  0.4887  0.1988  0.5449
 1341SOL    HW115659   4.304   4.182   3.821  0.3771  0.1316 -0.2603
 1341SOL    HW215660   4.239   4.049   3.819  0.1337  0.7792  1.6561
 1342SOL     OW15661   2.053   2.582   5.109 -0.0506 -0.3138 -0.0025
 1342SOL    HW115662   1.987   2.516   5.129  0.0158 -0.5749 -0.6354
 1342SOL    HW215663   2.029   2.649   5.172 -0.7979 -0.9216  0.3600
 1343SOL     OW15664   4.510   0.147   2.533 -0.0580 -0.0126 -0.1789
 1343SOL    HW115665   4.422   0.166   2.566 -0.6142 -1.2259 -1.0264
 1343SOL    HW215666   4.526   0.236   2.501  1.6755 -0.1733  0.2155
 1344SOL     OW15667   4.344   3.737   6.933  0.2974 -0.2934 -0.1107
 1344SOL    HW115668   4.314   3.809   6.877  0.5373 -1.8594 -2.2866
 1344SOL    HW215669   4.347   3.667   6.868  0.5204 -0.9971  0.6562
 1345SOL     OW15670   1.087   2.516  11.118  0.1767 -0.0445 -0.0109
 1345SOL    HW115671   1.019   2.568  11.075 -0.5335 -0.7322  0.2748
 1345SOL    HW215672   1.053   2.540  11.205 -1.0028 -0.1531 -0.4331
 1346SOL     OW15673   2.717   2.835  11.787  0.1495 -0.0553  0.3703
 1346SOL    HW115674   2.788   2.771  11.792  0.3117  0.0658 -0.3016
 1346SOL    HW215675   2.662   2.819  11.863  2.7502  2.0885  2.7038
 1347SOL     OW15676   4.423   0.311  16.063  0.0806 -0.1302  0.4182
 1347SOL    HW115677   4.354   0.253  16.031 -0.4849  0.4617  0.5727
 1347SOL    HW215678   4.433   0.379  15.996 -0.6373 -2.4933 -2.0926
 1348SOL     OW15679   3.688   0.140   1.560 -0.1337 -0.0520 -0.1319
 1348SOL    HW115680   3.781   0.151   1.578 -0.0561 -1.1357  0.1489
 1348SOL    HW215681   3.694   0.145   1.465  1.8642  1.4269  0.0759
 1349SOL     OW15682   2.074   0.865  10.046 -0.0027  0.5592  0.3631
 1349SOL    HW115683   2.147   0.812  10.078  1.5242  2.0076 -0.6800
 1349SOL    HW215684   2.084   0.930  10.116 -1.6767  2.1821 -0.9072
 1350SOL     OW15685   3.696   4.356   4.818  0.1467 -0.5950  0.0618
 1350SOL    HW115686   3.775   4.364   4.873  1.4131  0.0056 -1.8632
 1350SOL    HW215687   3.724   4.373   4.728  0.9638  0.8125  0.5660
 1351SOL     OW15688   2.941   0.395  11.465 -0.0157  0.2781  0.3925
 1351SOL    HW115689   3.010   0.458  11.483  0.7016  0.6949 -3.6515
 1351SOL    HW215690   2.943   0.337  11.541 -0.5175 -1.2441 -0.7360
 1352SOL     OW15691   1.036   0.034   4.217  0.1285 -0.6935  0.2270
 1352SOL    HW115692   1.031   0.095   4.144  0.4844 -1.3770 -0.3647
 1352SOL    HW215693   1.106   4.713   4.182 -1.5292 -2.5425 -0.1302
 1353SOL     OW15694   0.442   2.753  14.015  1.1317 -0.5400  0.2787
 1353SOL    HW115695   0.506   2.728  13.948  0.3708  1.7015 -1.2769
 1353SOL    HW215696   0.490   2.824  14.058 -1.2745  1.4584 -0.3039
 1354SOL     OW15697   3.279   4.417   7.964  0.8449 -0.3707 -0.5442
 1354SOL    HW115698   3.294   4.338   8.016 -3.1061 -0.5071  0.4384
 1354SOL    HW215699   3.188   4.396   7.940  1.1847  0.2366 -2.3226
 1355SOL     OW15700   0.396   4.357  17.362 -0.2429 -0.0215 -0.2984
 1355SOL    HW115701   0.399   4.445  17.325  1.1158 -0.4115 -1.1259
 1355SOL    HW215702   0.462   4.363  17.432  0.0380  1.5957 -0.7014
 1356SOL     OW15703   1.251   0.747   6.696  0.5198 -0.0029 -0.0410
 1356SOL    HW115704   1.236   0.757   6.790 -1.5688  0.5257 -0.4434
 1356SOL    HW215705   1.324   0.809   6.692 -0.1076  0.8051  1.4179
 1357SOL     OW15706   2.137   0.052   4.563 -0.1167 -0.1097  0.1775
 1357SOL    HW115707   2.169   4.697   4.555  2.0640  0.6843  0.0732
 1357SOL    HW215708   2.101   0.060   4.475  0.4551 -3.1710 -0.3181
 1358SOL     OW15709   4.329   4.356   5.299  0.5188  0.2551  0.5559
 1358SOL    HW115710   4.254   4.356   5.359 -0.0139 -2.4241 -0.1310
 1358SOL    HW215711   4.296   4.391   5.216  0.8366 -2.1698 -0.5901
 1359SOL     OW15712   2.205   3.386   4.751  0.0159 -0.2196  0.1099
 1359SOL    HW115713   2.216   3.307   4.698 -0.9308  0.3422 -0.9210
 1359SOL    HW215714   2.254   3.364   4.830 -0.5506  0.5689  0.6767
 1360SOL     OW15715   1.642   0.193   6.109  0.0710  0.2169  0.6511
 1360SOL    HW115716   1.637   0.112   6.161  2.9214  0.6207  1.5135
 1360SOL    HW215717   1.564   0.241   6.138 -0.1559  0.3547 -0.1920
 1361SOL     OW15718   3.737   2.607   7.764 -0.4144  0.0349  0.3522
 1361SOL    HW115719   3.763   2.515   7.751  0.2902  0.3585 -0.5257
 1361SOL    HW215720   3.724   2.617   7.858  1.7136 -0.6679  0.7216
 1362SOL     OW15721   4.533   1.334  15.215  0.1415  0.5560 -0.1278
 1362SOL    HW115722   4.536   1.239  15.216 -0.8116  0.4956 -2.6742
 1362SOL    HW215723   4.493   1.357  15.131  2.5241  0.4808 -1.3020
 1363SOL     OW15724   3.037   2.619   7.237  0.6724  0.1739 -0.2005
 1363SOL    HW115725   3.098   2.553   7.271 -0.7110  0.6126  3.1582
 1363SOL    HW215726   3.082   2.647   7.158  1.8350  1.1231  0.7974
 1364SOL     OW15727   3.375   2.494   8.972 -0.1249  0.8036 -0.3960
 1364SOL    HW115728   3.396   2.404   8.948 -1.7113  0.0808  0.9022
 1364SOL    HW215729   3.449   2.509   9.031 -0.8326  0.1274  0.6838
 1365SOL     OW15730   0.007   4.044   6.878  0.1710  0.1225 -0.1825
 1365SOL    HW115731   0.078   4.020   6.818  2.4717  1.1201  2.1507
 1365SOL    HW215732   0.033   4.124   6.924  0.3037  1.6571 -2.9401
 1366SOL     OW15733   0.230   2.624   1.608 -0.2319  0.7797 -0.6221
 1366SOL    HW115734   0.277   2.585   1.682 -3.4221 -0.1893  0.9202
 1366SOL    HW215735   0.158   2.677   1.641  0.2613  1.5268 -0.7466
 1367SOL     OW15736   0.362   3.341   8.940 -0.3677 -0.5650  0.3124
 1367SOL    HW115737   0.393   3.432   8.943 -0.8605 -0.3053 -3.1630
 1367SOL    HW215738   0.435   3.306   8.888  0.7273  2.3435 -0.1144
 1368SOL     OW15739   3.699   0.714   3.618 -0.0995  0.0532 -0.5799
 1368SOL    HW115740   3.713   0.770   3.694  0.2978 -1.9761  0.8423
 1368SOL    HW215741   3.752   0.641   3.649 -2.0916 -0.6498  1.0790
 1369SOL     OW15742   2.890   0.074   7.941 -0.4464 -0.0248 -0.0579
 1369SOL    HW115743   2.968   0.025   7.917 -0.1867 -0.0602  0.8311
 1369SOL    HW215744   2.822   0.028   7.892 -0.7117  2.3091 -1.8310
 1370SOL     OW15745   1.247   3.270  10.683  0.8278  0.3302  0.0698
 1370SOL    HW115746   1.330   3.241  10.644 -0.2875  0.0729 -2.0854
 1370SOL    HW215747   1.200   3.305  10.608 -1.5969  0.5594  1.7048
 1371SOL     OW15748   2.140   1.603   6.571 -0.1728  0.3328  0.3288
 1371SOL    HW115749   2.213   1.661   6.549  1.7736 -1.2346  2.7319
 1371SOL    HW215750   2.090   1.596   6.489 -1.3174  1.9642  0.8727
 1372SOL     OW15751   0.677   2.679   4.749  0.0487 -0.1909 -0.0146
 1372SOL    HW115752   0.725   2.663   4.830 -0.6447 -2.7306 -0.0951
 1372SOL    HW215753   0.610   2.743   4.774  1.2249  0.4174  1.5473
 1373SOL     OW15754   2.794   2.013   8.999 -0.0710  0.2882 -0.0986
 1373SOL    HW115755   2.777   1.925   8.966 -1.6927  1.0725 -1.3215
 1373SOL    HW215756   2.814   1.998   9.091  0.2697  1.6399  0.0504
 1374SOL     OW15757   2.311   0.638   9.162 -0.4720 -0.4508 -0.6117
 1374SOL    HW115758   2.311   0.542   9.154 -0.8100 -0.4235 -0.9684
 1374SOL    HW215759   2.393   0.643   9.114 -0.5110 -1.4777 -0.7910
 1375SOL     OW15760   0.250   1.202  15.284 -0.1840  0.2560  0.2787
 1375SOL    HW115761   0.282   1.276  15.232  0.7541  1.4561  2.5735
 1375SOL    HW215762   0.278   1.132  15.225  0.0609  0.8408 -0.2931
 1376SOL     OW15763   1.732   4.017   7.341 -0.5726  0.2746 -0.9834
 1376SOL    HW115764   1.825   3.995   7.342 -1.0305 -1.5758  4.3141
 1376SOL    HW215765   1.730   4.078   7.415 -1.3281 -1.9659  0.8684
 1377SOL     OW15766   3.935   1.992  10.608  0.3552 -0.0291  0.2189
 1377SOL    HW115767   3.858   2.049  10.619  0.8126  0.5338  0.5010
 1377SOL    HW215768   4.001   2.043  10.655  0.3352 -1.3929  1.7082
 1378SOL     OW15769   1.687   4.315   6.333  0.3234  0.5512 -0.0881
 1378SOL    HW115770   1.612   4.324   6.391  1.1863  1.1627  0.9445
 1378SOL    HW215771   1.738   4.393   6.357  0.0569  0.4127  0.9522
 1379SOL     OW15772   1.287   3.814   6.959 -0.3784 -0.0294 -0.4364
 1379SOL    HW115773   1.279   3.890   6.901 -3.7169  0.9969  1.3699
 1379SOL    HW215774   1.355   3.756   6.926 -0.6865 -1.7571  1.9507
 1380SOL     OW15775   3.030   4.332   7.892 -0.3667 -0.6145  0.0670
 1380SOL    HW115776   3.009   4.239   7.895 -0.1199 -0.6093  2.1828
 1380SOL    HW215777   2.938   4.357   7.901 -0.5477 -1.0678 -0.5379
 1381SOL     OW15778   2.693   0.937   3.837 -0.1023 -0.4617 -0.5269
 1381SOL    HW115779   2.684   0.975   3.924 -1.5349 -0.7266 -0.5537
 1381SOL    HW215780   2.708   0.847   3.864  0.5667 -0.5833 -1.3000
 1382SOL     OW15781   3.360   4.068   6.694 -0.5444 -0.0673 -0.2125
 1382SOL    HW115782   3.371   4.036   6.784 -2.8756 -1.4122 -0.4040
 1382SOL    HW215783   3.338   3.990   6.642  0.0037  0.5402 -1.3640
 1383SOL     OW15784   3.768   3.979   7.937 -0.1640  0.1256 -1.0264
 1383SOL    HW115785   3.681   3.972   7.898 -0.2797 -0.9214 -0.5633
 1383SOL    HW215786   3.779   3.895   7.981 -2.2189 -0.7491 -2.1600
 1384SOL     OW15787   3.285   0.644   9.403 -0.0395 -0.0099 -0.2161
 1384SOL    HW115788   3.378   0.645   9.379 -0.1159 -1.3627 -0.5458
 1384SOL    HW215789   3.258   0.727   9.363  0.7925  0.4661  0.2040
 1385SOL     OW15790   4.488   3.857   3.971 -0.4757  0.0012 -0.3432
 1385SOL    HW115791   4.404   3.812   3.955  0.2607 -1.4457 -0.1265
 1385SOL    HW215792   4.485   3.930   3.909 -0.0068  0.8666  0.6631
 1386SOL     OW15793   0.139   0.141   5.258  0.1675  0.8706  0.5662
 1386SOL    HW115794   0.218   0.147   5.203 -1.1612 -0.1434 -1.4674
 1386SOL    HW215795   0.092   0.076   5.207  1.7741  0.6466 -0.6670
 1387SOL     OW15796   3.898   2.686   2.710 -0.7743 -0.0463 -0.6061
 1387SOL    HW115797   3.920   2.770   2.749  0.0760 -0.0751 -1.0298
 1387SOL    HW215798   3.970   2.634   2.746 -1.8483 -1.3998 -0.4232
 1388SOL     OW15799   0.435   2.756   6.910 -0.3557 -0.7616  0.2003
 1388SOL    HW115800   0.431   2.850   6.892  2.8727 -0.4572  1.0083
 1388SOL    HW215801   0.438   2.753   7.006 -1.1199 -3.4927  0.1262
 1389SOL     OW15802   0.398   0.670  13.794 -0.2670 -0.3028  0.3900
 1389SOL    HW115803   0.436   0.627  13.717 -0.0710 -0.6853  0.7019
 1389SOL    HW215804   0.450   0.629  13.863  0.4763 -0.2226 -0.1217
 1390SOL     OW15805   4.101   3.643   6.524 -0.3323 -0.6456  0.2622
 1390SOL    HW115806   4.088   3.727   6.569 -1.0829 -0.1051 -0.9593
 1390SOL    HW215807   4.195   3.646   6.503  0.0122 -5.0079  1.2295
 1391SOL     OW15808   1.594   0.469   2.147  0.8255 -0.2168  0.0043
 1391SOL    HW115809   1.556   0.431   2.226  1.2446  0.0642  0.3430
 1391SOL    HW215810   1.671   0.417   2.127 -0.4865 -2.7354  1.5117
 1392SOL     OW15811   0.860   1.613  10.450  0.2662  0.4200 -0.1622
 1392SOL    HW115812   0.777   1.655  10.430 -0.8538 -2.6803 -2.0926
 1392SOL    HW215813   0.844   1.519  10.459 -0.2249  0.9759  4.5143
 1393SOL     OW15814   2.884   2.560   6.778  0.8582 -0.3277  0.4084
 1393SOL    HW115815   2.806   2.612   6.760  0.7405 -0.7164 -0.2089
 1393SOL    HW215816   2.887   2.520   6.691  0.4934 -0.1877  0.3320
 1394SOL     OW15817   0.196   1.638   5.474  0.0719 -0.1982 -0.1848
 1394SOL    HW115818   0.217   1.545   5.470  0.3311 -0.1501  0.0722
 1394SOL    HW215819   0.159   1.649   5.561  2.2120  1.0498  0.5607
 1395SOL     OW15820   0.022   1.439   3.938  0.4443 -0.0683 -0.3083
 1395SOL    HW115821   0.082   1.367   3.958  1.3512  0.0438 -2.5343
 1395SOL    HW215822   0.087   1.503   3.908 -0.7500  1.1164 -0.3893
 1396SOL     OW15823   0.778   4.624   1.868 -0.2218 -0.3102 -0.1496
 1396SOL    HW115824   0.691   4.584   1.869 -0.0932 -0.6652 -2.3881
 1396SOL    HW215825   0.789   4.615   1.962  3.1239 -1.3350 -0.6403
 1397SOL     OW15826   4.000   2.044   3.987  0.3414  0.7304  0.4952
 1397SOL    HW115827   3.940   1.984   4.031  2.0147 -2.7066 -1.9140
 1397SOL    HW215828   4.085   2.010   4.015  1.6883  2.0687 -1.9973
 1398SOL     OW15829   1.441   1.064   0.922  0.4797  1.0282 -0.4321
 1398SOL    HW115830   1.440   1.092   0.830  0.6927 -0.7379 -0.9748
 1398SOL    HW215831   1.506   0.993   0.921 -0.5010  0.1042  1.5805
 1399SOL     OW15832   1.579   1.056  13.382  0.0384 -0.9863  0.3590
 1399SOL    HW115833   1.634   1.119  13.336  0.1377 -1.1914  0.1988
 1399SOL    HW215834   1.617   1.050  13.469 -0.2985 -0.6287  0.5339
 1400SOL     OW15835   4.726   1.139   1.627 -0.3630 -0.4746 -0.0752
 1400SOL    HW115836   0.062   1.184   1.675  0.7386 -0.9002 -1.2821
 1400SOL    HW215837   0.022   1.048   1.622  0.3178 -0.2878  0.5881
 1401SOL     OW15838   0.593   2.479   2.392  0.0911 -0.1434 -0.3789
 1401SOL    HW115839   0.568   2.461   2.301 -0.4498  1.9943 -0.6591
 1401SOL    HW215840   0.597   2.396   2.439  1.9169 -0.0874 -0.4561
 1402SOL     OW15841   1.798   0.462   0.501 -0.0023 -0.2829 -0.7253
 1402SOL    HW115842   1.771   0.551   0.523  3.7307  1.3038 -2.4581
 1402SOL    HW215843   1.889   0.469   0.472 -0.1629 -1.2969 -1.5012
 1403SOL     OW15844   1.958   1.347   0.808 -0.4454 -0.2779  0.0945
 1403SOL    HW115845   1.877   1.384   0.771 -0.1279  0.2655 -0.0478
 1403SOL    HW215846   1.988   1.303   0.728 -0.9302  1.4999 -1.0729
 1404SOL     OW15847   0.498   0.762   0.367 -0.1219  0.2985 -0.0035
 1404SOL    HW115848   0.406   0.787   0.376 -0.3438 -0.3599 -0.4431
 1404SOL    HW215849   0.504   0.764   0.272  0.9480 -2.2242  0.0006
 1405SOL     OW15850   3.271   1.382  15.277 -0.0746 -0.2824 -0.1492
 1405SOL    HW115851   3.356   1.346  15.253 -0.1355  1.3976 -2.9181
 1405SOL    HW215852   3.232   1.346  15.197  0.8680  0.4851 -0.9602
 1406SOL     OW15853   4.710   3.778   1.641  0.5385 -0.2527  0.0890
 1406SOL    HW115854   4.665   3.730   1.711  0.8648  1.2818  1.3384
 1406SOL    HW215855   4.638   3.830   1.606  0.2623 -1.1731 -0.7275
 1407SOL     OW15856   3.054   4.480   6.526  0.0980 -0.2020 -0.6156
 1407SOL    HW115857   3.085   4.531   6.601 -1.5516  0.4121 -0.3478
 1407SOL    HW215858   3.121   4.412   6.531  1.1213  0.9126  0.5968
 1408SOL     OW15859   0.320   4.175   3.491 -0.1513 -0.3517  0.4842
 1408SOL    HW115860   0.350   4.095   3.448 -0.9874  0.3007 -1.2709
 1408SOL    HW215861   0.229   4.158   3.514 -0.2420 -0.8273 -0.2626
 1409SOL     OW15862   2.265   1.366   0.537  0.0055  0.5151 -0.0219
 1409SOL    HW115863   2.276   1.455   0.505 -0.6685  0.9275  0.8792
 1409SOL    HW215864   2.358   1.343   0.534  0.0345  0.7447 -0.7956
 1410SOL     OW15865   1.823   1.433   8.782 -0.2624 -0.1193  0.0214
 1410SOL    HW115866   1.748   1.375   8.792 -0.9110  0.4886 -1.3120
 1410SOL    HW215867   1.822   1.464   8.873 -2.7620  0.8042 -0.3119
 1411SOL     OW15868   1.433   2.987  16.408  0.1171  0.3179  0.2073
 1411SOL    HW115869   1.409   3.075  16.438 -1.0666 -0.0134  0.2218
 1411SOL    HW215870   1.493   2.963  16.479 -2.4970 -0.5699  2.0963
 1412SOL     OW15871   1.581   1.210   2.200  0.0455 -0.6865 -0.2307
 1412SOL    HW115872   1.500   1.165   2.224  0.0171  0.8676  2.5027
 1412SOL    HW215873   1.553   1.289   2.246 -2.4012 -1.6716 -0.0051
 1413SOL     OW15874   2.184   3.729   4.403  0.0490  0.1055  0.1371
 1413SOL    HW115875   2.134   3.663   4.452 -1.0819  0.0347 -1.1320
 1413SOL    HW215876   2.253   3.672   4.369  0.7298  1.2074 -0.3323
 1414SOL     OW15877   2.102   2.573  11.187 -0.4506  0.2604  0.0837
 1414SOL    HW115878   2.191   2.536  11.190 -0.2994  0.5439 -0.6529
 1414SOL    HW215879   2.078   2.573  11.279  0.5795 -0.6055  0.3465
 1415SOL     OW15880   0.567   3.139   8.826 -0.2746  0.4684  0.7759
 1415SOL    HW115881   0.595   3.065   8.773  0.9522  1.0740  0.5539
 1415SOL    HW215882   0.639   3.201   8.809 -0.5500  0.5819  0.0253
 1416SOL     OW15883   4.326   3.731   0.322  0.0632 -0.0029 -0.3939
 1416SOL    HW115884   4.385   3.725   0.397 -0.8008 -0.8112  0.2060
 1416SOL    HW215885   4.377   3.681   0.258 -0.3643 -0.9253 -0.0035
 1417SOL     OW15886   2.937   1.301   3.602  0.7001 -0.2163 -0.4305
 1417SOL    HW115887   2.973   1.239   3.538  1.3094 -1.2029  0.8706
 1417SOL    HW215888   2.857   1.333   3.560 -0.0087 -2.4283 -0.7642
 1418SOL     OW15889   4.701   0.204  13.400  0.3135  0.4983 -0.0753
 1418SOL    HW115890   0.000   0.186  13.488 -0.1566  1.5466  0.3180
 1418SOL    HW215891   4.607   0.214  13.415 -0.1782 -0.6824 -2.4610
 1419SOL     OW15892   0.790   1.850   5.772 -0.5305 -0.3790  0.3308
 1419SOL    HW115893   0.837   1.928   5.742 -1.6387 -0.2479 -1.0583
 1419SOL    HW215894   0.839   1.806   5.842  1.9392 -0.9251 -1.7198
 1420SOL     OW15895   4.389   4.029  15.120 -0.1209  0.4438  0.0339
 1420SOL    HW115896   4.385   4.017  15.215  2.3626 -2.2709 -0.2016
 1420SOL    HW215897   4.417   4.121  15.118 -0.0811  0.4781  1.5362
 1421SOL     OW15898   4.536   2.813   7.081 -0.6442  0.0883  0.2854
 1421SOL    HW115899   4.480   2.815   7.004  0.1804  1.3305 -0.2807
 1421SOL    HW215900   4.511   2.888   7.134 -3.3090 -0.0982 -0.7392
 1422SOL     OW15901   4.093   4.651   5.990  0.0643  0.5045 -0.7955
 1422SOL    HW115902   4.017   4.689   5.946 -0.5337 -0.5531 -0.6930
 1422SOL    HW215903   4.080   4.559   5.966 -1.8505  0.9912 -1.5975
 1423SOL     OW15904   1.756   3.379   0.128  0.3406  0.3652 -0.5344
 1423SOL    HW115905   1.737   3.375   0.034  0.7658 -1.2216 -0.5594
 1423SOL    HW215906   1.796   3.295   0.151 -0.3263  0.1688 -0.0827
 1424SOL     OW15907   1.692   0.800   6.545  0.0832  0.0039  0.3762
 1424SOL    HW115908   1.737   0.821   6.463 -0.8498  0.5041  0.0025
 1424SOL    HW215909   1.670   0.711   6.518 -0.1081  0.3082 -0.4794
 1425SOL     OW15910   3.162   0.785  14.232  0.4639  0.3532 -0.1224
 1425SOL    HW115911   3.149   0.746  14.146  1.4246  1.7496 -0.8950
 1425SOL    HW215912   3.258   0.788  14.233  0.4327  1.4787  0.7372
 1426SOL     OW15913   1.200   1.548   1.602  0.4086  0.1816  0.0059
 1426SOL    HW115914   1.191   1.630   1.553  1.5315 -0.4636 -1.2714
 1426SOL    HW215915   1.274   1.513   1.553  0.3784  1.5214 -0.9922
 1427SOL     OW15916   0.503   2.336   4.385  0.6337 -0.0620  0.3288
 1427SOL    HW115917   0.599   2.328   4.392  0.7171  1.5376  1.2469
 1427SOL    HW215918   0.493   2.410   4.446  0.9599  0.1940  0.0750
 1428SOL     OW15919   1.230   4.366  16.063  0.0721  0.3749  0.6312
 1428SOL    HW115920   1.155   4.307  16.071 -1.4579  2.4474  1.5312
 1428SOL    HW215921   1.293   4.307  16.104  2.2827  2.4274  0.2128
 1429SOL     OW15922   2.309   0.046  10.203 -0.1300  0.5099 -0.3579
 1429SOL    HW115923   2.230   0.063  10.152 -0.1905 -0.6720 -0.6612
 1429SOL    HW215924   2.369   0.051  10.129  0.9789  1.8344  0.6304
 1430SOL     OW15925   3.146   0.212   1.903  0.3437 -0.1356  0.1743
 1430SOL    HW115926   3.143   0.297   1.947 -1.9591 -0.3955  0.4995
 1430SOL    HW215927   3.114   0.232   1.815  1.3384 -2.1310 -0.6327
 1431SOL     OW15928   2.592   2.986   9.155 -0.3986 -0.1471 -0.1775
 1431SOL    HW115929   2.569   2.938   9.075  0.6331 -0.1132 -0.4843
 1431SOL    HW215930   2.538   3.063   9.138 -1.2020 -0.6072  0.2613
 1432SOL     OW15931   3.909   2.478   4.158  0.3831  0.3965 -0.3900
 1432SOL    HW115932   3.897   2.384   4.149 -0.1378  0.2041  2.2866
 1432SOL    HW215933   3.997   2.484   4.196 -0.9120  0.9185  2.5171
 1433SOL     OW15934   3.052   0.029   0.371 -0.0285 -0.1116  0.1939
 1433SOL    HW115935   3.129   0.004   0.423  1.3762  2.4001 -0.6748
 1433SOL    HW215936   2.994   4.687   0.378  0.7891 -0.7598 -0.1488
 1434SOL     OW15937   0.456   4.346   6.101 -0.2500 -0.2904  0.0425
 1434SOL    HW115938   0.464   4.407   6.174  2.5698  0.3579 -0.7998
 1434SOL    HW215939   0.428   4.267   6.148  0.0483 -2.4943 -3.4732
 1435SOL     OW15940   4.573   3.990  16.440 -0.7517 -0.5509  0.0856
 1435SOL    HW115941   4.581   4.022  16.350 -0.6256 -2.2195 -0.5045
 1435SOL    HW215942   4.479   4.001  16.454 -1.1258 -1.4414 -1.6344
 1436SOL     OW15943   0.434   0.636   1.359  0.1764  0.1747  0.3254
 1436SOL    HW115944   0.517   0.589   1.362  0.8428  1.3987  0.7379
 1436SOL    HW215945   0.456   0.705   1.422  0.7706  0.5146 -0.2530
 1437SOL     OW15946   2.383   3.099   4.925  0.3422  0.5098  0.2222
 1437SOL    HW115947   2.362   3.137   4.841  0.0618 -1.3524 -0.5592
 1437SOL    HW215948   2.354   3.009   4.906  1.2712  0.0961  0.7316
 1438SOL     OW15949   0.043   3.104   7.329 -0.4530  0.2132 -0.0067
 1438SOL    HW115950   0.102   3.174   7.354  1.0288 -0.2642 -2.2011
 1438SOL    HW215951   0.007   3.151   7.253 -0.9050 -0.4492 -0.2061
 1439SOL     OW15952   0.096   0.568   9.293  0.4168 -0.1563  0.4273
 1439SOL    HW115953   0.179   0.558   9.245  0.5130 -1.4801  0.8808
 1439SOL    HW215954   0.128   0.610   9.373  1.1626 -0.2629  0.1931
 1440SOL     OW15955   4.450   1.854   6.936 -0.1515  0.3225  0.6244
 1440SOL    HW115956   4.449   1.765   6.972 -0.1577  0.7526  1.6681
 1440SOL    HW215957   4.541   1.881   6.947 -1.0578  3.2053  1.0988
 1441SOL     OW15958   1.917   0.710   0.615 -0.3327  0.7768  0.3061
 1441SOL    HW115959   1.952   0.713   0.704 -0.3748 -0.5332  0.3636
 1441SOL    HW215960   1.856   0.784   0.610 -0.6211  0.3737 -2.2314
 1442SOL     OW15961   0.308   2.867   5.861  0.2299  0.0494 -0.0769
 1442SOL    HW115962   0.227   2.916   5.876  0.0131  0.4750 -2.6724
 1442SOL    HW215963   0.301   2.840   5.770 -1.6675 -1.8121  0.6155
 1443SOL     OW15964   4.332   0.038  12.385  0.0993 -0.8424  0.8847
 1443SOL    HW115965   4.266   4.712  12.351 -0.4464 -0.5830  1.4749
 1443SOL    HW215966   4.393   0.040  12.312  1.4333  1.1993  2.0413
 1444SOL     OW15967   1.528   3.098   5.083 -0.2754 -0.4176  0.3422
 1444SOL    HW115968   1.605   3.148   5.054 -1.2293  1.0748  0.4026
 1444SOL    HW215969   1.454   3.119   5.026 -0.3234 -0.5509  0.3543
 1445SOL     OW15970   4.633   0.558   4.513  0.2482  0.2828 -0.1312
 1445SOL    HW115971   4.580   0.480   4.525 -0.3238  0.7488  0.3925
 1445SOL    HW215972   4.660   0.550   4.422 -3.4602  0.1452 -1.2125
 1446SOL     OW15973   0.215   2.117   7.185  0.7125 -0.4090  0.2197
 1446SOL    HW115974   0.258   2.084   7.106 -0.6645  0.5618 -0.9360
 1446SOL    HW215975   0.187   2.038   7.231 -0.6661 -0.0348  0.0257
 1447SOL     OW15976   1.590   1.482   6.831 -0.5208  0.7474  0.1556
 1447SOL    HW115977   1.632   1.402   6.864 -2.0865 -0.1084  0.1149
 1447SOL    HW215978   1.668   1.536   6.820 -0.1415 -0.2384 -1.8753
 1448SOL     OW15979   3.870   3.703  11.129 -0.1056 -0.0564  0.2734
 1448SOL    HW115980   3.836   3.689  11.041 -1.8453  0.9464  0.7935
 1448SOL    HW215981   3.844   3.620  11.168 -0.9381 -0.0620 -0.3093
 1449SOL     OW15982   3.392   0.752  14.374 -0.4489 -0.0284  0.6433
 1449SOL    HW115983   3.359   0.665  14.352  1.0075 -0.4959  0.3254
 1449SOL    HW215984   3.345   0.764  14.457 -0.0421  0.3962  0.8171
 1450SOL     OW15985   2.006   2.116   4.605  0.3197  0.5127  0.4159
 1450SOL    HW115986   1.994   2.180   4.535 -0.8823 -0.3500 -0.1512
 1450SOL    HW215987   2.002   2.032   4.560  1.2677  0.9391 -0.4609
 1451SOL     OW15988   2.122   0.451  10.852  0.0819  0.2480 -0.1971
 1451SOL    HW115989   2.052   0.419  10.795 -0.4734 -2.0617  1.7896
 1451SOL    HW215990   2.196   0.394  10.834  0.6962  0.4259  1.7639
 1452SOL     OW15991   2.774   3.714   0.908 -0.3461  0.0971 -0.0924
 1452SOL    HW115992   2.816   3.770   0.973 -1.8260  2.9777 -1.6211
 1452SOL    HW215993   2.824   3.735   0.828  0.4090  0.7734  0.5579
 1453SOL     OW15994   1.970   3.840  11.575 -0.2633  0.1735  0.1974
 1453SOL    HW115995   1.975   3.932  11.550 -1.4684  0.9123  2.7525
 1453SOL    HW215996   1.878   3.835  11.602  0.3345  1.5644  2.4575
 1454SOL     OW15997   2.680   1.890  11.973 -0.4333 -0.2904 -0.3369
 1454SOL    HW115998   2.689   1.940  12.054 -1.6806 -0.8922  0.1736
 1454SOL    HW215999   2.744   1.819  11.979 -1.9258 -1.5804  0.3433
 1455SOL     OW16000   2.491   2.946   3.716 -0.4083 -0.1635  0.1638
 1455SOL    HW116001   2.529   2.899   3.642 -0.7126 -1.5969  0.9193
 1455SOL    HW216002   2.424   2.888   3.752 -0.6454 -1.6434 -2.6699
 1456SOL     OW16003   4.089   0.800   8.372  0.5801 -0.0748  0.8629
 1456SOL    HW116004   4.019   0.799   8.307  1.6935 -0.0097 -0.3330
 1456SOL    HW216005   4.042   0.794   8.455  1.0664  1.5543  1.2610
 1457SOL     OW16006   2.779   0.601   7.462 -0.1377  0.3984 -0.2784
 1457SOL    HW116007   2.784   0.602   7.367  0.7466 -2.6042 -0.2567
 1457SOL    HW216008   2.864   0.558   7.471  0.1494  0.6982 -1.5824
 1458SOL     OW16009   3.431   0.682   7.568 -0.4559  0.3756  0.0051
 1458SOL    HW116010   3.502   0.744   7.585  2.7626 -3.2364 -0.0958
 1458SOL    HW216011   3.481   0.628   7.507 -2.0880  0.7648 -1.6384
 1459SOL     OW16012   3.933   0.307  11.373 -0.0880  0.1819 -0.2377
 1459SOL    HW116013   3.888   0.285  11.455 -0.6150  0.4978 -0.4390
 1459SOL    HW216014   3.863   0.282  11.312  0.3994 -1.3796 -0.1504
 1460SOL     OW16015   0.884   4.705   7.110 -0.3066 -0.7083  0.0654
 1460SOL    HW116016   0.940   0.048   7.113 -0.2636 -0.8085  1.6243
 1460SOL    HW216017   0.798   0.011   7.116 -0.1001  0.2233 -3.0338
 1461SOL     OW16018   0.109   4.716   7.099 -0.2512 -0.1828  0.3301
 1461SOL    HW116019   0.035   4.680   7.147  0.1407  0.2270  1.2561
 1461SOL    HW216020   0.168   4.643   7.117  0.0371 -0.0084  0.0979
 1462SOL     OW16021   3.595   4.664   4.874  0.1598 -0.2287  0.7809
 1462SOL    HW116022   3.562   4.582   4.837  2.3015 -0.4562 -0.6172
 1462SOL    HW216023   3.627   4.632   4.959  1.2371 -0.9121  0.1218
 1463SOL     OW16024   0.390   2.185   8.794  0.1831 -0.2205 -0.0136
 1463SOL    HW116025   0.311   2.162   8.745 -0.0798 -0.6922  0.6296
 1463SOL    HW216026   0.460   2.168   8.730 -0.2142 -2.6192  0.1837
 1464SOL     OW16027   0.227   4.645   8.915 -0.2577  0.1702 -0.4295
 1464SOL    HW116028   0.318   4.674   8.925 -0.8621  2.1437 -0.6367
 1464SOL    HW216029   0.187   4.724   8.880  1.0121 -0.4463 -3.2098
 1465SOL     OW16030   4.055   1.798  16.360  0.3280 -0.3556 -0.4956
 1465SOL    HW116031   3.979   1.740  16.356 -1.1171  1.4165  0.9139
 1465SOL    HW216032   4.064   1.799  16.456  3.9860 -0.1707 -0.8638
 1466SOL     OW16033   3.217   0.646   8.998  0.3411  0.0177 -0.1017
 1466SOL    HW116034   3.287   0.582   9.012 -3.1589 -4.3024 -2.5160
 1466SOL    HW216035   3.141   0.595   8.971 -0.9375  2.0005 -0.2878
 1467SOL     OW16036   2.383   0.952  10.352 -0.1130 -0.1891 -0.0097
 1467SOL    HW116037   2.299   0.989  10.379  1.1648  1.8892  1.0715
 1467SOL    HW216038   2.418   0.920  10.435  0.4048 -0.2452 -0.2546
 1468SOL     OW16039   4.720   0.612   2.377 -0.1823  0.2120  0.0018
 1468SOL    HW116040   4.727   0.662   2.459 -2.1888  0.0905  0.2610
 1468SOL    HW216041   4.673   0.672   2.320  0.4122  1.6543  1.0240
 1469SOL     OW16042   0.079   3.601   8.248  0.0160 -0.3603  0.1426
 1469SOL    HW116043   0.139   3.676   8.243 -1.3749  0.8667  2.1294
 1469SOL    HW216044   4.732   3.651   8.251  0.3580  0.3685 -2.7245
 1470SOL     OW16045   4.565   2.575   8.164 -0.1878 -0.0650 -0.4706
 1470SOL    HW116046   4.608   2.644   8.215 -2.5534  0.6417  0.5906
 1470SOL    HW216047   4.515   2.535   8.235 -0.6590  1.2649 -0.0349
 1471SOL     OW16048   4.323   3.169   4.499 -0.0980  0.2143  0.4358
 1471SOL    HW116049   4.304   3.207   4.584  0.4164 -1.9448  1.4951
 1471SOL    HW216050   4.416   3.192   4.487  0.5352 -2.6280 -0.2704
 1472SOL     OW16051   2.260   3.742  11.976 -0.1268  0.7064 -0.3016
 1472SOL    HW116052   2.181   3.729  11.924 -1.2396 -1.5516  1.9636
 1472SOL    HW216053   2.291   3.652  11.964  3.2038  2.0175 -1.6156
 1473SOL     OW16054   3.690   1.775   7.490 -0.3012 -0.7255  0.5511
 1473SOL    HW116055   3.656   1.862   7.469 -0.3717 -1.0280 -0.6404
 1473SOL    HW216056   3.619   1.732   7.537 -0.0708 -0.6074  1.0027
 1474SOL     OW16057   4.182   1.362   4.220 -0.0057 -0.3188  0.0877
 1474SOL    HW116058   4.154   1.425   4.286 -2.0871  0.0855 -1.1879
 1474SOL    HW216059   4.266   1.336   4.257 -0.0898 -1.0315 -0.2323
 1475SOL     OW16060   4.190   1.389   8.175  0.4996 -0.2579  0.1026
 1475SOL    HW116061   4.257   1.429   8.119 -0.0252  2.1205  1.1681
 1475SOL    HW216062   4.217   1.420   8.262  3.5188  0.9558 -1.2743
 1476SOL     OW16063   4.086   2.523   5.462 -0.1543 -0.0111  0.6749
 1476SOL    HW116064   4.089   2.461   5.389  0.7760 -1.5005  1.9869
 1476SOL    HW216065   4.001   2.510   5.505 -1.1130 -2.3165 -1.8492
 1477SOL     OW16066   2.599   1.523   8.610 -0.4193  0.2857 -0.2737
 1477SOL    HW116067   2.674   1.534   8.668  1.9360 -0.3682 -3.1811
 1477SOL    HW216068   2.532   1.504   8.676 -1.9361  0.5203 -1.7506
 1478SOL     OW16069   2.770   2.677   3.825 -0.0964  0.4194  0.0450
 1478SOL    HW116070   2.753   2.747   3.887 -1.1588  1.0084 -0.8993
 1478SOL    HW216071   2.845   2.713   3.778  0.0506 -0.6865 -0.5818
 1479SOL     OW16072   1.541   4.596   5.238  0.3327 -0.2493 -0.0763
 1479SOL    HW116073   1.480   4.545   5.185 -1.7689  0.7648  1.3571
 1479SOL    HW216074   1.568   4.534   5.306 -0.8889 -1.3241 -0.5652
 1480SOL     OW16075   1.447   3.749   7.987 -0.0861 -0.3471 -0.4456
 1480SOL    HW116076   1.392   3.724   7.913 -0.6887 -0.4652  0.0435
 1480SOL    HW216077   1.451   3.662   8.027  0.5999  0.7294  1.8535
 1481SOL     OW16078   0.444   0.127   2.718 -0.2133 -0.1546 -0.7009
 1481SOL    HW116079   0.465   0.045   2.673  0.8844 -0.4480  0.3537
 1481SOL    HW216080   0.496   0.196   2.677 -1.2761  0.6208 -0.7364
 1482SOL     OW16081   3.451   4.554   9.075 -0.1047 -0.1755  0.5884
 1482SOL    HW116082   3.453   4.600   8.991  0.7415 -0.7407  0.3028
 1482SOL    HW216083   3.378   4.602   9.115 -0.3774  0.7542 -1.0125
 1483SOL     OW16084   4.117   3.828   4.432  0.2174  0.2308 -0.1903
 1483SOL    HW116085   4.050   3.767   4.400  0.3544 -0.4766  0.8673
 1483SOL    HW216086   4.142   3.866   4.348 -2.4412  1.8464 -0.2455
 1484SOL     OW16087   1.649   2.106   8.901 -0.3227  0.0398  0.2224
 1484SOL    HW116088   1.651   2.097   8.997  0.0697  1.7624  0.3753
 1484SOL    HW216089   1.716   2.038   8.886  0.1628  0.8471 -1.1884
 1485SOL     OW16090   1.407   4.711  14.327 -0.8700 -0.2431 -0.3762
 1485SOL    HW116091   1.357   4.651  14.382  0.1173 -0.2863  0.4729
 1485SOL    HW216092   1.368   4.707  14.240  2.9212 -1.9808 -1.9871
 1486SOL     OW16093   4.715   2.956   4.089 -0.1453  0.2389 -0.1446
 1486SOL    HW116094   4.726   2.864   4.116 -2.1583  0.4593  1.4286
 1486SOL    HW216095   4.661   2.955   4.010 -0.6547  2.1809  0.1845
 1487SOL     OW16096   3.180   3.951  12.905 -0.1887 -0.3707 -0.0171
 1487SOL    HW116097   3.233   3.991  12.836 -0.3614  0.6684  0.4404
 1487SOL    HW216098   3.113   4.019  12.920  0.2769 -0.0987  0.8296
 1488SOL     OW16099   0.970   1.931   0.969 -0.2263 -0.1381 -0.1678
 1488SOL    HW116100   1.010   1.875   0.902 -0.7625  1.7234 -2.0492
 1488SOL    HW216101   1.031   2.005   0.968 -2.5806  1.7817 -0.0632
 1489SOL     OW16102   3.947   2.299   1.221  0.4906 -0.1453  0.0170
 1489SOL    HW116103   3.973   2.384   1.184  1.2336 -0.1185  0.6112
 1489SOL    HW216104   4.006   2.243   1.172 -1.6546 -2.2535 -0.1491
 1490SOL     OW16105   2.902   3.839   7.753 -0.9611  0.1501  0.0503
 1490SOL    HW116106   2.822   3.838   7.807 -2.1391 -1.1858 -1.7391
 1490SOL    HW216107   2.916   3.745   7.743 -0.5172  0.0244  1.8538
 1491SOL     OW16108   1.313   1.311   6.644 -0.2034 -0.1478 -0.0396
 1491SOL    HW116109   1.391   1.257   6.661  0.0787  0.4829  0.6840
 1491SOL    HW216110   1.353   1.368   6.578  1.0084 -0.1922  0.6469
 1492SOL     OW16111   2.572   0.313   8.141  0.2700  0.0924  0.2576
 1492SOL    HW116112   2.554   0.293   8.233 -0.5605 -0.9253 -0.1286
 1492SOL    HW216113   2.593   0.226   8.106  0.0619 -0.0047  0.3701
 1493SOL     OW16114   4.349   0.016   5.998  0.3530  0.3162  0.3972
 1493SOL    HW116115   4.352   0.042   6.090  0.5065 -0.8243  0.7167
 1493SOL    HW216116   4.270   4.696   5.994 -0.5441  1.4520  2.4153
 1494SOL     OW16117   1.200   4.428   7.292  0.1656 -0.7121 -0.2456
 1494SOL    HW116118   1.148   4.489   7.345  2.6455  1.6326 -0.4690
 1494SOL    HW216119   1.138   4.392   7.230  0.6566 -0.5909 -0.8075
 1495SOL     OW16120   0.738   3.373  17.200 -0.3453  0.4408  0.5316
 1495SOL    HW116121   0.745   3.298  17.260  0.5418  0.1465  0.0576
 1495SOL    HW216122   0.797   3.439  17.237 -0.9382  1.5516 -0.5367
 1496SOL     OW16123   3.223   2.143   8.787  0.4869 -0.2259 -0.2270
 1496SOL    HW116124   3.147   2.093   8.759  0.0781  0.5191 -0.4294
 1496SOL    HW216125   3.278   2.074   8.824  0.4726  0.4437  1.0574
 1497SOL     OW16126   0.051   4.701   8.285  0.3317  0.1461 -0.1537
 1497SOL    HW116127   0.112   4.629   8.268  1.7237  0.6084  2.9959
 1497SOL    HW216128   0.086   4.728   8.369 -0.1017 -2.2314  0.8118
 1498SOL     OW16129   1.887   3.960   2.301 -0.1136  0.0238  0.2585
 1498SOL    HW116130   1.978   3.982   2.281 -0.1093  0.2805  0.5693
 1498SOL    HW216131   1.849   4.039   2.339 -0.8836 -0.3009  0.1641
 1499SOL     OW16132   3.253   0.647  15.792 -0.3717 -0.0625  0.4581
 1499SOL    HW116133   3.213   0.692  15.867  1.2128 -1.1840  1.9570
 1499SOL    HW216134   3.338   0.689  15.793 -0.1360 -0.4897 -1.2472
 1500SOL     OW16135   3.844   2.273  11.580  0.3702 -0.7131  0.0433
 1500SOL    HW116136   3.817   2.231  11.661  1.6398 -1.1027  0.2639
 1500SOL    HW216137   3.769   2.264  11.521 -0.6984 -3.3634  1.8035
 1501SOL     OW16138   0.517   0.583   7.436  0.1945  0.2159  0.3712
 1501SOL    HW116139   0.437   0.531   7.427  0.7981 -1.2417  3.3693
 1501SOL    HW216140   0.483   0.669   7.461  0.4547 -0.1224  1.8817
 1502SOL     OW16141   3.923   2.952   0.640 -0.5390 -0.9279  0.5772
 1502SOL    HW116142   3.957   2.899   0.712 -1.5234 -1.1368  0.9008
 1502SOL    HW216143   3.828   2.937   0.644 -0.2748 -2.7350 -0.0558
 1503SOL     OW16144   0.925   2.371   6.076  0.5778 -0.0413  0.2722
 1503SOL    HW116145   0.988   2.416   6.020  1.0505 -1.1145 -0.0630
 1503SOL    HW216146   0.856   2.359   6.012  0.1298  1.5808  0.4516
 1504SOL     OW16147   1.888   0.419   3.234  0.1156  0.0037  0.0334
 1504SOL    HW116148   1.868   0.493   3.176 -1.3396  0.7383  1.4791
 1504SOL    HW216149   1.878   0.464   3.318  1.2199  1.3684 -0.5520
 1505SOL     OW16150   1.224   1.817   5.121 -0.1543 -0.1987  0.4889
 1505SOL    HW116151   1.232   1.881   5.192  0.4514  2.4303 -1.9976
 1505SOL    HW216152   1.282   1.749   5.156 -0.0683  0.2020  1.1367
 1506SOL     OW16153   1.298   1.880   4.491  0.6454 -0.1411  0.3453
 1506SOL    HW116154   1.351   1.822   4.437 -0.4406 -0.4031 -0.4444
 1506SOL    HW216155   1.234   1.825   4.536 -1.0304 -0.3802 -2.3247
 1507SOL     OW16156   0.881   2.615  16.799  0.0768 -0.2669  0.1684
 1507SOL    HW116157   0.913   2.671  16.729  0.4323 -1.7717 -0.8784
 1507SOL    HW216158   0.965   2.570  16.811 -0.5733 -1.7264 -0.7239
 1508SOL     OW16159   4.347   0.703   6.667 -0.2852  0.4595  0.2514
 1508SOL    HW116160   4.305   0.622   6.693  0.2915 -0.1996 -0.8889
 1508SOL    HW216161   4.303   0.726   6.585 -1.9996  1.9996  1.5957
 1509SOL     OW16162   4.392   4.395   1.167 -0.0811 -0.8235 -0.3657
 1509SOL    HW116163   4.357   4.323   1.219  0.3731 -0.2301  0.7436
 1509SOL    HW216164   4.453   4.346   1.112  0.8694 -1.7928  1.5612
 1510SOL     OW16165   3.412   4.561  16.351  0.2464  0.5545  0.4580
 1510SOL    HW116166   3.486   4.609  16.316 -0.4423  0.0445 -1.7599
 1510SOL    HW216167   3.451   4.474  16.358 -0.0820  0.5202  1.8269
 1511SOL     OW16168   4.024   1.398   0.318 -0.1578  0.2666  0.3563
 1511SOL    HW116169   3.997   1.351   0.397 -1.0206  0.5010  0.1910
 1511SOL    HW216170   4.018   1.320   0.264 -0.6137 -0.5294  1.5608
 1512SOL     OW16171   1.198   4.007   3.759  0.0534 -0.3606 -0.1843
 1512SOL    HW116172   1.278   4.052   3.731 -1.5105  2.1930 -0.5396
 1512SOL    HW216173   1.189   4.023   3.853 -0.6376 -0.1210 -0.2994
 1513SOL     OW16174   0.354   4.474   5.903 -0.2006 -0.1074  0.0331
 1513SOL    HW116175   0.286   4.518   5.953 -0.6355 -1.3326  0.5261
 1513SOL    HW216176   0.383   4.417   5.975  1.1950  0.7876  0.1727
 1514SOL     OW16177   0.559   3.233   3.438  0.1824  0.1901  0.1578
 1514SOL    HW116178   0.502   3.157   3.430  1.9844 -1.1929  0.4827
 1514SOL    HW216179   0.641   3.186   3.450  0.8926  0.8438 -2.1861
 1515SOL     OW16180   1.123   0.144   2.278 -0.1726  0.7931 -0.3839
 1515SOL    HW116181   1.101   0.111   2.191  3.2566  0.0292 -0.9573
 1515SOL    HW216182   1.038   0.170   2.314 -0.6342  0.1336 -0.9740
 1516SOL     OW16183   1.372   2.713   6.453 -0.3523  0.0798  0.4157
 1516SOL    HW116184   1.320   2.688   6.529  0.0952 -1.1075  0.3361
 1516SOL    HW216185   1.393   2.803   6.480 -0.1059  0.5011 -1.1626
 1517SOL     OW16186   1.895   1.559  16.716 -0.5767 -0.1270  0.7453
 1517SOL    HW116187   1.812   1.598  16.745 -0.3713  2.0176 -1.6247
 1517SOL    HW216188   1.925   1.500  16.786 -0.3602 -0.2598  0.5395
 1518SOL     OW16189   2.450   1.666  12.725  0.0377  0.4213 -0.2889
 1518SOL    HW116190   2.459   1.613  12.646  0.3099 -1.2246  0.8531
 1518SOL    HW216191   2.444   1.603  12.796 -0.3489 -0.4103 -1.0545
 1519SOL     OW16192   3.316   2.550  17.002  0.2393  0.6626  0.3375
 1519SOL    HW116193   3.315   2.613  16.929 -0.5535  2.4447  1.8993
 1519SOL    HW216194   3.367   2.477  16.965 -5.8212 -2.6223 -1.5454
 1520SOL     OW16195   2.298   1.280   1.975 -0.1056  0.3615  0.1025
 1520SOL    HW116196   2.236   1.289   2.047 -2.8180 -1.3439 -2.0119
 1520SOL    HW216197   2.318   1.186   1.969 -1.2906  0.0848  0.6063
 1521SOL     OW16198   3.703   3.543  17.687 -0.1841  0.0407  0.2854
 1521SOL    HW116199   3.665   3.553  17.600  3.2731  0.9561 -1.1352
 1521SOL    HW216200   3.797   3.525  17.674 -0.5522 -1.9710  0.3913
 1522SOL     OW16201   3.530   0.550   9.869  0.0318  0.0716 -0.3010
 1522SOL    HW116202   3.545   0.643   9.886  2.6453  0.3124 -3.9291
 1522SOL    HW216203   3.609   0.530   9.920  1.0710  1.3071 -1.4330
 1523SOL     OW16204   2.045   0.546   3.917  0.5696 -0.0541 -0.2051
 1523SOL    HW116205   1.968   0.530   3.862 -0.7250  1.8409  1.0327
 1523SOL    HW216206   2.004   0.579   3.997 -1.1973 -1.5334 -0.4986
 1524SOL     OW16207   2.428   2.019   4.214 -0.4393  0.0471  0.3413
 1524SOL    HW116208   2.363   1.952   4.235  0.3546 -0.9257 -0.3171
 1524SOL    HW216209   2.406   2.075   4.288  1.5250  2.5858 -1.0305
 1525SOL     OW16210   0.438   2.751   6.119 -0.1696 -0.5613  0.2469
 1525SOL    HW116211   0.385   2.683   6.160  0.3122 -0.1762  1.4829
 1525SOL    HW216212   0.383   2.776   6.044  0.5876 -3.4823 -1.2890
 1526SOL     OW16213   0.530   2.686   1.822 -0.5554  0.4504  0.4606
 1526SOL    HW116214   0.525   2.613   1.883  0.2160  0.9440  1.1258
 1526SOL    HW216215   0.614   2.673   1.778 -1.5917 -2.2815 -0.6840
 1527SOL     OW16216   4.072   1.860   8.199  0.7721 -0.4791 -0.0550
 1527SOL    HW116217   4.081   1.868   8.294  1.7908 -2.6771  0.0387
 1527SOL    HW216218   3.987   1.903   8.190  0.2623 -1.7968 -1.5911
 1528SOL     OW16219   2.512   4.016  16.040 -0.3773 -0.2534 -0.2568
 1528SOL    HW116220   2.538   4.013  16.132  1.9208 -2.6558 -0.9696
 1528SOL    HW216221   2.594   4.051  16.005  1.5847 -0.4374  4.2115
 1529SOL     OW16222   0.216   4.668   4.398 -0.0338  0.1598 -0.0185
 1529SOL    HW116223   0.200   4.646   4.490 -0.5186  0.5029 -0.0213
 1529SOL    HW216224   0.311   4.669   4.393 -0.0127 -0.4191  0.2232
 1530SOL     OW16225   0.306   1.934   4.845 -0.2896  0.2947 -0.2847
 1530SOL    HW116226   0.338   1.893   4.925 -0.4770  1.8647  0.5888
 1530SOL    HW216227   0.361   2.012   4.855  0.8952 -0.2482 -2.5143
 1531SOL     OW16228   3.997   1.321  13.042 -0.0778  0.1728 -0.0687
 1531SOL    HW116229   3.983   1.393  12.981  0.8028  1.1680  0.9194
 1531SOL    HW216230   4.002   1.246  12.983  0.0279 -0.5725  0.8906
 1532SOL     OW16231   1.115   3.365   9.585 -0.0332 -0.1540  0.2490
 1532SOL    HW116232   1.085   3.277   9.565  1.6526 -0.8192  0.6930
 1532SOL    HW216233   1.181   3.339   9.649  1.4004  0.9025 -0.7951
 1533SOL     OW16234   0.611   2.433  10.872 -0.1919  0.4831 -0.2465
 1533SOL    HW116235   0.611   2.476  10.957  1.4473 -0.3008  0.1447
 1533SOL    HW216236   0.518   2.412  10.863 -0.3170  1.1277 -0.4611
 1534SOL     OW16237   2.648   2.938   5.159  0.2565  0.2198  0.7257
 1534SOL    HW116238   2.574   2.898   5.113  0.5733  2.4962 -1.7475
 1534SOL    HW216239   2.720   2.938   5.096 -0.9072 -0.5638 -0.5965
 1535SOL     OW16240   0.641   4.042   2.840  0.1148 -0.7788  0.0444
 1535SOL    HW116241   0.688   3.973   2.792  0.2435  0.2198 -1.2629
 1535SOL    HW216242   0.707   4.106   2.867 -1.8378  1.6986 -1.0426
 1536SOL     OW16243   1.519   2.988   6.839 -0.3151  0.0454  0.0860
 1536SOL    HW116244   1.613   2.987   6.857 -0.5842  0.3014  1.4682
 1536SOL    HW216245   1.497   3.025   6.925  0.7480 -0.0011  0.3749
 1537SOL     OW16246   1.899   1.887   6.407  0.1391  0.3483  0.0459
 1537SOL    HW116247   1.931   1.972   6.439  1.6693 -0.0090 -0.5252
 1537SOL    HW216248   1.971   1.845   6.359  0.2689 -1.1705  1.5486
 1538SOL     OW16249   2.922   4.174   5.993 -0.5943 -0.2115  0.1229
 1538SOL    HW116250   2.905   4.085   6.026  2.8818 -0.4553  1.2806
 1538SOL    HW216251   3.003   4.191   6.042 -0.8127 -1.9473  1.1148
 1539SOL     OW16252   1.984   4.075   3.187 -0.0032 -0.1188  0.5657
 1539SOL    HW116253   2.048   4.076   3.115 -0.6091 -1.8220  0.0203
 1539SOL    HW216254   2.034   4.059   3.267 -0.6195  1.9373  1.3704
 1540SOL     OW16255   2.380   4.074  17.654 -0.2890  0.2405 -0.2802
 1540SOL    HW116256   2.445   4.006  17.671  0.8809  1.4986  0.1872
 1540SOL    HW216257   2.304   4.016  17.643  0.4812 -0.6747 -0.7538
 1541SOL     OW16258   2.974   2.050   8.767 -0.4927  0.2377 -0.0098
 1541SOL    HW116259   2.930   2.045   8.852 -0.8092 -1.7447 -0.2817
 1541SOL    HW216260   2.935   2.116   8.710 -0.4341  0.3056  0.0283
 1542SOL     OW16261   1.459   3.366   7.287  0.3092  0.2642 -0.0017
 1542SOL    HW116262   1.387   3.427   7.304 -2.2610 -2.8174  0.0750
 1542SOL    HW216263   1.533   3.414   7.322  0.7579 -1.2079  1.0657
 1543SOL     OW16264   0.658   2.443   7.597 -0.3147 -0.6634  0.1974
 1543SOL    HW116265   0.686   2.524   7.638 -1.6446 -0.7429  1.2429
 1543SOL    HW216266   0.599   2.478   7.530 -0.4020 -1.2559 -0.0403
 1544SOL     OW16267   1.359   3.971   8.498 -0.2612  0.3314 -0.6686
 1544SOL    HW116268   1.328   3.940   8.413 -1.7096  0.9396 -0.3698
 1544SOL    HW216269   1.402   3.891   8.529  0.1793  0.6093 -0.5649
 1545SOL     OW16270   4.007   2.274  13.036  0.3911 -0.4099  0.0322
 1545SOL    HW116271   4.060   2.305  13.109 -1.6935  0.8345  1.0248
 1545SOL    HW216272   3.936   2.225  13.077 -0.9512  0.5170 -1.1448
 1546SOL     OW16273   4.725   4.035   1.342  0.1227 -0.1739 -0.3233
 1546SOL    HW116274   4.638   4.016   1.376  0.9087 -0.8938  1.2951
 1546SOL    HW216275   4.727   3.984   1.260  4.8856 -1.6598  0.6905
 1547SOL     OW16276   3.836   2.365   7.675 -0.5286 -0.2631  0.4648
 1547SOL    HW116277   3.868   2.348   7.586  0.0794 -0.0137  0.6379
 1547SOL    HW216278   3.803   2.277   7.687 -1.1166 -0.0687  0.2818
 1548SOL     OW16279   3.298   4.711   6.840 -1.0425  0.1364 -0.0600
 1548SOL    HW116280   3.209   4.676   6.839 -0.5744 -1.1154  2.1445
 1548SOL    HW216281   3.294   0.030   6.919 -0.0502 -2.3712  1.6703
 1549SOL     OW16282   3.753   2.951   1.807 -0.2273  0.2621 -0.4255
 1549SOL    HW116283   3.848   2.960   1.806 -0.1515 -0.6463 -0.8206
 1549SOL    HW216284   3.744   2.886   1.737 -0.1717 -1.6878  1.3867
 1550SOL     OW16285   0.908   2.676   6.654  0.1085 -0.4119  0.1588
 1550SOL    HW116286   0.999   2.646   6.645  1.0623  2.0305  1.6491
 1550SOL    HW216287   0.875   2.629   6.577 -0.5746 -0.9908  0.7984
 1551SOL     OW16288   4.636   0.982  10.062 -0.0733 -0.2615 -0.0011
 1551SOL    HW116289   4.558   0.927  10.071 -1.2779  1.3041 -0.8126
 1551SOL    HW216290   4.649   1.007  10.154 -1.6204 -1.3942  0.5393
 1552SOL     OW16291   3.338   4.409   6.047  0.7235  0.0608 -0.0636
 1552SOL    HW116292   3.399   4.384   5.978  0.6619  0.0060 -0.0973
 1552SOL    HW216293   3.386   4.366   6.117 -0.0098  0.7061  0.8374
 1553SOL     OW16294   2.400   1.232   7.979 -0.4715 -0.0336 -0.2910
 1553SOL    HW116295   2.410   1.327   7.987  1.1247 -0.3465  1.4796
 1553SOL    HW216296   2.489   1.198   7.984 -0.2565  0.5921  0.1333
 1554SOL     OW16297   1.860   0.183   1.456 -0.1557  0.8109 -0.5318
 1554SOL    HW116298   1.765   0.186   1.466 -0.2620  3.5979 -2.4756
 1554SOL    HW216299   1.868   0.087   1.458 -0.3156  0.8100 -0.0023
 1555SOL     OW16300   2.813   1.902   2.917 -0.3001  0.1315 -0.3957
 1555SOL    HW116301   2.789   1.811   2.930  1.8387 -0.4915 -0.7043
 1555SOL    HW216302   2.760   1.942   2.986 -2.1888  2.0333 -2.9682
 1556SOL     OW16303   2.788   3.142   5.514  0.5008 -0.4015  0.4415
 1556SOL    HW116304   2.740   3.156   5.595 -0.5488 -0.4555 -0.1781
 1556SOL    HW216305   2.728   3.079   5.475 -3.0885  2.6644  1.0507
 1557SOL     OW16306   4.399   1.975  12.964  0.0326 -0.0660 -0.4574
 1557SOL    HW116307   4.386   1.959  13.058  1.2596 -0.1463 -0.3088
 1557SOL    HW216308   4.494   1.983  12.966 -0.0070 -0.2275  1.9154
 1558SOL     OW16309   1.113   1.865   2.126 -0.1011 -0.1566  0.3045
 1558SOL    HW116310   1.031   1.818   2.142 -0.5780  0.1741 -1.1851
 1558SOL    HW216311   1.102   1.857   2.031 -1.3489 -0.7018  0.4939
 1559SOL     OW16312   2.151   2.726  17.368  0.3400 -0.2789 -0.6345
 1559SOL    HW116313   2.061   2.705  17.394  0.4215  1.7341  1.2670
 1559SOL    HW216314   2.195   2.653  17.410 -1.3893 -0.9156  0.0767
 1560SOL     OW16315   4.077   2.053  14.897  0.4011  0.1394 -0.3933
 1560SOL    HW116316   4.109   2.015  14.978 -0.4507 -0.5703 -0.3895
 1560SOL    HW216317   4.095   2.146  14.910  0.5954  0.2140 -1.1870
 1561SOL     OW16318   0.841   1.943   7.251 -0.0555 -0.1180  0.3523
 1561SOL    HW116319   0.810   2.033   7.252 -2.3523 -0.9041  1.0697
 1561SOL    HW216320   0.916   1.942   7.309  1.2924  1.2417 -1.3783
 1562SOL     OW16321   2.977   3.235   8.336 -0.2551  1.1363  0.1667
 1562SOL    HW116322   3.056   3.259   8.384  1.0944 -0.7778 -1.0931
 1562SOL    HW216323   2.966   3.299   8.266  2.4927  0.8580 -0.5008
 1563SOL     OW16324   2.623   3.367   4.831  0.3982  0.0768 -0.6750
 1563SOL    HW116325   2.619   3.354   4.925  0.8960  3.1463 -0.2334
 1563SOL    HW216326   2.685   3.300   4.804 -0.4223  0.1375 -2.7716
 1564SOL     OW16327   3.552   3.922  10.302 -0.1175 -0.3818 -0.3172
 1564SOL    HW116328   3.459   3.921  10.283 -0.3549  1.1167  0.8564
 1564SOL    HW216329   3.572   3.829  10.316  0.4593 -0.3769 -1.0839
 1565SOL     OW16330   1.075   0.170   7.123  0.4591  0.3913  0.3284
 1565SOL    HW116331   1.154   0.204   7.080  0.2310  2.3641  1.4444
 1565SOL    HW216332   1.054   0.255   7.161 -1.0940  0.4572 -0.6889
 1566SOL     OW16333   4.653   3.344  17.279  0.3026  0.7955 -0.0406
 1566SOL    HW116334   4.683   3.317  17.192  1.0659  1.1585  0.1136
 1566SOL    HW216335   4.584   3.282  17.303 -0.6254  1.9260  0.1945
 1567SOL     OW16336   3.902   1.224  13.269  0.0761 -0.5375 -0.2884
 1567SOL    HW116337   3.808   1.229  13.251  0.0518  0.1423  0.0364
 1567SOL    HW216338   3.931   1.270  13.191 -1.4781 -0.8621 -1.0585
 1568SOL     OW16339   2.558   1.144   7.676 -0.5496 -0.1751  0.0901
 1568SOL    HW116340   2.547   1.191   7.594 -1.4393 -0.5677 -0.0092
 1568SOL    HW216341   2.560   1.055   7.640  0.5370 -0.3439  0.5557
 1569SOL     OW16342   3.253   4.294  16.604  0.5454 -0.4161  0.6766
 1569SOL    HW116343   3.314   4.224  16.627  1.8910  0.3896 -0.3648
 1569SOL    HW216344   3.173   4.271  16.650 -0.6498  1.4002 -0.4685
 1570SOL     OW16345   4.261   1.951  15.968  0.1586 -0.1042 -0.0969
 1570SOL    HW116346   4.259   1.863  15.932 -3.2213  0.5777 -1.6459
 1570SOL    HW216347   4.272   1.935  16.061 -0.9727  1.0169  0.2419
 1571SOL     OW16348   2.967   4.605  15.298  0.1214 -0.4034  0.0867
 1571SOL    HW116349   2.949   4.693  15.332  0.9486 -0.7006  1.2743
 1571SOL    HW216350   3.039   4.567  15.348  0.4267 -0.3987 -0.3511
 1572SOL     OW16351   1.582   4.013   4.300 -0.3989  0.2441 -0.1149
 1572SOL    HW116352   1.620   4.046   4.382 -0.2389  1.2669 -0.5951
 1572SOL    HW216353   1.585   4.095   4.251  2.9533 -0.8031 -1.7105
 1573SOL     OW16354   0.611   0.676   1.664 -0.1060 -0.5960 -0.6887
 1573SOL    HW116355   0.584   0.739   1.597 -0.6266  0.3334  0.3882
 1573SOL    HW216356   0.551   0.699   1.735  1.9977  0.3423  0.8046
 1574SOL     OW16357   3.583   0.444   2.259  0.2633  0.0709 -0.1456
 1574SOL    HW116358   3.600   0.419   2.169  0.4075 -1.9844  0.4567
 1574SOL    HW216359   3.489   0.425   2.265  0.5724 -0.9092  1.6064
 1575SOL     OW16360   2.514   0.116  10.044  0.4184 -0.5733  0.1764
 1575SOL    HW116361   2.511   0.151   9.955  0.8786  1.8853  1.1275
 1575SOL    HW216362   2.565   0.180  10.093  1.1500 -0.2425 -1.0235
 1576SOL     OW16363   0.817   1.814   7.554 -0.2196 -0.2294 -0.3506
 1576SOL    HW116364   0.886   1.790   7.615 -0.3942  1.1004  0.3600
 1576SOL    HW216365   0.784   1.728   7.528 -2.6906  0.8449 -0.8222
 1577SOL     OW16366   0.084   4.646   9.259  0.1621  0.7736 -0.1250
 1577SOL    HW116367   0.038   4.714   9.210  1.1965  0.1327 -1.9748
 1577SOL    HW216368   0.054   4.674   9.345  0.8379 -0.1579  0.4129
 1578SOL     OW16369   3.623   1.725  17.024  0.1999 -0.3089 -0.1759
 1578SOL    HW116370   3.535   1.718  17.061  0.1384 -0.2057 -0.3020
 1578SOL    HW216371   3.678   1.752  17.098  0.2590  0.9580 -0.6712
 1579SOL     OW16372   3.367   0.315   9.767  0.3844  0.5937 -0.3716
 1579SOL    HW116373   3.361   0.246   9.833  1.6332  1.2520  0.4298
 1579SOL    HW216374   3.402   0.387   9.818 -1.5765 -0.2627  2.1945
 1580SOL     OW16375   0.168   3.677  10.705 -0.0147 -0.1794  0.0101
 1580SOL    HW116376   0.201   3.588  10.691 -3.8211 -1.9497  2.6068
 1580SOL    HW216377   0.189   3.721  10.622 -0.7018 -0.9744 -0.5826
 1581SOL     OW16378   1.361   2.487   2.628  0.1840 -0.1437  0.3590
 1581SOL    HW116379   1.447   2.519   2.598 -0.2271  0.6955  0.0672
 1581SOL    HW216380   1.362   2.552   2.698 -1.3531  0.2154  0.0380
 1582SOL     OW16381   4.269   4.003   6.033 -0.0645 -0.0205  0.9830
 1582SOL    HW116382   4.255   3.912   6.007  0.5212  0.8239 -2.2621
 1582SOL    HW216383   4.184   4.046   6.020 -0.5253 -1.5271 -0.9404
 1583SOL     OW16384   0.952   4.728  12.290 -0.1031 -0.0620 -0.4019
 1583SOL    HW116385   0.887   0.061  12.269 -1.0017 -0.7387  0.2207
 1583SOL    HW216386   1.026   0.052  12.303  0.6470 -1.3283  1.0417
 1584SOL     OW16387   1.653   2.575   8.419  0.0745  0.1088  0.2284
 1584SOL    HW116388   1.570   2.547   8.459  0.5568 -1.7154 -0.0253
 1584SOL    HW216389   1.712   2.554   8.491 -0.1623 -0.1183  0.3542
 1585SOL     OW16390   2.448   4.258   5.300 -0.0256 -0.0517 -0.7913
 1585SOL    HW116391   2.393   4.335   5.286  1.4519  0.9006 -1.3728
 1585SOL    HW216392   2.441   4.198   5.225  0.4842 -0.7747 -0.2630
 1586SOL     OW16393   4.130   0.353  15.334  0.3213 -0.4195 -0.2503
 1586SOL    HW116394   4.158   0.280  15.279 -0.1283 -0.4758 -0.4102
 1586SOL    HW216395   4.211   0.398  15.357  0.3103 -0.4445 -0.1627
 1587SOL     OW16396   3.974   2.016   6.093 -0.9274  0.2283 -0.1958
 1587SOL    HW116397   3.879   2.010   6.109 -1.1964  0.9081 -1.5388
 1587SOL    HW216398   3.995   2.103   6.127 -2.3530 -0.2948  2.0596
 1588SOL     OW16399   1.670   1.135   3.723 -0.5460 -0.6880  0.5516
 1588SOL    HW116400   1.574   1.127   3.727 -0.7419  2.0014  1.6245
 1588SOL    HW216401   1.680   1.198   3.794  3.4782  0.4038 -0.9926
 1589SOL     OW16402   0.663   1.297   1.429 -0.3668  0.1496 -0.3662
 1589SOL    HW116403   0.701   1.209   1.422 -1.2625 -0.1646 -1.2250
 1589SOL    HW216404   0.733   1.327   1.372 -1.2408  1.0923 -0.9421
 1590SOL     OW16405   2.046   3.355  15.304  0.2339  0.8713  0.5329
 1590SOL    HW116406   2.140   3.362  15.287  0.4327  1.7239  1.9274
 1590SOL    HW216407   2.030   3.275  15.253 -0.9260 -0.7128  3.3690
 1591SOL     OW16408   1.320   0.267   1.637  0.2501 -0.5697 -0.1737
 1591SOL    HW116409   1.335   0.361   1.643 -0.5855 -0.5174  1.1086
 1591SOL    HW216410   1.254   0.259   1.706  0.5275  0.8165  0.2394
 1592SOL     OW16411   0.293   3.968   9.263  0.1379 -0.2598 -0.0670
 1592SOL    HW116412   0.208   3.938   9.231 -0.1967 -1.0466  1.5676
 1592SOL    HW216413   0.289   3.937   9.353  1.4130 -0.6297 -0.1345
 1593SOL     OW16414   1.430   0.315   8.724  0.5199 -0.6860  0.1236
 1593SOL    HW116415   1.393   0.310   8.812 -0.9869  3.0320 -0.3015
 1593SOL    HW216416   1.470   0.228   8.722  1.8484 -0.0718 -0.0951
 1594SOL     OW16417   3.143   4.498   3.816 -0.0430 -0.6140  0.0029
 1594SOL    HW116418   3.106   4.585   3.803  0.8417  0.0056  1.6058
 1594SOL    HW216419   3.157   4.491   3.910 -1.5682  1.9285  0.4185
 1595SOL     OW16420   0.655   1.614   5.927 -0.6364  0.1153  0.4047
 1595SOL    HW116421   0.716   1.656   5.867  0.1447 -1.3461  0.1661
 1595SOL    HW216422   0.710   1.541   5.955 -1.0814  0.7767  3.0679
 1596SOL     OW16423   0.059   2.468   8.676  0.2950 -0.0791 -0.9915
 1596SOL    HW116424   4.704   2.455   8.709  0.9110 -2.0386 -0.0928
 1596SOL    HW216425   0.051   2.408   8.602  2.3458 -1.5136 -0.0505
 1597SOL     OW16426   0.507   1.424   7.227 -0.1087  0.8242  0.0978
 1597SOL    HW116427   0.535   1.512   7.253  0.0053  0.4134  1.4044
 1597SOL    HW216428   0.545   1.422   7.140 -2.3217  0.1927 -0.8490
 1598SOL     OW16429   2.689   4.223   8.240  0.2405  0.6133  0.3570
 1598SOL    HW116430   2.615   4.267   8.282  0.5951  1.0207  0.5553
 1598SOL    HW216431   2.743   4.296   8.210 -0.8371  1.6886  1.0254
 1599SOL     OW16432   3.627   2.424   0.401 -0.2639 -0.9373 -0.2011
 1599SOL    HW116433   3.538   2.390   0.414 -1.0400  1.1092 -0.2867
 1599SOL    HW216434   3.650   2.469   0.482 -2.5180 -0.6770  0.2799
 1600SOL     OW16435   2.093   4.445   7.411  0.2708  0.1584  0.3701
 1600SOL    HW116436   2.103   4.540   7.415  0.2048  0.1357  0.9823
 1600SOL    HW216437   2.006   4.425   7.445  0.4284 -2.2660 -0.6380
 1601SOL     OW16438   2.777   3.546   3.443 -0.0809  0.4871  0.8006
 1601SOL    HW116439   2.768   3.466   3.391  1.0422  1.3634 -0.7255
 1601SOL    HW216440   2.753   3.613   3.380  0.0458  0.3147  0.5678
 1602SOL     OW16441   3.019   3.279   3.867  0.5117  0.2791  0.4665
 1602SOL    HW116442   3.055   3.301   3.781  1.2817  1.7965  1.1665
 1602SOL    HW216443   3.034   3.185   3.862 -0.1142  0.2235 -0.3709
 1603SOL     OW16444   4.707   0.191   5.976  0.0311  0.1635  0.3678
 1603SOL    HW116445   0.019   0.272   5.998  2.2804 -1.0522  0.0776
 1603SOL    HW216446   4.619   0.203   6.012  0.2857  2.5763  0.2058
 1604SOL     OW16447   3.904   2.708  15.247  0.5374 -0.5100  0.3633
 1604SOL    HW116448   3.935   2.711  15.157  1.9296  1.1825  0.8921
 1604SOL    HW216449   3.871   2.620  15.264 -1.6996  0.1406 -0.5937
 1605SOL     OW16450   0.051   1.260  12.651 -0.7683 -0.0988  0.2761
 1605SOL    HW116451   0.138   1.289  12.623 -1.2969  1.7069  0.5075
 1605SOL    HW216452   0.074   1.222  12.736  0.5565  0.8844  0.3621
 1606SOL     OW16453   3.335   1.840  17.108 -0.4569 -0.0360 -0.6141
 1606SOL    HW116454   3.337   1.839  17.203 -0.0543  1.3237 -0.6014
 1606SOL    HW216455   3.348   1.933  17.087  2.4880 -0.3408 -0.1504
 1607SOL     OW16456   3.835   3.622   9.623  0.0598  0.4133  0.6548
 1607SOL    HW116457   3.882   3.539   9.611  1.8445  1.4545  0.4581
 1607SOL    HW216458   3.766   3.618   9.557  2.0750  0.4656 -1.4459
 1608SOL     OW16459   3.487   2.705   8.158  0.5478 -0.3214 -0.0609
 1608SOL    HW116460   3.531   2.787   8.179  1.0350 -0.2211 -1.5082
 1608SOL    HW216461   3.440   2.688   8.240  0.0801  1.3111  0.0003
 1609SOL     OW16462   0.393   0.387   5.006  0.9322  0.4629 -0.3543
 1609SOL    HW116463   0.386   0.316   5.070 -0.6951  0.2255 -0.8012
 1609SOL    HW216464   0.311   0.432   5.027 -0.4108 -1.9739 -0.4631
 1610SOL     OW16465   2.263   3.575   0.476  0.3171 -0.3379 -0.2189
 1610SOL    HW116466   2.235   3.608   0.561  0.0637 -0.7317 -0.1499
 1610SOL    HW216467   2.188   3.526   0.442 -1.4855  2.6582 -0.5373
 1611SOL     OW16468   1.897   0.341   8.607 -0.0357 -0.4219  0.2540
 1611SOL    HW116469   1.884   0.383   8.692  3.2471  1.5454 -0.2115
 1611SOL    HW216470   1.810   0.343   8.567 -0.1134  0.8597  0.4834
 1612SOL     OW16471   0.844   0.771  14.051  0.0865 -0.0061  0.2889
 1612SOL    HW116472   0.806   0.762  14.138 -0.2496  0.9978  0.2556
 1612SOL    HW216473   0.930   0.808  14.070 -0.6219  1.2624  1.0480
 1613SOL     OW16474   3.406   4.589   5.488 -0.3755  0.0975  0.5670
 1613SOL    HW116475   3.319   4.629   5.486 -1.4264 -2.2940 -1.6775
 1613SOL    HW216476   3.456   4.661   5.528  0.4625  0.4618 -1.1338
 1614SOL     OW16477   0.440   2.755   8.844  0.5801 -0.2660  0.2747
 1614SOL    HW116478   0.532   2.729   8.850  0.7016  0.0944  0.0205
 1614SOL    HW216479   0.388   2.686   8.801 -0.8848  0.0726  1.4933
 1615SOL     OW16480   1.299   1.404   4.936  0.1693 -0.5451  0.1137
 1615SOL    HW116481   1.206   1.423   4.952  1.1266  4.4779 -0.2266
 1615SOL    HW216482   1.314   1.439   4.849  2.6192  0.8892  1.1229
 1616SOL     OW16483   0.207   2.012  15.524  0.0560 -0.1819 -0.0160
 1616SOL    HW116484   0.203   2.060  15.442 -0.2521  1.4271  0.9337
 1616SOL    HW216485   0.130   2.052  15.564 -0.6116 -1.7279  0.2408
 1617SOL     OW16486   0.866   1.430   3.618  0.1121 -0.5314  0.8368
 1617SOL    HW116487   0.911   1.399   3.696 -0.0088  0.0879  1.1508
 1617SOL    HW216488   0.930   1.468   3.558  0.6126 -0.6633  1.2915
 1618SOL     OW16489   1.749   2.154   1.533 -0.2655  1.0863  0.1306
 1618SOL    HW116490   1.841   2.126   1.538 -0.5987 -0.2378 -1.4108
 1618SOL    HW216491   1.705   2.069   1.539 -0.7492  1.3418  0.1927
 1619SOL     OW16492   1.290   4.326   4.084  0.3173  0.0059  0.1964
 1619SOL    HW116493   1.247   4.320   3.998 -0.2246  0.0436  0.4625
 1619SOL    HW216494   1.250   4.410   4.109 -2.4032 -1.6671  1.5015
 1620SOL     OW16495   3.451   1.325   7.797 -0.2110 -0.4105  0.2865
 1620SOL    HW116496   3.404   1.295   7.719  3.0642  3.3535 -3.1761
 1620SOL    HW216497   3.393   1.390   7.838 -1.6506 -1.2035 -0.4901
 1621SOL     OW16498   0.903   1.028   7.925 -0.0860  0.3909 -0.5561
 1621SOL    HW116499   0.878   1.098   7.865 -2.4890 -1.8254 -2.1234
 1621SOL    HW216500   0.814   1.012   7.956 -0.7761  2.3813 -1.5497
 1622SOL     OW16501   2.255   1.337   6.390  0.3704 -0.1305 -0.1652
 1622SOL    HW116502   2.283   1.319   6.480  0.8864 -0.2296 -0.3478
 1622SOL    HW216503   2.197   1.411   6.408  2.3691  1.2213  0.7585
 1623SOL     OW16504   1.250   2.409   9.229 -0.2302 -0.3989 -0.3619
 1623SOL    HW116505   1.277   2.494   9.194 -1.8837  0.3265  0.1161
 1623SOL    HW216506   1.282   2.343   9.167 -0.5337 -1.5603  0.7020
 1624SOL     OW16507   2.775   0.413   7.730  0.5749  0.2647  1.0845
 1624SOL    HW116508   2.829   0.383   7.657  1.6882 -0.4589  2.2057
 1624SOL    HW216509   2.817   0.496   7.752  0.9377  1.0249 -2.4767
 1625SOL     OW16510   3.577   2.990   8.096 -0.3388  0.0669  0.5866
 1625SOL    HW116511   3.661   3.005   8.138  1.0136 -0.2595 -1.9695
 1625SOL    HW216512   3.510   3.019   8.157  1.1312  0.6975  1.8794
 1626SOL     OW16513   3.877   2.536   3.884 -0.3723  0.0638 -0.1650
 1626SOL    HW116514   3.836   2.623   3.887  3.3492  1.8271  0.2423
 1626SOL    HW216515   3.899   2.527   3.977 -3.5895 -2.1853  0.3391
 1627SOL     OW16516   2.712   2.294   2.593  0.1738  0.7404  0.0179
 1627SOL    HW116517   2.699   2.253   2.508  1.5766 -0.0919  0.2052
 1627SOL    HW216518   2.721   2.217   2.648 -1.1131  1.1274  0.7598
 1628SOL     OW16519   0.696   3.238  13.969  0.1380  0.2213 -0.5673
 1628SOL    HW116520   0.624   3.207  13.913  0.2315 -0.4323 -0.3332
 1628SOL    HW216521   0.725   3.313  13.918 -2.6827  1.6696 -0.0695
 1629SOL     OW16522   1.045   3.530   4.095 -0.0320 -0.1057  0.6684
 1629SOL    HW116523   1.036   3.523   4.000  0.7167 -2.5351  0.7564
 1629SOL    HW216524   1.086   3.616   4.101 -1.3316  0.4382  1.5394
 1630SOL     OW16525   3.197   4.320   6.843 -0.6206  0.1229  0.4289
 1630SOL    HW116526   3.262   4.255   6.814  0.9839  2.1471 -0.5765
 1630SOL    HW216527   3.248   4.355   6.916  2.6577  0.4638 -1.9745
 1631SOL     OW16528   3.438   4.613   3.222 -0.0383  0.3244  0.4009
 1631SOL    HW116529   3.353   4.593   3.182 -0.3729  2.7970 -0.1359
 1631SOL    HW216530   3.484   4.539   3.182 -2.2805 -1.0125  0.2888
 1632SOL     OW16531   0.155   2.572   8.254 -0.2008  0.3937 -0.4218
 1632SOL    HW116532   0.183   2.489   8.292 -1.4548 -0.1379 -0.6555
 1632SOL    HW216533   0.110   2.547   8.174 -0.5682 -0.5581  0.0890
 1633SOL     OW16534   0.874   0.127   2.698  0.2281 -0.1100  0.8248
 1633SOL    HW116535   0.915   0.202   2.742 -1.7161  1.8724 -0.6944
 1633SOL    HW216536   0.825   0.087   2.769  0.0311 -1.9241 -0.3268
 1634SOL     OW16537   0.295   4.027  15.769  0.0993 -0.0026  0.1841
 1634SOL    HW116538   0.254   4.037  15.856  0.2810 -0.3742  0.3130
 1634SOL    HW216539   0.268   4.103  15.718 -1.2241  0.6371  1.8073
 1635SOL     OW16540   3.228   1.118   9.195  0.6486  0.0182  0.0802
 1635SOL    HW116541   3.220   1.072   9.278  0.1071 -2.0830 -1.1322
 1635SOL    HW216542   3.151   1.174   9.204 -1.5091 -2.4677 -2.4004
 1636SOL     OW16543   1.781   2.446   5.058 -0.5570 -0.2327 -0.4757
 1636SOL    HW116544   1.725   2.498   5.116 -0.8184 -0.4836 -0.4992
 1636SOL    HW216545   1.800   2.504   4.984  0.8890  1.2706  1.0989
 1637SOL     OW16546   0.993   1.199  14.674 -0.1056 -0.1769 -0.1953
 1637SOL    HW116547   0.899   1.178  14.668 -0.2760  0.0663  1.5596
 1637SOL    HW216548   1.000   1.293  14.690  0.2534 -0.7328  2.9356
 1638SOL     OW16549   2.082   2.059  10.064  0.2261  0.0702 -0.0427
 1638SOL    HW116550   2.145   2.041  10.133 -1.6214 -1.8621  1.1280
 1638SOL    HW216551   2.050   2.146  10.089  0.2746 -0.3214  1.3743
 1639SOL     OW16552   0.770   2.733   1.750  0.2296 -0.4698 -0.3584
 1639SOL    HW116553   0.766   2.825   1.778  0.3305 -0.8882  1.0151
 1639SOL    HW216554   0.795   2.692   1.832 -0.0504  2.3359  1.1127
 1640SOL     OW16555   0.061   0.801   2.993 -0.3740 -0.1785  0.1132
 1640SOL    HW116556   0.090   0.847   3.072 -0.4363  0.2075 -0.0833
 1640SOL    HW216557   0.111   0.843   2.923 -0.1386  3.3499  2.3647
 1641SOL     OW16558   4.656   4.084   2.809  0.6179  0.2577 -0.2839
 1641SOL    HW116559   4.629   4.171   2.781  0.5876  0.6130  0.8777
 1641SOL    HW216560   0.001   4.079   2.756  1.4043  1.8564  0.7525
 1642SOL     OW16561   0.822   1.937  17.712 -0.2238  1.0621 -0.0909
 1642SOL    HW116562   0.901   1.909   0.023  0.0747  0.2833 -1.0482
 1642SOL    HW216563   0.761   1.872   0.010  1.4366  0.0608  1.0156
 1643SOL     OW16564   0.687   1.895  13.795  0.1641 -0.4577  0.1616
 1643SOL    HW116565   0.592   1.901  13.793  0.1521 -1.2599 -1.8414
 1643SOL    HW216566   0.708   1.980  13.834  0.0294  0.2970 -1.4141
 1644SOL     OW16567   2.023   4.336  15.715 -0.4896 -0.0314 -0.1788
 1644SOL    HW116568   2.011   4.378  15.630 -1.8854  0.5032  0.2792
 1644SOL    HW216569   2.107   4.293  15.700 -0.3840 -0.0339  0.4110
 1645SOL     OW16570   0.720   2.674  17.015  0.1539 -0.0461 -0.4356
 1645SOL    HW116571   0.663   2.731  16.964  2.0919  1.5706 -0.7784
 1645SOL    HW216572   0.776   2.660  16.939  1.9667 -0.3651  0.9386
 1646SOL     OW16573   0.959   3.642   3.832 -0.0651 -0.4428 -0.5328
 1646SOL    HW116574   1.051   3.659   3.810 -0.0897  1.9706  1.2150
 1646SOL    HW216575   0.929   3.727   3.862 -1.3219 -0.8900 -0.5357
 1647SOL     OW16576   2.875   3.187  12.768 -0.4683 -0.3726  0.0795
 1647SOL    HW116577   2.791   3.159  12.731 -0.2906 -0.3398 -0.3513
 1647SOL    HW216578   2.892   3.279  12.746  4.4338 -1.7308 -1.9407
 1648SOL     OW16579   3.276   4.259   4.203  0.2845 -0.4459 -0.2186
 1648SOL    HW116580   3.327   4.291   4.129  0.8407 -2.0421 -0.5420
 1648SOL    HW216581   3.189   4.293   4.179  0.5097  0.1404 -0.1906
 1649SOL     OW16582   0.335   0.197   1.399  0.2056  0.7206 -0.5613
 1649SOL    HW116583   0.258   0.188   1.455 -0.1326  1.1302 -0.9662
 1649SOL    HW216584   0.299   0.266   1.344  0.7800  1.2442 -0.2798
 1650SOL     OW16585   4.621   0.224   1.420 -0.2924  0.4191 -0.4313
 1650SOL    HW116586   4.534   0.245   1.453 -0.8897 -2.1052 -0.3587
 1650SOL    HW216587   4.623   0.132   1.448 -0.9830  0.3889 -0.4796
 1651SOL     OW16588   3.731   0.197   8.409  0.5073 -0.3977 -0.3746
 1651SOL    HW116589   3.705   0.170   8.497  0.5099 -1.2152 -0.6186
 1651SOL    HW216590   3.749   0.290   8.415 -2.5635  0.3566 -2.7174
 1652SOL     OW16591   3.151   3.532   2.907  0.6154 -0.7968 -0.4774
 1652SOL    HW116592   3.155   3.625   2.930 -0.5967 -0.3313 -2.1125
 1652SOL    HW216593   3.138   3.521   2.812 -1.5874 -0.3457 -0.2374
 1653SOL     OW16594   3.828   1.230   6.543 -0.4519 -0.1100  0.6163
 1653SOL    HW116595   3.760   1.296   6.561 -0.5647 -0.1757  0.4350
 1653SOL    HW216596   3.769   1.155   6.552  0.8142 -1.0774  0.8149
 1654SOL     OW16597   3.769   1.870   3.357 -0.4404  0.3187  0.1102
 1654SOL    HW116598   3.730   1.931   3.295  0.2407 -0.4580 -1.0907
 1654SOL    HW216599   3.714   1.887   3.434 -0.0914  0.4345  0.3314
 1655SOL     OW16600   3.441   1.218  15.168  0.4608  0.1479 -0.3332
 1655SOL    HW116601   3.452   1.129  15.134 -0.0966  0.1793 -0.5931
 1655SOL    HW216602   3.456   1.274  15.092  2.1013  0.3711  0.1547
 1656SOL     OW16603   1.775   3.851   5.099  0.4107 -0.0374  0.1714
 1656SOL    HW116604   1.848   3.839   5.160  1.1394  0.1184 -0.6762
 1656SOL    HW216605   1.822   3.824   5.020 -1.9094 -1.3871 -0.7628
 1657SOL     OW16606   1.055   2.770   4.844  0.1576 -0.4595  0.4486
 1657SOL    HW116607   1.045   2.743   4.753  0.7840 -0.0776  0.2633
 1657SOL    HW216608   1.149   2.754   4.857 -0.2566 -0.2787  3.6739
 1658SOL     OW16609   0.033   3.244   9.012 -0.3412 -0.3287 -0.3003
 1658SOL    HW116610   0.072   3.157   9.007 -0.0528 -0.1204 -1.7059
 1658SOL    HW216611   0.052   3.281   8.926  0.3827 -1.1002 -0.4759
 1659SOL     OW16612   4.007   4.293   1.450 -0.7119 -0.5069 -0.6268
 1659SOL    HW116613   4.013   4.373   1.398  1.6024 -0.4195 -0.2135
 1659SOL    HW216614   4.048   4.233   1.389 -0.0351  1.4624 -2.1123
 1660SOL     OW16615   1.990   3.606  15.355 -0.8947  0.8067  0.3060
 1660SOL    HW116616   2.060   3.651  15.307 -0.5736  0.9775  0.9409
 1660SOL    HW216617   2.010   3.513  15.345  0.6546  1.5341 -3.3859
 1661SOL     OW16618   3.643   3.500  13.744  0.1224 -0.2573  1.0260
 1661SOL    HW116619   3.556   3.510  13.705  0.6624  2.4271  0.4939
 1661SOL    HW216620   3.631   3.409  13.770 -2.8962 -0.2836 -0.4110
 1662SOL     OW16621   4.713   2.378  10.938  0.3938  0.8303  0.3621
 1662SOL    HW116622   4.625   2.366  10.975  0.6321  1.4335  1.1220
 1662SOL    HW216623   4.727   2.472  10.928  0.3027  0.6995 -1.0035
 1663SOL     OW16624   4.328   4.025   8.819  0.0667 -0.1487  0.4349
 1663SOL    HW116625   4.241   4.046   8.852  0.5988  0.5971  1.3791
 1663SOL    HW216626   4.371   4.106   8.791  0.9442 -0.1713  1.7604
 1664SOL     OW16627   3.813   0.294  10.976 -0.1404 -0.2172 -0.2110
 1664SOL    HW116628   3.771   0.254  11.052 -0.2603  2.8771  1.3395
 1664SOL    HW216629   3.890   0.334  11.018 -2.1499  0.5160  2.6991
 1665SOL     OW16630   0.228   2.135  17.493 -0.3204 -0.0587  0.0890
 1665SOL    HW116631   0.320   2.116  17.473 -0.9314 -1.4463 -1.3437
 1665SOL    HW216632   0.223   2.114  17.586 -0.4403  0.6262  0.2395
 1666SOL     OW16633   3.620   3.212   4.892 -0.1994 -0.2035 -0.0783
 1666SOL    HW116634   3.612   3.135   4.836  0.6117 -1.2942  1.3168
 1666SOL    HW216635   3.618   3.279   4.823 -1.1558 -1.1115 -0.9380
 1667SOL     OW16636   4.655   1.831   8.836 -0.5420 -0.2692 -0.1976
 1667SOL    HW116637   4.619   1.754   8.791 -0.2152 -0.2099 -0.5539
 1667SOL    HW216638   4.681   1.891   8.766  2.0762 -0.7101  0.3963
 1668SOL     OW16639   1.848   4.299  11.868  0.1646 -0.4426  0.4075
 1668SOL    HW116640   1.930   4.253  11.885  0.4352 -0.0296  0.2183
 1668SOL    HW216641   1.804   4.237  11.810  1.0135 -0.1220 -0.5688
 1669SOL     OW16642   2.674   2.981   2.663 -0.3337  0.5649 -0.4659
 1669SOL    HW116643   2.663   2.946   2.575 -0.8128 -0.6980  0.0868
 1669SOL    HW216644   2.766   2.958   2.682 -0.2940  1.8426  0.8750
 1670SOL     OW16645   0.813   1.570   8.132 -0.0638 -0.0349 -0.7205
 1670SOL    HW116646   0.898   1.525   8.138  0.4870  1.1051  0.0174
 1670SOL    HW216647   0.824   1.641   8.196  2.3301 -1.2606  0.2493
 1671SOL     OW16648   1.497   1.352   2.656 -0.8570 -0.4185  0.5035
 1671SOL    HW116649   1.571   1.295   2.678  0.5839  1.4171  0.4024
 1671SOL    HW216650   1.539   1.437   2.637 -0.8425 -0.3028  1.0227
 1672SOL     OW16651   2.260   0.212   2.750  0.2016 -0.2724 -0.0010
 1672SOL    HW116652   2.311   0.131   2.749 -0.0154 -0.4167  1.0795
 1672SOL    HW216653   2.297   0.264   2.821  0.4801 -0.1264 -0.2519
 1673SOL     OW16654   1.438   2.567   8.588  0.3549  0.4222 -0.1564
 1673SOL    HW116655   1.391   2.650   8.583  0.2620  0.2907 -1.3294
 1673SOL    HW216656   1.373   2.499   8.607 -1.7192  2.3854 -0.2079
 1674SOL     OW16657   0.197   0.073   9.710  0.2296 -0.0845  0.2188
 1674SOL    HW116658   0.271   0.019   9.738  0.0023  0.7696  2.5058
 1674SOL    HW216659   0.239   0.124   9.641  2.0624 -0.5517  0.9559
 1675SOL     OW16660   0.475   4.189   2.550 -0.3158  0.1716  0.0623
 1675SOL    HW116661   0.489   4.128   2.623 -1.8994  0.3909  0.5449
 1675SOL    HW216662   0.554   4.172   2.500  0.6490  1.4162  1.1805
 1676SOL     OW16663   1.428   0.597   3.147 -0.5422  0.1887  0.5565
 1676SOL    HW116664   1.389   0.658   3.209 -0.1879 -0.1731  1.1415
 1676SOL    HW216665   1.444   0.652   3.071 -2.5345 -0.8443 -0.6001
 1677SOL     OW16666   2.789   3.190   9.286 -0.6713 -0.6975  0.1348
 1677SOL    HW116667   2.852   3.123   9.311 -0.1759  0.7437  2.8372
 1677SOL    HW216668   2.732   3.135   9.233 -0.4979  1.9116 -2.7552
 1678SOL     OW16669   4.685   3.454   5.512 -0.1582 -0.3221 -0.6923
 1678SOL    HW116670   4.635   3.520   5.559 -1.1024 -0.9772 -0.7793
 1678SOL    HW216671   4.706   3.404   5.591 -0.4238  1.4149  0.4739
 1679SOL     OW16672   3.018   3.022   7.209  0.1109  0.3880  0.0023
 1679SOL    HW116673   3.085   2.955   7.198  0.1628  0.3274  0.6560
 1679SOL    HW216674   2.967   2.984   7.281  1.9491  0.0245  1.1091
 1680SOL     OW16675   1.686   3.431  16.483 -0.4974 -0.0743  0.6789
 1680SOL    HW116676   1.668   3.355  16.429  0.9598  0.0661  0.0036
 1680SOL    HW216677   1.750   3.478  16.430  2.4584 -0.9487  3.4727
 1681SOL     OW16678   3.412   0.224   9.150  0.7728  0.1328  0.1821
 1681SOL    HW116679   3.374   0.284   9.215  1.4841 -0.0805  0.8008
 1681SOL    HW216680   3.333   0.202   9.101  0.1382  0.1898  1.1749
 1682SOL     OW16681   1.250   0.363   5.559 -0.0737  0.6656 -0.6862
 1682SOL    HW116682   1.310   0.437   5.567 -0.7306  0.8437  2.3142
 1682SOL    HW216683   1.319   0.300   5.536  0.4483  0.5847  1.1013
 1683SOL     OW16684   4.172   0.931  15.105 -0.5488  0.2242  0.4453
 1683SOL    HW116685   4.103   0.864  15.107  0.5999 -0.9134  2.1563
 1683SOL    HW216686   4.128   1.006  15.065 -0.3350  0.8554  1.3916
 1684SOL     OW16687   1.807   2.887   7.188 -0.0767  0.1426  0.2430
 1684SOL    HW116688   1.893   2.880   7.230  0.3359  1.8692 -0.3104
 1684SOL    HW216689   1.740   2.883   7.256  0.2658 -0.2520  0.5629
 1685SOL     OW16690   4.589   3.637   9.675  0.0035  0.5547  0.5001
 1685SOL    HW116691   4.504   3.669   9.705 -0.4403 -0.8349  0.7222
 1685SOL    HW216692   4.629   3.721   9.654 -0.8094  0.9792  0.6402
 1686SOL     OW16693   0.010   3.265   2.949  0.3031 -0.4480  0.0496
 1686SOL    HW116694   0.035   3.322   3.022 -2.2942 -0.1897  0.7343
 1686SOL    HW216695   0.027   3.181   2.990  1.7916  0.4823  1.3444
 1687SOL     OW16696   2.101   2.318   7.071  0.5554 -0.3286 -0.1937
 1687SOL    HW116697   2.147   2.396   7.038 -1.9831  1.5290  0.6701
 1687SOL    HW216698   2.170   2.273   7.119 -0.1629 -1.7894 -0.5334
 1688SOL     OW16699   3.066   1.686   1.152  0.8972 -0.5231  0.0982
 1688SOL    HW116700   3.089   1.596   1.177  1.2104 -0.1352  1.1898
 1688SOL    HW216701   3.036   1.717   1.237  2.0379  1.4789 -0.2480
 1689SOL     OW16702   2.980   2.185  13.130  0.2918 -0.0854 -1.0550
 1689SOL    HW116703   2.975   2.267  13.180  1.4934 -0.9754  0.5274
 1689SOL    HW216704   3.060   2.147  13.166 -0.0006 -1.8398 -2.3037
 1690SOL     OW16705   1.731   0.172   7.665 -0.0271 -0.3662  0.3714
 1690SOL    HW116706   1.650   0.224   7.663  0.9398  1.1294 -0.4703
 1690SOL    HW216707   1.747   0.160   7.759 -0.5227  0.7669  0.6075
 1691SOL     OW16708   3.504   3.065   7.349 -0.2909  0.0861  0.2743
 1691SOL    HW116709   3.497   3.062   7.254  0.4502 -3.3561  0.3421
 1691SOL    HW216710   3.586   3.021   7.370  0.1091  1.5304  1.8081
 1692SOL     OW16711   2.168   0.003   5.769 -0.0537 -0.3467  0.4610
 1692SOL    HW116712   2.245   4.681   5.769  0.8252  0.8874 -1.0090
 1692SOL    HW216713   2.127   4.705   5.689 -1.8837  0.5340  1.0349
 1693SOL     OW16714   2.600   1.127  13.823  0.0972  0.0539 -0.5005
 1693SOL    HW116715   2.620   1.056  13.762  0.3805 -0.5968  0.3419
 1693SOL    HW216716   2.615   1.074  13.902  1.6240  1.9793  0.4949
 1694SOL     OW16717   0.725   0.990   3.634  0.2245  0.1672 -0.7812
 1694SOL    HW116718   0.775   0.983   3.553  0.4055  1.8899 -0.8119
 1694SOL    HW216719   0.640   0.951   3.613 -0.6879  0.6248  2.0990
 1695SOL     OW16720   0.266   3.699   5.016 -0.0217 -0.1448  0.6281
 1695SOL    HW116721   0.291   3.785   4.981  2.5433 -0.6324  1.2828
 1695SOL    HW216722   0.203   3.723   5.084 -1.6527 -2.5451 -0.0192
 1696SOL     OW16723   3.304   2.189  14.746 -0.7791  0.0147  0.2884
 1696SOL    HW116724   3.215   2.222  14.759  0.3748  3.8067 -1.1829
 1696SOL    HW216725   3.291   2.104  14.706  0.1646  0.0720 -0.1483
 1697SOL     OW16726   0.613   1.419   4.988 -0.2909  0.1544 -0.2240
 1697SOL    HW116727   0.584   1.361   5.058  0.1486 -0.8779 -0.9108
 1697SOL    HW216728   0.660   1.369   4.922  3.8238 -0.9020  3.5469
 1698SOL     OW16729   2.980   4.175  15.767  0.1678 -0.0504  0.0584
 1698SOL    HW116730   3.052   4.238  15.776 -0.0093  0.2698 -0.7095
 1698SOL    HW216731   3.016   4.120  15.697 -0.6481 -0.9397  0.3424
 1699SOL     OW16732   3.478   1.114   6.159 -0.0470 -0.1893 -0.4712
 1699SOL    HW116733   3.504   1.187   6.103 -0.8035  0.2132 -0.2955
 1699SOL    HW216734   3.457   1.162   6.239  0.6906 -1.0576  0.2363
 1700SOL     OW16735   4.512   0.849   5.658 -0.7795 -0.5415  0.1509
 1700SOL    HW116736   4.421   0.830   5.681 -2.2432  3.8750 -2.0945
 1700SOL    HW216737   4.566   0.803   5.722 -0.6807 -1.2566 -0.4439
 1701SOL     OW16738   1.676   4.695   1.537  0.4011 -0.1819 -0.0219
 1701SOL    HW116739   1.625   4.616   1.521  0.6214  0.0469 -1.8267
 1701SOL    HW216740   1.614   0.029   1.512 -0.3884 -0.5016  1.0770
 1702SOL     OW16741   2.561   0.074   6.241 -0.6522 -0.0900  0.6457
 1702SOL    HW116742   2.505   0.079   6.164 -2.7070 -0.0020  2.1463
 1702SOL    HW216743   2.507   0.005   6.280 -1.8570  0.4802 -0.0197
 1703SOL     OW16744   2.333   3.119   6.230 -0.3892 -0.5003 -0.4157
 1703SOL    HW116745   2.405   3.059   6.250 -0.2826 -0.7016 -1.3791
 1703SOL    HW216746   2.260   3.058   6.227  1.6782 -3.0223  0.2545
 1704SOL     OW16747   4.092   3.220   0.710  0.0260 -0.0181  0.2248
 1704SOL    HW116748   4.123   3.184   0.793  2.0737  1.0100 -0.0924
 1704SOL    HW216749   4.031   3.153   0.679 -0.2393  0.3487 -0.0461
 1705SOL     OW16750   4.717   1.784  15.594 -0.4575 -0.4192  0.2302
 1705SOL    HW116751   4.710   1.795  15.689  0.5077  1.1209  0.1308
 1705SOL    HW216752   0.046   1.853  15.574  1.5313 -1.6303  2.2547
 1706SOL     OW16753   2.278   2.744   5.473 -0.3873 -0.5657  0.3275
 1706SOL    HW116754   2.260   2.709   5.560 -0.7610 -0.1657  0.4092
 1706SOL    HW216755   2.354   2.691   5.449 -0.0440 -0.6328  1.5645
 1707SOL     OW16756   4.296   4.232   3.087 -0.0148  0.1442 -0.0946
 1707SOL    HW116757   4.378   4.207   3.132 -1.6818 -2.3584  1.5776
 1707SOL    HW216758   4.334   4.261   3.004 -1.3888 -0.8225 -1.0591
 1708SOL     OW16759   1.682   3.003  10.757  0.0030 -0.1290 -0.2521
 1708SOL    HW116760   1.718   2.968  10.838  0.8240  1.3431  0.0215
 1708SOL    HW216761   1.740   3.078  10.744 -0.0273 -0.1103 -0.2814
 1709SOL     OW16762   0.492   0.851   1.479 -0.8119 -0.1019  0.5010
 1709SOL    HW116763   0.431   0.923   1.470  0.7603  1.1705 -0.0109
 1709SOL    HW216764   0.574   0.889   1.447 -0.1612 -1.6111  0.3570
 1710SOL     OW16765   4.443   0.702   4.943  0.5898  0.3979  0.2497
 1710SOL    HW116766   4.503   0.654   4.886  1.2896 -0.2496  1.5377
 1710SOL    HW216767   4.516   0.741   4.991  2.7093 -1.6304 -1.2857
 1711SOL     OW16768   1.897   3.179  12.149  0.7412  0.1100 -0.3930
 1711SOL    HW116769   1.839   3.237  12.197  1.5512  0.7681 -0.2032
 1711SOL    HW216770   1.980   3.212  12.182  0.5725  0.4601 -0.3243
 1712SOL     OW16771   3.356   3.254  13.212 -0.8848  0.0071  0.3084
 1712SOL    HW116772   3.413   3.177  13.215  1.0844  1.4397 -0.0096
 1712SOL    HW216773   3.274   3.214  13.183 -0.2769 -0.7313 -0.4257
 1713SOL     OW16774   3.326   1.085   3.052  0.0586  0.0752  0.6968
 1713SOL    HW116775   3.334   0.993   3.027 -0.8833  0.1756  0.0389
 1713SOL    HW216776   3.346   1.100   3.144  0.0470 -0.9225  0.8641
 1714SOL     OW16777   0.052   4.587   1.256  0.3401  0.0786  0.1071
 1714SOL    HW116778   4.716   4.596   1.192 -0.9156  0.2364  1.5094
 1714SOL    HW216779   0.024   4.502   1.289  3.3528 -0.5175  1.1013
 1715SOL     OW16780   0.600   3.797   4.093 -0.6138 -0.6322 -0.0364
 1715SOL    HW116781   0.654   3.834   4.163 -1.5335 -2.9947  1.9336
 1715SOL    HW216782   0.520   3.847   4.110 -0.4205 -0.3989  0.1826
 1716SOL     OW16783   2.026   2.961   1.904 -0.5335 -0.0325  0.3727
 1716SOL    HW116784   1.947   3.010   1.881 -1.3602 -1.0787  0.9836
 1716SOL    HW216785   2.074   3.030   1.948  3.0658 -1.2987 -1.5582
 1717SOL     OW16786   0.956   1.580  12.952  0.7268 -0.1561 -0.0260
 1717SOL    HW116787   1.009   1.572  12.873  0.6489 -0.0309 -0.0889
 1717SOL    HW216788   1.017   1.583  13.026 -2.6189  2.7495  2.5748
 1718SOL     OW16789   3.644   2.514   9.116 -0.0433  0.3918 -0.7973
 1718SOL    HW116790   3.686   2.515   9.030  0.2873 -0.9460 -0.6590
 1718SOL    HW216791   3.659   2.420   9.127 -1.2457  0.4622  1.3476
 1719SOL     OW16792   3.908   4.718   4.897 -0.1881 -0.3899 -0.2996
 1719SOL    HW116793   3.835   4.729   4.836  1.6946  3.0557 -1.8815
 1719SOL    HW216794   3.959   0.064   4.892 -1.0713 -0.1165 -5.0138
 1720SOL     OW16795   0.213   0.952   2.769 -0.2999  0.4640 -0.3872
 1720SOL    HW116796   0.273   1.019   2.800 -1.3906  0.3474  1.9206
 1720SOL    HW216797   0.189   0.991   2.684  1.3876 -1.3169 -1.6950
 1721SOL     OW16798   0.608   3.471   9.675  0.7792  0.3515 -0.3897
 1721SOL    HW116799   0.554   3.470   9.753 -1.7967  1.8751 -2.1779
 1721SOL    HW216800   0.647   3.558   9.671  1.4779  0.0785  0.3737
 1722SOL     OW16801   2.760   4.209   2.027 -0.2139  0.1891  0.1020
 1722SOL    HW116802   2.759   4.145   2.098  0.4116  2.0707  1.7748
 1722SOL    HW216803   2.742   4.154   1.950  0.3166  2.1648 -1.4279
 1723SOL     OW16804   4.007   2.341   4.477  0.1177  0.2072 -0.2791
 1723SOL    HW116805   4.046   2.290   4.406  0.4239  0.5780 -0.3752
 1723SOL    HW216806   4.050   2.299   4.552 -2.6386 -1.9753  0.0754
 1724SOL     OW16807   0.508   1.023   7.224 -0.0474 -0.1006  0.1437
 1724SOL    HW116808   0.495   0.939   7.269 -0.0339 -0.3235 -0.2762
 1724SOL    HW216809   0.485   0.993   7.136 -0.8820  0.6537  0.1048
 1725SOL     OW16810   3.010   1.613   9.897  0.3620 -0.3358 -1.0742
 1725SOL    HW116811   3.084   1.566   9.858  0.2324 -1.2038 -0.2845
 1725SOL    HW216812   3.038   1.625   9.988 -1.8989 -0.5538 -0.3414
 1726SOL     OW16813   2.664   4.412   3.328 -0.4402  0.0167  0.1891
 1726SOL    HW116814   2.571   4.397   3.345 -0.8256  1.7465 -0.4047
 1726SOL    HW216815   2.676   4.364   3.246  1.8867  0.8653  0.0388
 1727SOL     OW16816   4.606   3.797   9.989  0.3510  0.1221 -0.7421
 1727SOL    HW116817   4.700   3.778   9.989 -0.0576 -1.9376 -0.8771
 1727SOL    HW216818   4.612   3.892   9.976  1.6442  0.1541  0.1292
 1728SOL     OW16819   3.947   4.019  11.556  0.1007  0.5268  0.3768
 1728SOL    HW116820   3.961   4.012  11.461 -0.9934  2.1919  0.0868
 1728SOL    HW216821   3.865   3.970  11.563  0.7111 -0.6611 -0.8514
 1729SOL     OW16822   3.566   4.451   8.521 -0.8703  0.0006  0.3935
 1729SOL    HW116823   3.572   4.371   8.572  3.1814  0.7936  1.1814
 1729SOL    HW216824   3.623   4.502   8.578 -1.9026 -0.0794  1.4818
 1730SOL     OW16825   0.015   0.791  11.167  0.8570 -0.1153  0.1988
 1730SOL    HW116826   0.030   0.795  11.072 -0.1314 -1.0785  0.0050
 1730SOL    HW216827   4.683   0.857  11.185 -1.2285 -2.1464 -0.0729
 1731SOL     OW16828   4.606   1.528   4.303  0.2291  0.0322  0.0431
 1731SOL    HW116829   4.550   1.544   4.227 -1.2260 -1.4830  0.7935
 1731SOL    HW216830   4.689   1.549   4.259 -1.5158 -0.0071 -3.2882
 1732SOL     OW16831   0.346   3.163   2.872  0.1201 -0.1042  0.2836
 1732SOL    HW116832   0.294   3.235   2.836 -1.1401 -1.5082 -0.6854
 1732SOL    HW216833   0.277   3.097   2.873  1.4643 -1.5554 -3.7824
 1733SOL     OW16834   1.932   2.144   0.740  0.5204 -0.2834  0.6020
 1733SOL    HW116835   1.908   2.205   0.810  0.4036 -0.3248  0.5983
 1733SOL    HW216836   2.023   2.125   0.762  0.7911 -0.2386 -0.4830
 1734SOL     OW16837   1.191   2.001   3.570  0.1504  0.3409  0.6949
 1734SOL    HW116838   1.180   1.973   3.661  2.3147 -2.7486  0.0054
 1734SOL    HW216839   1.101   2.030   3.553  0.5684  0.8771 -0.5904
 1735SOL     OW16840   4.405   3.016   7.675  0.0462 -0.4804 -0.7590
 1735SOL    HW116841   4.349   3.088   7.645  0.5459 -0.3788 -1.4698
 1735SOL    HW216842   4.340   2.958   7.636 -0.0837 -0.1850 -0.9843
 1736SOL     OW16843   3.429   2.472   3.777  0.5716 -0.3189 -0.3392
 1736SOL    HW116844   3.447   2.462   3.870 -1.1292 -0.4355 -0.0259
 1736SOL    HW216845   3.513   2.443   3.741  1.9074 -0.5666  3.0463
 1737SOL     OW16846   1.012   0.361   1.655  0.1585 -0.4087  0.5315
 1737SOL    HW116847   0.931   0.356   1.706  0.0626 -0.4437  0.3765
 1737SOL    HW216848   1.068   0.359   1.732 -0.5744  0.7579  1.0897
 1738SOL     OW16849   0.886   0.719   9.520  0.4219  0.3997 -0.1516
 1738SOL    HW116850   0.832   0.796   9.501 -0.3180 -0.3799 -1.2537
 1738SOL    HW216851   0.863   0.664   9.445 -0.2229 -0.4666  0.6773
 1739SOL     OW16852   4.424   0.028   5.315 -0.6494 -0.1041 -0.2234
 1739SOL    HW116853   4.418   4.693   5.249  0.6852 -2.6965  2.3910
 1739SOL    HW216854   4.388   0.100   5.264 -0.0702  1.1992  1.2194
 1740SOL     OW16855   3.355   1.407  12.383 -0.0884  0.2985 -0.2836
 1740SOL    HW116856   3.359   1.331  12.441  2.4692  2.7593  2.7827
 1740SOL    HW216857   3.415   1.472  12.418  2.7854 -2.0093 -0.9239
 1741SOL     OW16858   2.966   3.094  13.898 -0.0295 -0.0762 -0.1689
 1741SOL    HW116859   2.935   3.060  13.814  3.4567 -2.3501 -0.5600
 1741SOL    HW216860   2.903   3.059  13.962 -1.4225  1.9274 -0.4414
 1742SOL     OW16861   1.567   0.832  11.347  0.0553 -0.7194  0.1432
 1742SOL    HW116862   1.526   0.746  11.335  2.5756 -1.6819 -1.7054
 1742SOL    HW216863   1.549   0.881  11.267  1.8961  0.4659  0.4655
 1743SOL     OW16864   3.827   3.145  16.231 -0.6123  0.7038  0.4049
 1743SOL    HW116865   3.745   3.100  16.248 -0.1219  0.1005  1.1770
 1743SOL    HW216866   3.803   3.237  16.245  1.2806  1.1992  0.4047
 1744SOL     OW16867   2.526   3.175   2.795 -0.2193 -0.0857  0.0363
 1744SOL    HW116868   2.595   3.126   2.750  0.4145  0.8583 -0.0142
 1744SOL    HW216869   2.575   3.175   2.877  0.4441 -2.5720 -0.3520
 1745SOL     OW16870   2.723   3.719  17.512 -0.3593 -0.5632 -0.4260
 1745SOL    HW116871   2.811   3.689  17.491 -0.9550  0.1699 -3.9231
 1745SOL    HW216872   2.682   3.646  17.467 -0.9543  1.2335 -2.8017
 1746SOL     OW16873   3.493   4.441   6.466  0.3740 -0.1272 -0.0709
 1746SOL    HW116874   3.429   4.505   6.496 -0.1554  0.3127 -2.1766
 1746SOL    HW216875   3.537   4.425   6.550 -2.9617  0.6619  1.7944
 1747SOL     OW16876   1.047   3.106  12.548  0.1065  0.0458  0.5387
 1747SOL    HW116877   1.076   3.015  12.556  0.0569 -0.3194 -3.3114
 1747SOL    HW216878   1.122   3.149  12.506 -0.2967 -0.7976 -1.0847
 1748SOL     OW16879   4.269   3.605  13.648 -0.3247  0.0533  0.5303
 1748SOL    HW116880   4.277   3.701  13.652 -1.8549  0.2724 -1.7555
 1748SOL    HW216881   4.355   3.581  13.613 -0.9226 -1.4749  0.1273
 1749SOL     OW16882   3.963   2.305  15.195 -0.5704  0.2040  0.1274
 1749SOL    HW116883   3.882   2.357  15.197  0.2541  1.4637  0.3495
 1749SOL    HW216884   3.989   2.312  15.103 -1.2560 -2.1346 -0.2495
 1750SOL     OW16885   3.295   3.231   0.416  0.0733  0.4356 -0.2061
 1750SOL    HW116886   3.264   3.246   0.327  0.5404  0.3102 -0.3903
 1750SOL    HW216887   3.360   3.161   0.408 -0.7402 -0.4564  0.8743
 1751SOL     OW16888   0.204   2.649   4.296 -0.1013  0.4502  0.4757
 1751SOL    HW116889   0.225   2.594   4.220 -0.1758  1.1982 -0.0903
 1751SOL    HW216890   0.234   2.735   4.268 -0.8679  0.5953  0.1031
 1752SOL     OW16891   4.604   0.148  15.670 -0.8366  0.3178 -0.2301
 1752SOL    HW116892   4.568   0.075  15.621 -1.7332  0.1413  0.7080
 1752SOL    HW216893   4.676   0.178  15.614 -1.1602 -0.2079 -0.9312
 1753SOL     OW16894   4.022   4.430   7.551 -0.0572  0.3986  0.4696
 1753SOL    HW116895   3.950   4.408   7.611 -1.6575 -1.2812 -2.0615
 1753SOL    HW216896   3.987   4.446   7.463 -0.8906 -2.3349  0.2999
 1754SOL     OW16897   3.956   1.180   1.981 -0.5436  0.0627  0.2692
 1754SOL    HW116898   3.912   1.119   2.040 -0.9011  0.8617  0.8180
 1754SOL    HW216899   3.977   1.120   1.909  0.7880  0.4488  0.3368
 1755SOL     OW16900   1.528   0.619   2.774  0.0340 -0.4033  0.0855
 1755SOL    HW116901   1.496   0.599   2.687  2.4574  1.8884 -1.3427
 1755SOL    HW216902   1.578   0.698   2.751 -2.0969  1.0509  0.4440
 1756SOL     OW16903   1.362   2.774  16.678  0.1093  0.4868  0.0499
 1756SOL    HW116904   1.440   2.829  16.678  0.1933  0.3628 -2.6958
 1756SOL    HW216905   1.311   2.812  16.749 -1.3335  2.2338 -1.9549
 1757SOL     OW16906   0.847   0.584  12.718 -0.3747 -0.1135  0.0929
 1757SOL    HW116907   0.859   0.614  12.808  0.7683 -0.8861  0.2074
 1757SOL    HW216908   0.911   0.512  12.720  0.4867  0.6804  0.9389
 1758SOL     OW16909   2.792   2.934   6.930  0.0016 -0.3523 -0.2553
 1758SOL    HW116910   2.725   2.908   6.866  2.1002  1.9295 -3.3733
 1758SOL    HW216911   2.878   2.908   6.899  0.5897 -1.3994  2.2939
 1759SOL     OW16912   0.554   1.547   3.427  0.1564 -0.3264  0.5557
 1759SOL    HW116913   0.458   1.547   3.433 -0.0415  1.3269 -2.8629
 1759SOL    HW216914   0.579   1.618   3.369  0.8371 -1.5275 -0.6308
 1760SOL     OW16915   2.665   1.587   3.678 -0.1862 -0.2006  0.0230
 1760SOL    HW116916   2.582   1.594   3.724 -0.6805 -0.2700 -0.8536
 1760SOL    HW216917   2.705   1.673   3.692  3.8040 -2.0891  0.2010
 1761SOL     OW16918   1.707   4.011  16.478  0.0619 -0.3663 -0.0415
 1761SOL    HW116919   1.746   3.971  16.557 -0.7960  0.0219  0.5722
 1761SOL    HW216920   1.643   3.942  16.461 -0.6761  0.9732 -2.7302
 1762SOL     OW16921   2.457   0.575   3.694  0.1865  0.0593 -0.1868
 1762SOL    HW116922   2.499   0.554   3.778  0.2947 -1.0400 -0.5191
 1762SOL    HW216923   2.510   0.521   3.636 -0.2585  1.1180 -1.5719
 1763SOL     OW16924   0.196   0.258   2.789 -0.1855 -0.1285 -0.2884
 1763SOL    HW116925   0.235   0.174   2.767 -1.4172 -1.0924  1.2403
 1763SOL    HW216926   0.104   0.250   2.764  0.6809 -1.0978 -3.1048
 1764SOL     OW16927   1.933   2.860  15.171  0.0081  0.1606 -0.0785
 1764SOL    HW116928   1.925   2.806  15.249  0.3497 -1.0902 -0.9223
 1764SOL    HW216929   1.886   2.809  15.106  0.0414 -0.6240  0.5224
 1765SOL     OW16930   2.015   0.423   7.068 -0.2978  0.0705  1.0348
 1765SOL    HW116931   1.920   0.415   7.077 -0.1198 -1.5670  1.5794
 1765SOL    HW216932   2.042   0.343   7.114 -2.5126 -0.6426  1.0540
 1766SOL     OW16933   0.123   0.885   1.580  0.1009  0.0285  0.6616
 1766SOL    HW116934   0.076   0.825   1.522  2.9859 -2.2313  0.6301
 1766SOL    HW216935   0.215   0.868   1.558 -0.5033 -1.4664 -0.7766
 1767SOL     OW16936   4.494   2.494   7.461  0.0469  0.2648  0.4151
 1767SOL    HW116937   4.491   2.569   7.520  1.0375  0.9487 -0.3903
 1767SOL    HW216938   4.585   2.498   7.431 -0.5760 -0.7621 -1.5811
 1768SOL     OW16939   0.552   2.097   2.846 -0.0729 -0.0383  1.0365
 1768SOL    HW116940   0.634   2.143   2.863 -0.4051  0.5386  1.0941
 1768SOL    HW216941   0.507   2.172   2.806 -3.1175 -2.1053  0.6166
 1769SOL     OW16942   1.340   1.034  13.260  0.0282 -0.3600 -0.8044
 1769SOL    HW116943   1.427   1.038  13.300 -0.2029  0.4268 -0.3935
 1769SOL    HW216944   1.310   0.945  13.281  0.1696 -0.4927 -1.1685
 1770SOL     OW16945   4.269   2.665   8.471  0.0016 -0.1352  0.3964
 1770SOL    HW116946   4.237   2.711   8.392  2.3998 -2.0976 -1.7005
 1770SOL    HW216947   4.206   2.698   8.535  0.5173 -1.5481  1.6109
 1771SOL     OW16948   2.636   2.022  17.368  0.2706 -0.2545 -0.5027
 1771SOL    HW116949   2.579   2.070  17.308  0.8460 -1.3900 -1.9597
 1771SOL    HW216950   2.705   1.980  17.316  2.0131  0.8545  0.9241
 1772SOL     OW16951   4.026   0.364  11.752 -0.3251 -0.0979  0.0622
 1772SOL    HW116952   4.091   0.387  11.686 -0.6839 -0.6324 -0.4688
 1772SOL    HW216953   4.064   0.288  11.795 -1.9023 -0.4327  0.8929
 1773SOL     OW16954   1.059   2.069   7.457 -0.2066  0.5018 -0.2677
 1773SOL    HW116955   1.082   2.113   7.538  0.9402 -0.0770 -0.2862
 1773SOL    HW216956   1.093   1.981   7.472 -0.9691  0.2999  0.2473
 1774SOL     OW16957   1.645   0.226   3.527 -0.2389 -0.7397 -0.2620
 1774SOL    HW116958   1.592   0.256   3.453  1.1794  1.5354 -0.3495
 1774SOL    HW216959   1.722   0.187   3.486 -0.8002 -0.3624 -1.6577
 1775SOL     OW16960   1.242   0.956  13.819  0.0882 -0.1201 -0.5142
 1775SOL    HW116961   1.325   0.989  13.784  0.4680 -1.0294 -0.4757
 1775SOL    HW216962   1.221   0.898  13.746  0.8239 -0.4835 -0.4361
 1776SOL     OW16963   0.984   4.421  12.296  0.2065  0.2988  0.4194
 1776SOL    HW116964   1.039   4.408  12.219 -0.9169 -1.6477 -0.0571
 1776SOL    HW216965   0.989   4.516  12.306  0.0695  0.3445  0.0463
 1777SOL     OW16966   3.772   0.658   6.157 -0.2831 -0.4933  0.5676
 1777SOL    HW116967   3.720   0.625   6.230  1.7599 -2.0373  1.3308
 1777SOL    HW216968   3.709   0.703   6.101 -0.2127 -0.5821  0.4175
 1778SOL     OW16969   2.261   3.797   5.248 -0.3684 -0.1098 -0.1226
 1778SOL    HW116970   2.339   3.844   5.217  0.6103 -1.6313  0.0197
 1778SOL    HW216971   2.277   3.797   5.343  0.7472 -2.3311 -0.3183
 1779SOL     OW16972   1.690   1.004  12.415  1.0388 -0.0573 -0.7532
 1779SOL    HW116973   1.783   1.025  12.424  0.6117  1.4569  0.2501
 1779SOL    HW216974   1.664   1.094  12.393  0.3888  0.0570  0.4451
 1780SOL     OW16975   2.793   4.672  10.190 -0.2404  0.3897  0.3384
 1780SOL    HW116976   2.712   4.624  10.175  0.3049 -0.0049 -1.2955
 1780SOL    HW216977   2.812   4.639  10.278 -3.0063  0.7987  1.0915
 1781SOL     OW16978   1.280   2.071  17.499  0.0345  0.5920 -0.6527
 1781SOL    HW116979   1.242   2.044  17.415  1.0128 -0.1666 -0.8484
 1781SOL    HW216980   1.249   2.161  17.495  1.8761  1.1699 -1.8261
 1782SOL     OW16981   4.513   3.045   4.253 -0.0832  0.0899  0.3791
 1782SOL    HW116982   4.572   3.026   4.179  0.6257  1.1727  0.6753
 1782SOL    HW216983   4.458   3.116   4.220 -1.2724 -0.3061  1.4999
 1783SOL     OW16984   1.280   2.100   2.127  0.5616  0.1663 -0.1848
 1783SOL    HW116985   1.207   2.038   2.123  1.4793 -0.9817  0.7340
 1783SOL    HW216986   1.282   2.146   2.043 -0.3411 -2.4502 -1.6119
 1784SOL     OW16987   3.748   4.661   5.365 -0.2698  0.0724 -0.3480
 1784SOL    HW116988   3.791   4.657   5.450 -0.9977 -2.4666 -0.1167
 1784SOL    HW216989   3.773   4.582   5.316 -0.2904 -0.8485  1.1413
 1785SOL     OW16990   1.143   4.429   8.409  0.4669 -0.5506 -0.2498
 1785SOL    HW116991   1.176   4.364   8.471  1.1453 -0.9464 -1.0251
 1785SOL    HW216992   1.057   4.392   8.385  0.7597 -0.7866 -0.9207
 1786SOL     OW16993   1.304   3.826  11.048 -0.3206  0.9040 -0.2529
 1786SOL    HW116994   1.378   3.854  11.102 -0.4403  1.1864 -0.2399
 1786SOL    HW216995   1.258   3.776  11.116  2.3644  0.8459  1.5616
 1787SOL     OW16996   4.157   3.329   6.242 -0.3670 -0.2966 -0.0343
 1787SOL    HW116997   4.227   3.308   6.303 -1.4890  0.5080  1.5544
 1787SOL    HW216998   4.124   3.242   6.219 -1.5951  0.8865 -2.6423
 1788SOL     OW16999   2.577   3.145  10.924 -0.0804  0.1215  0.1968
 1788SOL    HW117000   2.547   3.140  11.015 -1.6605  2.0653 -0.2017
 1788SOL    HW217001   2.541   3.233  10.913  0.6612  0.4422  0.3201
 1789SOL     OW17002   4.373   3.570   8.585 -0.2372  0.4142 -0.3162
 1789SOL    HW117003   4.335   3.651   8.620 -0.4767 -0.7710  2.2237
 1789SOL    HW217004   4.425   3.543   8.661  1.3405  1.0006 -1.1856
 1790SOL     OW17005   3.017   1.085  14.507 -0.2294  0.3922  0.0395
 1790SOL    HW117006   2.985   1.068  14.419 -0.5065  0.0394  0.2079
 1790SOL    HW217007   3.015   0.996  14.544 -1.7591  0.3002 -0.2938
 1791SOL     OW17008   0.744   2.976   4.535  0.3119 -0.0631  0.2113
 1791SOL    HW117009   0.821   3.033   4.547  0.1685  0.2703 -0.4702
 1791SOL    HW217010   0.704   2.987   4.622  2.4974 -0.1521  1.2391
 1792SOL     OW17011   3.661   2.568   2.797 -0.2178  0.4202  0.1358
 1792SOL    HW117012   3.727   2.637   2.786  1.8115 -1.5101  0.2767
 1792SOL    HW217013   3.628   2.567   2.707  1.4323 -0.7622 -0.4693
 1793SOL     OW17014   0.933   2.294   1.140  0.3066 -0.1774 -0.2415
 1793SOL    HW117015   0.902   2.362   1.200 -0.0257 -1.0080  0.5383
 1793SOL    HW217016   0.982   2.348   1.079  0.6348 -1.8716 -1.4700
 1794SOL     OW17017   1.591   2.056   3.014  0.2397 -0.0955  0.1294
 1794SOL    HW117018   1.548   2.072   3.098 -1.3673  0.7941 -0.8603
 1794SOL    HW217019   1.596   2.144   2.977  1.7711  0.5264  1.8180
 1795SOL     OW17020   2.333   2.808   4.871  0.3521  0.5856  0.0066
 1795SOL    HW117021   2.401   2.806   4.804 -1.3816  1.0991 -1.7814
 1795SOL    HW217022   2.267   2.751   4.830  0.1265  2.1994 -1.8929
 1796SOL     OW17023   2.152   4.696   3.979  0.0742 -0.5319  0.0342
 1796SOL    HW117024   2.187   4.640   3.910 -0.6438  2.1841 -2.5305
 1796SOL    HW217025   2.133   0.044   3.934  3.1096  0.4375  0.5038
 1797SOL     OW17026   2.030   1.905   2.660  0.1352 -0.5362  0.0570
 1797SOL    HW117027   2.081   1.849   2.602  0.8196  0.4853 -0.3145
 1797SOL    HW217028   1.949   1.855   2.651  0.3842 -1.3729  2.4660
 1798SOL     OW17029   4.224   0.682   1.932 -0.1216  0.5349 -0.4627
 1798SOL    HW117030   4.168   0.683   2.009 -0.9424  1.6248 -1.0686
 1798SOL    HW217031   4.265   0.597   1.944  2.7785  1.8138 -1.2254
 1799SOL     OW17032   3.757   0.202  10.194 -0.2893 -0.3098 -0.2241
 1799SOL    HW117033   3.784   0.294  10.187 -1.0804 -0.0200  0.4875
 1799SOL    HW217034   3.836   0.149  10.188  0.4183  0.8751 -1.1665
 1800SOL     OW17035   2.815   0.670   7.784 -0.1861  0.1006  0.0307
 1800SOL    HW117036   2.760   0.700   7.857 -0.1929  2.0988 -0.8074
 1800SOL    HW217037   2.846   0.751   7.744  1.9519 -1.0129 -0.5510
 1801SOL     OW17038   4.604   2.819   9.603  0.7601 -0.5761 -0.0612
 1801SOL    HW117039   4.559   2.806   9.687 -1.5084  0.2868 -1.1509
 1801SOL    HW217040   4.689   2.848   9.637  0.5336  0.6228 -0.5330
 1802SOL     OW17041   2.571   0.325   5.079  0.0076 -0.3808 -0.2764
 1802SOL    HW117042   2.516   0.343   5.002  2.1244  0.6329 -1.5346
 1802SOL    HW217043   2.616   0.252   5.037  1.8297 -0.5880  2.0170
 1803SOL     OW17044   3.921   4.273   3.704  0.6664 -0.3076 -0.0498
 1803SOL    HW117045   3.898   4.345   3.645 -1.7974 -2.2030 -1.3950
 1803SOL    HW217046   3.910   4.194   3.651 -0.5628 -0.0032 -0.2504
 1804SOL     OW17047   4.647   1.141  17.265  0.1249  0.0803  0.4070
 1804SOL    HW117048   4.662   1.073  17.199  0.5056  1.2021 -0.6656
 1804SOL    HW217049   4.700   1.211  17.225 -1.7342  1.6059  0.6510
 1805SOL     OW17050   4.653   0.212  13.722 -0.7746 -0.0786 -0.2081
 1805SOL    HW117051   4.662   0.304  13.747  1.8140 -0.5531  0.5834
 1805SOL    HW217052   4.565   0.201  13.687 -0.7912  0.0028 -0.1936
 1806SOL     OW17053   2.490   3.933   4.594  0.7091 -0.6736  0.2424
 1806SOL    HW117054   2.499   4.021   4.630 -0.1446  0.2523 -1.7972
 1806SOL    HW217055   2.445   3.881   4.661 -0.3396  1.5521  1.2546
 1807SOL     OW17056   0.596   2.772   0.328 -0.0716 -0.6262  0.3161
 1807SOL    HW117057   0.615   2.707   0.396  0.3387 -1.9013 -1.0249
 1807SOL    HW217058   0.605   2.852   0.380 -0.4502 -0.7133  0.5148
 1808SOL     OW17059   0.387   3.112   4.560  0.0861  0.2087 -0.0039
 1808SOL    HW117060   0.368   3.132   4.468 -1.3585  1.9504  0.6489
 1808SOL    HW217061   0.467   3.163   4.575  2.2427 -2.8031 -1.4273
 1809SOL     OW17062   0.403   1.219   5.841 -0.8677 -0.0663  0.3099
 1809SOL    HW117063   0.491   1.234   5.805 -1.5669 -0.8595 -1.7310
 1809SOL    HW217064   0.383   1.133   5.802 -1.6855  0.0967  0.3788
 1810SOL     OW17065   0.632   1.608  14.968 -0.3093 -0.1012 -0.9902
 1810SOL    HW117066   0.569   1.661  15.017  1.4625  1.5442 -0.5079
 1810SOL    HW217067   0.628   1.637  14.877 -0.4210 -1.8559 -1.5468
 1811SOL     OW17068   3.777   2.016   5.650  0.0670 -0.1951  0.3861
 1811SOL    HW117069   3.752   2.095   5.699 -0.9062  0.8714 -1.8406
 1811SOL    HW217070   3.841   1.978   5.710  0.0232  0.2313  0.7010
 1812SOL     OW17071   1.031   1.604  17.656 -0.1994  0.2103 -0.3477
 1812SOL    HW117072   1.122   1.614  17.628  0.2308 -0.2637  0.9005
 1812SOL    HW217073   1.051   1.559   0.002  0.9092 -1.7075 -1.6813
 1813SOL     OW17074   1.663   1.659   5.402 -0.1879  0.4775 -0.1226
 1813SOL    HW117075   1.655   1.749   5.432 -0.0430  0.5338 -0.2513
 1813SOL    HW217076   1.755   1.640   5.419 -0.3839 -0.0935  0.3047
 1814SOL     OW17077   3.259   3.539  13.294 -0.3384  0.6114  0.3874
 1814SOL    HW117078   3.265   3.635  13.289  0.8072  0.5681  0.9735
 1814SOL    HW217079   3.173   3.511  13.262  0.5011 -0.2107 -1.1212
 1815SOL     OW17080   4.484   4.461  17.535 -0.1586  0.2442  0.2154
 1815SOL    HW117081   4.460   4.528  17.599 -0.1185 -0.0381  0.5288
 1815SOL    HW217082   4.519   4.518  17.466 -0.7271  1.0491  0.5986
 1816SOL     OW17083   1.394   4.309   8.933 -0.0211  0.3934 -0.5755
 1816SOL    HW117084   1.357   4.222   8.920 -0.2347  0.1732  1.4205
 1816SOL    HW217085   1.456   4.300   9.005 -1.0937 -1.3764  0.1405
 1817SOL     OW17086   4.614   2.295   3.070 -0.0861 -0.2941  0.3951
 1817SOL    HW117087   4.591   2.336   3.153 -0.0296 -0.0244  0.2760
 1817SOL    HW217088   4.524   2.297   3.035  0.5190  1.7504 -1.0300
 1818SOL     OW17089   4.724   2.018  16.429  0.3667 -0.2732  0.2887
 1818SOL    HW117090   4.639   2.031  16.386 -0.6236 -3.1282  1.3910
 1818SOL    HW217091   4.708   2.067  16.509  0.0993  0.8533 -0.4658
 1819SOL     OW17092   0.386   2.668   9.106 -0.2709 -0.2305 -0.2964
 1819SOL    HW117093   0.430   2.589   9.136 -0.9491 -0.0392  1.2145
 1819SOL    HW217094   0.405   2.663   9.013  0.2394  1.7802 -0.2972
 1820SOL     OW17095   2.930   4.710  11.251 -0.7193  0.1075 -0.6199
 1820SOL    HW117096   2.988   0.051  11.252 -1.5962  0.7777 -0.9729
 1820SOL    HW217097   2.871   4.732  11.323  0.0904  0.3341 -0.0316
 1821SOL     OW17098   2.412   2.033   1.952 -0.0261 -0.1068  0.1827
 1821SOL    HW117099   2.358   1.953   1.956 -0.0358 -0.2039 -2.0309
 1821SOL    HW217100   2.492   2.005   1.999  1.0716 -0.5238 -1.9536
 1822SOL     OW17101   2.214   0.392   5.228  0.3564  0.0290 -0.5809
 1822SOL    HW117102   2.238   0.304   5.196  0.1573 -0.1611 -0.2048
 1822SOL    HW217103   2.127   0.404   5.191  0.9240  1.0574 -1.6060
 1823SOL     OW17104   4.522   2.900   3.541  0.2472  0.5550  0.0794
 1823SOL    HW117105   4.523   2.912   3.446  0.3496 -1.0884 -0.1224
 1823SOL    HW217106   4.453   2.836   3.558  0.8417  0.1732  1.0698
 1824SOL     OW17107   4.326   3.622  11.733 -0.0920  0.8070  0.1634
 1824SOL    HW117108   4.303   3.546  11.679 -0.4017  2.5774 -2.2162
 1824SOL    HW217109   4.298   3.588  11.818 -1.7006 -1.5470 -1.3126
 1825SOL     OW17110   0.157   4.179  12.919  0.3268  0.2122  0.0068
 1825SOL    HW117111   0.155   4.228  12.837 -0.6791  3.2511  1.8478
 1825SOL    HW217112   0.243   4.141  12.901  0.6329  0.3452  1.2236
 1826SOL     OW17113   1.342   2.597   3.067 -0.3153  0.0143  0.0586
 1826SOL    HW117114   1.375   2.628   2.983 -1.2707 -0.9424 -0.6660
 1826SOL    HW217115   1.250   2.605   3.044  0.2647 -0.8473 -2.4863
 1827SOL     OW17116   2.482   1.486   8.019  0.2675 -0.5950  0.3704
 1827SOL    HW117117   2.402   1.512   8.064  0.9852 -2.2113  2.5801
 1827SOL    HW217118   2.541   1.560   8.035 -1.0450 -0.2916  3.6755
 1828SOL     OW17119   1.834   2.647   4.892  0.2755 -0.1268  0.3657
 1828SOL    HW117120   1.805   2.647   4.800  1.1946 -1.7741  0.0706
 1828SOL    HW217121   1.799   2.728   4.928 -1.6537 -0.8281  0.0345
 1829SOL     OW17122   2.384   2.755   6.667  0.4100 -0.4439 -0.0660
 1829SOL    HW117123   2.442   2.716   6.602  0.4445  0.1400 -0.3772
 1829SOL    HW217124   2.299   2.755   6.624  0.1344 -0.9154  0.4653
 1830SOL     OW17125   2.054   0.449  14.886  0.5227 -0.2923  0.6736
 1830SOL    HW117126   2.009   0.517  14.836 -0.9113 -1.6770  0.1216
 1830SOL    HW217127   2.101   0.409  14.813  0.0968  0.7143 -0.1488
 1831SOL     OW17128   3.170   3.680   4.332 -0.2510 -0.2138  0.5854
 1831SOL    HW117129   3.157   3.768   4.367 -0.9902 -0.8988  1.9951
 1831SOL    HW217130   3.085   3.651   4.365 -1.1073  1.5688 -0.0160
 1832SOL     OW17131   0.846   0.177   8.297  0.0716 -0.1187  0.2459
 1832SOL    HW117132   0.889   0.261   8.311 -0.1243  0.0842 -0.3871
 1832SOL    HW217133   0.928   0.129   8.286 -0.1965 -0.6260  0.4827
 1833SOL     OW17134   3.947   1.307   5.415  0.5556 -0.1837  0.9791
 1833SOL    HW117135   4.025   1.255   5.439  0.5583  0.4091  2.2698
 1833SOL    HW217136   3.928   1.271   5.328  3.0402 -0.2821  0.4772
 1834SOL     OW17137   2.313   2.852   5.123  0.5849 -0.6741 -0.0415
 1834SOL    HW117138   2.304   2.829   5.031 -0.2356 -2.3921  0.4729
 1834SOL    HW217139   2.337   2.761   5.144 -2.0894 -1.2168  0.5930
 1835SOL     OW17140   3.888   1.545   2.800  0.6554 -0.1455  0.0302
 1835SOL    HW117141   3.945   1.594   2.860  2.4147  0.1735 -1.9006
 1835SOL    HW217142   3.863   1.624   2.752  0.0617 -1.0849 -1.2077
 1836SOL     OW17143   0.268   0.362   4.740 -0.2304 -0.1417 -0.0757
 1836SOL    HW117144   0.311   0.427   4.684 -2.0822  0.9000 -0.2612
 1836SOL    HW217145   0.312   0.378   4.823 -0.7301 -0.1034  0.1769
 1837SOL     OW17146   1.773   4.289   5.203 -0.5180  0.2940 -0.3352
 1837SOL    HW117147   1.837   4.360   5.196 -1.5624  0.9581 -3.3994
 1837SOL    HW217148   1.832   4.215   5.190 -1.0610 -0.0959 -0.6173
 1838SOL     OW17149   2.744   4.306   7.486  0.3131 -0.2835 -0.1579
 1838SOL    HW117150   2.737   4.395   7.522  0.2049 -0.5533  0.4835
 1838SOL    HW217151   2.669   4.291   7.429  0.8670  0.5858 -1.1246
 1839SOL     OW17152   1.568   2.419   9.142 -0.4682 -0.1469 -0.1436
 1839SOL    HW117153   1.519   2.338   9.130 -2.0164  1.1346 -2.5459
 1839SOL    HW217154   1.521   2.472   9.078  0.2387  1.2352  0.4774
 1840SOL     OW17155   4.509   0.888   3.276  0.2078 -0.6159  0.1398
 1840SOL    HW117156   4.451   0.914   3.348  0.0328  0.5264 -0.4231
 1840SOL    HW217157   4.550   0.807   3.306 -2.6427 -0.8759  3.4054
 1841SOL     OW17158   2.214   0.936   2.887  0.2766  0.7683 -0.0989
 1841SOL    HW117159   2.288   0.897   2.933  1.2420  0.9048 -1.5565
 1841SOL    HW217160   2.151   0.935   2.959  0.4534 -0.6050  0.0365
 1842SOL     OW17161   3.860   4.526  11.651 -0.0884 -0.1338 -0.2187
 1842SOL    HW117162   3.914   4.593  11.609  0.6022 -1.7093 -1.8933
 1842SOL    HW217163   3.871   4.458  11.585  2.0685  1.4102 -1.4645
 1843SOL     OW17164   1.194   1.230   1.625 -0.1403  0.0428  0.2302
 1843SOL    HW117165   1.249   1.267   1.557  1.8348  0.8940  2.2938
 1843SOL    HW217166   1.252   1.238   1.701  0.9785  0.7612 -0.7154
 1844SOL     OW17167   3.645   2.467  11.838 -0.0546  0.0453  0.6349
 1844SOL    HW117168   3.673   2.375  11.838  0.5414  0.2273 -0.3160
 1844SOL    HW217169   3.551   2.455  11.847  0.1904 -0.7269  2.1307
 1845SOL     OW17170   2.452   0.609   4.447  0.2247 -0.0137 -0.3011
 1845SOL    HW117171   2.457   0.577   4.537 -0.1181 -0.0263 -0.2891
 1845SOL    HW217172   2.538   0.574   4.421  0.1749  0.2851 -0.8562
 1846SOL     OW17173   1.047   1.548   1.877 -0.4057  0.2450  0.1601
 1846SOL    HW117174   0.982   1.616   1.862 -2.6476 -1.9397 -0.0584
 1846SOL    HW217175   1.103   1.567   1.802 -0.0113  2.9159  1.1532
 1847SOL     OW17176   0.397   4.672   1.494  0.3620  0.7485 -0.6306
 1847SOL    HW117177   0.410   4.614   1.418  2.5888 -0.3321  0.5814
 1847SOL    HW217178   0.398   0.021   1.447 -3.7250  2.8671  3.0344
 1848SOL     OW17179   0.702   1.050   0.173  0.0320 -0.1243 -0.2879
 1848SOL    HW117180   0.663   0.980   0.121  0.2431 -0.0367 -0.5644
 1848SOL    HW217181   0.744   1.105   0.107  0.2548  1.9943  1.6420
 1849SOL     OW17182   2.552   0.012   1.795  0.4120 -0.2510 -0.0874
 1849SOL    HW117183   2.583   4.729   1.883 -0.4258  0.0970  0.2776
 1849SOL    HW217184   2.571   4.667   1.745 -0.7718 -0.2433 -0.5515
 1850SOL     OW17185   1.995   0.151   1.848  0.0665 -0.2149  0.0324
 1850SOL    HW117186   2.057   0.145   1.775 -0.7741 -0.5397 -0.6534
 1850SOL    HW217187   1.927   0.091   1.818  0.4720 -1.0732  0.8588
 1851SOL     OW17188   3.776   0.583   7.623  0.0285  0.4361  0.2374
 1851SOL    HW117189   3.801   0.675   7.615  1.3833  0.1767  1.5905
 1851SOL    HW217190   3.830   0.552   7.695 -0.6296 -1.0583  0.0764
 1852SOL     OW17191   1.924   1.943   9.239  0.2257  0.3722  0.2168
 1852SOL    HW117192   1.966   1.861   9.264 -1.0440 -0.1795  0.5486
 1852SOL    HW217193   1.831   1.921   9.236  0.2685  0.4762 -1.9677
 1853SOL     OW17194   4.496   3.358   6.518  0.0578 -0.1170  0.5222
 1853SOL    HW117195   4.589   3.342   6.536  0.2716  1.2961  0.6523
 1853SOL    HW217196   4.510   3.429   6.456 -1.1152 -0.3152  0.0363
 1854SOL     OW17197   2.372   2.134   7.626  0.4713  0.2602  0.0604
 1854SOL    HW117198   2.382   2.040   7.612 -0.1140  0.3354 -0.9288
 1854SOL    HW217199   2.456   2.147   7.669  0.3197  1.8115 -0.0826
 1855SOL     OW17200   0.405   1.659  16.959  0.6118 -0.2210 -0.0299
 1855SOL    HW117201   0.488   1.692  16.993 -0.6215  0.9051  1.8418
 1855SOL    HW217202   0.378   1.740  16.916  0.4210  0.6558  1.7560
 1856SOL     OW17203   2.894   1.555   8.004  0.7308 -0.2153 -0.1057
 1856SOL    HW117204   2.943   1.580   8.082 -0.2447  0.1521  0.3795
 1856SOL    HW217205   2.969   1.530   7.949 -0.4588  1.0400 -2.3135
 1857SOL     OW17206   0.738   0.386   3.864  0.5065  0.0291  0.7628
 1857SOL    HW117207   0.780   0.323   3.805  1.2044  1.8039 -0.6274
 1857SOL    HW217208   0.682   0.331   3.918 -1.8628  2.8258  1.1664
 1858SOL     OW17209   4.212   0.578  17.029 -0.0330 -0.8214 -0.4269
 1858SOL    HW117210   4.241   0.504  17.082 -1.0573 -0.4703  0.6130
 1858SOL    HW217211   4.211   0.645  17.098 -2.7679  0.3385 -1.6102
 1859SOL     OW17212   0.886   2.041  17.445  0.1971  0.2754 -0.0202
 1859SOL    HW117213   0.835   2.121  17.461  0.8897  1.1258 -2.0529
 1859SOL    HW217214   0.875   2.017  17.537  0.5200  0.3072  0.0255
 1860SOL     OW17215   2.538   2.636   3.314 -0.3700 -0.0692 -0.2843
 1860SOL    HW117216   2.445   2.621   3.334 -0.0096 -1.5803  0.2594
 1860SOL    HW217217   2.528   2.632   3.219  1.6251  0.6012 -0.5215
 1861SOL     OW17218   1.485   1.486   1.761  0.2087  0.3138  0.5244
 1861SOL    HW117219   1.491   1.414   1.824 -0.5634  0.3655  0.6566
 1861SOL    HW217220   1.441   1.449   1.684  2.6070 -2.6686  0.5718
 1862SOL     OW17221   4.452   3.234   0.465 -0.4048 -0.3423 -0.1017
 1862SOL    HW117222   4.516   3.237   0.394  0.5673  0.0694  0.7944
 1862SOL    HW217223   4.428   3.143   0.445 -1.2561 -0.2077  0.2775
 1863SOL     OW17224   2.963   0.516   5.740 -0.1842 -0.1451  0.7894
 1863SOL    HW117225   2.930   0.495   5.653 -1.3724  1.0253  0.9425
 1863SOL    HW217226   2.890   0.552   5.791  0.1747  0.3367  0.9574
 1864SOL     OW17227   0.837   2.289   7.728  0.3195  0.8120 -0.2408
 1864SOL    HW117228   0.767   2.226   7.710  0.8871  0.3083 -0.7070
 1864SOL    HW217229   0.800   2.363   7.681 -3.4468 -1.5225 -0.9195
 1865SOL     OW17230   0.652   1.294   5.713  0.1940 -0.3071  0.0115
 1865SOL    HW117231   0.698   1.282   5.630  0.3757  0.7455 -0.0472
 1865SOL    HW217232   0.720   1.341   5.761 -2.4118  1.6164  1.8443
 1866SOL     OW17233   2.132   4.149   3.672  0.1296  0.4552 -0.7647
 1866SOL    HW117234   2.162   4.131   3.761 -1.4348  0.3710 -0.2566
 1866SOL    HW217235   2.201   4.103   3.624  0.0658  0.5830 -0.9776
 1867SOL     OW17236   0.108   1.601   1.374  0.0345 -0.6322  0.1158
 1867SOL    HW117237   0.141   1.690   1.388 -2.2096  0.4422 -1.4487
 1867SOL    HW217238   0.177   1.573   1.315  0.2209  1.0385 -0.4630
 1868SOL     OW17239   4.537   4.475   5.965 -0.4867 -0.2190 -0.2299
 1868SOL    HW117240   4.490   4.555   5.945  1.6285  1.1454  0.2562
 1868SOL    HW217241   4.470   4.407   5.956 -1.5966  0.8641 -0.1130
 1869SOL     OW17242   1.159   4.205   5.625 -0.3082  0.1192 -0.1709
 1869SOL    HW117243   1.237   4.242   5.667  0.4928 -2.2045  0.3905
 1869SOL    HW217244   1.197   4.132   5.575 -2.6089  1.0807 -3.3734
 1870SOL     OW17245   1.494   2.576  11.942 -0.9444  0.5195  0.0511
 1870SOL    HW117246   1.463   2.666  11.951  0.0542  0.8502  0.0986
 1870SOL    HW217247   1.540   2.570  12.025 -2.7332 -0.5257  0.9744
 1871SOL     OW17248   0.915   0.335   2.858 -0.1140  0.3032  0.1156
 1871SOL    HW117249   1.002   0.309   2.887  0.6025  1.9450 -0.5185
 1871SOL    HW217250   0.893   0.404   2.921  0.0180  0.3961  0.0603
 1872SOL     OW17251   3.933   2.995   6.447  0.1546 -0.1624  0.1700
 1872SOL    HW117252   3.841   3.019   6.448 -0.1676 -1.3799  0.0983
 1872SOL    HW217253   3.956   2.976   6.538  1.5079 -0.9298 -0.3387
 1873SOL     OW17254   3.583   0.251   4.931 -0.4968 -0.9006  0.3926
 1873SOL    HW117255   3.635   0.319   4.973 -0.7296 -0.1038 -0.6214
 1873SOL    HW217256   3.625   0.179   4.978  2.4517  2.5610  3.0691
 1874SOL     OW17257   3.505   2.281   8.902  0.3008  0.0573  0.3958
 1874SOL    HW117258   3.492   2.242   8.816  0.3474  0.4584  0.2046
 1874SOL    HW217259   3.590   2.249   8.931  1.2144  0.7963 -1.4414
 1875SOL     OW17260   4.032   2.967   1.855 -0.3949  0.0311 -0.3953
 1875SOL    HW117261   4.025   2.877   1.886  1.2538  0.3320  0.9096
 1875SOL    HW217262   4.032   3.023   1.933 -0.8505 -2.8999  1.7070
 1876SOL     OW17263   0.706   1.202   3.805 -0.2016  0.9829 -0.0067
 1876SOL    HW117264   0.614   1.177   3.801  0.6734 -2.1001 -1.4314
 1876SOL    HW217265   0.741   1.145   3.736  1.3195  0.9709  0.7676
 1877SOL     OW17266   4.417   0.267   4.163  0.0489  0.0371 -0.5248
 1877SOL    HW117267   4.399   0.193   4.104  2.3473 -0.9567  0.0070
 1877SOL    HW217268   4.344   0.323   4.137 -0.1192  0.5245  1.0389
 1878SOL     OW17269   3.305   0.075   8.220  0.2223 -0.3972 -0.6526
 1878SOL    HW117270   3.392   0.116   8.217 -0.3529  1.0745  2.5488
 1878SOL    HW217271   3.303   0.023   8.140  0.1065 -1.7160  0.2208
 1879SOL     OW17272   1.041   1.705   2.876 -0.1109 -0.2758 -0.2156
 1879SOL    HW117273   1.095   1.756   2.816 -1.3698  1.2312 -0.0337
 1879SOL    HW217274   1.040   1.766   2.949  0.3371  1.2150 -1.4625
 1880SOL     OW17275   1.752   1.677   6.489 -0.4734 -0.1230  0.2568
 1880SOL    HW117276   1.808   1.749   6.459 -0.5038 -0.8467 -1.5196
 1880SOL    HW217277   1.738   1.633   6.405 -2.2429  1.2986 -0.1979
 1881SOL     OW17278   3.612   4.284   5.946  0.4588 -0.2054  0.0650
 1881SOL    HW117279   3.645   4.336   6.020 -2.2119  2.0494 -0.3437
 1881SOL    HW217280   3.609   4.336   5.866  1.6620 -0.1950  0.0211
 1882SOL     OW17281   3.462   3.599   7.727  0.4402 -0.5828  0.2610
 1882SOL    HW117282   3.499   3.646   7.652  1.0419 -1.1855  0.1760
 1882SOL    HW217283   3.400   3.664   7.760  0.5451 -1.1272  1.4895
 1883SOL     OW17284   1.790   0.497   9.544  0.0517  0.1207  0.5061
 1883SOL    HW117285   1.777   0.405   9.566  0.2696 -0.3666 -1.3368
 1883SOL    HW217286   1.828   0.506   9.456 -0.0105 -0.6256  0.3961
 1884SOL     OW17287   2.074   2.205   5.042 -0.6970  0.0547 -0.6088
 1884SOL    HW117288   2.055   2.185   5.133  1.1685  0.6623 -0.0896
 1884SOL    HW217289   2.013   2.155   4.988 -1.4214 -0.2691  0.5185
 1885SOL     OW17290   1.483   1.259  10.582 -0.0518  0.0422  0.7990
 1885SOL    HW117291   1.442   1.180  10.547 -0.1330  0.5730 -0.2903
 1885SOL    HW217292   1.406   1.309  10.611 -1.9683 -1.1379 -2.3304
 1886SOL     OW17293   1.315   2.228   2.683 -0.4463 -0.3041 -0.3517
 1886SOL    HW117294   1.398   2.207   2.638  0.9286  0.4107  1.8608
 1886SOL    HW217295   1.332   2.322   2.687 -0.4951 -0.2854 -0.5997
 1887SOL     OW17296   2.039   1.802   5.150  0.1763  0.0331  0.5076
 1887SOL    HW117297   2.032   1.887   5.194  3.3985  0.6977 -0.2635
 1887SOL    HW217298   2.019   1.832   5.061 -0.4339 -0.9313  0.3130
 1888SOL     OW17299   0.995   4.193   2.582 -0.4010 -0.1965 -0.0266
 1888SOL    HW117300   0.944   4.155   2.654 -1.0295 -3.4244 -2.1811
 1888SOL    HW217301   1.022   4.278   2.619 -1.1975  0.1066 -0.1385
 1889SOL     OW17302   3.015   1.948   0.844 -0.4043  0.5310 -0.1098
 1889SOL    HW117303   2.934   1.897   0.850  0.9982 -1.5168  1.3853
 1889SOL    HW217304   3.079   1.877   0.850  0.2876  1.2543  1.1594
 1890SOL     OW17305   3.365   3.413   3.725  0.2842  0.1767  0.3465
 1890SOL    HW117306   3.308   3.336   3.725 -2.9383  2.5895 -2.0391
 1890SOL    HW217307   3.321   3.487   3.766 -1.2006 -0.1358 -0.6893
 1891SOL     OW17308   1.380   4.723   1.845 -0.1619  0.4028 -0.0412
 1891SOL    HW117309   1.323   4.678   1.907  0.2609 -0.7934 -0.5159
 1891SOL    HW217310   1.346   4.698   1.759  2.1506 -0.2130 -0.7784
 1892SOL     OW17311   2.535   1.502   4.453  0.2247  0.6988  0.8838
 1892SOL    HW117312   2.617   1.493   4.503  1.6580  1.2745 -1.3681
 1892SOL    HW217313   2.482   1.442   4.506  0.4141 -0.8081 -0.6134
 1893SOL     OW17314   0.791   0.538  13.924  0.2571  0.1677  0.1006
 1893SOL    HW117315   0.823   0.624  13.951  0.7920  0.3495 -1.0904
 1893SOL    HW217316   0.841   0.535  13.842  0.6017  0.2779  0.3040
 1894SOL     OW17317   2.403   0.796   3.028 -0.2103  0.8573  0.0417
 1894SOL    HW117318   2.381   0.703   3.022  1.0134  0.6108 -0.6986
 1894SOL    HW217319   2.400   0.809   3.123 -0.6168  0.1577  0.1240
 1895SOL     OW17320   4.329   4.173   3.520  0.2548  0.3000  0.1231
 1895SOL    HW117321   4.289   4.136   3.599 -1.0518  0.5288 -0.4311
 1895SOL    HW217322   4.296   4.111   3.455  0.7374  0.8774 -0.6699
 1896SOL     OW17323   3.391   3.187   1.405 -0.3303  0.3535  0.2312
 1896SOL    HW117324   3.332   3.111   1.403 -1.0214  0.9760 -2.1984
 1896SOL    HW217325   3.431   3.180   1.492  2.6390  2.1863 -0.9759
 1897SOL     OW17326   4.460   1.794   6.382 -0.1802 -0.2475 -0.0632
 1897SOL    HW117327   4.527   1.838   6.330 -0.2880 -2.0028 -1.6945
 1897SOL    HW217328   4.473   1.699   6.369 -0.4578 -0.0209 -2.0031
 1898SOL     OW17329   2.316   4.477   4.217 -0.0153  0.0812  0.0283
 1898SOL    HW117330   2.360   4.417   4.277  0.8486  2.5170  1.8370
 1898SOL    HW217331   2.245   4.423   4.182 -0.0315 -1.2405  2.1344
 1899SOL     OW17332   1.062   1.335  15.557 -0.0970 -0.0690 -0.3647
 1899SOL    HW117333   1.010   1.295  15.626  0.3580  1.4898  0.8752
 1899SOL    HW217334   1.121   1.261  15.545 -1.1787 -1.0507  0.4624
 1900SOL     OW17335   2.722   4.260  14.429 -0.0717  0.2241  0.6321
 1900SOL    HW117336   2.753   4.232  14.343  0.5159 -0.6763  1.1413
 1900SOL    HW217337   2.719   4.355  14.423 -2.1120  0.0242 -1.5359
 1901SOL     OW17338   0.586   1.607   8.750  0.3985 -0.3059  0.2084
 1901SOL    HW117339   0.616   1.525   8.788 -0.2597 -0.5033  0.3123
 1901SOL    HW217340   0.583   1.571   8.662 -1.5019 -2.4820  1.1463
 1902SOL     OW17341   1.756   2.795   8.307  0.5343  0.1472  0.1327
 1902SOL    HW117342   1.709   2.733   8.363 -0.9188  0.0102 -1.2545
 1902SOL    HW217343   1.826   2.736   8.277  0.3509  0.4560 -0.9119
 1903SOL     OW17344   4.484   2.491   5.098  0.9041 -0.0664 -0.5877
 1903SOL    HW117345   4.426   2.416   5.084  1.3801 -0.3079 -1.3029
 1903SOL    HW217346   4.561   2.467   5.046  0.1316  1.0670 -2.2608
 1904SOL     OW17347   0.037   1.159   5.402  0.2062  0.1428  0.5298
 1904SOL    HW117348   0.068   1.069   5.400 -2.1750 -0.7155  1.1928
 1904SOL    HW217349   4.689   1.147   5.355  0.5586 -0.9636  0.2045
 1905SOL     OW17350   1.103   1.637   0.915 -0.1485  0.5331 -0.2485
 1905SOL    HW117351   1.081   1.660   0.824 -1.4814  0.6393  0.0996
 1905SOL    HW217352   1.163   1.706   0.944 -0.6810  0.2876  1.4314
 1906SOL     OW17353   1.436   2.032   3.857  0.3519  0.3324  0.2046
 1906SOL    HW117354   1.358   2.071   3.897 -0.1528 -0.6218  0.1585
 1906SOL    HW217355   1.502   2.086   3.900  0.3201  0.3529  0.2276
 1907SOL     OW17356   1.934   1.267   6.927 -0.1024  0.4275  0.5655
 1907SOL    HW117357   1.914   1.213   6.851  1.9651  1.3388 -0.6348
 1907SOL    HW217358   1.993   1.211   6.976 -1.9042 -0.7119  1.3992
 1908SOL     OW17359   2.566   1.753   4.401  0.6830 -0.0331 -0.3799
 1908SOL    HW117360   2.536   1.809   4.472 -0.0481  0.1273 -0.8213
 1908SOL    HW217361   2.560   1.662   4.430  0.2398 -1.1980 -4.1374
 1909SOL     OW17362   3.425   3.780   4.271 -0.6886 -0.1056  0.0893
 1909SOL    HW117363   3.353   3.740   4.321 -1.2016  0.3844 -0.2572
 1909SOL    HW217364   3.367   3.836   4.219  1.1437 -0.4123 -2.2240
 1910SOL     OW17365   0.297   4.101  13.289 -0.0357  0.4575  1.0075
 1910SOL    HW117366   0.287   4.037  13.219 -0.1171  0.6794  0.8154
 1910SOL    HW217367   0.232   4.064  13.347 -0.1726 -1.4525 -0.3749
 1911SOL     OW17368   3.315   0.823  11.328 -0.0362 -0.1765  0.5544
 1911SOL    HW117369   3.303   0.728  11.321  0.8579 -0.1868 -0.8116
 1911SOL    HW217370   3.348   0.851  11.243 -1.7537 -1.7550 -0.6309
 1912SOL     OW17371   0.511   3.646   6.054  0.1139  0.5950 -0.3192
 1912SOL    HW117372   0.512   3.739   6.076 -0.9673  1.1563 -2.6412
 1912SOL    HW217373   0.515   3.599   6.137  1.1919  0.9099 -0.1954
 1913SOL     OW17374   0.771   0.231   9.164 -0.6158 -0.4479 -1.1484
 1913SOL    HW117375   0.690   0.180   9.173 -0.6963  0.2318  1.9222
 1913SOL    HW217376   0.835   0.165   9.191  0.8886  0.4309 -2.5441
 1914SOL     OW17377   3.919   1.500   1.597 -0.5176  0.6569 -0.3797
 1914SOL    HW117378   3.885   1.414   1.620  1.5739 -0.2187 -0.5896
 1914SOL    HW217379   3.943   1.538   1.681  0.1759 -0.9147  0.1271
 1915SOL     OW17380   1.558   3.156   1.392  0.1684 -0.0542  0.5962
 1915SOL    HW117381   1.653   3.145   1.390  0.4976  3.2505 -1.1629
 1915SOL    HW217382   1.548   3.189   1.303  0.6249  0.1129  0.6064
 1916SOL     OW17383   0.960   0.763  16.444 -0.0462  0.2185  0.1724
 1916SOL    HW117384   0.902   0.720  16.381  1.0234  0.4453 -0.9590
 1916SOL    HW217385   0.995   0.691  16.497 -1.9561 -0.3884  0.5895
 1917SOL     OW17386   2.409   1.992   7.036 -0.6830  0.0478 -0.6798
 1917SOL    HW117387   2.462   2.071   7.034 -1.1583  0.4238  1.3304
 1917SOL    HW217388   2.336   2.032   7.083  1.2904  2.2080  0.4899
 1918SOL     OW17389   1.081   0.031   8.623  0.6905 -0.0784  0.1603
 1918SOL    HW117390   1.073   4.694   8.685 -0.6503 -0.7943 -0.8180
 1918SOL    HW217391   1.084   0.111   8.676 -1.3510 -0.1457  0.3876
 1919SOL     OW17392   3.068   4.392   4.869 -0.3742 -0.4143 -0.1040
 1919SOL    HW117393   3.122   4.391   4.948 -1.3276  0.9257  0.5567
 1919SOL    HW217394   2.999   4.453   4.894 -0.4310 -0.6955  0.4224
 1920SOL     OW17395   2.962   1.021  13.312  0.4907 -0.2320 -0.5471
 1920SOL    HW117396   2.908   0.976  13.377  0.5119 -2.1153 -1.8337
 1920SOL    HW217397   2.919   0.990  13.232  0.6189 -2.7389  0.3379
 1921SOL     OW17398   3.579   3.957   5.640 -0.3675  0.3507 -0.0438
 1921SOL    HW117399   3.604   4.026   5.578  2.2088 -0.7677 -0.2595
 1921SOL    HW217400   3.497   3.999   5.666  0.0480  2.3021 -1.8910
 1922SOL     OW17401   1.336   0.872   2.279  0.3288  0.3289 -0.0531
 1922SOL    HW117402   1.396   0.854   2.352  0.6597  1.4395 -0.0522
 1922SOL    HW217403   1.269   0.808   2.303  1.3423  0.0594  2.0613
 1923SOL     OW17404   0.741   3.781   6.445  0.0267 -0.7661  0.4211
 1923SOL    HW117405   0.783   3.721   6.506 -1.3022 -2.9761 -0.8172
 1923SOL    HW217406   0.657   3.784   6.491  1.2188  1.1303  2.4188
 1924SOL     OW17407   3.427   2.159   3.747  0.3153  0.3782  0.1551
 1924SOL    HW117408   3.509   2.125   3.782  1.3712  4.3795  1.5377
 1924SOL    HW217409   3.459   2.181   3.659 -0.5400 -0.2258 -0.3083
 1925SOL     OW17410   4.156   2.306   8.039 -0.2546 -0.1439 -0.3948
 1925SOL    HW117411   4.169   2.305   7.945  3.2253 -1.4036  0.1146
 1925SOL    HW217412   4.144   2.400   8.055 -3.0070 -0.5593 -0.0379
 1926SOL     OW17413   2.909   4.551   1.513  0.4755 -0.0823 -0.1486
 1926SOL    HW117414   2.995   4.523   1.481  0.4344  0.6202 -0.8581
 1926SOL    HW217415   2.933   4.626   1.568 -1.0106  0.0076  0.3858
 1927SOL     OW17416   1.560   2.782  10.641  0.4405  0.6986  0.6737
 1927SOL    HW117417   1.581   2.694  10.671 -0.1679 -0.0505 -1.1082
 1927SOL    HW217418   1.614   2.844  10.689 -0.9779  1.1127  1.7248
 1928SOL     OW17419   3.772   1.618  12.407 -0.2560  0.1921 -0.1903
 1928SOL    HW117420   3.715   1.568  12.466 -1.6781  0.5829 -1.2131
 1928SOL    HW217421   3.703   1.665  12.359  1.1100  0.4691 -1.8700
 1929SOL     OW17422   0.972   0.414   8.337 -0.1380 -0.0134  0.0814
 1929SOL    HW117423   1.056   0.400   8.293  0.3707  1.1148  0.6844
 1929SOL    HW217424   1.003   0.417   8.427  1.1060  0.5529 -0.3524
 1930SOL     OW17425   1.688   4.507   4.140 -0.2915 -0.2159  0.3571
 1930SOL    HW117426   1.783   4.515   4.129 -0.5150 -0.1905 -1.5032
 1930SOL    HW217427   1.660   4.596   4.116  0.2172 -0.0555  0.3569
 1931SOL     OW17428   0.424   0.680   1.864  0.6055  0.8909  0.0342
 1931SOL    HW117429   0.382   0.679   1.949  2.9224  0.0217  1.1839
 1931SOL    HW217430   0.361   0.619   1.827  0.5391  0.7298  0.4119
 1932SOL     OW17431   4.590   2.325  13.721 -0.4779 -0.2464  0.7950
 1932SOL    HW117432   4.545   2.240  13.724  1.2738 -1.2312 -0.6476
 1932SOL    HW217433   4.658   2.303  13.657 -0.3375  0.2821  0.7634
 1933SOL     OW17434   1.780   3.303   3.826 -0.0073  0.0888  0.0507
 1933SOL    HW117435   1.810   3.371   3.886 -4.8856  1.7923  0.5692
 1933SOL    HW217436   1.712   3.355   3.784 -1.3787  0.0367  2.2000
 1934SOL     OW17437   2.533   1.419  12.147 -0.5467  0.1053  0.3830
 1934SOL    HW117438   2.477   1.470  12.205 -1.7783  0.1814 -0.8818
 1934SOL    HW217439   2.487   1.426  12.063 -0.5697 -3.2311  0.1177
 1935SOL     OW17440   0.131   4.711  10.840  0.3396 -0.0338  0.6617
 1935SOL    HW117441   0.213   4.692  10.886  1.0377  1.7585  0.1665
 1935SOL    HW217442   0.107   0.053  10.893 -0.6803  1.1166 -1.4525
 1936SOL     OW17443   4.626   1.614  16.238 -0.3437  0.4981 -0.8567
 1936SOL    HW117444   4.663   1.696  16.207 -2.0754  1.1148 -1.2912
 1936SOL    HW217445   4.600   1.648  16.324 -2.1525 -0.4409 -1.0349
 1937SOL     OW17446   1.961   1.450   2.366  0.4978 -0.3168  0.2991
 1937SOL    HW117447   1.974   1.484   2.455  0.5227  1.3224 -0.3396
 1937SOL    HW217448   1.922   1.514   2.307 -0.1226 -0.4954  0.5135
 1938SOL     OW17449   2.411   0.194   4.849 -0.4578 -0.4843  0.0699
 1938SOL    HW117450   2.367   0.278   4.833  0.0681  0.1671  1.9901
 1938SOL    HW217451   2.377   0.135   4.782 -0.3602 -1.0523  0.5245
 1939SOL     OW17452   0.125   1.144   3.952  0.3500  0.2634  0.2103
 1939SOL    HW117453   0.165   1.061   3.925  0.3141 -0.2636  1.7759
 1939SOL    HW217454   0.175   1.159   4.032 -0.5768 -0.6837  0.9741
 1940SOL     OW17455   1.701   4.286   5.859  0.2507  0.1463  0.1496
 1940SOL    HW117456   1.699   4.190   5.856  0.4105  0.1171  0.8992
 1940SOL    HW217457   1.654   4.313   5.937  1.8972  0.3657  1.0728
 1941SOL     OW17458   1.782   1.440   1.536  0.3658 -0.0038  0.0150
 1941SOL    HW117459   1.738   1.355   1.530 -3.9842  2.2298  0.5396
 1941SOL    HW217460   1.858   1.410   1.587  0.6023  1.4550  0.5255
 1942SOL     OW17461   4.641   4.029   7.507  0.1961 -0.1796  0.0363
 1942SOL    HW117462   4.607   4.076   7.431 -0.2362 -3.3035 -1.6985
 1942SOL    HW217463   4.710   4.090   7.533 -0.0962  0.6929 -1.2117
 1943SOL     OW17464   0.255   4.182  12.092  0.5044  0.4826  0.9469
 1943SOL    HW117465   0.348   4.192  12.070  0.9496 -2.0033  1.6649
 1943SOL    HW217466   0.251   4.188  12.187 -1.6440 -0.1224  0.8995
 1944SOL     OW17467   1.658   1.778   4.282 -0.2506  0.5047  1.2583
 1944SOL    HW117468   1.702   1.843   4.337  0.3772  2.7542 -1.9261
 1944SOL    HW217469   1.572   1.817   4.264  0.2572 -0.7651 -3.8299
 1945SOL     OW17470   0.762   4.229   1.968  1.0866 -0.2250  0.2166
 1945SOL    HW117471   0.714   4.158   2.011  3.4827 -0.6510  2.1752
 1945SOL    HW217472   0.700   4.243   1.896  1.2503 -0.1065  0.0986
 1946SOL     OW17473   1.546   0.472   4.298 -0.1466  0.0635 -0.2595
 1946SOL    HW117474   1.590   0.556   4.281 -0.5079  0.1087 -0.9660
 1946SOL    HW217475   1.486   0.466   4.224 -1.9471  0.8797  1.1478
 1947SOL     OW17476   4.503   4.012   6.985 -0.4091 -0.4465  0.2232
 1947SOL    HW117477   4.589   4.007   6.944 -0.7875 -1.3122 -0.4512
 1947SOL    HW217478   4.440   3.968   6.928  0.5483 -0.3102 -0.9404
 1948SOL     OW17479   2.365   3.714  14.930  0.0709  0.2222  0.1559
 1948SOL    HW117480   2.410   3.676  14.854  0.2930  0.1810  0.3067
 1948SOL    HW217481   2.277   3.722  14.892  0.7060  3.0943 -0.7423
 1949SOL     OW17482   2.318   3.507   4.294 -0.2083  0.4481  0.7441
 1949SOL    HW117483   2.396   3.500   4.240  0.6416  0.3050  2.0008
 1949SOL    HW217484   2.283   3.419   4.280 -1.2091  0.7524  1.3104
 1950SOL     OW17485   3.413   2.384   1.686  0.3917  0.0900 -0.3116
 1950SOL    HW117486   3.500   2.392   1.647  0.0533  1.6882 -0.7529
 1950SOL    HW217487   3.426   2.448   1.756  0.3734 -1.4212  1.0791
 1951SOL     OW17488   3.607   2.617   6.999 -0.2502  0.4638  0.4061
 1951SOL    HW117489   3.577   2.636   6.910 -2.2384  0.9167  1.1795
 1951SOL    HW217490   3.543   2.665   7.051  0.3241  0.5143  1.0590
 1952SOL     OW17491   2.344   1.741  12.970 -0.0733  0.1281  0.2561
 1952SOL    HW117492   2.382   1.829  12.971  0.4351 -0.1123  2.3382
 1952SOL    HW217493   2.334   1.728  12.876 -1.1340  1.0506  0.2434
 1953SOL     OW17494   4.143   4.387   2.841 -0.5200 -0.4725  0.3980
 1953SOL    HW117495   4.238   4.399   2.847 -0.8179  2.0906  0.0734
 1953SOL    HW217496   4.106   4.371   2.927 -2.3088 -0.8571 -0.4510
 1954SOL     OW17497   4.236   1.094   4.167 -1.2195  0.1004  0.2666
 1954SOL    HW117498   4.277   1.033   4.229 -1.5712 -0.6741 -0.2695
 1954SOL    HW217499   4.184   1.150   4.224 -0.2454  0.3556  0.9129
 1955SOL     OW17500   2.092   3.575   7.771 -0.9234  0.4385 -0.1060
 1955SOL    HW117501   2.172   3.610   7.730  0.6556 -0.2415  2.4197
 1955SOL    HW217502   2.130   3.499   7.813  1.4005  0.4630 -2.1420
 1956SOL     OW17503   3.031   3.991  10.761  0.4295  0.1770 -0.2483
 1956SOL    HW117504   2.949   3.973  10.807 -0.1528  1.5840 -0.7271
 1956SOL    HW217505   3.007   4.067  10.707 -2.2479  0.3447  1.1654
 1957SOL     OW17506   1.224   0.028   1.179  0.4667 -0.0217 -0.1076
 1957SOL    HW117507   1.130   0.035   1.192 -0.0249 -0.5411 -3.5802
 1957SOL    HW217508   1.243   0.093   1.112  2.0569 -1.5036 -1.1058
 1958SOL     OW17509   2.551   3.929  16.951  0.4735  0.2411  0.3625
 1958SOL    HW117510   2.514   3.922  17.039 -1.2340  0.4172 -0.3483
 1958SOL    HW217511   2.485   3.889  16.894 -0.9140  2.6438  0.3095
 1959SOL     OW17512   2.533   3.046   4.222  0.1825 -0.4760 -0.4693
 1959SOL    HW117513   2.456   3.017   4.172  0.7366  0.4767 -1.8817
 1959SOL    HW217514   2.497   3.014   4.304  2.2664 -2.3803 -0.3024
 1960SOL     OW17515   0.426   4.025   6.554  0.5294 -0.1853 -0.3296
 1960SOL    HW117516   0.498   3.988   6.604 -2.7648 -2.2801  2.8384
 1960SOL    HW217517   0.352   4.017   6.614  0.4885  0.6343 -0.2630
 1961SOL     OW17518   4.377   3.349   1.942 -0.6564  0.0393  0.6062
 1961SOL    HW117519   4.300   3.401   1.967 -2.3291 -1.8499 -0.5493
 1961SOL    HW217520   4.335   3.267   1.916 -0.1983  0.0051 -0.0164
 1962SOL     OW17521   0.949   0.456  17.089  0.2171  0.0603  0.2862
 1962SOL    HW117522   0.924   0.386  17.029 -0.1905  0.1184  0.3905
 1962SOL    HW217523   0.865   0.460  17.134 -1.1880  0.2063 -2.4028
 1963SOL     OW17524   0.509   2.066   6.373  0.8713  0.1208 -0.5976
 1963SOL    HW117525   0.566   2.114   6.433 -0.2952  0.3713  0.3268
 1963SOL    HW217526   0.489   1.983   6.417 -0.0602  1.4575  1.5058
 1964SOL     OW17527   4.025   3.267   7.885 -0.0175  0.2256  0.3604
 1964SOL    HW117528   3.958   3.255   7.818  1.6966 -0.1503 -1.3092
 1964SOL    HW217529   3.976   3.299   7.961  2.4195  2.9679  0.7417
 1965SOL     OW17530   1.660   2.959   3.688 -0.1361 -0.7740 -0.2113
 1965SOL    HW117531   1.655   2.908   3.607 -2.1858 -0.0270 -0.5666
 1965SOL    HW217532   1.571   2.956   3.722  0.5042 -1.8706  1.3444
 1966SOL     OW17533   3.566   1.758  12.823 -0.7777  0.8428  0.1766
 1966SOL    HW117534   3.567   1.675  12.870 -0.8812  2.2376  2.6887
 1966SOL    HW217535   3.650   1.752  12.778 -1.1106  0.7439 -0.4318
 1967SOL     OW17536   0.372   4.471   1.676 -0.4028 -0.0003  0.0959
 1967SOL    HW117537   0.378   4.530   1.600 -1.3283 -2.8813 -2.2410
 1967SOL    HW217538   0.297   4.420   1.644 -1.8167  2.1750 -0.0573
 1968SOL     OW17539   0.858   3.357   5.474 -0.6932  0.3157  0.7241
 1968SOL    HW117540   0.855   3.452   5.462  2.5843  0.6613  2.4342
 1968SOL    HW217541   0.789   3.328   5.414  2.1170 -2.8619 -0.9616
 1969SOL     OW17542   4.492   2.338   2.111 -0.0423 -0.3420  0.3079
 1969SOL    HW117543   4.576   2.372   2.143  0.6705  2.2818 -4.3629
 1969SOL    HW217544   4.518   2.251   2.084 -2.0725 -0.8327 -0.0768
 1970SOL     OW17545   3.781   2.463   8.904 -0.9176 -0.8797 -0.1225
 1970SOL    HW117546   3.874   2.475   8.885 -0.7969  0.0442  1.0839
 1970SOL    HW217547   3.751   2.544   8.863 -0.6872 -0.9024 -0.3384
 1971SOL     OW17548   2.713   0.373   4.827  0.6108  0.5237 -0.3560
 1971SOL    HW117549   2.776   0.367   4.755 -0.2057  1.0369 -1.1136
 1971SOL    HW217550   2.766   0.430   4.883  0.2987  0.4121  0.0549
 1972SOL     OW17551   0.590   1.992  16.245  0.4206  0.2578  0.1930
 1972SOL    HW117552   0.511   1.938  16.247  1.6990 -1.6676 -1.0726
 1972SOL    HW217553   0.633   1.981  16.330 -2.6867 -0.2453  1.7099
 1973SOL     OW17554   2.954   2.285   8.592 -0.3080  0.1842  0.2569
 1973SOL    HW117555   2.900   2.356   8.627  0.7387  0.3824  1.4406
 1973SOL    HW217556   2.943   2.297   8.498  1.7569 -0.9751 -0.1223
 1974SOL     OW17557   2.432   2.146   2.274 -0.0276  1.0661  0.1708
 1974SOL    HW117558   2.441   2.051   2.277 -1.2251  0.9280 -1.0027
 1974SOL    HW217559   2.348   2.147   2.321 -0.2874  2.2871 -0.3283
 1975SOL     OW17560   2.073   2.008  15.119  0.2737 -0.3563  0.7740
 1975SOL    HW117561   1.998   2.048  15.162 -0.8777  2.4896 -3.9838
 1975SOL    HW217562   2.153   2.043  15.160 -0.4309  1.8610  0.2481
 1976SOL     OW17563   0.118   1.575   7.216  0.3640  0.0249  0.2489
 1976SOL    HW117564   0.134   1.485   7.187 -1.6071 -0.5870  1.0898
 1976SOL    HW217565   0.027   1.586   7.188  0.4589 -0.5883 -0.3021
 1977SOL     OW17566   0.257   3.053  10.311  0.4516 -0.2562 -0.0289
 1977SOL    HW117567   0.233   3.044  10.219 -0.5661 -0.8299  0.2903
 1977SOL    HW217568   0.349   3.029  10.307 -0.5102 -3.8515 -1.1202
 1978SOL     OW17569   1.539   0.666   1.431  0.0801 -0.3292 -0.3819
 1978SOL    HW117570   1.538   0.630   1.343  1.8943 -1.1660 -0.0641
 1978SOL    HW217571   1.585   0.600   1.484 -0.2968  0.4323  0.9051
 1979SOL     OW17572   2.134   1.058   5.015  0.3779 -0.0675  0.3087
 1979SOL    HW117573   2.137   1.152   5.036  1.0765 -0.0936  0.3248
 1979SOL    HW217574   2.041   1.037   5.024  1.1246 -2.8714  1.3724
 1980SOL     OW17575   2.560   4.586   8.745 -0.8352 -0.0679  0.0178
 1980SOL    HW117576   2.575   4.567   8.653  0.9851 -0.0864  0.3153
 1980SOL    HW217577   2.647   4.565   8.779 -1.0554  1.1157  1.3537
 1981SOL     OW17578   1.891   0.723   4.082 -0.2542  0.2685  0.2339
 1981SOL    HW117579   1.824   0.702   4.147  1.7702  0.7131  2.4431
 1981SOL    HW217580   1.962   0.761   4.133 -2.5011 -0.5622  3.9778
 1982SOL     OW17581   3.206   0.793   8.273 -0.7200  0.0905  0.1432
 1982SOL    HW117582   3.141   0.724   8.287 -1.0468  0.1408 -1.0715
 1982SOL    HW217583   3.190   0.806   8.179 -0.4087  1.2826  0.2482
 1983SOL     OW17584   3.771   2.739   3.570 -0.2710  0.2328  0.3168
 1983SOL    HW117585   3.840   2.673   3.578  0.0975  0.1885 -3.3919
 1983SOL    HW217586   3.688   2.697   3.549 -0.5556  1.2572 -0.6045
 1984SOL     OW17587   3.997   0.018   2.268 -0.5162 -0.9955 -0.0804
 1984SOL    HW117588   3.923   4.692   2.263 -2.5725  1.5850 -0.8514
 1984SOL    HW217589   3.974   0.078   2.197 -1.1500  0.0277  0.9914
 1985SOL     OW17590   3.611   1.373   6.651  0.6324 -0.8135  0.2844
 1985SOL    HW117591   3.575   1.320   6.722  0.5658 -0.2930  0.6343
 1985SOL    HW217592   3.635   1.459   6.685 -0.7491 -0.2667 -0.1159
 1986SOL     OW17593   3.862   2.449   1.854 -0.3218 -0.6671 -0.1028
 1986SOL    HW117594   3.888   2.446   1.946  1.6604  1.3700 -0.5946
 1986SOL    HW217595   3.794   2.516   1.850 -0.6676 -1.1440 -2.2780
 1987SOL     OW17596   4.625   0.728   1.106  0.6299  0.0608 -0.2676
 1987SOL    HW117597   4.679   0.654   1.076 -1.2500 -1.9679  1.3443
 1987SOL    HW217598   4.658   0.804   1.058  0.7615 -0.2263 -0.6361
 1988SOL     OW17599   1.973   2.249   5.736 -0.2718 -0.0352 -0.2225
 1988SOL    HW117600   1.953   2.341   5.720 -1.6086 -0.2978 -0.0534
 1988SOL    HW217601   1.982   2.223   5.644  2.0477  1.2306 -0.3597
 1989SOL     OW17602   1.588   3.877   3.635 -0.3456  0.0801  0.1939
 1989SOL    HW117603   1.524   3.905   3.570 -0.5763 -1.8897 -0.4455
 1989SOL    HW217604   1.632   3.803   3.592 -2.4323 -0.4622 -0.9989
 1990SOL     OW17605   3.317   0.600   8.061  0.1608 -0.3087 -0.0994
 1990SOL    HW117606   3.281   0.511   8.064  2.3338 -1.1164  2.8234
 1990SOL    HW217607   3.256   0.644   8.003  1.1707  1.8684  0.4985
 1991SOL     OW17608   3.586   2.661   0.213 -0.3695 -0.0517 -0.3731
 1991SOL    HW117609   3.604   2.591   0.275  0.6474 -1.2336 -2.0096
 1991SOL    HW217610   3.626   2.729   0.268  2.6213 -1.1170 -1.2426
 1992SOL     OW17611   4.578   3.279   4.469  0.1161  0.8542 -0.4527
 1992SOL    HW117612   4.638   3.336   4.518 -0.2210  0.1685  0.7627
 1992SOL    HW217613   4.634   3.216   4.425  1.0342  0.6688  0.9977
 1993SOL     OW17614   1.993   4.068  16.464 -0.0038 -0.0284  0.1339
 1993SOL    HW117615   1.998   4.159  16.493  0.9879  0.2442 -0.8929
 1993SOL    HW217616   1.918   4.074  16.406  0.1340 -0.2300 -0.0641
 1994SOL     OW17617   0.459   0.471   9.530 -1.1292 -0.4567 -0.1797
 1994SOL    HW117618   0.479   0.528   9.455  1.1461 -0.3535  0.5217
 1994SOL    HW217619   0.538   0.484   9.581 -0.3662 -0.2778 -1.3964
 1995SOL     OW17620   3.400   2.013   0.408 -0.4965  0.2721  0.0578
 1995SOL    HW117621   3.489   1.988   0.383 -0.7213  0.3700 -0.8527
 1995SOL    HW217622   3.355   1.937   0.371 -2.2465  1.6876 -0.6935
 1996SOL     OW17623   1.232   0.672   1.561 -0.0557  1.1095  0.1626
 1996SOL    HW117624   1.292   0.644   1.631  1.9506  0.5469 -1.7696
 1996SOL    HW217625   1.293   0.689   1.489 -1.6437 -1.1508 -1.7264
 1997SOL     OW17626   1.165   1.901   8.628 -0.8509  0.2844 -0.7216
 1997SOL    HW117627   1.216   1.820   8.632 -1.0435  0.3028  2.0360
 1997SOL    HW217628   1.212   1.956   8.566 -1.7347  2.1939  0.3200
 1998SOL     OW17629   1.954   2.969   2.442 -0.7017  0.3549 -0.4182
 1998SOL    HW117630   2.046   2.982   2.464 -0.2237 -3.0325 -0.5629
 1998SOL    HW217631   1.928   3.053   2.403  1.0056  0.1590 -1.9741
 1999SOL     OW17632   1.014   2.908   5.105  0.3716  0.1195 -0.6644
 1999SOL    HW117633   0.964   2.974   5.058 -0.4798 -0.1413 -0.1292
 1999SOL    HW217634   1.088   2.892   5.046 -0.2935  0.1674 -1.5002
 2000SOL     OW17635   1.419   1.569   7.362  0.0458 -0.6179 -0.0856
 2000SOL    HW117636   1.374   1.497   7.407 -0.9035  0.8358  1.2826
 2000SOL    HW217637   1.388   1.557   7.272 -0.5056  0.5298 -0.0503
 2001SOL     OW17638   1.814   4.331   1.010 -0.1708 -0.7010 -0.0754
 2001SOL    HW117639   1.850   4.328   1.099 -0.8341 -3.6543  0.0661
 2001SOL    HW217640   1.773   4.246   1.001  1.0909 -0.9030 -3.6746
 2002SOL     OW17641   3.547   1.998   7.475 -0.4290  0.2437  0.2022
 2002SOL    HW117642   3.467   1.954   7.505  0.8920 -1.8158  0.7326
 2002SOL    HW217643   3.509   2.058   7.411  1.9792 -0.2754 -1.7403
 2003SOL     OW17644   0.271   0.475   9.103  0.5080 -0.8626 -0.0130
 2003SOL    HW117645   0.257   0.381   9.107 -1.0281 -0.5635  1.6407
 2003SOL    HW217646   0.240   0.486   9.013  0.9446 -1.9472 -0.2925
 2004SOL     OW17647   2.007   0.848   8.275  0.0968  0.5022  0.7984
 2004SOL    HW117648   2.061   0.926   8.265  0.3491  0.1077 -0.9128
 2004SOL    HW217649   2.053   0.782   8.224  1.4192  2.7909 -0.9898
 2005SOL     OW17650   3.828   1.761   3.808  0.0359  0.4054 -0.6631
 2005SOL    HW117651   3.803   1.733   3.896 -1.9497 -0.1541 -1.4064
 2005SOL    HW217652   3.913   1.716   3.807  0.4711  1.2011  0.0829
 2006SOL     OW17653   1.970   0.227   5.627 -0.0604  0.3537  0.2646
 2006SOL    HW117654   1.903   0.163   5.605  0.3462  0.0082  0.0208
 2006SOL    HW217655   1.923   0.271   5.697  1.1724 -0.2712  1.4921
 2007SOL     OW17656   4.194   3.515   7.896  0.0919  0.5928  0.1553
 2007SOL    HW117657   4.263   3.464   7.854 -0.0806  0.1146  0.4485
 2007SOL    HW217658   4.161   3.573   7.828 -0.0142 -1.8986 -1.9109
 2008SOL     OW17659   3.927   0.342  17.502  0.3208 -0.2495  0.0921
 2008SOL    HW117660   3.992   0.401  17.464 -1.8691  1.3437 -1.0990
 2008SOL    HW217661   3.933   0.264  17.447  1.8544  0.7868 -1.1957
 2009SOL     OW17662   1.426   4.033   3.489 -0.0704  0.0703 -0.2950
 2009SOL    HW117663   1.349   4.049   3.436  0.1623  1.5499 -0.1694
 2009SOL    HW217664   1.493   4.086   3.445  2.8450 -3.9008 -0.6706
 2010SOL     OW17665   0.049   1.163   1.363 -0.0702 -0.2574  0.3243
 2010SOL    HW117666   0.119   1.113   1.320  0.6866  1.5519 -0.5606
 2010SOL    HW217667   0.070   1.139   1.453  0.4539  0.8625  0.5076
 2011SOL     OW17668   0.612   2.490   3.112 -0.3837  0.0746  0.0401
 2011SOL    HW117669   0.692   2.467   3.159  0.5801  0.4122 -1.4243
 2011SOL    HW217670   0.579   2.564   3.163  0.4188 -1.0275  2.1639
 2012SOL     OW17671   4.047   0.718  15.459 -0.1162 -0.1147 -1.1199
 2012SOL    HW117672   4.051   0.808  15.493  2.2394 -0.8639  0.5819
 2012SOL    HW217673   4.089   0.669  15.530 -0.0796  1.2702 -0.1902
 2013SOL     OW17674   1.161   2.305  17.489  0.5283  0.0211  0.0669
 2013SOL    HW117675   1.144   2.361  17.564 -0.0690  0.2843 -0.2665
 2013SOL    HW217676   1.093   2.330  17.426 -0.4012 -0.3835  0.9200
 2014SOL     OW17677   0.109   1.937   1.698  0.3195 -0.2140 -0.4115
 2014SOL    HW117678   0.171   1.868   1.673  0.3471 -0.0726 -0.7344
 2014SOL    HW217679   0.024   1.903   1.670 -0.1802  0.4285  0.3312
 2015SOL     OW17680   2.773   0.753  16.753  0.5622 -0.7094  0.2354
 2015SOL    HW117681   2.733   0.786  16.673  2.9834 -1.0653 -1.1129
 2015SOL    HW217682   2.827   0.675  16.736  1.7525  0.3609 -0.8321
 2016SOL     OW17683   1.155   2.427  12.718  0.0009 -0.4656  0.2016
 2016SOL    HW117684   1.165   2.343  12.672 -0.5685 -0.3245 -0.1772
 2016SOL    HW217685   1.106   2.394  12.793 -1.4490  1.2469  0.0106
 2017SOL     OW17686   2.151   3.306   2.138 -0.0291 -0.0361 -0.0507
 2017SOL    HW117687   2.208   3.272   2.070 -2.1915  0.9135 -2.3101
 2017SOL    HW217688   2.216   3.310   2.209 -2.1918  3.2104  1.7107
 2018SOL     OW17689   4.357   2.959   8.801 -0.3788 -0.1937  0.0497
 2018SOL    HW117690   4.393   3.047   8.815 -1.9014  0.0618  2.3747
 2018SOL    HW217691   4.416   2.931   8.731 -0.9617  0.0761 -0.5451
 2019SOL     OW17692   1.519   2.767   7.685 -0.5296  0.2828 -0.0515
 2019SOL    HW117693   1.486   2.737   7.769  2.0903 -1.1551  0.4643
 2019SOL    HW217694   1.587   2.827   7.717 -0.2062 -0.0074 -0.1930
 2020SOL     OW17695   3.076   3.325   3.611  0.7962  0.2770  0.4657
 2020SOL    HW117696   3.135   3.252   3.589 -1.7289 -1.0098 -2.0123
 2020SOL    HW217697   3.081   3.369   3.527  2.1746 -0.6743  0.0370
 2021SOL     OW17698   0.287   0.556   3.171  0.0519 -0.0129 -0.3518
 2021SOL    HW117699   0.210   0.520   3.216 -0.3064  0.6251 -0.4574
 2021SOL    HW217700   0.286   0.486   3.106 -2.6428  0.1986 -0.5259
 2022SOL     OW17701   2.067   3.800  16.973  0.3452  0.0720 -0.4499
 2022SOL    HW117702   2.145   3.749  16.995 -0.4648  0.3397  2.9359
 2022SOL    HW217703   2.057   3.767  16.884  0.8329 -0.2497 -0.3856
 2023SOL     OW17704   1.357   4.513   7.857 -0.0147  0.4039  0.4001
 2023SOL    HW117705   1.353   4.447   7.926  0.2979  0.9036  0.8873
 2023SOL    HW217706   1.401   4.586   7.900 -2.0464  1.4113  0.7550
 2024SOL     OW17707   1.048   3.111   8.163  0.1729 -0.4462  0.3361
 2024SOL    HW117708   1.115   3.124   8.096  0.4905  0.5369  0.8310
 2024SOL    HW217709   1.081   3.062   8.238 -1.6941  0.4430  1.7159
 2025SOL     OW17710   0.990   3.533   4.639  0.8856  0.0448 -0.1145
 2025SOL    HW117711   1.046   3.573   4.573 -0.1344  1.7780  0.0718
 2025SOL    HW217712   0.919   3.487   4.594  0.4923 -1.0405  1.6096
 2026SOL     OW17713   1.630   2.233   4.440 -0.2088  0.5919  0.5437
 2026SOL    HW117714   1.616   2.142   4.466  0.3048  0.0074 -1.1892
 2026SOL    HW217715   1.641   2.270   4.527  3.8044  0.6796  0.0069
 2027SOL     OW17716   3.408   0.906   1.661 -0.3538 -0.6586 -0.2737
 2027SOL    HW117717   3.487   0.883   1.612  1.4316  0.9480  1.8301
 2027SOL    HW217718   3.332   0.906   1.603  0.4934 -0.0498 -1.3858
 2028SOL     OW17719   4.128   4.509  10.037  0.0641  0.7553 -0.1520
 2028SOL    HW117720   4.210   4.484   9.996  0.0390 -0.9598  0.8956
 2028SOL    HW217721   4.141   4.472  10.124 -1.4789  2.9463  1.0278
 2029SOL     OW17722   1.605   1.490  10.661 -0.2644  0.2811 -0.1744
 2029SOL    HW117723   1.560   1.448  10.734  1.3512 -0.0289  0.6392
 2029SOL    HW217724   1.593   1.421  10.595  0.7819 -0.2405  0.1816
 2030SOL     OW17725   3.492   0.588   7.293 -0.6720 -0.8327  0.1075
 2030SOL    HW117726   3.454   0.549   7.214 -2.5922 -2.1581  1.6772
 2030SOL    HW217727   3.456   0.676   7.286  0.4797 -0.2688  1.4161
 2031SOL     OW17728   4.670   2.795   2.701 -0.4411 -0.1651  0.7954
 2031SOL    HW117729   0.020   2.796   2.747  0.1110  0.8173 -0.2467
 2031SOL    HW217730   4.686   2.851   2.625 -0.1954  0.5068  1.3455
 2032SOL     OW17731   3.999   1.568   3.557 -0.1603 -0.1132  0.4707
 2032SOL    HW117732   3.904   1.578   3.564 -0.4404 -0.9786 -1.9252
 2032SOL    HW217733   4.022   1.589   3.647 -1.7268  1.6795  0.4382
 2033SOL     OW17734   3.430   3.650   7.134  0.1673  0.0422 -0.1625
 2033SOL    HW117735   3.335   3.645   7.141  0.1026  1.4141 -0.1112
 2033SOL    HW217736   3.447   3.556   7.142 -1.7628 -0.2719  0.0565
 2034SOL     OW17737   0.903   4.591   2.634  0.6387 -0.0873 -0.5766
 2034SOL    HW117738   0.927   4.673   2.676  0.9616 -0.3072 -0.3326
 2034SOL    HW217739   0.953   4.526   2.684  0.3747 -0.1356 -0.3717
 2035SOL     OW17740   1.493   3.666   5.765  0.2018  0.4860 -0.2663
 2035SOL    HW117741   1.473   3.578   5.796 -0.0704  0.0103 -1.8043
 2035SOL    HW217742   1.544   3.649   5.686  2.6392  2.1590  0.9222
 2036SOL     OW17743   4.403   2.617   9.403 -0.3535 -0.8993  0.1277
 2036SOL    HW117744   4.379   2.709   9.401 -1.4473 -1.1417  1.4312
 2036SOL    HW217745   4.361   2.582   9.325 -1.4269 -1.4379  0.9402
 2037SOL     OW17746   4.640   0.969   3.858 -0.1694 -0.2882  0.4001
 2037SOL    HW117747   4.679   0.886   3.833  0.9225 -0.2516  1.9309
 2037SOL    HW217748   4.666   1.026   3.785 -1.0457 -1.0495 -0.4903
 2038SOL     OW17749   0.535   0.202   2.247 -0.9949  0.4588  0.2627
 2038SOL    HW117750   0.446   0.236   2.252 -1.1587  0.3985 -2.6408
 2038SOL    HW217751   0.577   0.280   2.211  1.8174 -0.7571  0.8764
 2039SOL     OW17752   3.410   1.853  12.081  0.5651 -0.8710  0.0890
 2039SOL    HW117753   3.338   1.817  12.030  1.1799 -0.4567 -1.0839
 2039SOL    HW217754   3.365   1.913  12.140 -1.4605 -0.9852 -1.3660
 2040SOL     OW17755   2.389   0.776   6.876  0.1965 -0.4690 -0.8452
 2040SOL    HW117756   2.475   0.749   6.844 -0.5410 -1.6149 -1.8599
 2040SOL    HW217757   2.328   0.744   6.809  0.7567 -2.2378 -0.5106
 2041SOL     OW17758   1.201   3.082   3.219 -0.2631 -0.0286 -0.6572
 2041SOL    HW117759   1.227   3.142   3.289 -0.6137 -0.5368 -0.0917
 2041SOL    HW217760   1.224   3.137   3.143  2.1244  1.4822  1.1603
 2042SOL     OW17761   4.401   1.110  14.767 -0.5618  0.1779  0.4108
 2042SOL    HW117762   4.407   1.203  14.742  0.0917 -0.4150 -1.6420
 2042SOL    HW217763   4.451   1.104  14.849  1.8335 -3.6003 -1.3611
 2043SOL     OW17764   4.693   1.307  15.921 -0.1379  0.0969 -0.1877
 2043SOL    HW117765   4.661   1.233  15.869  1.3151  1.2604 -2.6865
 2043SOL    HW217766   4.732   1.374  15.866  0.1239 -0.5942 -0.8419
 2044SOL     OW17767   0.754   0.918   9.848  0.3369 -0.0845  0.3390
 2044SOL    HW117768   0.844   0.897   9.825  0.3877 -0.1554  0.6020
 2044SOL    HW217769   0.755   1.007   9.814  0.8049 -1.8862 -4.3623
 2045SOL     OW17770   3.187   3.629   7.461 -0.0358 -0.0733 -0.4284
 2045SOL    HW117771   3.116   3.568   7.484 -0.8643  1.0691  0.0058
 2045SOL    HW217772   3.259   3.577   7.497  0.0348  0.4245  0.1521
 2046SOL     OW17773   3.216   3.601  15.861  0.5329 -0.6279  0.6609
 2046SOL    HW117774   3.308   3.623  15.877  0.4318 -0.3216  0.8303
 2046SOL    HW217775   3.187   3.669  15.801 -0.1064  1.2604  3.1222
 2047SOL     OW17776   0.012   2.278  16.274  0.0425  0.2088 -0.0095
 2047SOL    HW117777   4.685   2.207  16.293  0.8999 -0.4058  0.4537
 2047SOL    HW217778   4.705   2.349  16.323 -0.1509 -0.2999  0.5656
 2048SOL     OW17779   0.227   0.437   1.296  0.0225 -0.1524  0.0549
 2048SOL    HW117780   0.141   0.475   1.314 -0.3074 -1.6935  1.7448
 2048SOL    HW217781   0.280   0.513   1.319 -0.0421 -0.4264  1.1351
 2049SOL     OW17782   2.333   3.933  11.065 -0.1122 -0.5872  0.8111
 2049SOL    HW117783   2.255   3.981  11.094 -0.7627 -0.4847 -1.1447
 2049SOL    HW217784   2.364   3.891  11.145  1.7981  0.8628  0.8323
 2050SOL     OW17785   2.718   4.309   6.557  0.1131 -0.6817 -0.2192
 2050SOL    HW117786   2.792   4.348   6.605 -1.2570  0.2915  1.0776
 2050SOL    HW217787   2.683   4.386   6.513  0.5973 -0.0063  0.5762
 2051SOL     OW17788   3.511   1.781   6.013 -0.2480 -0.2291  0.1532
 2051SOL    HW117789   3.513   1.685   6.016 -0.6036 -0.2588 -0.7958
 2051SOL    HW217790   3.486   1.790   5.921  1.0525 -1.4148 -0.3164
 2052SOL     OW17791   0.924   4.550  15.680 -0.8127 -0.0021  0.3427
 2052SOL    HW117792   0.884   4.466  15.657 -0.0523 -0.3607  0.3070
 2052SOL    HW217793   0.984   4.520  15.748 -0.7337  0.5256  0.5089
 2053SOL     OW17794   3.644   2.961   0.687 -0.2150  0.6205  0.3059
 2053SOL    HW117795   3.560   2.979   0.729  0.2975  0.5826  1.3579
 2053SOL    HW217796   3.706   2.997   0.751 -0.0982  0.7205  0.1367
 2054SOL     OW17797   0.850   2.706   4.542  0.3149  0.3767  0.2353
 2054SOL    HW117798   0.794   2.682   4.616 -2.4283 -0.5841 -2.1533
 2054SOL    HW217799   0.817   2.793   4.518  2.9154  1.5164  0.8096
 2055SOL     OW17800   3.757   4.719  14.252  0.1312  0.0520  0.0862
 2055SOL    HW117801   3.806   0.032  14.184 -2.0095  0.9180 -0.8500
 2055SOL    HW217802   3.799   0.032  14.323 -0.0723 -1.3713  1.1570
 2056SOL     OW17803   3.003   0.623  16.457 -0.3834  0.1534 -0.7137
 2056SOL    HW117804   2.930   0.592  16.511  0.4481 -0.2376  0.1846
 2056SOL    HW217805   3.071   0.583  16.512  0.1093  1.3311 -0.4749
 2057SOL     OW17806   3.074   0.809   1.670  0.2789  0.1227 -0.0994
 2057SOL    HW117807   3.016   0.882   1.691  0.2823  0.3794 -0.9717
 2057SOL    HW217808   3.099   0.789   1.760  2.0572 -1.7365 -1.0057
 2058SOL     OW17809   3.055   2.289  11.212  0.0888 -0.1169  0.4156
 2058SOL    HW117810   2.963   2.311  11.200  0.4976  0.3964 -1.9228
 2058SOL    HW217811   3.077   2.277  11.119  0.4460  0.8300  0.3840
 2059SOL     OW17812   1.034   4.203  11.858  0.7022  0.0932  0.4277
 2059SOL    HW117813   1.070   4.118  11.835 -1.0982 -0.1172 -1.5956
 2059SOL    HW217814   0.978   4.215  11.781  1.9897 -0.5242 -0.5901
 2060SOL     OW17815   3.084   0.414   7.756  0.3932  0.0987  0.0295
 2060SOL    HW117816   3.110   0.502   7.781 -0.5711 -0.2637  2.2912
 2060SOL    HW217817   3.052   0.373   7.836  0.3818 -0.4738 -0.2622
 2061SOL     OW17818   1.444   2.055   9.643  0.2853  0.3507  0.1771
 2061SOL    HW117819   1.375   2.077   9.706  1.3795 -0.8361  1.8063
 2061SOL    HW217820   1.497   2.008   9.708 -1.2876  1.3487  2.1961
 2062SOL     OW17821   4.030   3.322  17.219 -0.5360 -0.3162  0.6206
 2062SOL    HW117822   4.103   3.292  17.165  0.6025  0.3084  1.8018
 2062SOL    HW217823   3.960   3.315  17.155 -1.4466  2.0907  1.3607
 2063SOL     OW17824   3.257   0.463  14.409  0.5706 -0.4561  0.3486
 2063SOL    HW117825   3.179   0.457  14.464  0.5969 -0.2220  0.4144
 2063SOL    HW217826   3.227   0.495  14.324  1.4751 -1.9853 -0.5326
 2064SOL     OW17827   4.642   1.393   4.687  0.3678  0.4006  0.4012
 2064SOL    HW117828   4.734   1.401   4.712  0.4517 -0.8253  0.4855
 2064SOL    HW217829   4.651   1.365   4.596  0.4483 -0.7373  0.7590
 2065SOL     OW17830   3.531   0.343   8.858  0.6166 -0.4622 -0.6033
 2065SOL    HW117831   3.568   0.421   8.816  1.0754  0.4425  1.4712
 2065SOL    HW217832   3.589   0.331   8.933 -0.5899  0.3206  0.4416
 2066SOL     OW17833   2.293   2.208   2.568 -0.2528 -0.7740  0.2962
 2066SOL    HW117834   2.344   2.138   2.607 -1.6373 -0.1234  3.2698
 2066SOL    HW217835   2.246   2.166   2.496 -0.8929  0.4803 -0.0345
 2067SOL     OW17836   3.014   1.808  13.934  0.0118 -0.2032  0.4082
 2067SOL    HW117837   3.017   1.890  13.983 -1.7514 -0.4135  0.8683
 2067SOL    HW217838   2.978   1.843  13.853  0.7289  0.3970  0.3438
 2068SOL     OW17839   2.881   3.648   0.523  0.0829  0.1429 -0.5691
 2068SOL    HW117840   2.937   3.571   0.534  0.1782  0.3764  0.5194
 2068SOL    HW217841   2.921   3.706   0.587  1.0853 -1.9942  0.7222
 2069SOL     OW17842   0.620   4.223   5.442  0.5395  0.2272  0.5663
 2069SOL    HW117843   0.561   4.162   5.397  0.9451 -0.4055  0.8827
 2069SOL    HW217844   0.682   4.170   5.492  1.0487 -3.7998 -4.3443
 2070SOL     OW17845   3.687   2.461   2.176 -0.3786 -0.3204 -0.1695
 2070SOL    HW117846   3.716   2.545   2.212 -2.3946  0.0763  0.4944
 2070SOL    HW217847   3.772   2.421   2.156  0.3461  1.2439 -0.2735
 2071SOL     OW17848   1.094   1.650   3.525 -0.1664 -0.0626 -0.2293
 2071SOL    HW117849   1.078   1.691   3.610 -1.5397 -1.2016  0.0583
 2071SOL    HW217850   1.062   1.715   3.462  0.7475  2.2252  1.6484
 2072SOL     OW17851   1.437   1.343   1.521  0.1822  0.5780  0.7234
 2072SOL    HW117852   1.527   1.320   1.544  0.1941  0.5108  0.6110
 2072SOL    HW217853   1.452   1.346   1.426 -0.3400  0.1497  0.6313
 2073SOL     OW17854   2.755   4.372  15.688 -0.4879 -0.2406  0.2819
 2073SOL    HW117855   2.810   4.450  15.676  1.0469 -1.6600 -2.0101
 2073SOL    HW217856   2.814   4.300  15.664 -0.0408  0.2338 -0.0371
 2074SOL     OW17857   4.727   3.684   0.318 -0.4646 -0.1380 -0.2239
 2074SOL    HW117858   0.011   3.768   0.275 -1.1822  0.8422  1.4070
 2074SOL    HW217859   4.657   3.653   0.260 -0.8060  0.5496 -0.1773
 2075SOL     OW17860   2.917   1.440   6.181 -0.0382 -0.1043 -0.0505
 2075SOL    HW117861   2.955   1.365   6.137 -0.0251 -0.9142  1.3331
 2075SOL    HW217862   2.975   1.510   6.152  0.0831 -0.4213 -0.5597
 2076SOL     OW17863   3.265   3.287  12.689 -0.2346 -0.4765  0.0182
 2076SOL    HW117864   3.200   3.355  12.706  0.0220 -0.0000 -0.9263
 2076SOL    HW217865   3.223   3.233  12.622  0.1504  0.3263 -0.8539
 2077SOL     OW17866   4.131   3.047   5.958  0.2325 -0.2806  0.0821
 2077SOL    HW117867   4.097   3.081   6.041 -0.4940 -1.3378  0.2260
 2077SOL    HW217868   4.076   2.969   5.965  0.1723 -0.5009 -2.6661
 2078SOL     OW17869   0.504   4.398   8.794 -0.2101  0.5161 -0.1669
 2078SOL    HW117870   0.583   4.438   8.831  2.0684 -0.2862 -4.1317
 2078SOL    HW217871   0.518   4.304   8.795 -0.2521  0.5231  1.4547
 2079SOL     OW17872   2.430   1.280   4.950 -1.0136  0.0637 -0.0469
 2079SOL    HW117873   2.427   1.189   4.979 -0.8422 -0.0006 -0.2322
 2079SOL    HW217874   2.361   1.317   5.005 -1.6830 -0.3121 -0.6421
 2080SOL     OW17875   3.296   1.543   2.915 -0.1064  0.1536  0.3019
 2080SOL    HW117876   3.248   1.587   2.845  2.1212  0.4428 -1.0298
 2080SOL    HW217877   3.362   1.610   2.928 -0.2414 -0.1974  2.8313
 2081SOL     OW17878   3.771   2.667  13.863 -0.6620  0.7577 -0.0547
 2081SOL    HW117879   3.787   2.723  13.939  0.7823 -0.5970  0.6572
 2081SOL    HW217880   3.853   2.677  13.816 -0.9149 -0.3882 -0.7412
 2082SOL     OW17881   4.327   2.323   6.763  0.6363 -0.7051 -0.3111
 2082SOL    HW117882   4.333   2.228   6.778  2.1777 -0.4087  0.9946
 2082SOL    HW217883   4.417   2.356   6.759  0.2657  0.0708 -2.1047
 2083SOL     OW17884   3.153   2.131   8.114 -0.1534  0.3853  0.5329
 2083SOL    HW117885   3.146   2.226   8.112 -0.3831  0.3294 -1.0841
 2083SOL    HW217886   3.228   2.117   8.056 -0.4578 -2.3768  0.8253
 2084SOL     OW17887   4.112   0.255   6.700  0.0711  0.0265  0.1165
 2084SOL    HW117888   4.075   0.181   6.747  1.7499 -0.2844  0.9586
 2084SOL    HW217889   4.124   0.325   6.764  1.4406  2.1008 -2.4271
 2085SOL     OW17890   4.678   1.222   6.103  0.1504 -0.1538 -0.5146
 2085SOL    HW117891   4.728   1.211   6.023 -0.6761 -1.3321 -0.8743
 2085SOL    HW217892   4.627   1.297   6.073 -0.1360  0.2069  0.8709
 2086SOL     OW17893   1.270   2.063   1.706  0.0351  0.0723 -0.2294
 2086SOL    HW117894   1.225   2.142   1.737  0.4439  0.0361  0.4526
 2086SOL    HW217895   1.356   2.082   1.744 -0.9678  0.4173  1.8561
 2087SOL     OW17896   3.579   2.381   4.699  0.4182 -0.0335 -0.3799
 2087SOL    HW117897   3.489   2.401   4.722  0.7271  0.3043  0.5168
 2087SOL    HW217898   3.587   2.287   4.714 -1.6686  0.1068  1.4721
 2088SOL     OW17899   4.437   2.329   5.468  0.1239 -0.3590  0.1256
 2088SOL    HW117900   4.361   2.300   5.418  0.9473 -0.9996 -0.7606
 2088SOL    HW217901   4.485   2.248   5.484  0.1813 -0.4649 -0.5712
 2089SOL     OW17902   0.056   0.174   4.717 -0.2336  0.4306 -0.2894
 2089SOL    HW117903   0.066   0.173   4.812 -0.8404  1.3329 -0.2121
 2089SOL    HW217904   0.122   0.241   4.698 -0.2124  0.8082  1.1586
 2090SOL     OW17905   4.265   2.321   0.080 -0.2555  0.5744  0.1688
 2090SOL    HW117906   4.262   2.363  17.730 -0.4120 -0.8629 -0.5335
 2090SOL    HW217907   4.346   2.359   0.114 -0.4650  1.2888 -0.1301
 2091SOL     OW17908   1.994   1.093  13.070 -0.8309  0.6858  0.4246
 2091SOL    HW117909   2.006   1.103  13.164  1.1589  3.5251 -0.1315
 2091SOL    HW217910   2.019   1.180  13.039  0.4062 -0.1964 -1.0267
 2092SOL     OW17911   2.418   0.680   1.515  0.1170 -0.0902  0.0141
 2092SOL    HW117912   2.336   0.631   1.517 -1.4486  2.5276 -0.0511
 2092SOL    HW217913   2.459   0.653   1.597 -1.5860  1.1328  1.2661
 2093SOL     OW17914   3.551   3.563   4.649 -0.0315 -0.0690 -0.3609
 2093SOL    HW117915   3.632   3.598   4.611 -1.1709  3.2057  0.2473
 2093SOL    HW217916   3.548   3.473   4.619 -0.5012 -0.4086  0.7065
 2094SOL     OW17917   3.234   0.773  10.044  0.1251  0.5848  0.5583
 2094SOL    HW117918   3.228   0.687  10.002 -1.5112  0.6661  0.6471
 2094SOL    HW217919   3.318   0.772  10.091  1.0070  1.0281 -0.9866
 2095SOL     OW17920   4.015   4.015   7.805 -0.1202 -0.7026 -0.4443
 2095SOL    HW117921   3.929   4.023   7.845 -0.2181 -1.3319 -0.5235
 2095SOL    HW217922   4.069   3.974   7.873  1.4321 -0.4223 -1.4915
 2096SOL     OW17923   1.207   4.611   2.024 -0.4121  0.2709  0.4798
 2096SOL    HW117924   1.123   4.566   2.031 -1.0607  1.4304  0.1290
 2096SOL    HW217925   1.269   4.545   2.056  0.5440  1.4127  1.0011
 2097SOL     OW17926   2.282   1.890   6.797  0.1492  0.2194  0.2259
 2097SOL    HW117927   2.279   1.982   6.771  0.1591 -0.6667 -2.8328
 2097SOL    HW217928   2.314   1.897   6.887 -0.2491 -0.8825  0.4591
 2098SOL     OW17929   3.604   3.652  10.023  0.4478 -0.0093 -0.1795
 2098SOL    HW117930   3.517   3.669   9.987  1.2178  2.1731 -0.9938
 2098SOL    HW217931   3.577   3.659  10.115 -0.8253 -1.5081 -0.4442
 2099SOL     OW17932   1.705   3.061  13.480  0.2791  0.1478  0.3975
 2099SOL    HW117933   1.788   3.027  13.513  0.2472 -0.2956  0.0251
 2099SOL    HW217934   1.684   2.996  13.413  1.5877  0.2340 -0.1083
 2100SOL     OW17935   1.501   2.778   4.175  0.1039 -0.8106  0.1474
 2100SOL    HW117936   1.570   2.755   4.112  1.3631  0.0729  1.2064
 2100SOL    HW217937   1.539   2.854   4.219  1.1106 -1.1575 -0.1192
 2101SOL     OW17938   3.102   2.607   7.939 -1.1593  0.7187  0.0019
 2101SOL    HW117939   3.035   2.601   7.871 -1.5896 -0.7499  0.5724
 2101SOL    HW217940   3.169   2.655   7.889  0.0963  0.5840  1.5575
 2102SOL     OW17941   1.275   1.424  17.354 -0.3203 -0.0093  0.2786
 2102SOL    HW117942   1.283   1.336  17.391 -1.3250 -0.3790 -0.3635
 2102SOL    HW217943   1.346   1.413  17.292 -0.4056  2.8765 -0.3175
 2103SOL     OW17944   3.435   3.004   3.502  0.2676  0.0853 -0.0089
 2103SOL    HW117945   3.515   2.997   3.553  1.2723  1.1343 -1.4680
 2103SOL    HW217946   3.424   2.911   3.486  0.8729  0.2051 -1.1279
 2104SOL     OW17947   2.646   1.124   5.362 -0.3163 -0.0667  0.0910
 2104SOL    HW117948   2.605   1.183   5.424  2.2122 -0.1145  1.8099
 2104SOL    HW217949   2.578   1.092   5.303 -1.3727  1.3953  0.5348
 2105SOL     OW17950   1.111   4.685  11.826 -0.5848 -0.1936  0.4242
 2105SOL    HW117951   1.163   4.620  11.780 -0.6762 -1.7048  2.4538
 2105SOL    HW217952   1.031   4.669  11.776  0.4219  0.7921 -1.4994
 2106SOL     OW17953   2.079   4.710   7.461  0.5613  0.7592 -0.1644
 2106SOL    HW117954   2.002   0.021   7.494 -0.2252 -0.2149 -0.6812
 2106SOL    HW217955   2.148   0.008   7.519  1.0749  2.6937 -1.8572
 2107SOL     OW17956   0.925   3.416   7.191 -0.5302  0.6277 -0.2276
 2107SOL    HW117957   0.902   3.397   7.282  1.5627  0.5567  0.2678
 2107SOL    HW217958   1.019   3.400   7.193 -0.5626  0.4937  0.2619
 2108SOL     OW17959   3.742   1.871   5.198 -0.1510 -0.5062  0.0905
 2108SOL    HW117960   3.707   1.874   5.287  1.4742  1.7970  0.6421
 2108SOL    HW217961   3.660   1.869   5.148 -0.8465  3.4641  1.1161
 2109SOL     OW17962   3.038   3.442   8.755  0.0514 -0.2513 -0.3737
 2109SOL    HW117963   3.112   3.499   8.739  1.5548 -1.7332  1.3054
 2109SOL    HW217964   3.004   3.484   8.834  1.0749  0.3882 -0.2818
 2110SOL     OW17965   4.410   4.172   1.983 -0.9467 -0.7427  0.3938
 2110SOL    HW117966   4.339   4.125   1.940 -1.6256  0.6598 -0.0123
 2110SOL    HW217967   4.437   4.116   2.055  0.0298 -0.2712  0.4061
 2111SOL     OW17968   0.591   3.722   3.593  0.1389  0.4895  0.3357
 2111SOL    HW117969   0.547   3.773   3.661  4.0548  0.2965  2.9536
 2111SOL    HW217970   0.513   3.670   3.569 -0.6990  2.5536 -1.3879
 2112SOL     OW17971   2.700   0.327   9.625 -0.4004 -0.1022  0.1982
 2112SOL    HW117972   2.788   0.322   9.587 -0.6752  1.3194 -0.6007
 2112SOL    HW217973   2.666   0.406   9.584 -1.1783 -0.7632 -0.4346
 2113SOL     OW17974   0.697   1.700  16.708  0.0091  0.0501 -0.4134
 2113SOL    HW117975   0.678   1.748  16.627 -0.8035  0.2272 -0.1165
 2113SOL    HW217976   0.618   1.715  16.760  0.4001  0.4224  0.0673
 2114SOL     OW17977   4.633   4.623   8.582 -0.5215 -0.5954 -0.1530
 2114SOL    HW117978   4.708   4.683   8.585 -0.1458 -1.0276 -0.8027
 2114SOL    HW217979   4.573   4.688   8.546  0.9510  0.0046 -1.5505
 2115SOL     OW17980   1.107   2.698   7.378 -0.0078  0.2765  0.3267
 2115SOL    HW117981   1.056   2.683   7.458 -0.5964 -1.3238 -0.3404
 2115SOL    HW217982   1.172   2.627   7.378 -1.7879 -1.3486 -1.7863
 2116SOL     OW17983   0.526   2.345  14.031 -0.3416 -0.2583  0.0688
 2116SOL    HW117984   0.436   2.375  14.018  0.4210  2.0694  0.1578
 2116SOL    HW217985   0.556   2.394  14.108  0.4879 -2.1572  0.9495
 2117SOL     OW17986   2.249   3.606   4.987  0.6067 -0.9215 -0.5331
 2117SOL    HW117987   2.260   3.520   5.028  1.6186  0.9605  3.1954
 2117SOL    HW217988   2.192   3.647   5.052  1.4757 -1.9917  0.9146
 2118SOL     OW17989   1.558   3.843  10.357 -0.1018  0.1712  0.5989
 2118SOL    HW117990   1.610   3.782  10.305 -2.4759 -0.2515 -1.3418
 2118SOL    HW217991   1.479   3.792  10.377 -0.5779  0.4950 -0.4353
 2119SOL     OW17992   2.011   2.051   3.564  0.0590  0.7334 -0.5838
 2119SOL    HW117993   2.089   2.072   3.514 -0.1483  0.9887 -0.7985
 2119SOL    HW217994   1.978   2.141   3.571  0.8586  1.1282 -2.0043
 2120SOL     OW17995   4.066   1.156   2.338 -0.6665  0.3896 -0.2649
 2120SOL    HW117996   4.007   1.226   2.367  1.1724  1.7495  0.2288
 2120SOL    HW217997   4.132   1.162   2.406 -1.0585 -1.2369  0.2531
 2121SOL     OW17998   2.438   4.395   6.294  0.0539  0.2071  0.2658
 2121SOL    HW117999   2.527   4.361   6.303  0.6509  2.0904  1.5760
 2121SOL    HW218000   2.404   4.387   6.384 -2.1497 -1.6331 -0.7249
 2122SOL     OW18001   3.337   2.470   8.165 -0.2428 -0.1710 -0.0718
 2122SOL    HW118002   3.329   2.490   8.258  0.0767 -0.0839 -0.0614
 2122SOL    HW218003   3.388   2.542   8.128 -1.2679  0.3780 -0.4279
 2123SOL     OW18004   1.622   3.531   1.895  0.2667 -0.3748  0.5030
 2123SOL    HW118005   1.659   3.446   1.923 -1.2873 -0.8743  1.0318
 2123SOL    HW218006   1.648   3.526   1.803  1.2686 -1.6791  0.8461
 2124SOL     OW18007   4.337   2.890   5.692 -0.0622  0.3195  0.7387
 2124SOL    HW118008   4.308   2.798   5.691  1.1486 -0.0319 -2.4337
 2124SOL    HW218009   4.253   2.927   5.664 -0.6159 -0.8278  0.8325
 2125SOL     OW18010   1.145   2.012  11.834  0.1923 -0.0860 -0.1952
 2125SOL    HW118011   1.153   2.082  11.899  0.9131  0.5789 -1.0007
 2125SOL    HW218012   1.050   2.002  11.824 -0.1053  1.8369  0.7980
 2126SOL     OW18013   0.143   0.257  16.775 -0.0621  0.3459 -0.5352
 2126SOL    HW118014   0.226   0.275  16.732  0.4422 -0.2089  0.1989
 2126SOL    HW218015   0.085   0.306  16.717 -0.5406 -2.2289 -2.2471
 2127SOL     OW18016   2.834   3.536   0.012  0.2723  0.2589  0.3810
 2127SOL    HW118017   2.857   3.599  17.680 -3.7394  0.5782 -0.6927
 2127SOL    HW218018   2.753   3.578   0.039  0.9580  0.3121  2.3467
 2128SOL     OW18019   0.071   2.191  11.909 -0.5965  0.0665  0.1969
 2128SOL    HW118020   0.151   2.148  11.941 -0.5072  1.3558  1.6962
 2128SOL    HW218021   0.082   2.283  11.935 -0.6093 -0.2434  1.3016
 2129SOL     OW18022   4.328   3.273   8.685  0.5516 -0.2451  0.2989
 2129SOL    HW118023   4.352   3.357   8.646  0.4780 -0.2124  0.3243
 2129SOL    HW218024   4.418   3.243   8.698  1.4913  1.1916 -2.8831
 2130SOL     OW18025   4.628   3.619  15.633 -0.4596  0.2372 -0.1117
 2130SOL    HW118026   4.622   3.524  15.649  1.3681  0.5713  2.5334
 2130SOL    HW218027   4.669   3.641  15.717  1.1185  0.6402 -1.0042
 2131SOL     OW18028   3.797   1.709  16.547 -0.3395  0.5110  0.2452
 2131SOL    HW118029   3.766   1.623  16.576  1.1585 -0.4589 -1.1059
 2131SOL    HW218030   3.761   1.721  16.459  0.7542  1.1276 -0.1157
 2132SOL     OW18031   3.973   2.236   3.117 -0.0444  0.0083  0.1606
 2132SOL    HW118032   4.035   2.163   3.116 -0.8353 -0.6556 -0.4263
 2132SOL    HW218033   3.900   2.189   3.077  0.4120 -1.1469  0.6534
 2133SOL     OW18034   2.064   2.534   3.423 -0.0422 -0.1132  0.8274
 2133SOL    HW118035   1.977   2.574   3.422 -1.5693 -3.4499 -1.1670
 2133SOL    HW218036   2.125   2.598   3.388 -1.6278  0.1230 -1.5191
 2134SOL     OW18037   1.162   4.142   4.508  0.0205  0.2891 -0.0695
 2134SOL    HW118038   1.225   4.075   4.534 -0.8111 -0.8448 -0.9916
 2134SOL    HW218039   1.216   4.221   4.515  0.0669  0.3596 -1.1005
 2135SOL     OW18040   2.737   2.604   4.131  0.6158  0.1282 -0.5325
 2135SOL    HW118041   2.817   2.582   4.179 -0.8324  0.0246  1.8864
 2135SOL    HW218042   2.755   2.696   4.111  1.3118  0.4367  1.4596
 2136SOL     OW18043   2.361   3.818  11.563  0.1519 -0.4202  0.4545
 2136SOL    HW118044   2.274   3.813  11.604 -0.1351 -0.2074 -0.1353
 2136SOL    HW218045   2.389   3.727  11.571  1.2250  0.0939  2.4897
 2137SOL     OW18046   0.480   2.459   3.903 -0.1129 -0.1665 -0.6235
 2137SOL    HW118047   0.516   2.470   3.991 -1.3538  1.4735 -0.3398
 2137SOL    HW218048   0.488   2.364   3.893 -0.3137 -0.3067  0.5686
 2138SOL     OW18049   2.769   0.328   8.713  0.1579 -0.4965  0.5457
 2138SOL    HW118050   2.785   0.236   8.690  0.8769 -0.2433  0.0351
 2138SOL    HW218051   2.766   0.372   8.628 -3.7860  2.0365  1.9942
 2139SOL     OW18052   4.671   2.820   5.340  0.5142 -0.3910  0.2799
 2139SOL    HW118053   0.018   2.806   5.292  0.7775 -0.7682  0.8298
 2139SOL    HW218054   4.606   2.797   5.273 -0.9085  1.7591  0.9091
 2140SOL     OW18055   0.129   2.227   1.708 -0.0954  0.2221  0.2236
 2140SOL    HW118056   0.166   2.234   1.620 -0.9791 -0.4117 -0.2042
 2140SOL    HW218057   0.127   2.132   1.721 -1.0416  0.0564 -1.1458
 2141SOL     OW18058   1.342   0.396  12.513 -0.5765  0.1486  0.1820
 2141SOL    HW118059   1.385   0.475  12.481 -0.7104 -0.0357 -0.4462
 2141SOL    HW218060   1.251   0.427  12.518 -0.4463  0.6256 -0.5283
 2142SOL     OW18061   2.591   3.960  11.066 -0.2930 -0.1525 -0.1534
 2142SOL    HW118062   2.498   3.967  11.044 -0.8487 -1.0599  1.8962
 2142SOL    HW218063   2.579   3.935  11.157  0.2637  1.1784  0.2865
 2143SOL     OW18064   1.606   4.080   2.791 -0.0777  0.0330  0.2162
 2143SOL    HW118065   1.629   4.047   2.878  1.5679 -1.0793 -0.6419
 2143SOL    HW218066   1.642   4.169   2.798 -1.5800  0.7395 -1.0118
 2144SOL     OW18067   3.553   2.825   6.666  0.3858  0.4125 -0.2143
 2144SOL    HW118068   3.493   2.875   6.610  1.7524  1.2333 -0.9488
 2144SOL    HW218069   3.632   2.846   6.617 -0.5363  2.0878 -1.0077
 2145SOL     OW18070   4.046   0.574   7.380 -0.2347  0.0879 -0.2167
 2145SOL    HW118071   4.005   0.660   7.367  0.8630  0.9297  1.9496
 2145SOL    HW218072   4.130   0.607   7.409 -1.0047  2.3371 -0.5339
 2146SOL     OW18073   3.118   1.789   8.510  0.5966  0.5148 -0.7542
 2146SOL    HW118074   3.148   1.861   8.454 -1.2655  2.1340  0.2990
 2146SOL    HW218075   3.195   1.783   8.566 -0.9229 -0.4164  1.2377
 2147SOL     OW18076   1.449   2.635   7.919  0.3032  0.0140  0.5272
 2147SOL    HW118077   1.418   2.546   7.930  1.1026 -0.2334  0.7830
 2147SOL    HW218078   1.493   2.653   8.003  0.5769  0.1952  0.3446
 2148SOL     OW18079   2.565   4.270   7.244 -0.3598  0.2573 -0.0671
 2148SOL    HW118080   2.554   4.246   7.152 -0.7335  0.4716 -0.0781
 2148SOL    HW218081   2.584   4.363   7.228 -0.8330  0.7867  2.3955
 2149SOL     OW18082   3.934   0.684   5.948 -0.2090  0.2339  0.0171
 2149SOL    HW118083   3.883   0.667   6.026  0.1452  0.1258  0.2272
 2149SOL    HW218084   4.022   0.707   5.978 -0.6817  2.4406 -0.2903
 2150SOL     OW18085   3.019   4.538   9.385 -0.2332 -0.1263  0.2602
 2150SOL    HW118086   3.062   4.472   9.439  1.2880  1.3683  0.8501
 2150SOL    HW218087   3.011   4.493   9.301  1.2023  0.2492 -0.0842
 2151SOL     OW18088   1.385   2.966   8.778  0.3336  0.0994 -0.3154
 2151SOL    HW118089   1.473   3.002   8.769  0.6957 -0.7800 -0.3112
 2151SOL    HW218090   1.340   3.041   8.818  0.1934  0.4362 -1.1016
 2152SOL     OW18091   2.288   0.498   0.201 -0.4767 -0.2065  0.9989
 2152SOL    HW118092   2.201   0.485   0.240 -0.7002  0.6310  0.7939
 2152SOL    HW218093   2.304   0.593   0.205 -3.0678  0.2405  1.0259
 2153SOL     OW18094   2.433   2.947  13.109 -0.1255 -0.2800 -0.0927
 2153SOL    HW118095   2.439   2.992  13.025  2.1842  0.3577  0.4145
 2153SOL    HW218096   2.516   2.972  13.149 -0.2624 -1.9674  1.2762
 2154SOL     OW18097   0.482   0.828   6.203 -0.0082 -0.7421 -0.1638
 2154SOL    HW118098   0.420   0.829   6.130 -1.2786  1.0122  0.9428
 2154SOL    HW218099   0.487   0.733   6.214 -1.2526 -0.9150 -1.1072
 2155SOL     OW18100   3.305   3.088   2.553 -0.0032 -0.0094 -0.4381
 2155SOL    HW118101   3.370   3.021   2.533 -1.0911 -0.7966 -1.3324
 2155SOL    HW218102   3.335   3.112   2.641 -1.8719  1.9801 -0.3300
 2156SOL     OW18103   0.841   3.829   4.878 -0.1643 -0.1348 -0.7678
 2156SOL    HW118104   0.798   3.823   4.792 -1.8338  1.1582 -0.0292
 2156SOL    HW218105   0.886   3.745   4.878  0.7304  0.3524  1.4880
 2157SOL     OW18106   2.229   0.024   3.520  0.3267 -0.2909 -0.2937
 2157SOL    HW118107   2.245   0.012   3.426  0.2265  1.2684 -0.5254
 2157SOL    HW218108   2.138   0.053   3.509  0.0914 -1.1205 -0.5510
 2158SOL     OW18109   0.833   0.277   3.637  0.2560  0.3574 -0.2817
 2158SOL    HW118110   0.891   0.329   3.582 -0.7856 -1.0129 -2.6342
 2158SOL    HW218111   0.838   0.197   3.585 -0.3946 -0.0241  0.2504
 2159SOL     OW18112   1.675   4.315   1.779 -0.0169 -0.3221 -0.3082
 2159SOL    HW118113   1.591   4.278   1.749  0.4422 -1.7114  0.1240
 2159SOL    HW218114   1.648   4.405   1.798 -0.2821 -0.3487 -0.5517
 2160SOL     OW18115   0.570   4.487   4.261 -0.3556  0.2360  0.6816
 2160SOL    HW118116   0.642   4.545   4.237  0.4229 -1.0991 -0.1935
 2160SOL    HW218117   0.492   4.527   4.222  0.5740 -1.0953 -2.5048
 2161SOL     OW18118   3.398   4.134   2.357 -0.1446  0.0511 -0.3460
 2161SOL    HW118119   3.472   4.076   2.370 -0.0320  0.2174 -0.2391
 2161SOL    HW218120   3.348   4.134   2.438 -2.0286  1.6097 -1.4865
 2162SOL     OW18121   1.830   0.688   8.898 -0.4381  0.3283  0.7002
 2162SOL    HW118122   1.897   0.677   8.965  1.4639  2.4331 -0.8537
 2162SOL    HW218123   1.753   0.647   8.937 -1.1819  1.6238  0.5786
 2163SOL     OW18124   3.041   1.042   3.897 -0.1864  0.1092 -0.5857
 2163SOL    HW118125   3.113   1.055   3.960 -0.5625 -3.5399  0.6115
 2163SOL    HW218126   2.967   1.082   3.943  0.3097 -1.6656  1.7516
 2164SOL     OW18127   3.369   3.349   9.944  1.1434 -0.1891 -0.8018
 2164SOL    HW118128   3.330   3.289   9.880 -0.0944 -0.3700  0.1210
 2164SOL    HW218129   3.436   3.391   9.890  1.7519 -0.5229 -0.3178
 2165SOL     OW18130   0.720   0.811   2.294 -0.8702 -0.4889  0.7904
 2165SOL    HW118131   0.789   0.858   2.342 -0.6329 -4.1929  4.1086
 2165SOL    HW218132   0.757   0.809   2.206  0.6806  0.5562  1.4085
 2166SOL     OW18133   3.687   1.571   2.264 -0.6617 -0.1484  0.7046
 2166SOL    HW118134   3.697   1.664   2.241  0.0111 -0.1629  0.9640
 2166SOL    HW218135   3.765   1.534   2.224 -0.0198 -0.2950  2.1070
 2167SOL     OW18136   0.455   0.589   7.000  0.1260 -0.8733 -0.6255
 2167SOL    HW118137   0.392   0.548   7.058 -0.2240  1.9143  0.9414
 2167SOL    HW218138   0.403   0.600   6.920  2.7517  2.7592 -1.8268
 2168SOL     OW18139   2.243   0.659   5.177 -0.2857 -0.4401 -0.0431
 2168SOL    HW118140   2.148   0.661   5.168 -0.0917  2.2392 -1.5944
 2168SOL    HW218141   2.249   0.572   5.217  0.1361 -0.5773 -0.4030
 2169SOL     OW18142   4.053   2.923  13.898 -0.3308 -0.4351 -0.0460
 2169SOL    HW118143   4.014   3.010  13.885  0.6161  0.2142  1.3837
 2169SOL    HW218144   4.056   2.916  13.993  4.6650 -2.8232 -0.3912
 2170SOL     OW18145   3.346   4.084  12.740 -0.4462 -0.3707  0.3055
 2170SOL    HW118146   3.363   4.173  12.710  0.3351 -1.0848 -1.3835
 2170SOL    HW218147   3.373   4.035  12.662 -3.3751 -1.5331  0.0306
 2171SOL     OW18148   2.641   1.143   8.781 -0.0406 -0.5542  0.1437
 2171SOL    HW118149   2.590   1.113   8.705 -1.3017  1.0762  0.3270
 2171SOL    HW218150   2.570   1.159   8.843 -0.6672 -0.6627 -0.5398
 2172SOL     OW18151   3.116   3.640  16.501 -0.2446  0.0719  0.0097
 2172SOL    HW118152   3.136   3.595  16.419  2.5199  1.4841 -0.1049
 2172SOL    HW218153   3.066   3.572  16.546  0.0198 -0.0189  0.1656
 2173SOL     OW18154   1.151   3.352   5.010  0.3377  0.1157  0.2738
 2173SOL    HW118155   1.205   3.406   5.067  0.5646 -0.6325  0.7767
 2173SOL    HW218156   1.155   3.268   5.057 -2.8815 -0.2243 -0.0490
 2174SOL     OW18157   4.633   4.646  12.614  0.0696  0.4750  0.0438
 2174SOL    HW118158   4.675   4.585  12.674  0.1941  0.8581  0.3494
 2174SOL    HW218159   4.563   4.587  12.587  0.0434  1.2485 -1.5995
 2175SOL     OW18160   2.289   4.299   9.345  0.0165  0.4232 -0.1185
 2175SOL    HW118161   2.230   4.242   9.393  0.7749 -0.5799 -0.3740
 2175SOL    HW218162   2.342   4.325   9.420 -1.6108 -0.0488  1.1913
 2176SOL     OW18163   1.521   1.644   2.263  0.3295  0.3932 -0.2585
 2176SOL    HW118164   1.433   1.672   2.289 -0.1582 -1.3229 -0.0507
 2176SOL    HW218165   1.518   1.562   2.313  1.8057 -0.6399 -1.8450
 2177SOL     OW18166   1.184   0.351   1.385 -0.6544 -0.2637  0.1913
 2177SOL    HW118167   1.097   0.312   1.376 -0.8858  0.2731  0.0868
 2177SOL    HW218168   1.187   0.358   1.480 -0.2601  0.1518  0.1479
 2178SOL     OW18169   2.166   0.067   3.121 -0.0088  0.7407 -0.5009
 2178SOL    HW118170   2.212   4.724   3.154 -1.7049  0.6728  1.7262
 2178SOL    HW218171   2.075   0.055   3.149  0.0375 -3.4283 -2.1036
 2179SOL     OW18172   3.121   4.287  15.146 -0.1313  0.1552  0.0116
 2179SOL    HW118173   3.209   4.298  15.180  0.2790 -2.1869 -0.3008
 2179SOL    HW218174   3.129   4.300  15.051  1.8234  1.4045  0.3484
 2180SOL     OW18175   3.801   0.612   2.236 -0.6320  0.6946 -0.1696
 2180SOL    HW118176   3.729   0.555   2.264 -0.7832  1.0626  0.1986
 2180SOL    HW218177   3.780   0.691   2.286 -0.8815  0.3797  0.2199
 2181SOL     OW18178   2.027   2.940   4.816  0.6549 -1.0091 -0.1062
 2181SOL    HW118179   2.063   2.851   4.814  0.0278 -1.2466 -0.6378
 2181SOL    HW218180   1.934   2.931   4.799  0.4264 -0.2160  0.7561
 2182SOL     OW18181   1.040   1.712   3.237  0.5156  0.0435 -0.6191
 2182SOL    HW118182   0.970   1.772   3.262  1.6091  0.7311  0.7286
 2182SOL    HW218183   1.102   1.773   3.197  1.1479 -0.0031  0.2957
 2183SOL     OW18184   4.164   4.675   7.626 -0.1771 -0.1248 -0.4514
 2183SOL    HW118185   4.122   4.599   7.586 -1.4483  0.4664 -0.2292
 2183SOL    HW218186   4.110   4.684   7.704 -2.4437 -0.5687 -1.9810
 2184SOL     OW18187   0.365   4.000   7.719  0.1525 -0.0806 -0.1527
 2184SOL    HW118188   0.449   4.024   7.759 -0.4936  2.8308 -0.5227
 2184SOL    HW218189   0.318   3.989   7.802 -0.0862  1.1337 -0.1218
 2185SOL     OW18190   0.795   3.223   0.852  0.5280 -0.3744  0.4453
 2185SOL    HW118191   0.821   3.152   0.910 -1.3113 -0.1895  1.4833
 2185SOL    HW218192   0.773   3.288   0.919  1.0877  1.7089 -1.3632
 2186SOL     OW18193   2.391   4.221   4.730  0.4959  0.3930 -0.3029
 2186SOL    HW118194   2.349   4.179   4.805 -1.0018  1.0228 -0.7732
 2186SOL    HW218195   2.335   4.299   4.732 -0.1950 -0.1003 -0.5400
 2187SOL     OW18196   2.590   4.174   4.035 -0.5368 -0.0424 -0.5035
 2187SOL    HW118197   2.580   4.111   4.107  0.0068 -0.9553 -1.2185
 2187SOL    HW218198   2.596   4.104   3.970  1.6775  0.0100 -0.3529
 2188SOL     OW18199   0.235   1.645   0.672  0.4475 -0.0494 -0.0962
 2188SOL    HW118200   0.238   1.564   0.722  1.4695 -1.0736 -1.8551
 2188SOL    HW218201   0.212   1.701   0.746 -1.2478 -0.3761 -0.3812
 2189SOL     OW18202   3.360   3.233   5.087 -0.0779  0.0395 -0.0511
 2189SOL    HW118203   3.447   3.255   5.120 -0.9980  2.9990  0.3519
 2189SOL    HW218204   3.312   3.310   5.116  1.6143  1.1054 -0.0798
 2190SOL     OW18205   1.023   4.583   7.917  0.7115  0.2537  0.1375
 2190SOL    HW118206   1.052   4.572   8.008 -1.1843 -1.9867  0.4522
 2190SOL    HW218207   1.097   4.633   7.881 -0.5382  0.3333 -2.3377
 2191SOL     OW18208   0.953   0.352  12.272  0.0648  0.1877  0.3539
 2191SOL    HW118209   0.890   0.281  12.271  0.6871 -0.3503 -0.3580
 2191SOL    HW218210   0.893   0.426  12.280  2.0842  1.9511 -0.7512
 2192SOL     OW18211   3.422   4.174   8.393  0.0808  0.3058  0.2690
 2192SOL    HW118212   3.391   4.194   8.482  1.6139  1.3884  0.5533
 2192SOL    HW218213   3.444   4.083   8.413 -0.1048  0.7058  2.3274
 2193SOL     OW18214   2.551   3.005   3.257 -0.5724  0.2833 -0.0693
 2193SOL    HW118215   2.565   2.972   3.168  2.0111  2.6301 -0.5550
 2193SOL    HW218216   2.534   3.099   3.254 -2.5954 -0.0133  2.1407
 2194SOL     OW18217   4.490   1.607   7.692 -0.2119  0.3067 -0.1940
 2194SOL    HW118218   4.512   1.689   7.735  0.6449 -0.7242  1.3138
 2194SOL    HW218219   4.558   1.548   7.723 -0.5937  0.5156  1.0394
 2195SOL     OW18220   3.832   0.843   1.119 -0.0848 -0.1611  0.5214
 2195SOL    HW118221   3.872   0.908   1.061  0.6857 -1.9882 -0.9638
 2195SOL    HW218222   3.891   0.848   1.194 -0.2835 -1.8411  0.7730
 2196SOL     OW18223   3.112   4.630   9.843 -0.0384 -0.3466 -0.0036
 2196SOL    HW118224   3.081   4.698   9.783  2.5356  0.7864 -0.0439
 2196SOL    HW218225   3.197   4.618   9.802 -0.4119 -0.7785 -0.6571
 2197SOL     OW18226   4.280   2.020   8.069 -0.4550  0.3835  0.1120
 2197SOL    HW118227   4.255   2.112   8.062 -1.3195 -0.1008 -2.8561
 2197SOL    HW218228   4.209   1.980   8.119 -0.6589  0.8480  0.1952
 2198SOL     OW18229   2.543   3.588  15.110 -0.3371 -0.3113  0.1084
 2198SOL    HW118230   2.560   3.538  15.030 -0.0363 -1.5361  0.9477
 2198SOL    HW218231   2.496   3.665  15.079 -1.5792 -0.7457  0.9628
 2199SOL     OW18232   4.160   0.423  11.458  0.6941 -0.0736 -0.0410
 2199SOL    HW118233   4.095   0.360  11.427  0.0621  0.5984 -0.0752
 2199SOL    HW218234   4.130   0.502  11.415  1.2128  1.3062  2.1199
 2200SOL     OW18235   3.288   4.314   3.693 -0.1212 -0.3843 -0.4283
 2200SOL    HW118236   3.297   4.359   3.609 -0.1073  1.9571  0.8241
 2200SOL    HW218237   3.257   4.391   3.740 -0.2891  0.0076 -1.1875
 2201SOL     OW18238   1.582   2.127   0.803  0.5381  0.0364  0.2377
 2201SOL    HW118239   1.638   2.051   0.814 -0.0998 -0.3143  1.0517
 2201SOL    HW218240   1.643   2.186   0.848  0.9715  0.1682 -0.5215
 2202SOL     OW18241   1.722   3.426   3.078  0.2765 -0.1474  0.1601
 2202SOL    HW118242   1.667   3.398   3.151 -0.0432  0.2249  0.0595
 2202SOL    HW218243   1.810   3.422   3.115  0.7660 -0.3155 -1.0095
 2203SOL     OW18244   1.184   2.646  10.297 -0.5395  0.2875 -0.0008
 2203SOL    HW118245   1.230   2.724  10.326 -1.2389  0.5057  0.5087
 2203SOL    HW218246   1.169   2.605  10.382  2.1168 -0.2089  0.2438
 2204SOL     OW18247   4.222   4.044   4.629  0.3269 -0.7221  0.1658
 2204SOL    HW118248   4.135   4.084   4.622  0.1762 -0.7557  1.8980
 2204SOL    HW218249   4.238   3.993   4.549  0.8530 -0.8578  0.3539
 2205SOL     OW18250   1.166   1.915   2.387  0.3256 -0.8952  0.4031
 2205SOL    HW118251   1.145   1.931   2.295 -0.1758  2.1874  1.0348
 2205SOL    HW218252   1.186   1.822   2.391  0.9909 -0.7961 -0.5774
 2206SOL     OW18253   2.110   0.604   9.589  0.5914 -0.2376 -0.0248
 2206SOL    HW118254   2.071   0.653   9.662  0.5127 -2.7092  1.5896
 2206SOL    HW218255   2.133   0.673   9.527  0.2973 -1.1662 -1.1575
 2207SOL     OW18256   2.964   0.977  14.273  0.6855  0.4341 -0.0864
 2207SOL    HW118257   2.894   0.971  14.208  0.6021  0.9457 -0.0403
 2207SOL    HW218258   3.031   0.912  14.249 -0.1216 -0.8729  1.1881
 2208SOL     OW18259   0.028   1.462  10.521 -0.3898  0.0544 -0.4605
 2208SOL    HW118260   0.061   1.475  10.432  2.6816 -0.3602  0.6060
 2208SOL    HW218261   0.107   1.421  10.555 -1.8164 -1.9819  0.3841
 2209SOL     OW18262   0.011   2.394  14.005  0.2157 -0.4136 -0.2454
 2209SOL    HW118263   0.006   2.475  13.955 -2.7200  0.3575  1.2977
 2209SOL    HW218264   4.686   2.342  13.952 -0.5608 -1.1254  1.3165
 2210SOL     OW18265   1.308   0.575   2.083  0.4412  0.4635 -0.1448
 2210SOL    HW118266   1.377   0.510   2.092  1.1702  1.1761 -0.6394
 2210SOL    HW218267   1.270   0.574   2.171  2.4229 -1.2418  0.6998
 2211SOL     OW18268   1.308   3.487  11.334  0.1407  0.3490 -0.1984
 2211SOL    HW118269   1.247   3.555  11.305  0.4823  0.1673 -1.3605
 2211SOL    HW218270   1.341   3.474  11.245  1.3185  0.2570  0.2487
 2212SOL     OW18271   0.155   4.016   5.658  0.0785 -0.4954 -0.0779
 2212SOL    HW118272   0.091   4.079   5.691  1.3902 -0.0303  1.6220
 2212SOL    HW218273   0.227   4.024   5.721 -2.5062 -0.2726  2.8091
 2213SOL     OW18274   0.789   2.177   7.377  0.0161 -0.9050 -0.0240
 2213SOL    HW118275   0.842   2.145   7.451 -2.3395 -0.3857  1.8998
 2213SOL    HW218276   0.811   2.269   7.390  0.8994 -0.6959 -3.2103
 2214SOL     OW18277   4.650   0.173   2.961 -0.9266 -0.2545  0.0947
 2214SOL    HW118278   4.659   0.250   2.904  0.8014  1.0702  2.2015
 2214SOL    HW218279   4.569   0.195   3.007  0.1606  1.2607  1.2807
 2215SOL     OW18280   3.196   4.635  12.868  0.0213 -0.4348  0.3759
 2215SOL    HW118281   3.225   4.545  12.854  0.7950  0.4468 -3.7929
 2215SOL    HW218282   3.240   4.682  12.797 -3.9555 -0.0753 -1.8450
 2216SOL     OW18283   1.827   4.041   7.065 -0.5369  0.4952  0.5683
 2216SOL    HW118284   1.789   4.052   7.152 -3.4722 -0.7014 -0.5791
 2216SOL    HW218285   1.877   3.960   7.068  1.8128  1.9514  1.3164
 2217SOL     OW18286   4.289   3.153   6.940 -0.0423  0.8147 -0.2140
 2217SOL    HW118287   4.344   3.230   6.927 -2.2264  2.5442  0.9833
 2217SOL    HW218288   4.325   3.096   6.872 -1.1249 -0.7229  0.4987
 2218SOL     OW18289   3.668   3.161   2.484 -0.0379 -0.0263  0.0719
 2218SOL    HW118290   3.608   3.221   2.528  0.1534 -0.6406  1.1722
 2218SOL    HW218291   3.648   3.082   2.534  1.8620 -0.8336 -0.4499
 2219SOL     OW18292   3.240   3.233  13.521 -0.0611  0.7096  0.6121
 2219SOL    HW118293   3.330   3.202  13.535 -0.0094 -0.3108 -1.8665
 2219SOL    HW218294   3.195   3.152  13.496 -2.6293  1.9664  1.2910
 2220SOL     OW18295   3.084   3.845   2.889 -0.0899  0.0657 -0.0555
 2220SOL    HW118296   3.168   3.813   2.858  0.9190 -0.7724  3.5249
 2220SOL    HW218297   3.039   3.876   2.811 -2.8662  0.9554  1.8669
 2221SOL     OW18298   2.653   4.706   7.862 -0.0830  0.1925 -0.1826
 2221SOL    HW118299   2.633   0.041   7.798 -1.3740  1.1426  1.2635
 2221SOL    HW218300   2.566   4.680   7.890  0.2978  1.5946  2.2614
 2222SOL     OW18301   1.080   2.559   3.319  0.1851  0.4500 -0.2744
 2222SOL    HW118302   1.111   2.620   3.386  3.3376 -2.7850  1.1701
 2222SOL    HW218303   1.086   2.622   3.247 -0.7492 -1.1787 -1.7857
 2223SOL     OW18304   1.870   0.197   7.916  0.0226  0.3100  0.4324
 2223SOL    HW118305   1.914   0.262   7.970  0.4527  0.5206 -0.1687
 2223SOL    HW218306   1.954   0.163   7.887 -0.2096 -0.1557  0.3041
 2224SOL     OW18307   4.493   2.358  14.515 -0.3106  0.6654 -0.0689
 2224SOL    HW118308   4.538   2.393  14.439  2.5370  0.8634  1.7100
 2224SOL    HW218309   4.566   2.356  14.577  0.3794  0.2387 -0.8931
 2225SOL     OW18310   4.156   0.338   4.096 -0.5729 -0.0633  0.2519
 2225SOL    HW118311   4.099   0.262   4.088  2.6103 -2.4042 -0.4057
 2225SOL    HW218312   4.122   0.382   4.019  0.1911 -0.0470 -0.0800
 2226SOL     OW18313   4.235   3.397   8.127 -0.2054 -0.0352 -0.1914
 2226SOL    HW118314   4.246   3.302   8.121  3.0994  0.3768 -0.6645
 2226SOL    HW218315   4.222   3.425   8.036  0.4650  0.6443 -0.0838
 2227SOL     OW18316   0.827   1.544  17.017  0.1387 -0.2421  0.3646
 2227SOL    HW118317   0.762   1.613  17.015  1.0495  0.5640 -1.7707
 2227SOL    HW218318   0.778   1.472  17.056  0.8906 -1.0598 -0.1765
 2228SOL     OW18319   0.452   3.981   8.202  0.1157 -0.4477  0.7316
 2228SOL    HW118320   0.445   3.972   8.107 -1.4988 -0.9540  0.9024
 2228SOL    HW218321   0.493   4.067   8.213  0.6106 -0.7183  0.9935
 2229SOL     OW18322   1.041   4.037   2.385 -0.2347 -0.4066 -0.1528
 2229SOL    HW118323   1.039   4.115   2.441 -1.9301 -1.1591  0.8335
 2229SOL    HW218324   1.132   4.032   2.354 -0.1094  0.4111  0.1003
 2230SOL     OW18325   1.121   1.732   5.520  0.3964  0.0800 -0.3448
 2230SOL    HW118326   1.197   1.781   5.488 -0.3422 -0.0281 -2.2678
 2230SOL    HW218327   1.116   1.770   5.608  1.5333  0.4251 -0.4255
 2231SOL     OW18328   1.423   2.811   1.063 -0.2673 -0.2865 -0.5967
 2231SOL    HW118329   1.440   2.778   1.151  1.3019 -1.8866 -1.5037
 2231SOL    HW218330   1.512   2.805   1.027  0.4363 -2.7309  1.5211
 2232SOL     OW18331   0.070   4.314   3.235 -0.1181  0.3650 -0.6566
 2232SOL    HW118332   0.024   4.380   3.182  1.5144  1.5629 -0.5860
 2232SOL    HW218333   0.051   4.233   3.189  0.7676 -0.2984  0.1679
 2233SOL     OW18334   4.285   0.963   1.568 -0.4493  0.3193 -0.0425
 2233SOL    HW118335   4.260   0.937   1.479 -2.2988 -0.4399  0.6911
 2233SOL    HW218336   4.378   0.945   1.574 -0.7790 -2.1579 -2.5115
 2234SOL     OW18337   2.674   1.008  14.767  0.0136 -0.3009  0.6533
 2234SOL    HW118338   2.758   1.032  14.805 -0.2426  1.1984  0.2815
 2234SOL    HW218339   2.711   0.965  14.690 -1.5198  0.6545 -0.6299
 2235SOL     OW18340   0.770   0.416   8.898 -0.1017 -0.3963 -0.2596
 2235SOL    HW118341   0.817   0.486   8.941 -2.0870  0.8194 -0.0425
 2235SOL    HW218342   0.754   0.359   8.973 -1.0352 -0.9724 -0.8865
 2236SOL     OW18343   1.181   2.733   6.975 -0.0503  0.3569 -0.4909
 2236SOL    HW118344   1.258   2.676   6.971  0.1879  0.5945  0.8387
 2236SOL    HW218345   1.156   2.757   6.886 -1.4827 -0.7350 -0.3851
 2237SOL     OW18346   4.072   2.750   8.626  0.0009  0.1840 -1.1588
 2237SOL    HW118347   4.072   2.811   8.699 -0.3762 -2.3520  0.9317
 2237SOL    HW218348   3.988   2.777   8.589 -1.1386 -0.1238  1.2186
 2238SOL     OW18349   2.572   1.717   6.984  0.0791 -0.3151 -0.3984
 2238SOL    HW118350   2.492   1.692   6.939  0.2055  1.0598 -1.3988
 2238SOL    HW218351   2.537   1.755   7.065  1.0478  0.2260 -0.2265
 2239SOL     OW18352   2.281   4.636   2.715  0.2963 -0.1396 -0.2305
 2239SOL    HW118353   2.342   4.632   2.788  0.4447  3.1979 -0.1813
 2239SOL    HW218354   2.269   4.545   2.688  0.5188 -0.6466  1.3960
 2240SOL     OW18355   0.284   4.284   9.033 -0.2833  0.6497  0.0388
 2240SOL    HW118356   0.215   4.345   9.007 -1.0476  0.4179  1.5247
 2240SOL    HW218357   0.324   4.332   9.106 -0.3049  0.2935  0.2836
 2241SOL     OW18358   0.321   2.149   4.352  0.2127 -0.4220 -0.3199
 2241SOL    HW118359   0.275   2.152   4.435  1.5097 -0.6036  0.3971
 2241SOL    HW218360   0.399   2.196   4.379  0.2201 -0.7462  0.2163
 2242SOL     OW18361   3.370   2.468  13.748 -0.3618 -0.1188  0.3766
 2242SOL    HW118362   3.347   2.522  13.824  1.2710 -0.9084  1.4173
 2242SOL    HW218363   3.445   2.517  13.714 -0.4667  0.1519  0.5380
 2243SOL     OW18364   0.092   0.840  11.688 -0.1011  0.8424  0.0652
 2243SOL    HW118365   0.001   0.871  11.696 -0.5676 -0.5597  0.1386
 2243SOL    HW218366   0.098   0.811  11.597 -0.8743  2.2187 -0.4435
 2244SOL     OW18367   4.610   0.209   8.615 -0.0719  0.6494 -0.6013
 2244SOL    HW118368   4.644   0.254   8.537  0.0376 -1.5614 -1.8420
 2244SOL    HW218369   4.545   0.152   8.575  1.6409 -1.0393 -1.0164
 2245SOL     OW18370   0.173   0.901   6.823  0.0077 -0.4950 -0.8512
 2245SOL    HW118371   0.105   0.835   6.805 -0.9538  0.1365  0.4954
 2245SOL    HW218372   0.249   0.846   6.804  1.4631  1.2413  0.0298
 2246SOL     OW18373   3.811   3.235   3.615 -0.1925 -0.6369 -0.4198
 2246SOL    HW118374   3.866   3.312   3.631  1.5023 -1.8383 -0.3636
 2246SOL    HW218375   3.837   3.212   3.525  3.6896 -1.3908  0.8797
 2247SOL     OW18376   4.425   1.581   6.937  0.5197 -0.4953 -0.3707
 2247SOL    HW118377   4.335   1.553   6.957 -0.2196  2.2975  0.2302
 2247SOL    HW218378   4.402   1.625   6.855 -2.1525 -5.1816 -2.1354
 2248SOL     OW18379   4.575   2.213   7.104 -0.3070  0.1532  0.2513
 2248SOL    HW118380   4.629   2.224   7.182 -1.7829 -0.4882  1.3461
 2248SOL    HW218381   4.520   2.291   7.106 -0.7437 -0.1686  0.9986
 2249SOL     OW18382   2.823   3.833   8.840 -0.6397  0.8359 -0.0395
 2249SOL    HW118383   2.877   3.759   8.868 -2.3685 -1.1202 -1.8108
 2249SOL    HW218384   2.872   3.865   8.764  0.0281  1.6855  0.7508
 2250SOL     OW18385   2.115   0.479  15.474 -0.1849 -0.1039 -0.0446
 2250SOL    HW118386   2.101   0.427  15.394 -1.3640 -1.0276  0.7608
 2250SOL    HW218387   2.073   0.424  15.540 -0.5802 -0.7226 -0.8080
 2251SOL     OW18388   1.047   4.472   9.096 -0.4399 -0.0170 -0.2108
 2251SOL    HW118389   1.122   4.523   9.066  0.4017 -0.4459  1.1858
 2251SOL    HW218390   1.084   4.386   9.115  0.6577  1.0598  2.5419
 2252SOL     OW18391   0.019   2.599  13.849 -0.3311 -0.6649  0.3071
 2252SOL    HW118392   0.090   2.621  13.788 -1.0086 -0.5474 -0.4394
 2252SOL    HW218393   0.054   2.640  13.928 -1.2100  1.2557 -0.2962
 2253SOL     OW18394   0.617   3.337   2.333 -0.4039 -0.2663 -0.3699
 2253SOL    HW118395   0.600   3.274   2.264  1.3402 -1.5599  0.4020
 2253SOL    HW218396   0.708   3.319   2.356 -0.0976  0.2412 -1.1734
 2254SOL     OW18397   2.163   3.789   8.300  0.2550 -0.5316 -0.2688
 2254SOL    HW118398   2.208   3.867   8.334 -3.7221  2.0849 -0.9388
 2254SOL    HW218399   2.077   3.802   8.340  0.2969 -2.5876  0.4641
 2255SOL     OW18400   2.245   3.129   7.333  0.0771 -0.5429  0.4566
 2255SOL    HW118401   2.230   3.178   7.413 -2.0729  2.0878 -1.5722
 2255SOL    HW218402   2.341   3.125   7.337  0.1172  3.2372  2.2788
 2256SOL     OW18403   2.703   1.017   7.488 -0.1565  0.1923  0.3963
 2256SOL    HW118404   2.788   0.982   7.458 -0.2920 -0.9795  1.3943
 2256SOL    HW218405   2.702   1.099   7.439 -2.2696 -0.2325 -0.2500
 2257SOL     OW18406   3.152   1.877   5.633  0.0158  0.1042  0.1554
 2257SOL    HW118407   3.096   1.838   5.700 -0.5110  3.3965  1.5887
 2257SOL    HW218408   3.163   1.800   5.576  0.0865  0.0864  0.1934
 2258SOL     OW18409   0.593   4.135   4.601 -0.1861  0.3849  0.1831
 2258SOL    HW118410   0.640   4.218   4.600  0.7013 -0.1157  0.4349
 2258SOL    HW218411   0.593   4.122   4.507  0.6248  0.4386  0.1752
 2259SOL     OW18412   4.008   3.674  10.125  0.1024 -0.4129 -0.0981
 2259SOL    HW118413   3.969   3.626  10.052 -0.6714  1.5115 -0.9511
 2259SOL    HW218414   3.937   3.685  10.188  2.1839  1.8778  1.8545
 2260SOL     OW18415   0.865   2.038  11.768 -0.0075  0.3290  0.1255
 2260SOL    HW118416   0.778   2.076  11.777 -0.8215 -1.7542  0.9672
 2260SOL    HW218417   0.889   2.053  11.676  0.3102  4.2554  0.8598
 2261SOL     OW18418   0.194   3.194   0.906  0.2527  0.4461 -0.6422
 2261SOL    HW118419   0.221   3.278   0.868  0.2536  1.1926  1.0388
 2261SOL    HW218420   0.190   3.142   0.826 -1.9931 -1.0426  0.4659
 2262SOL     OW18421   3.325   4.255  10.754 -0.1850 -0.2778  0.1983
 2262SOL    HW118422   3.403   4.307  10.769 -0.7541  0.5293  0.3706
 2262SOL    HW218423   3.265   4.311  10.803 -2.2493  0.1079 -2.7690
 2263SOL     OW18424   0.396   4.502   0.658  0.4434  0.1173  0.2603
 2263SOL    HW118425   0.414   4.531   0.568  1.0976 -1.8580 -0.2485
 2263SOL    HW218426   0.324   4.563   0.672  0.8855  0.6033  0.4397
 2264SOL     OW18427   4.051   0.605  11.915  0.0668 -0.0503 -0.3727
 2264SOL    HW118428   3.972   0.608  11.970  1.4856  1.0042  1.6305
 2264SOL    HW218429   4.033   0.530  11.858  2.3802 -2.0952  1.5626
 2265SOL     OW18430   3.995   4.533   0.806 -0.0922  0.1703  0.0696
 2265SOL    HW118431   3.944   4.575   0.875  2.7580 -0.0178  2.3141
 2265SOL    HW218432   3.956   4.446   0.797 -2.5887  1.2941  0.0230
 2266SOL     OW18433   4.169   3.111   6.633  0.0480 -0.4223  0.0261
 2266SOL    HW118434   4.100   3.047   6.616 -0.3874 -0.6065  2.4472
 2266SOL    HW218435   4.225   3.067   6.698  1.1359 -0.0858 -0.6886
 2267SOL     OW18436   3.566   1.032   5.579  0.2198  0.2498  0.0315
 2267SOL    HW118437   3.570   1.025   5.484  2.8065 -0.1332  0.1502
 2267SOL    HW218438   3.473   1.026   5.599  0.0753  0.9827 -0.3943
 2268SOL     OW18439   1.730   4.273  13.503  0.3093  0.2358  0.3742
 2268SOL    HW118440   1.666   4.219  13.548 -1.4812  1.1592 -1.0706
 2268SOL    HW218441   1.692   4.287  13.417  2.2603  0.7191 -0.4103
 2269SOL     OW18442   1.020   0.018   6.579 -0.1900  0.5525  0.7802
 2269SOL    HW118443   1.046   0.074   6.506  0.0627  0.2383  0.6320
 2269SOL    HW218444   1.008   0.082   6.650 -1.1238  1.4589 -0.2004
 2270SOL     OW18445   0.718   2.519  14.848  0.0252 -0.2848  0.1886
 2270SOL    HW118446   0.796   2.468  14.825 -0.4297 -0.6007 -0.6630
 2270SOL    HW218447   0.767   2.593  14.886  1.2315 -0.4555 -1.0334
 2271SOL     OW18448   4.396   1.845   4.338  0.0870 -0.1443  0.3234
 2271SOL    HW118449   4.392   1.807   4.250  0.4607 -1.5161  0.9043
 2271SOL    HW218450   4.460   1.799   4.392  1.1543  0.3604 -0.4957
 2272SOL     OW18451   2.070   2.545   6.870 -0.4478  0.0708  0.3151
 2272SOL    HW118452   2.115   2.625   6.843  0.8757 -0.2475  1.5818
 2272SOL    HW218453   1.979   2.565   6.848 -1.3709 -1.0179  3.1679
 2273SOL     OW18454   3.885   2.084  14.336  0.0567 -0.1370  0.0018
 2273SOL    HW118455   3.942   2.159  14.316 -1.2079  0.9041  0.3198
 2273SOL    HW218456   3.938   2.016  14.294  0.4573  0.6567 -0.7652
 2274SOL     OW18457   0.295   3.444   2.923  0.0032 -0.2858 -0.1635
 2274SOL    HW118458   0.249   3.474   2.844  0.9077 -3.0528 -1.7273
 2274SOL    HW218459   0.232   3.481   2.985 -0.9144 -0.8021 -0.7802
 2275SOL     OW18460   0.926   2.380   3.732  0.6080  0.4437  0.4573
 2275SOL    HW118461   0.987   2.410   3.798 -1.6661 -0.1225  2.8153
 2275SOL    HW218462   0.863   2.452   3.730  1.2100  0.9139 -1.4397
 2276SOL     OW18463   2.709   2.594   5.688 -0.1994  0.1142 -0.6430
 2276SOL    HW118464   2.652   2.570   5.761  0.0023  0.9702 -0.2004
 2276SOL    HW218465   2.785   2.538   5.702 -0.1232 -0.2521 -2.5551
 2277SOL     OW18466   0.936   2.973   7.033  0.1611  0.4645  0.5244
 2277SOL    HW118467   0.948   2.892   7.084 -0.3747 -0.0947 -0.2424
 2277SOL    HW218468   0.893   2.947   6.952 -1.2666  0.1068  1.3988
 2278SOL     OW18469   0.434   1.082  14.763 -0.1231  0.5657 -1.0390
 2278SOL    HW118470   0.437   1.047  14.674 -0.2013  2.7133 -1.8966
 2278SOL    HW218471   0.509   1.042  14.806 -1.5605  0.7217  1.6069
 2279SOL     OW18472   3.438   4.191   0.439  0.4374  0.3753  0.2536
 2279SOL    HW118473   3.371   4.247   0.398 -0.2697  1.0628  2.3326
 2279SOL    HW218474   3.420   4.198   0.533  2.6870 -0.0231  0.7044
 2280SOL     OW18475   3.340   1.426  12.081  0.3393  0.0566 -0.2553
 2280SOL    HW118476   3.359   1.385  12.166  0.9135 -0.2242 -0.5188
 2280SOL    HW218477   3.257   1.382  12.061  0.8084 -1.8052  1.8557
 2281SOL     OW18478   3.917   3.928  14.867 -0.1214 -0.0946 -0.3937
 2281SOL    HW118479   3.852   3.946  14.935  1.0575  1.4419  0.3397
 2281SOL    HW218480   3.883   3.854  14.817 -4.1731  0.2644  1.8638
 2282SOL     OW18481   1.843   1.871  14.469  0.7552 -0.4441  0.0176
 2282SOL    HW118482   1.864   1.861  14.376  0.9149 -0.0371  0.0112
 2282SOL    HW218483   1.934   1.882  14.498  0.7514 -1.3646  0.3571
 2283SOL     OW18484   3.110   4.003   6.909  0.0163 -0.1173 -0.0889
 2283SOL    HW118485   3.024   4.025   6.872  1.3959  2.4396 -1.7050
 2283SOL    HW218486   3.095   4.006   7.004 -2.1636 -0.8503 -0.4102
 2284SOL     OW18487   4.300   3.453  11.955 -0.2293  0.0809  0.1627
 2284SOL    HW118488   4.333   3.368  11.984 -1.6783 -0.1716  1.0530
 2284SOL    HW218489   4.210   3.425  11.965  0.1607 -0.9656  0.7577
 2285SOL     OW18490   1.592   0.320   2.421 -0.2916 -0.2681 -0.2195
 2285SOL    HW118491   1.561   0.254   2.482 -0.9791  1.0040  0.8090
 2285SOL    HW218492   1.676   0.346   2.459 -1.3435  3.1205 -0.1741
 2286SOL     OW18493   0.349   0.275   7.749  0.1197 -0.8073 -0.6867
 2286SOL    HW118494   0.334   0.279   7.843  1.1397  0.3546 -0.5795
 2286SOL    HW218495   0.287   0.204   7.729 -1.6939  0.3827  0.6614
 2287SOL     OW18496   0.706   2.638   6.049  0.5708  0.5221 -0.6036
 2287SOL    HW118497   0.615   2.668   6.050 -0.2193 -2.0682  3.5484
 2287SOL    HW218498   0.695   2.554   6.005  0.3041  0.2544 -0.0153
 2288SOL     OW18499   2.782   4.676   9.411  0.5086 -0.4418 -0.1280
 2288SOL    HW118500   2.831   4.612   9.359 -1.3106 -0.1550 -2.2105
 2288SOL    HW218501   2.822   0.025   9.386 -0.4460 -0.0204 -0.2592
 2289SOL     OW18502   4.435   3.348   5.316  0.4413 -0.0884 -0.1130
 2289SOL    HW118503   4.484   3.360   5.398  1.0785 -1.1367 -0.3406
 2289SOL    HW218504   4.485   3.274   5.282  0.0994 -1.1561  1.7116
 2290SOL     OW18505   4.481   4.275  15.073  0.2683 -0.3176 -0.1866
 2290SOL    HW118506   4.509   4.246  14.986 -3.5259  1.0321 -1.8740
 2290SOL    HW218507   4.497   4.367  15.051 -2.1541  0.6921  2.3196
 2291SOL     OW18508   2.687   4.405   3.834 -0.0925  0.0365 -0.0128
 2291SOL    HW118509   2.639   4.326   3.808  0.4677 -0.0843 -0.7084
 2291SOL    HW218510   2.627   4.473   3.804  0.7579  1.4980  1.6217
 2292SOL     OW18511   0.036   2.735   6.925  0.2696  0.1421  0.1299
 2292SOL    HW118512   0.084   2.655   6.946 -1.7939 -1.2692 -0.5280
 2292SOL    HW218513   4.690   2.737   6.977 -0.1768 -2.4814 -0.4793
 2293SOL     OW18514   0.852   1.443   5.815 -0.2618 -0.0643  0.0385
 2293SOL    HW118515   0.865   1.411   5.904  0.7074  0.6581  0.1598
 2293SOL    HW218516   0.942   1.467   5.791  0.2064 -0.0946  1.7258
 2294SOL     OW18517   0.737   2.207   5.392  0.2230 -0.2382 -0.5841
 2294SOL    HW118518   0.642   2.209   5.381 -0.0934 -1.6569  2.0674
 2294SOL    HW218519   0.764   2.299   5.387 -1.0567  0.2210  1.1681
 2295SOL     OW18520   3.232   2.970  11.273 -0.2372 -0.0546 -0.1611
 2295SOL    HW118521   3.225   3.065  11.277  1.7349  0.1323 -1.3767
 2295SOL    HW218522   3.184   2.963  11.191 -0.5246 -0.0182  0.0038
 2296SOL     OW18523   1.370   4.157   6.090  0.0234 -0.2321 -0.5533
 2296SOL    HW118524   1.336   4.070   6.111 -0.9767  0.2365 -0.2904
 2296SOL    HW218525   1.369   4.157   5.994 -1.6801  0.5062 -0.5291
 2297SOL     OW18526   1.311   4.242   6.711 -0.0914 -0.2037 -0.1024
 2297SOL    HW118527   1.229   4.275   6.748 -0.8706 -2.6312  0.3510
 2297SOL    HW218528   1.366   4.253   6.788  0.5962 -1.2677 -0.4388
 2298SOL     OW18529   4.284   3.093   1.892 -0.0370  0.2239 -0.0718
 2298SOL    HW118530   4.208   3.036   1.879 -0.2212 -0.1517  2.8318
 2298SOL    HW218531   4.358   3.033   1.879 -0.2349 -0.1176  0.3882
 2299SOL     OW18532   0.112   3.231   8.705  0.5020 -0.5564 -0.1113
 2299SOL    HW118533   0.178   3.300   8.699  1.1661 -1.2268 -0.5009
 2299SOL    HW218534   0.166   3.167   8.659  0.2492 -0.5091 -0.4768
 2300SOL     OW18535   2.815   0.510   8.047 -0.2619  0.2998  0.2557
 2300SOL    HW118536   2.813   0.555   7.963  3.3455  1.9650  1.0154
 2300SOL    HW218537   2.724   0.510   8.078  0.6135 -0.5105  2.8854
 2301SOL     OW18538   4.161   2.190  11.267  0.0496  0.2193 -0.4842
 2301SOL    HW118539   4.127   2.138  11.194 -0.1928  0.7369 -0.7409
 2301SOL    HW218540   4.254   2.196  11.246 -0.3701 -3.0981 -3.3200
 2302SOL     OW18541   1.619   1.946  15.455 -0.2764  0.1647  0.2910
 2302SOL    HW118542   1.547   1.905  15.503  1.9496 -0.6038  3.0102
 2302SOL    HW218543   1.664   1.990  15.527 -2.4656  0.9565  1.1699
 2303SOL     OW18544   3.031   1.879   0.036 -0.7786 -0.4448  0.2274
 2303SOL    HW118545   3.060   1.797  17.731 -1.1028 -0.4685  0.0510
 2303SOL    HW218546   3.024   1.943  17.700 -0.0714  0.3765  0.8834
 2304SOL     OW18547   1.110   2.291   0.799  0.0114 -0.4687  0.0985
 2304SOL    HW118548   1.050   2.238   0.748  0.0966 -0.4271 -0.0434
 2304SOL    HW218549   1.187   2.297   0.742 -0.4651  0.1027 -0.4817
 2305SOL     OW18550   2.502   0.211   3.241 -0.3051  0.3579 -0.3745
 2305SOL    HW118551   2.578   0.217   3.298 -1.0549 -0.7858  0.7456
 2305SOL    HW218552   2.456   0.294   3.257 -0.8390  0.1105 -0.6061
 2306SOL     OW18553   2.370   2.933   7.872 -0.2938  0.4139  0.0269
 2306SOL    HW118554   2.293   2.889   7.908 -1.6005  1.2127 -1.7836
 2306SOL    HW218555   2.348   2.946   7.780  1.0477 -1.7894 -0.6004
 2307SOL     OW18556   1.681   1.908   5.492 -0.4065 -0.0842 -0.0357
 2307SOL    HW118557   1.665   1.932   5.584 -0.1330  1.1636 -0.3140
 2307SOL    HW218558   1.753   1.970   5.482 -2.3301  1.8392 -1.9091
 2308SOL     OW18559   0.172   0.440   6.729  0.5484  0.4362 -0.3077
 2308SOL    HW118560   0.196   0.365   6.784  2.1290  0.5212 -0.9030
 2308SOL    HW218561   0.096   0.480   6.772  0.3780 -0.3620  0.1397
 2309SOL     OW18562   2.618   2.151   8.674  0.4424 -0.3840  0.0474
 2309SOL    HW118563   2.638   2.184   8.761 -1.7190 -0.6362  0.6159
 2309SOL    HW218564   2.593   2.233   8.633 -0.3677 -0.0343  1.2499
 2310SOL     OW18565   1.672   4.019   5.844 -0.0641  0.4829  0.4501
 2310SOL    HW118566   1.612   3.945   5.835 -0.3637  0.6802  0.8624
 2310SOL    HW218567   1.660   4.055   5.756 -4.2212  1.5769  1.4611
 2311SOL     OW18568   1.367   2.966   6.166 -0.1142 -0.2294 -0.8977
 2311SOL    HW118569   1.290   2.929   6.124  0.5983 -0.1118 -2.3131
 2311SOL    HW218570   1.415   2.890   6.201 -2.8269 -0.7589  1.6082
 2312SOL     OW18571   4.333   1.755   5.957  0.3681 -0.5625 -0.5652
 2312SOL    HW118572   4.281   1.802   6.022  2.3695  1.4443 -0.4221
 2312SOL    HW218573   4.308   1.663   5.972 -2.3711  0.1976 -0.5189
 2313SOL     OW18574   0.272   2.458  14.080  0.2129 -0.1459  0.6120
 2313SOL    HW118575   0.240   2.546  14.099  0.8253  0.3899 -0.8362
 2313SOL    HW218576   0.194   2.411  14.049  1.7592 -0.7107 -2.4441
 2314SOL     OW18577   4.554   3.451   2.123  0.0541 -0.6861 -0.7122
 2314SOL    HW118578   4.648   3.436   2.119  0.2034 -0.6317  2.4808
 2314SOL    HW218579   4.519   3.409   2.045 -0.1124 -1.1376 -0.3895
 2315SOL     OW18580   1.681   4.420   3.833 -0.1253 -0.0261 -0.0067
 2315SOL    HW118581   1.665   4.347   3.772 -0.9032 -2.4733  3.1161
 2315SOL    HW218582   1.706   4.365   3.907  2.3640  0.4944 -0.4636
 2316SOL     OW18583   0.788   2.273   4.233 -0.7055  0.4107 -0.3968
 2316SOL    HW118584   0.786   2.348   4.293 -1.3186 -1.6507  2.1475
 2316SOL    HW218585   0.748   2.205   4.287 -0.4568  0.5190 -0.0710
 2317SOL     OW18586   1.574   4.730   9.530 -0.0372  0.4954  0.2816
 2317SOL    HW118587   1.569   4.643   9.492 -0.8455 -0.1097  1.7976
 2317SOL    HW218588   1.511   0.034   9.469  0.5541  0.6803 -0.2238
 2318SOL     OW18589   2.716   3.228   7.449 -0.5503 -0.2666  0.1640
 2318SOL    HW118590   2.634   3.234   7.498 -1.7976 -1.4206 -1.7750
 2318SOL    HW218591   2.768   3.196   7.522  0.6379  2.9018  0.7064
 2319SOL     OW18592   4.354   2.284  13.025 -0.0965  0.0676 -0.0245
 2319SOL    HW118593   4.266   2.269  12.989 -0.8084  3.6293  0.1314
 2319SOL    HW218594   4.414   2.277  12.951 -0.1500 -0.4034 -0.0187
 2320SOL     OW18595   2.226   3.167  16.861  0.4383  0.3779 -0.0459
 2320SOL    HW118596   2.293   3.101  16.879 -1.3008 -1.3763  0.0390
 2320SOL    HW218597   2.149   3.133  16.907 -0.2436 -0.0597 -1.5285
 2321SOL     OW18598   2.702   2.957   6.492 -0.5156 -0.5022  0.4654
 2321SOL    HW118599   2.688   3.040   6.538  0.7658 -1.3622  2.3951
 2321SOL    HW218600   2.793   2.965   6.465 -0.8958  0.2279 -0.5922
 2322SOL     OW18601   4.567   4.417   7.478  0.5044  0.3104 -0.1915
 2322SOL    HW118602   4.472   4.424   7.473  0.7829  2.8566 -1.9921
 2322SOL    HW218603   4.575   4.357   7.553 -0.0092 -0.3541 -0.6662
 2323SOL     OW18604   4.115   2.218  17.118 -0.2787 -0.3330  0.5395
 2323SOL    HW118605   4.055   2.144  17.124 -0.8620  0.0715 -0.4258
 2323SOL    HW218606   4.057   2.290  17.143 -1.0912 -1.3318  1.5091
 2324SOL     OW18607   3.583   1.773   4.707  0.0968 -0.2934  0.5572
 2324SOL    HW118608   3.635   1.828   4.648 -0.2929  0.5373  0.9823
 2324SOL    HW218609   3.510   1.750   4.649  0.2876  0.4818  0.0017
 2325SOL     OW18610   4.711   4.332   3.778 -0.3625  0.3738  0.0417
 2325SOL    HW118611   4.668   4.250   3.755 -0.7713  0.1677  1.5795
 2325SOL    HW218612   0.005   4.368   3.694  1.0091  0.1675  0.4047
 2326SOL     OW18613   2.911   2.539   4.325 -0.0805  0.8276 -0.0937
 2326SOL    HW118614   3.001   2.519   4.299  0.6828  1.5186  2.0435
 2326SOL    HW218615   2.888   2.457   4.369 -0.1688  0.9142  0.0205
 2327SOL     OW18616   1.380   1.574   7.675 -0.2389  0.2873  0.0368
 2327SOL    HW118617   1.472   1.554   7.694 -0.1191  0.8376  0.0593
 2327SOL    HW218618   1.399   1.665   7.652  0.6922 -0.2947 -1.5113
 2328SOL     OW18619   3.365   0.463   3.024 -0.4653  0.3863  0.0792
 2328SOL    HW118620   3.420   0.452   3.102 -2.5133  0.0861  1.4955
 2328SOL    HW218621   3.285   0.487   3.071 -0.5873 -2.1897  1.2006
 2329SOL     OW18622   3.191   2.043   5.110 -0.2200  0.4013  0.0009
 2329SOL    HW118623   3.104   2.030   5.073 -0.2030 -3.1802  1.2410
 2329SOL    HW218624   3.246   1.983   5.059 -2.0675 -1.9755  0.7906
 2330SOL     OW18625   4.374   1.841   3.012  0.0320  0.8901 -0.9520
 2330SOL    HW118626   4.391   1.891   2.933  1.6075  0.7144 -0.7183
 2330SOL    HW218627   4.376   1.751   2.979 -1.8712 -0.3678  2.2902
 2331SOL     OW18628   0.755   1.180   2.245  0.3435  0.0352  0.3341
 2331SOL    HW118629   0.725   1.170   2.336 -1.5468 -0.4629 -0.3414
 2331SOL    HW218630   0.838   1.227   2.253  0.3904  0.4776 -2.7636
 2332SOL     OW18631   2.778   2.128   2.774  0.6962 -0.0971  0.5188
 2332SOL    HW118632   2.785   2.042   2.815 -0.5270  0.5218  2.0296
 2332SOL    HW218633   2.868   2.160   2.784  0.4807  0.8572 -0.5666
 2333SOL     OW18634   2.088   2.831   6.763 -0.0657  0.2069 -0.1173
 2333SOL    HW118635   2.058   2.914   6.800 -0.2975 -0.2519  0.7180
 2333SOL    HW218636   2.092   2.856   6.670 -1.3221  0.8124 -0.0185
 2334SOL     OW18637   3.758   3.161   9.251 -0.3577  0.9077 -0.8389
 2334SOL    HW118638   3.829   3.105   9.284 -2.4679 -1.5459 -0.4282
 2334SOL    HW218639   3.739   3.105   9.175  1.5704 -2.1343  0.9041
 2335SOL     OW18640   0.505   0.641   6.565 -0.0794 -0.1254 -0.9838
 2335SOL    HW118641   0.503   0.567   6.505 -0.1953 -1.2434  0.3754
 2335SOL    HW218642   0.600   0.652   6.571  0.1507 -1.8834 -1.3027
 2336SOL     OW18643   4.399   0.604   7.140  0.4427  0.3179 -0.0723
 2336SOL    HW118644   4.484   0.611   7.098 -0.1266  0.1620 -1.2533
 2336SOL    HW218645   4.353   0.670   7.087 -0.1504  0.3247  0.4404
 2337SOL     OW18646   1.458   1.766   6.238  0.4660 -0.1791  0.0828
 2337SOL    HW118647   1.551   1.785   6.230  0.4335  0.3474  0.9297
 2337SOL    HW218648   1.431   1.827   6.307 -1.2581 -0.0178 -0.7266
 2338SOL     OW18649   4.139   0.466   1.517 -0.0904 -0.4064 -0.8418
 2338SOL    HW118650   4.151   0.454   1.423  1.3245  0.3576 -0.7492
 2338SOL    HW218651   4.066   0.528   1.509  1.7670  1.7107 -1.4469
 2339SOL     OW18652   2.850   2.493   7.386 -1.0865 -0.6546  0.3094
 2339SOL    HW118653   2.922   2.542   7.347  0.2555 -1.6594  1.5360
 2339SOL    HW218654   2.890   2.418   7.430 -0.0415 -0.4352 -0.2689
 2340SOL     OW18655   4.079   2.257   6.929  0.3601  0.0229 -0.5933
 2340SOL    HW118656   4.157   2.296   6.889 -1.4246  2.6146 -1.4989
 2340SOL    HW218657   4.078   2.292   7.018 -1.7292 -1.4010 -0.0616
 2341SOL     OW18658   1.830   2.680   2.104  0.3817  0.4928 -0.4938
 2341SOL    HW118659   1.842   2.613   2.171 -0.0096 -1.3929 -2.2779
 2341SOL    HW218660   1.754   2.641   2.060 -0.7788  0.8918  1.1935
 2342SOL     OW18661   1.537   0.143   2.605 -0.4997  0.3403 -0.2335
 2342SOL    HW118662   1.532   0.192   2.687 -0.7316 -1.3715  0.7895
 2342SOL    HW218663   1.617   0.093   2.619 -1.1490 -0.4712  0.6110
 2343SOL     OW18664   1.794   1.647   6.761  0.3473 -0.0604 -0.3887
 2343SOL    HW118665   1.868   1.701   6.788  0.3256  0.3316 -1.1280
 2343SOL    HW218666   1.765   1.683   6.677 -0.9209  0.5017  0.2879
 2344SOL     OW18667   0.979   2.507  10.180  0.6813 -0.2515  0.2644
 2344SOL    HW118668   1.013   2.419  10.167 -0.4593 -0.8250  1.2559
 2344SOL    HW218669   1.054   2.562  10.206 -0.8431  1.7654  0.3725
 2345SOL     OW18670   4.427   2.488   6.022 -0.2013  0.2455 -0.1922
 2345SOL    HW118671   4.486   2.468   5.949 -0.0987 -1.0564  0.2437
 2345SOL    HW218672   4.356   2.429   5.997 -0.1681 -0.6119  1.7513
 2346SOL     OW18673   0.081   3.401   2.218 -0.0212  0.2688 -0.0030
 2346SOL    HW118674   0.128   3.374   2.139  0.0740  1.5438 -0.3849
 2346SOL    HW218675   0.148   3.358   2.271 -2.6500 -4.3553 -0.4493
 2347SOL     OW18676   2.812   3.550   6.784  0.6766  0.2595  0.2767
 2347SOL    HW118677   2.812   3.622   6.847 -0.5797  0.4079  0.1072
 2347SOL    HW218678   2.844   3.596   6.707 -0.4475  1.3011  0.4360
 2348SOL     OW18679   1.305   0.983   8.013 -0.0974  0.0917 -0.3793
 2348SOL    HW118680   1.356   0.907   8.038  0.7706  0.2496 -1.6750
 2348SOL    HW218681   1.371   1.052   8.003  0.1322 -0.1752 -0.6884
 2349SOL     OW18682   4.456   3.120   0.752 -0.0269  0.2030  0.2605
 2349SOL    HW118683   4.437   3.147   0.663 -1.0294  0.5772  0.5879
 2349SOL    HW218684   4.548   3.092   0.755 -0.7203 -1.8665  2.7855
 2350SOL     OW18685   2.318   3.397  15.276 -0.3355  0.4638  0.1116
 2350SOL    HW118686   2.391   3.338  15.291 -0.4891 -0.2262 -1.8185
 2350SOL    HW218687   2.355   3.460  15.215 -3.5131 -1.8483 -4.2750
 2351SOL     OW18688   0.204   4.240   2.615  0.5522  0.4666  0.1822
 2351SOL    HW118689   0.213   4.282   2.700  0.5209  0.3996  0.2190
 2351SOL    HW218690   0.290   4.242   2.573  0.4446 -0.8524 -0.1217
 2352SOL     OW18691   0.174   3.548   3.166 -0.2650  0.2653 -0.2086
 2352SOL    HW118692   0.245   3.488   3.190  0.0234 -0.4739 -2.9918
 2352SOL    HW218693   0.101   3.527   3.224 -0.7222 -0.2709 -0.9827
 2353SOL     OW18694   1.936   0.297  12.935  0.3670 -0.1886 -0.2056
 2353SOL    HW118695   1.956   0.390  12.948 -1.7421  0.0975  1.0959
 2353SOL    HW218696   2.022   0.264  12.909  1.0259  0.7528  0.7678
 2354SOL     OW18697   3.940   3.717   6.302 -0.3229 -0.2362  0.5449
 2354SOL    HW118698   4.010   3.696   6.364  2.1159 -0.2911 -2.2207
 2354SOL    HW218699   3.928   3.629   6.265  1.5042 -0.9672  1.6695
 2355SOL     OW18700   1.614   1.907   1.507 -0.9588  0.1800  0.0491
 2355SOL    HW118701   1.671   1.850   1.455 -1.5211  0.3492 -0.7475
 2355SOL    HW218702   1.537   1.857   1.536 -0.1831  0.3401  2.4082
 2356SOL     OW18703   0.387   2.053   0.066  0.7927 -0.2401  0.0041
 2356SOL    HW118704   0.374   2.127   0.125 -1.2033 -0.2975 -0.3657
 2356SOL    HW218705   0.476   2.071   0.036  0.5706 -0.9128 -1.0301
 2357SOL     OW18706   3.162   2.728   6.999  0.2936 -0.6414 -0.0348
 2357SOL    HW118707   3.173   2.635   6.982  0.0927 -0.7143  0.2336
 2357SOL    HW218708   3.104   2.754   6.928  0.6241  0.8722  0.2543
 2358SOL     OW18709   4.131   2.034   5.587 -0.6505 -0.3776 -0.2304
 2358SOL    HW118710   4.172   2.024   5.673 -2.1899 -0.6431  0.4825
 2358SOL    HW218711   4.105   1.946   5.558  0.9896 -0.5411 -1.1730
 2359SOL     OW18712   1.625   2.158   6.920 -0.1834  0.0292  0.0079
 2359SOL    HW118713   1.715   2.189   6.930  0.0399 -0.8732  0.8368
 2359SOL    HW218714   1.604   2.105   6.997 -0.4766 -0.1521 -0.1952
 2360SOL     OW18715   3.640   2.606   1.770 -0.3399 -0.3955  0.6830
 2360SOL    HW118716   3.551   2.641   1.778 -0.5154 -0.5312 -0.7493
 2360SOL    HW218717   3.672   2.685   1.726 -0.1733  0.6913  2.7688
 2361SOL     OW18718   1.976   0.657   7.220  0.6978 -0.2186  0.4608
 2361SOL    HW118719   2.021   0.583   7.179 -2.5410 -0.7745 -2.0486
 2361SOL    HW218720   1.899   0.619   7.264 -1.7641 -0.3106 -3.9844
 2362SOL     OW18721   2.100   2.340  10.142 -0.0311  0.1451  0.2428
 2362SOL    HW118722   2.190   2.307  10.151 -0.1121  0.0400  0.6882
 2362SOL    HW218723   2.114   2.432  10.165 -1.2885  0.7116 -1.3065
 2363SOL     OW18724   1.214   0.315   5.241 -0.0825 -0.0536 -0.5577
 2363SOL    HW118725   1.164   0.371   5.300 -1.2730 -0.9062 -0.7726
 2363SOL    HW218726   1.294   0.368   5.236  1.3544 -1.9934  2.0459
 2364SOL     OW18727   0.827   2.585   8.463  0.4370  0.0525  0.0600
 2364SOL    HW118728   0.917   2.553   8.457  0.5321  0.2694  0.3276
 2364SOL    HW218729   0.839   2.678   8.483  1.4221 -0.1737  0.5164
 2365SOL     OW18730   3.409   4.499   8.289  0.2721 -0.4299 -0.9228
 2365SOL    HW118731   3.442   4.546   8.366 -0.8180 -3.0198  1.1565
 2365SOL    HW218732   3.450   4.415   8.311 -2.2484 -1.1026  1.2686
 2366SOL     OW18733   4.564   4.365   8.924  0.4215  0.4787  0.4691
 2366SOL    HW118734   4.642   4.421   8.933 -0.1877  1.3230  0.4540
 2366SOL    HW218735   4.597   4.285   8.965 -2.3299 -1.2318 -0.6280
 2367SOL     OW18736   0.647   1.957  10.936 -0.2608 -0.3893  0.0913
 2367SOL    HW118737   0.743   1.947  10.934  0.1989  3.8094  0.7113
 2367SOL    HW218738   0.630   1.997  11.021  2.4162  2.8363 -0.8890
 2368SOL     OW18739   2.586   2.554   7.038  0.1972 -0.1374 -0.2007
 2368SOL    HW118740   2.508   2.500   7.052 -0.6306  0.7254 -1.4909
 2368SOL    HW218741   2.547   2.635   7.005 -0.0160 -0.1227  0.0925
 2369SOL     OW18742   3.736   0.813   2.419 -0.2143 -0.1298  0.2937
 2369SOL    HW118743   3.717   0.890   2.472  0.3331  1.1880 -1.4340
 2369SOL    HW218744   3.706   0.744   2.479  0.0610  0.3006  0.9246
 2370SOL     OW18745   0.657   4.586  13.762  0.1691  0.5021 -0.7029
 2370SOL    HW118746   0.561   4.585  13.759  0.1178  2.2214  0.3716
 2370SOL    HW218747   0.675   4.680  13.765  2.2734  0.0748  0.1789
 2371SOL     OW18748   0.589   4.700   3.914  0.2284 -0.7438  0.1698
 2371SOL    HW118749   0.647   4.636   3.954 -0.5611 -2.0212 -0.7361
 2371SOL    HW218750   0.502   4.660   3.918  0.7988 -2.1089 -1.0428
 2372SOL     OW18751   2.837   0.929   1.779 -0.3049 -0.3520  0.4993
 2372SOL    HW118752   2.767   0.961   1.721 -1.0440 -1.8370  0.5673
 2372SOL    HW218753   2.885   1.010   1.794 -0.9791  0.4125 -1.5019
 2373SOL     OW18754   2.822   2.746   5.938 -0.1252  0.9336 -0.5287
 2373SOL    HW118755   2.842   2.755   5.845 -1.8387  0.5677 -0.9438
 2373SOL    HW218756   2.782   2.659   5.935 -0.1040  0.9310 -0.6973
 2374SOL     OW18757   0.221   4.333  13.134 -0.4345  0.0273 -0.1857
 2374SOL    HW118758   0.140   4.348  13.183  0.3764 -0.5597  1.3597
 2374SOL    HW218759   0.194   4.257  13.083 -0.4399  1.4633 -2.3002
 2375SOL     OW18760   2.199   3.082  12.821  0.1430 -0.0944 -0.5017
 2375SOL    HW118761   2.182   2.989  12.806  0.3432 -0.4023  1.2079
 2375SOL    HW218762   2.149   3.122  12.750 -1.0759  0.9504  0.9424
 2376SOL     OW18763   4.295   4.403   7.459  0.1733 -0.0428 -0.0657
 2376SOL    HW118764   4.202   4.410   7.483  0.3342  1.7848  0.0451
 2376SOL    HW218765   4.298   4.309   7.443 -2.4325 -0.2623  0.7569
 2377SOL     OW18766   2.912   4.228   9.423  0.0020  0.4420  0.7442
 2377SOL    HW118767   3.000   4.193   9.437  0.3843  0.8988 -0.5639
 2377SOL    HW218768   2.894   4.254   9.514 -1.5017  2.0905 -0.0248
 2378SOL     OW18769   1.024   1.015   3.058  0.2728  0.6984 -0.6481
 2378SOL    HW118770   1.015   1.111   3.059  1.1813  0.7831 -1.1852
 2378SOL    HW218771   1.088   1.008   2.987  0.2334 -0.6294 -0.5420
 2379SOL     OW18772   4.053   4.311   0.331 -0.1396 -0.0884  0.0370
 2379SOL    HW118773   4.101   4.350   0.404  1.4248 -2.1439  0.1116
 2379SOL    HW218774   4.122   4.256   0.293 -1.7338 -1.1623 -1.3312
 2380SOL     OW18775   1.371   4.529   3.421 -0.6877 -0.6567  0.2213
 2380SOL    HW118776   1.418   4.584   3.359 -0.1756 -1.9354 -0.5277
 2380SOL    HW218777   1.436   4.462   3.442  0.0133  0.0114  0.1947
 2381SOL     OW18778   2.314   3.468  11.838  0.4262 -0.2080  0.3202
 2381SOL    HW118779   2.298   3.463  11.744  0.0142  2.1782  0.2676
 2381SOL    HW218780   2.402   3.432  11.850  1.5829  1.4113 -3.2572
 2382SOL     OW18781   0.073   3.780  15.464  0.2093  0.8007 -0.1479
 2382SOL    HW118782   0.003   3.724  15.497 -0.5157  1.8993  0.2015
 2382SOL    HW218783   0.132   3.786  15.539 -0.3010  1.4801  0.2034
 2383SOL     OW18784   3.082   0.986   9.431  0.3632 -0.2370 -0.2230
 2383SOL    HW118785   3.042   0.915   9.381  0.3616 -1.8473  2.0122
 2383SOL    HW218786   3.141   0.933   9.485  1.6930  1.7703  0.2999
 2384SOL     OW18787   3.040   4.133   1.756  0.6036 -0.5876  0.0516
 2384SOL    HW118788   3.086   4.188   1.692  1.7948 -0.1531  1.2708
 2384SOL    HW218789   3.094   4.130   1.835 -1.2860  1.5941  1.4550
 2385SOL     OW18790   1.240   2.494   6.095  0.5023  0.3288 -0.1876
 2385SOL    HW118791   1.306   2.428   6.116  1.1183  0.7245 -0.8958
 2385SOL    HW218792   1.234   2.479   6.001  0.8232  2.4831 -0.5472
 2386SOL     OW18793   4.047   2.258   6.177 -0.0137 -0.2048  0.3474
 2386SOL    HW118794   4.086   2.345   6.169  1.8857 -1.1840 -0.9738
 2386SOL    HW218795   4.007   2.261   6.264  0.1206  0.1750  0.3943
 2387SOL     OW18796   2.546   1.252   2.560 -0.4098 -0.0202  0.2973
 2387SOL    HW118797   2.534   1.205   2.643  3.9296 -1.4974  0.1002
 2387SOL    HW218798   2.638   1.233   2.541 -0.6124 -1.5970  0.8807
 2388SOL     OW18799   2.452   1.833   2.977  0.0160 -0.6522  0.1085
 2388SOL    HW118800   2.500   1.821   2.895  1.2065 -3.5553  1.2312
 2388SOL    HW218801   2.518   1.799   3.037 -0.3054 -0.0230  0.8245
 2389SOL     OW18802   1.015   4.625   4.683 -0.1758 -0.2903 -0.0252
 2389SOL    HW118803   0.999   4.689   4.753 -0.0289 -0.7789  0.4531
 2389SOL    HW218804   1.105   4.642   4.654  0.4668  0.6690  2.5240
 2390SOL     OW18805   2.680   0.440  13.668 -0.1635 -0.5423 -0.0213
 2390SOL    HW118806   2.731   0.485  13.601  0.9743 -1.3178  0.3244
 2390SOL    HW218807   2.603   0.497  13.661 -1.5758 -2.3702  0.5402
 2391SOL     OW18808   0.657   2.690   6.469 -0.6582 -0.2406  0.2641
 2391SOL    HW118809   0.580   2.664   6.417 -1.0463 -0.5270  0.9805
 2391SOL    HW218810   0.702   2.606   6.461 -2.2022 -0.9540 -1.0409
 2392SOL     OW18811   0.710   0.901   0.466 -0.1028  0.1118 -0.3103
 2392SOL    HW118812   0.636   0.863   0.417 -1.6316  1.4459  0.9609
 2392SOL    HW218813   0.777   0.854   0.417  1.3436  1.8195  0.0573
 2393SOL     OW18814   4.049   2.728   4.973  0.4175 -0.3653 -0.4520
 2393SOL    HW118815   4.091   2.780   5.041  1.0592  0.9467 -1.8572
 2393SOL    HW218816   3.980   2.791   4.953  0.3142 -0.1144  0.7230
 2394SOL     OW18817   2.275   1.853   6.530  0.0892 -0.3706  0.0422
 2394SOL    HW118818   2.347   1.903   6.492 -1.2399  2.5605  1.3211
 2394SOL    HW218819   2.257   1.902   6.610  0.6301 -2.0315  1.1716
 2395SOL     OW18820   3.050   2.546   4.704  0.2443 -0.2747  0.1307
 2395SOL    HW118821   3.056   2.463   4.753  4.8563 -0.0093  0.0725
 2395SOL    HW218822   2.960   2.568   4.725 -0.4369 -2.5141 -0.4671
 2396SOL     OW18823   2.971   1.659   8.240  0.4312  0.4553 -0.0286
 2396SOL    HW118824   2.884   1.691   8.266  0.7421  0.2165  1.3119
 2396SOL    HW218825   3.008   1.656   8.328  1.7198 -0.1664 -0.5953
 2397SOL     OW18826   0.948   1.869  17.072 -0.2928  0.1232  0.4738
 2397SOL    HW118827   0.975   1.787  17.032 -1.1865  0.1395 -0.1577
 2397SOL    HW218828   0.889   1.845  17.144 -2.2459  0.4447 -1.0047
 2398SOL     OW18829   4.268   2.329   8.286  0.3928 -0.4501 -0.3489
 2398SOL    HW118830   4.217   2.316   8.207  0.4322  3.5946 -1.0237
 2398SOL    HW218831   4.312   2.245   8.298  1.3766 -0.0815 -1.3463
 2399SOL     OW18832   4.224   2.760   0.378 -0.3625 -0.5229 -1.1514
 2399SOL    HW118833   4.145   2.814   0.385  0.0488 -0.0297 -0.3617
 2399SOL    HW218834   4.191   2.671   0.392  0.4148 -0.4330  1.2549
 2400SOL     OW18835   1.229   0.973   1.549 -0.1665 -0.6335  0.0135
 2400SOL    HW118836   1.205   1.061   1.577  1.3807  0.3290 -1.6527
 2400SOL    HW218837   1.180   0.929   1.619 -0.9038 -1.0828 -0.7892
 2401SOL     OW18838   1.476   1.604   3.884 -0.4736  0.2980  0.3523
 2401SOL    HW118839   1.531   1.676   3.914  0.0681 -0.7519  1.8980
 2401SOL    HW218840   1.399   1.653   3.856 -1.4847 -2.0166 -0.9405
 2402SOL     OW18841   3.264   1.917  12.699  0.0870 -0.4581  0.0478
 2402SOL    HW118842   3.324   1.863  12.648 -1.5013 -1.7209 -0.4819
 2402SOL    HW218843   3.188   1.859  12.709 -0.8140  0.4820 -1.3374
 2403SOL     OW18844   0.152   1.594   7.526  0.1189  0.6898 -0.5179
 2403SOL    HW118845   0.110   1.679   7.542  0.2476  0.4827  0.8741
 2403SOL    HW218846   0.100   1.559   7.454 -0.4850  0.6627 -0.0630
 2404SOL     OW18847   0.667   4.571   6.347  0.4224 -0.0416 -0.1396
 2404SOL    HW118848   0.739   4.528   6.302  1.9121 -0.0843  2.2852
 2404SOL    HW218849   0.591   4.514   6.337  0.7230 -0.2692 -1.1956
 2405SOL     OW18850   4.361   2.058   6.734  0.2480 -0.1455  0.3013
 2405SOL    HW118851   4.417   2.031   6.662 -1.4586  1.0378 -1.4793
 2405SOL    HW218852   4.344   1.971   6.770  0.7812  0.7068  2.5869
 2406SOL     OW18853   0.671   3.988   5.215 -0.1098  0.1541  0.0251
 2406SOL    HW118854   0.700   3.981   5.124  2.2902  1.4872  0.7056
 2406SOL    HW218855   0.580   4.013   5.199 -0.0288  0.2236 -0.3249
 2407SOL     OW18856   1.706   0.626   5.692  0.4067  0.3314 -0.7306
 2407SOL    HW118857   1.778   0.660   5.638 -0.6481  0.3144 -2.1614
 2407SOL    HW218858   1.748   0.541   5.705  1.8021  1.7252  3.6781
 2408SOL     OW18859   4.659   1.774   5.280 -0.7119  0.6069  0.1897
 2408SOL    HW118860   4.694   1.810   5.361 -1.7075  0.1060  0.8401
 2408SOL    HW218861   4.564   1.766   5.289 -0.3164 -2.0533  1.8869
 2409SOL     OW18862   0.842   2.242  12.708  0.2857 -0.2164  0.5610
 2409SOL    HW118863   0.796   2.159  12.714 -3.0244  1.7076  1.8598
 2409SOL    HW218864   0.899   2.248  12.785 -1.8429  0.5374  2.0882
 2410SOL     OW18865   3.072   4.131   3.625 -0.1823  0.2217 -0.0663
 2410SOL    HW118866   2.986   4.135   3.666 -0.2777 -0.1927 -0.2249
 2410SOL    HW218867   3.116   4.208   3.660 -0.6939  0.3125  0.3787
 2411SOL     OW18868   1.213   3.716   3.788 -0.0656  0.1531 -0.3517
 2411SOL    HW118869   1.292   3.685   3.744  0.2052 -0.1373  0.3441
 2411SOL    HW218870   1.200   3.801   3.745  0.7666  0.3132 -0.2828
 2412SOL     OW18871   3.714   2.705   5.967  0.4207 -0.1305 -0.2799
 2412SOL    HW118872   3.687   2.761   5.894  0.1496 -0.4511 -0.4242
 2412SOL    HW218873   3.807   2.727   5.976 -0.0099  2.5423 -2.2477
 2413SOL     OW18874   3.583   1.298   3.970 -0.2649 -0.1208  0.2948
 2413SOL    HW118875   3.530   1.238   4.023 -0.4787 -0.8180 -0.7022
 2413SOL    HW218876   3.621   1.353   4.038  0.5363 -0.6381  0.2627
 2414SOL     OW18877   4.717   1.570   0.276 -0.6774  0.1044  0.8898
 2414SOL    HW118878   4.672   1.509   0.218 -1.9438 -0.7368  2.7559
 2414SOL    HW218879   4.640   1.611   0.315  0.1997  1.1817  1.4883
 2415SOL     OW18880   2.282   2.786   4.500  0.1046  0.0142  0.1535
 2415SOL    HW118881   2.355   2.847   4.503  0.0505  0.1215 -0.7890
 2415SOL    HW218882   2.321   2.712   4.547  0.9912  1.1500  1.2305
 2416SOL     OW18883   3.466   3.030   0.391  0.3444 -0.5082  0.4443
 2416SOL    HW118884   3.390   2.979   0.362  0.8494 -1.8188  1.4561
 2416SOL    HW218885   3.523   3.022   0.314  1.9894 -1.0174  1.7157
 2417SOL     OW18886   2.107   2.663   4.821 -0.2255  0.1481 -0.2906
 2417SOL    HW118887   2.066   2.647   4.736  0.1073 -0.8785 -0.2584
 2417SOL    HW218888   2.069   2.592   4.873  2.4351 -0.4733  0.8213
 2418SOL     OW18889   1.276   1.680  14.121 -0.5465  0.0558  0.5205
 2418SOL    HW118890   1.326   1.707  14.044 -0.3902 -1.3862  0.1185
 2418SOL    HW218891   1.272   1.586  14.102  2.5687  0.3732 -1.6750
 2419SOL     OW18892   1.062   1.278   2.997 -0.2450 -0.6989 -0.1018
 2419SOL    HW118893   1.125   1.310   2.932 -0.2827  0.2465  0.3246
 2419SOL    HW218894   1.110   1.302   3.076 -1.4116 -1.1131  0.7217
 2420SOL     OW18895   3.401   1.959   9.169  0.6023 -0.3216 -0.0231
 2420SOL    HW118896   3.343   1.898   9.215 -0.1870  1.3874  1.2437
 2420SOL    HW218897   3.429   2.012   9.244 -0.6190  1.0281 -0.5195
 2421SOL     OW18898   1.080   1.698   4.552 -0.0489  0.0784  0.8577
 2421SOL    HW118899   1.050   1.693   4.461 -0.9191  0.2396  1.1374
 2421SOL    HW218900   1.011   1.737   4.606 -1.3852 -1.9113  0.5571
 2422SOL     OW18901   2.950   2.799   5.702 -0.5731  0.0071  0.2383
 2422SOL    HW118902   3.015   2.729   5.695  0.4863  1.0214 -0.0865
 2422SOL    HW218903   2.945   2.824   5.610 -1.5751 -0.2774  0.2148
 2423SOL     OW18904   3.966   3.787   8.661  0.4253 -0.1566  0.2263
 2423SOL    HW118905   3.923   3.713   8.703  0.9177 -2.0801 -2.6397
 2423SOL    HW218906   4.002   3.741   8.585 -2.2955 -2.7214  0.5035
 2424SOL     OW18907   2.311   4.266   9.640 -0.2039 -0.2293 -0.8075
 2424SOL    HW118908   2.287   4.184   9.683 -1.0913 -0.9081 -2.5883
 2424SOL    HW218909   2.229   4.315   9.634 -0.4559 -0.5645 -0.1076
 2425SOL     OW18910   0.804   4.559   4.865 -0.3903 -0.3662 -0.2770
 2425SOL    HW118911   0.865   4.629   4.888 -0.9736  0.0194  0.1060
 2425SOL    HW218912   0.732   4.612   4.831 -0.6929 -1.1664 -0.8996
 2426SOL     OW18913   2.662   4.224   4.611  0.6457 -0.4515  0.1901
 2426SOL    HW118914   2.682   4.212   4.519  0.5665 -1.9198  0.3652
 2426SOL    HW218915   2.736   4.170   4.641 -0.0354 -2.0563 -1.0148
 2427SOL     OW18916   0.751   0.517  12.306 -0.2262  0.3030  0.0558
 2427SOL    HW118917   0.671   0.487  12.262 -1.5994  0.1229  2.7004
 2427SOL    HW218918   0.711   0.582  12.364 -0.1663  0.8882 -0.5505
 2428SOL     OW18919   3.722   1.093   2.855 -0.4554  0.2160 -0.3794
 2428SOL    HW118920   3.716   1.176   2.808  0.1269  1.0531  1.0350
 2428SOL    HW218921   3.696   1.130   2.939 -0.9885 -1.5588  0.2519
 2429SOL     OW18922   1.118   3.980  10.898 -0.1543  0.4077 -0.0145
 2429SOL    HW118923   1.127   4.073  10.920  1.6964  0.0513  0.6828
 2429SOL    HW218924   1.197   3.941  10.935  0.0589  0.8550 -0.0044
 2430SOL     OW18925   2.206   2.090  12.344  0.5159 -0.3729 -0.8329
 2430SOL    HW118926   2.173   2.170  12.304 -0.3151 -0.8743 -1.1517
 2430SOL    HW218927   2.244   2.133  12.421 -1.1483  1.3531 -0.9756
 2431SOL     OW18928   1.955   0.269  10.664  0.0858  0.2020 -0.0797
 2431SOL    HW118929   1.938   0.178  10.687 -0.8747  0.0912 -1.2340
 2431SOL    HW218930   2.012   0.266  10.588  0.2893  1.6569  0.0034
 2432SOL     OW18931   0.721   2.036   7.723 -0.1267 -0.6079  0.4488
 2432SOL    HW118932   0.675   1.977   7.783 -1.5080 -0.8971 -0.8958
 2432SOL    HW218933   0.734   1.974   7.650 -1.3377  2.0947 -2.0426
 2433SOL     OW18934   3.573   2.287  12.561 -0.1615 -0.1790 -0.8548
 2433SOL    HW118935   3.664   2.309  12.581 -0.9467  1.0540  1.3112
 2433SOL    HW218936   3.578   2.196  12.589 -0.3738 -0.9010 -3.1472
 2434SOL     OW18937   2.057   3.726  16.699  0.1266 -0.0957  0.1712
 2434SOL    HW118938   2.107   3.736  16.618 -0.0618  0.0671  0.0742
 2434SOL    HW218939   2.007   3.649  16.675 -0.6550  0.3216  0.4564
 2435SOL     OW18940   3.108   2.388  15.431  0.1476 -0.3551  0.4685
 2435SOL    HW118941   3.147   2.381  15.518 -0.4889  0.0416  0.7823
 2435SOL    HW218942   3.078   2.479  15.430 -0.8728 -0.7137 -1.6112
 2436SOL     OW18943   0.934   3.921   4.561 -0.4810 -0.2503 -0.6844
 2436SOL    HW118944   0.975   4.003   4.586 -2.2908  0.0780  1.1935
 2436SOL    HW218945   0.971   3.862   4.626  0.4053  0.4519 -0.5606
 2437SOL     OW18946   3.121   2.859  16.141 -0.2147 -0.0799  0.6231
 2437SOL    HW118947   3.031   2.888  16.125 -0.9088 -1.7014  1.6827
 2437SOL    HW218948   3.161   2.872  16.054 -2.6219  0.3085 -0.4192
 2438SOL     OW18949   2.551   2.992   8.035 -0.2055 -0.2637 -0.3886
 2438SOL    HW118950   2.474   2.976   7.981 -0.3963  2.6602 -1.0113
 2438SOL    HW218951   2.511   2.982   8.122  0.0294  0.8025 -0.1565
 2439SOL     OW18952   4.232   2.136   2.287  1.0693 -0.4995  0.3020
 2439SOL    HW118953   4.176   2.158   2.362  3.0065  0.9538  1.3106
 2439SOL    HW218954   4.260   2.220   2.252 -1.6838 -0.1824 -1.1696
 2440SOL     OW18955   3.195   2.338   3.082 -0.2205 -0.1661  0.4916
 2440SOL    HW118956   3.174   2.244   3.084  0.7564 -0.3013  3.2677
 2440SOL    HW218957   3.259   2.348   3.011  0.6060  1.5656  1.4825
 2441SOL     OW18958   2.016   1.688   8.682  0.2710 -0.2208 -0.1774
 2441SOL    HW118959   2.044   1.605   8.720 -0.6715 -1.6524 -2.6616
 2441SOL    HW218960   2.085   1.712   8.621 -0.6303  2.2478 -0.2353
 2442SOL     OW18961   0.346   2.039   5.393  0.4374  0.1118  0.3686
 2442SOL    HW118962   0.381   1.950   5.401  1.4693  0.7297  2.6538
 2442SOL    HW218963   0.290   2.050   5.470 -1.3010 -2.1901 -0.5750
 2443SOL     OW18964   1.012   0.858   0.217  0.3447  0.0511  0.2639
 2443SOL    HW118965   1.065   0.846   0.139 -1.7622 -1.2288 -0.9678
 2443SOL    HW218966   1.031   0.952   0.223 -0.0522  0.1188  0.5045
 2444SOL     OW18967   4.427   3.715  16.320 -0.2436  0.3590  0.5498
 2444SOL    HW118968   4.404   3.645  16.259  0.3061  1.5481 -1.0134
 2444SOL    HW218969   4.365   3.784  16.298  1.0094  1.8959  1.8405
 2445SOL     OW18970   2.197   0.411   8.109 -0.6202 -0.5572 -0.2021
 2445SOL    HW118971   2.214   0.358   8.031 -1.1760 -0.1320 -0.6191
 2445SOL    HW218972   2.113   0.378   8.140 -0.0466 -0.2879  1.6532
 2446SOL     OW18973   1.822   3.391   6.276 -0.3116  0.8213  0.2087
 2446SOL    HW118974   1.761   3.333   6.321  1.8465 -1.1776  0.5417
 2446SOL    HW218975   1.784   3.479   6.278  1.6410  1.7603 -3.7987
 2447SOL     OW18976   1.618   4.148  11.307  0.0146  0.3091 -0.2290
 2447SOL    HW118977   1.525   4.171  11.312 -0.5671 -1.5626 -1.9376
 2447SOL    HW218978   1.655   4.227  11.345 -0.0996  0.5282 -0.5671
 2448SOL     OW18979   1.418   0.492   6.163 -0.7135 -0.0724 -0.7875
 2448SOL    HW118980   1.359   0.520   6.092 -0.9579  1.3005 -0.0586
 2448SOL    HW218981   1.375   0.541   6.234  1.3691 -0.8100  0.9536
 2449SOL     OW18982   1.363   0.614   1.170  0.0684 -0.2917 -0.7351
 2449SOL    HW118983   1.316   0.676   1.226  0.1556 -0.3129 -0.6376
 2449SOL    HW218984   1.348   0.652   1.083 -1.1999 -1.6254 -1.0877
 2450SOL     OW18985   2.772   4.122  15.959 -0.1020  0.2808 -0.3864
 2450SOL    HW118986   2.850   4.139  15.907  0.1742  0.1116 -0.0278
 2450SOL    HW218987   2.768   4.192  16.024 -0.3175  0.2960 -0.4152
 2451SOL     OW18988   2.257   3.346   5.024 -0.5278  0.0476 -0.4022
 2451SOL    HW118989   2.192   3.333   5.093 -2.1950  2.0469 -1.5994
 2451SOL    HW218990   2.320   3.275   5.035 -0.1915  0.5574  0.8911
 2452SOL     OW18991   2.652   3.204  17.299  0.4256 -0.0954  0.1084
 2452SOL    HW118992   2.658   3.110  17.317 -0.4878 -0.1656  0.0730
 2452SOL    HW218993   2.739   3.223  17.264 -0.0892 -1.8923 -2.1096
 2453SOL     OW18994   4.117   0.187   8.994 -0.7350 -0.1769 -0.0347
 2453SOL    HW118995   4.024   0.170   9.012 -0.4707 -3.4447 -1.7485
 2453SOL    HW218996   4.150   0.236   9.070  1.1677  0.8709 -1.5510
 2454SOL     OW18997   0.560   3.210   0.644 -0.0859  0.4165 -0.2464
 2454SOL    HW118998   0.578   3.251   0.728 -0.6959 -0.8067  0.4907
 2454SOL    HW218999   0.487   3.261   0.609  0.5102  0.7921 -0.9406
 2455SOL     OW19000   3.792   0.128   7.732  0.6420  0.3837  0.3668
 2455SOL    HW119001   3.886   0.145   7.728  0.0411  2.9864 -2.3363
 2455SOL    HW219002   3.753   0.215   7.744 -1.3051 -0.1101 -2.3936
 2456SOL     OW19003   0.653   0.320   2.652  0.1463 -0.4971 -0.1310
 2456SOL    HW119004   0.645   0.366   2.736 -3.7572 -1.1518 -0.1716
 2456SOL    HW219005   0.744   0.290   2.659 -0.1284 -0.8981  1.7832
 2457SOL     OW19006   3.703   3.678   0.327  0.6397  0.2208 -0.5159
 2457SOL    HW119007   3.761   3.737   0.374  0.8824 -0.0438 -0.4811
 2457SOL    HW219008   3.748   3.594   0.340 -2.1608 -0.6615  3.2219
 2458SOL     OW19009   0.612   1.561   3.690  0.0257 -0.8357  0.7232
 2458SOL    HW119010   0.698   1.527   3.665 -0.1711 -2.5943  2.4347
 2458SOL    HW219011   0.577   1.573   3.602 -0.2073 -3.4256  0.4871
 2459SOL     OW19012   0.775   1.821  17.300  0.4583  0.0049 -0.5393
 2459SOL    HW119013   0.824   1.890  17.344  0.8667 -0.0700 -0.8717
 2459SOL    HW219014   0.780   1.748  17.360 -3.5317  0.3949  0.2934
 2460SOL     OW19015   0.398   2.442   8.412 -0.6871 -0.3962  0.2508
 2460SOL    HW119016   0.415   2.351   8.434 -0.5031 -0.8805 -1.8358
 2460SOL    HW219017   0.471   2.460   8.352 -0.8436 -1.2721 -0.2095
 2461SOL     OW19018   1.863   1.573   3.710 -0.8618  0.3355  0.0250
 2461SOL    HW119019   1.921   1.632   3.663  0.4264 -0.6413  0.4066
 2461SOL    HW219020   1.929   1.520   3.754 -0.3786  1.0971  0.2047
 2462SOL     OW19021   1.644   3.679   2.424 -0.0995  0.1261  0.3731
 2462SOL    HW119022   1.554   3.674   2.455 -0.5618 -0.1025 -1.0303
 2462SOL    HW219023   1.646   3.731   2.345 -0.4366 -2.4008 -1.3054
 2463SOL     OW19024   4.607   2.674  13.445 -0.4656  0.1258 -0.3509
 2463SOL    HW119025   4.574   2.636  13.526 -0.4917  0.7580 -0.0678
 2463SOL    HW219026   4.568   2.760  13.433  2.1247  1.2258 -0.6990
 2464SOL     OW19027   2.561   2.339   5.343 -0.5354 -0.3669  0.2262
 2464SOL    HW119028   2.577   2.302   5.255  0.7249  0.5710  0.0637
 2464SOL    HW219029   2.532   2.260   5.389 -0.9193  0.4294  1.3517
 2465SOL     OW19030   4.174   3.095   8.517 -0.6836 -0.0613 -0.5209
 2465SOL    HW119031   4.232   3.070   8.445  2.2048  2.7835  0.7938
 2465SOL    HW219032   4.220   3.170   8.555  1.3497 -0.6925 -1.6850
 2466SOL     OW19033   3.235   2.763   4.173  0.5441 -0.1424 -0.1382
 2466SOL    HW119034   3.185   2.827   4.122 -2.6031 -3.1112 -0.8409
 2466SOL    HW219035   3.202   2.786   4.260  0.8026  1.5647 -0.5053
 2467SOL     OW19036   2.456   0.247   2.461  0.6270  0.0010 -0.1727
 2467SOL    HW119037   2.372   0.293   2.452  0.2942 -0.5046  0.3669
 2467SOL    HW219038   2.513   0.324   2.454 -1.4707  1.5225 -0.7155
 2468SOL     OW19039   4.035   3.698   7.352 -0.0092 -0.6238  0.2783
 2468SOL    HW119040   4.070   3.640   7.284 -2.1106  0.1425 -1.4670
 2468SOL    HW219041   4.025   3.777   7.299  1.2531 -0.0786  0.8585
 2469SOL     OW19042   0.404   3.835   5.527 -0.0306 -0.0556  0.6238
 2469SOL    HW119043   0.414   3.820   5.621 -0.4620 -3.0179  0.1886
 2469SOL    HW219044   0.312   3.815   5.510  0.2580 -0.3228 -0.5934
 2470SOL     OW19045   4.527   2.607  13.707 -0.0201 -0.2511  0.1901
 2470SOL    HW119046   4.522   2.511  13.702 -0.3995 -0.1107 -2.1301
 2470SOL    HW219047   4.607   2.618  13.758  0.9365  0.8554 -1.5702
 2471SOL     OW19048   3.494   3.212  13.559 -0.1119  0.4499 -0.6236
 2471SOL    HW119049   3.529   3.207  13.648 -0.0403 -1.6874 -0.7894
 2471SOL    HW219050   3.494   3.120  13.536  3.8954  0.1556  0.5560
 2472SOL     OW19051   3.938   1.487   6.955 -0.4472 -0.1304  0.9437
 2472SOL    HW119052   4.007   1.512   7.016 -0.6672 -1.9585  1.9581
 2472SOL    HW219053   3.994   1.469   6.880 -0.0681 -0.5099  1.3203
 2473SOL     OW19054   2.577   3.416  10.367  0.1755 -0.7904 -0.6223
 2473SOL    HW119055   2.648   3.393  10.426  0.6865  1.3899 -0.4242
 2473SOL    HW219056   2.521   3.481  10.409  1.6676 -0.0266  0.1621
 2474SOL     OW19057   1.374   0.027  16.985  0.5123 -0.3664  0.9961
 2474SOL    HW119058   1.457   0.002  16.944 -0.9025  0.5222 -2.3739
 2474SOL    HW219059   1.384   4.722  17.072 -0.4024  1.0082  1.7263
 2475SOL     OW19060   1.731   0.674   3.569 -0.1260  0.9744  0.0618
 2475SOL    HW119061   1.650   0.624   3.577  1.3909 -1.9292 -2.9972
 2475SOL    HW219062   1.694   0.762   3.561 -1.7279  0.2908 -0.0138
 2476SOL     OW19063   2.742   0.143   2.114  0.4262  0.4782  0.6655
 2476SOL    HW119064   2.734   0.231   2.152  0.0077  0.5785  0.3458
 2476SOL    HW219065   2.665   0.104   2.155  0.3468 -1.0218 -0.9566
 2477SOL     OW19066   2.877   3.206   2.979 -0.1019 -1.4732  0.2628
 2477SOL    HW119067   2.949   3.260   3.010 -0.8580 -1.7545  2.4676
 2477SOL    HW219068   2.880   3.220   2.884  1.2896 -0.7399  0.4176
 2478SOL     OW19069   3.853   1.856  11.902  0.3196  0.1544  0.1223
 2478SOL    HW119070   3.761   1.882  11.896  0.3119 -0.1442 -1.0494
 2478SOL    HW219071   3.892   1.943  11.904 -0.2497  0.4297 -0.9782
 2479SOL     OW19072   3.314   0.194   4.264  0.5183 -0.6026 -0.3686
 2479SOL    HW119073   3.345   0.166   4.350 -1.5957 -1.1531  0.2145
 2479SOL    HW219074   3.380   0.263   4.251  0.3928 -0.6823 -1.4355
 2480SOL     OW19075   1.827   1.918   3.119  0.5909 -0.7603 -0.0688
 2480SOL    HW119076   1.760   1.974   3.081  0.1055 -1.4802 -0.2877
 2480SOL    HW219077   1.804   1.921   3.211 -3.8259  1.6041 -1.2644
 2481SOL     OW19078   4.413   0.526  15.589  0.3615  0.4442 -0.4621
 2481SOL    HW119079   4.486   0.588  15.586  1.3885 -0.7058  0.5184
 2481SOL    HW219080   4.414   0.490  15.500  0.3172 -0.4051 -0.1174
 2482SOL     OW19081   2.533   0.421   2.111  0.2841 -0.0053 -0.1418
 2482SOL    HW119082   2.616   0.437   2.157 -0.4915 -0.2267  1.3351
 2482SOL    HW219083   2.556   0.425   2.018 -3.3156 -2.9034 -1.1423
 2483SOL     OW19084   4.108   2.965   5.500  0.1249  0.4651  0.1505
 2483SOL    HW119085   4.073   3.020   5.430  0.2070  0.9800  0.5104
 2483SOL    HW219086   4.031   2.960   5.556  0.5633 -1.4967  0.5851
 2484SOL     OW19087   1.759   4.676   8.711  0.2692  0.2715 -0.2062
 2484SOL    HW119088   1.801   4.626   8.642 -1.3452  1.7170 -2.2427
 2484SOL    HW219089   1.827   0.005   8.734 -0.5689  1.1028  0.0339
 2485SOL     OW19090   1.427   0.565   5.524  0.6974  0.1765 -0.0170
 2485SOL    HW119091   1.489   0.626   5.563  4.5967 -2.7627 -1.5826
 2485SOL    HW219092   1.483   0.524   5.458  0.9694  0.8535 -0.2177
 2486SOL     OW19093   0.378   2.182   7.610  0.3585 -0.2307 -0.1402
 2486SOL    HW119094   0.431   2.175   7.531 -0.2475  0.5157 -0.6265
 2486SOL    HW219095   0.359   2.276   7.601  0.6431 -0.0877  0.7892
 2487SOL     OW19096   0.817   1.621   1.688  0.3560 -0.8087 -0.1124
 2487SOL    HW119097   0.873   1.544   1.673  0.0093 -1.2992  1.1417
 2487SOL    HW219098   0.732   1.578   1.688  0.6761 -1.4441  0.5178
 2488SOL     OW19099   1.312   0.684   4.877  0.5112  0.5266 -0.5171
 2488SOL    HW119100   1.302   0.694   4.971 -0.0279  1.1600 -0.6365
 2488SOL    HW219101   1.223   0.685   4.840  0.0835  2.0592  0.5524
 2489SOL     OW19102   1.213   1.861  13.264 -0.2916  0.7090 -1.1469
 2489SOL    HW119103   1.161   1.798  13.213 -0.3925 -0.2093  0.0744
 2489SOL    HW219104   1.153   1.935  13.264  0.0513  0.9856  0.3592
 2490SOL     OW19105   0.870   3.867   3.967 -0.2765  0.0456 -0.3596
 2490SOL    HW119106   0.907   3.874   4.054 -0.1428 -0.1692 -0.3996
 2490SOL    HW219107   0.776   3.880   3.980 -0.3358 -1.8561  0.9901
 2491SOL     OW19108   2.328   4.638   3.279  0.5533 -0.4637  0.8388
 2491SOL    HW119109   2.406   4.678   3.240 -0.5131 -0.2224 -1.0448
 2491SOL    HW219110   2.346   4.546   3.302 -0.4670 -1.1481 -1.0972
 2492SOL     OW19111   2.937   0.320   8.346  0.2628  0.1482  0.4989
 2492SOL    HW119112   2.891   0.275   8.276  2.4722 -1.0576 -0.1978
 2492SOL    HW219113   3.002   0.252   8.366 -1.4208 -1.2402  1.2544
 2493SOL     OW19114   3.527   2.257  17.341  0.7255  0.3592 -0.5450
 2493SOL    HW119115   3.527   2.308  17.422 -1.4833 -2.3727  1.2014
 2493SOL    HW219116   3.614   2.217  17.345  0.9008  0.8900  0.8152
 2494SOL     OW19117   1.158   1.488   5.864  0.5982  0.2394  0.1111
 2494SOL    HW119118   1.172   1.396   5.839  1.6101  0.4848 -0.2024
 2494SOL    HW219119   1.245   1.527   5.872  1.1081 -0.4598 -1.9233
 2495SOL     OW19120   4.445   3.944   9.131 -0.0560  0.1962  0.0068
 2495SOL    HW119121   4.522   3.934   9.075 -0.3841 -1.0753 -0.2031
 2495SOL    HW219122   4.483   3.922   9.216  1.5014 -0.1601 -0.7854
 2496SOL     OW19123   0.260   2.054  16.381 -0.3048 -0.2094  0.3109
 2496SOL    HW119124   0.248   2.046  16.286 -1.0438  1.2866  0.2768
 2496SOL    HW219125   0.169   2.045  16.408 -0.7014  0.8170 -0.6749
 2497SOL     OW19126   3.781   1.327   6.176 -0.0023 -0.2761  0.2939
 2497SOL    HW119127   3.854   1.385   6.152  1.6168 -2.6779 -0.6836
 2497SOL    HW219128   3.751   1.362   6.259  0.9356  1.5384 -0.1212
 2498SOL     OW19129   2.008   4.177   4.532 -0.2764 -0.3984 -0.3741
 2498SOL    HW119130   2.004   4.229   4.612 -0.0101 -2.8252  1.2503
 2498SOL    HW219131   2.067   4.109   4.567 -0.4949  0.7051  2.1303
 2499SOL     OW19132   2.045   0.875   5.520  0.1218 -0.1818 -0.0047
 2499SOL    HW119133   2.034   0.903   5.429 -0.5098  0.7667  0.3679
 2499SOL    HW219134   2.137   0.898   5.533  0.4265 -0.2973 -1.9023
 2500SOL     OW19135   0.799   4.551   3.966  0.1876  0.1168  0.0971
 2500SOL    HW119136   0.850   4.488   4.017 -0.3422 -0.4487 -0.0689
 2500SOL    HW219137   0.791   4.511   3.880 -3.0001 -0.0232  0.4499
 2501SOL     OW19138   0.365   3.956  15.229  0.5992  0.0716  0.0470
 2501SOL    HW119139   0.405   4.022  15.172  0.6830  0.3125  0.3844
 2501SOL    HW219140   0.292   3.919  15.180  2.3324  0.0526 -2.5159
 2502SOL     OW19141   1.959   3.481   2.761  0.3499 -1.0242 -0.5607
 2502SOL    HW119142   2.003   3.557   2.724 -0.4858  0.6970  2.0232
 2502SOL    HW219143   1.985   3.417   2.694  1.9808 -0.4406 -0.4740
 2503SOL     OW19144   1.449   1.805   3.510  0.3053  0.0212 -0.0415
 2503SOL    HW119145   1.463   1.807   3.415  0.5413  1.9951  0.0334
 2503SOL    HW219146   1.537   1.797   3.547  1.7702  3.8544 -2.7512
 2504SOL     OW19147   2.929   4.150   5.595 -0.0643  0.9153  0.2261
 2504SOL    HW119148   2.977   4.069   5.610  0.1764  1.2782  1.4337
 2504SOL    HW219149   2.967   4.178   5.512  1.2373  0.1435  0.5786
 2505SOL     OW19150   1.482   1.214  16.342  0.0226 -0.0529  0.6695
 2505SOL    HW119151   1.554   1.271  16.316 -0.7241  0.5554 -0.0963
 2505SOL    HW219152   1.526   1.133  16.368 -0.5749 -0.0954  1.5459
 2506SOL     OW19153   2.507   4.055   5.478  0.1614  0.4554  0.1669
 2506SOL    HW119154   2.499   4.094   5.565  0.3864  0.3810  0.2203
 2506SOL    HW219155   2.487   4.127   5.419 -0.5820  1.0651  1.1626
 2507SOL     OW19156   0.504   1.465   0.397 -0.3804  0.0467  0.6070
 2507SOL    HW119157   0.447   1.394   0.367  1.4350 -0.7902 -0.8273
 2507SOL    HW219158   0.455   1.545   0.379 -0.3666 -0.9285 -3.7442
 2508SOL     OW19159   1.969   2.414  15.793 -0.4580 -0.7362  0.1155
 2508SOL    HW119160   1.888   2.420  15.742 -0.3283  2.7362  0.2763
 2508SOL    HW219161   1.984   2.507  15.811 -0.6300 -0.5531 -0.6909
 2509SOL     OW19162   2.678   2.735   6.703 -0.4884 -0.3209 -0.3169
 2509SOL    HW119163   2.593   2.760   6.740 -1.3053  1.6405 -3.4684
 2509SOL    HW219164   2.671   2.791   6.625 -0.2411 -1.2513 -1.0091
 2510SOL     OW19165   2.943   0.053   3.360 -0.5644  0.1256  0.4731
 2510SOL    HW119166   3.027   0.061   3.406 -1.3246 -3.2051  2.4228
 2510SOL    HW219167   2.904   4.706   3.392 -2.8567  1.4471  1.0318
 2511SOL     OW19168   3.696   1.269   2.194  0.2485  0.5720 -0.0615
 2511SOL    HW119169   3.647   1.305   2.120  0.8717 -0.1367 -0.8120
 2511SOL    HW219170   3.664   1.179   2.189  3.0300 -0.3421 -1.8374
 2512SOL     OW19171   4.095   2.208   2.527  0.0068  0.1124 -0.0218
 2512SOL    HW119172   4.028   2.252   2.581  0.2022 -1.1128  1.2114
 2512SOL    HW219173   4.110   2.127   2.576  0.6477  1.1676  1.5487
 2513SOL     OW19174   3.538   4.362   0.104  0.0228  0.0456  0.4223
 2513SOL    HW119175   3.473   4.433   0.106 -0.0779 -0.0495  0.5106
 2513SOL    HW219176   3.483   4.298   0.058  1.3156 -0.3943 -0.5116
 2514SOL     OW19177   3.315   0.957   5.657  0.6203 -0.7560 -0.0208
 2514SOL    HW119178   3.236   0.906   5.641 -0.6414  1.0607  0.4456
 2514SOL    HW219179   3.360   0.891   5.709  1.0200  0.0671  0.6778
 2515SOL     OW19180   3.713   4.226   2.706  0.0418  0.4828 -0.1568
 2515SOL    HW119181   3.681   4.209   2.617 -0.3963 -0.4089  0.1723
 2515SOL    HW219182   3.805   4.253   2.697  0.4210 -0.0047  2.3808
 2516SOL     OW19183   0.565   3.074   3.856 -0.1399  0.1956 -0.4689
 2516SOL    HW119184   0.563   3.111   3.945 -2.4970 -2.6048  0.6246
 2516SOL    HW219185   0.613   2.997   3.886  1.0099  0.6578 -1.1016
 2517SOL     OW19186   4.571   4.097  16.722  0.0677  0.0760  0.3336
 2517SOL    HW119187   4.585   4.080  16.628 -4.0578 -0.9835 -0.0767
 2517SOL    HW219188   4.651   4.060  16.760 -0.1507  0.9975  1.6817
 2518SOL     OW19189   2.718   0.031   8.166 -0.0576  0.4693  0.2233
 2518SOL    HW119190   2.777   0.037   8.091 -3.0854  2.3873 -2.0335
 2518SOL    HW219191   2.785   0.033   8.235 -0.9211  1.6322  1.0251
 2519SOL     OW19192   0.459   2.183   0.750  0.5849  0.8563 -0.0624
 2519SOL    HW119193   0.543   2.206   0.711  0.1930  0.7503 -0.9801
 2519SOL    HW219194   0.466   2.088   0.755 -1.2389  0.7658  0.6257
 2520SOL     OW19195   0.353   3.821   9.501  0.3312  0.0591  0.4699
 2520SOL    HW119196   0.319   3.734   9.522 -1.6876  0.0069 -3.1754
 2520SOL    HW219197   0.377   3.840   9.592 -0.5918  1.2449  0.4608
 2521SOL     OW19198   1.435   3.581   6.997  0.4045  0.2058  0.1209
 2521SOL    HW119199   1.492   3.613   7.066  1.3873  0.1987 -0.6898
 2521SOL    HW219200   1.467   3.495   6.970 -0.3455  0.1670 -0.6343
 2522SOL     OW19201   1.964   0.015  16.770  0.0779 -0.5363 -0.4929
 2522SOL    HW119202   1.879   4.706  16.757 -0.3226 -0.0673  0.5209
 2522SOL    HW219203   2.015   4.671  16.793  1.0713 -0.4220 -2.3738
 2523SOL     OW19204   4.095   1.553   4.024  0.0006  0.0806 -0.0477
 2523SOL    HW119205   4.005   1.574   4.050 -0.1203 -1.3918  0.7512
 2523SOL    HW219206   4.122   1.482   4.082  0.5501 -0.8413 -1.4484
 2524SOL     OW19207   0.207   1.070   8.426 -0.0734  0.4700 -0.1863
 2524SOL    HW119208   0.247   1.000   8.375  0.0321 -0.6053  1.3698
 2524SOL    HW219209   0.282   1.123   8.454  0.4990 -0.5741  0.2344
 2525SOL     OW19210   4.574   3.238   3.553  0.2193 -0.2604  0.4501
 2525SOL    HW119211   4.504   3.208   3.613 -0.1231 -1.3558 -0.4923
 2525SOL    HW219212   4.645   3.256   3.614 -1.2220  2.3660  1.3584
 2526SOL     OW19213   2.511   0.644  13.629  0.3422  0.2282  0.2866
 2526SOL    HW119214   2.470   0.728  13.650 -1.0436 -0.7025  1.2285
 2526SOL    HW219215   2.456   0.606  13.560  1.8202 -0.3139 -0.6056
 2527SOL     OW19216   1.571   4.299   3.403 -0.0784 -0.0292 -0.3762
 2527SOL    HW119217   1.576   4.296   3.498 -2.0009  1.2026 -0.2447
 2527SOL    HW219218   1.647   4.244   3.383  0.6903  1.4778 -1.6164
 2528SOL     OW19219   3.250   1.690   8.105 -0.8827  0.5153  0.0503
 2528SOL    HW119220   3.178   1.721   8.161 -0.2189 -0.7995  1.6316
 2528SOL    HW219221   3.317   1.668   8.170  0.2373 -1.6715 -1.8316
 2529SOL     OW19222   0.903   3.564   6.169  0.5459  0.4968 -0.2409
 2529SOL    HW119223   0.933   3.579   6.258  1.0935  0.4943 -0.4257
 2529SOL    HW219224   0.938   3.476   6.152  0.0624 -0.2677  2.7309
 2530SOL     OW19225   1.710   1.543  12.735  0.4869 -0.4252 -0.3741
 2530SOL    HW119226   1.645   1.491  12.783 -0.5993 -0.5568 -2.0174
 2530SOL    HW219227   1.772   1.475  12.707  2.2506  1.0495 -0.1082
 2531SOL     OW19228   3.949   3.697   9.251 -0.1753 -0.3491 -0.7825
 2531SOL    HW119229   3.911   3.750   9.321 -0.7292  0.9914 -2.0970
 2531SOL    HW219230   4.003   3.632   9.296 -2.0451 -0.5750  1.1348
 2532SOL     OW19231   2.539   0.701   8.992 -0.0957 -0.0437 -0.1143
 2532SOL    HW119232   2.624   0.667   8.964 -0.6941 -0.5225 -1.3800
 2532SOL    HW219233   2.557   0.793   9.009  0.0807 -0.0407 -0.3170
 2533SOL     OW19234   1.847   4.505  11.396  0.9628 -0.4399  0.0186
 2533SOL    HW119235   1.927   4.456  11.414  1.5462 -0.4551 -2.6357
 2533SOL    HW219236   1.786   4.445  11.440 -3.8000  1.7088 -3.5933
 2534SOL     OW19237   0.349   1.896   0.607 -0.1545  0.5437  0.6323
 2534SOL    HW119238   0.295   1.818   0.622  0.7724 -0.7496 -2.6861
 2534SOL    HW219239   0.438   1.861   0.612 -1.0031 -1.6903  0.1410
 2535SOL     OW19240   3.543   4.428   5.058  0.2298 -0.6195 -0.2942
 2535SOL    HW119241   3.582   4.356   5.008 -0.4741 -0.9030 -0.4365
 2535SOL    HW219242   3.566   4.405   5.148 -1.1809 -0.8994 -0.0053
 2536SOL     OW19243   2.673   0.256   9.187  0.0051 -0.4476 -0.4263
 2536SOL    HW119244   2.731   0.221   9.255  1.9949 -0.1134 -1.9298
 2536SOL    HW219245   2.657   0.181   9.130  0.1236 -0.1975 -0.7883
 2537SOL     OW19246   2.594   1.457   5.146  0.5973 -0.4397  0.6202
 2537SOL    HW119247   2.564   1.443   5.236 -0.2544  1.5153  0.6325
 2537SOL    HW219248   2.593   1.366   5.115  2.9791 -0.0736 -0.5528
 2538SOL     OW19249   1.182   2.559   3.603  0.4445  0.4057 -0.3411
 2538SOL    HW119250   1.273   2.579   3.579  1.1758 -0.6040  1.5762
 2538SOL    HW219251   1.181   2.464   3.613 -1.7982  0.3634 -0.9723
 2539SOL     OW19252   3.966   0.127   1.270  0.5750 -0.1202  0.3622
 2539SOL    HW119253   4.018   0.138   1.350  0.4770  0.5496  0.3385
 2539SOL    HW219254   3.913   0.206   1.277 -1.1185 -1.1640 -0.8429
 2540SOL     OW19255   3.718   1.799   6.389 -0.8313 -0.2570 -0.0946
 2540SOL    HW119256   3.777   1.867   6.421 -0.3719  0.5668 -2.6443
 2540SOL    HW219257   3.654   1.800   6.460  2.7083 -2.2457  3.1280
 2541SOL     OW19258   0.837   3.111  12.368  0.2775 -0.6296 -0.3152
 2541SOL    HW119259   0.893   3.108  12.446 -0.3867 -0.8582  0.1512
 2541SOL    HW219260   0.886   3.176  12.318  0.3149 -0.3612  0.0650
 2542SOL     OW19261   2.495   2.684   8.125 -0.4639  0.2413  0.2345
 2542SOL    HW119262   2.574   2.662   8.077 -1.0341 -2.4806  0.5609
 2542SOL    HW219263   2.477   2.605   8.176  1.2450  1.4753  2.7390
 2543SOL     OW19264   2.517   3.668   5.129  0.1903 -0.2598  0.0299
 2543SOL    HW119265   2.533   3.580   5.161 -0.0583  0.1316  1.2255
 2543SOL    HW219266   2.464   3.651   5.052  0.5151  0.4845 -0.3665
 2544SOL     OW19267   3.558   3.826  13.875 -0.5592 -0.0617 -1.0924
 2544SOL    HW119268   3.628   3.823  13.940 -1.9469 -1.7300  0.3588
 2544SOL    HW219269   3.556   3.919  13.853  1.3560  0.7756  2.2319
 2545SOL     OW19270   2.743   2.898   4.010  0.2030 -0.5950  0.2890
 2545SOL    HW119271   2.738   2.988   3.978  3.5907  0.6342  3.1443
 2545SOL    HW219272   2.753   2.916   4.104 -0.4814 -2.2287  0.6737
 2546SOL     OW19273   0.683   3.235   6.781 -0.3602  0.0863 -0.2907
 2546SOL    HW119274   0.711   3.230   6.872 -1.1180  1.1557 -0.0024
 2546SOL    HW219275   0.748   3.295   6.745  1.6430 -1.2093  1.1760
 2547SOL     OW19276   0.673   4.271   7.149  0.6912 -0.5673 -0.0241
 2547SOL    HW119277   0.676   4.322   7.231 -0.1013  0.2414 -0.4860
 2547SOL    HW219278   0.660   4.181   7.177  0.0004 -0.9191 -1.4831
 2548SOL     OW19279   2.288   1.318  16.872  0.9254 -0.1962 -0.0202
 2548SOL    HW119280   2.282   1.337  16.779 -1.4709 -0.4514  0.1038
 2548SOL    HW219281   2.361   1.375  16.896  2.2194 -0.5061 -3.2234
 2549SOL     OW19282   4.588   4.083   3.757  0.1048 -0.0463 -0.6134
 2549SOL    HW119283   4.494   4.075   3.776  0.5169 -1.0395  0.9723
 2549SOL    HW219284   4.604   4.009   3.698 -0.4467 -0.0633 -0.7454
 2550SOL     OW19285   2.186   3.941   4.554  0.2398 -0.5241 -0.1230
 2550SOL    HW119286   2.262   3.988   4.518 -0.3235  1.7517  1.6909
 2550SOL    HW219287   2.194   3.857   4.508 -0.2609 -1.3411  1.2660
 2551SOL     OW19288   3.120   0.001   7.830  0.7286 -0.0582  0.3166
 2551SOL    HW119289   3.196   4.729   7.889  0.1010 -1.4459  0.9889
 2551SOL    HW219290   3.149   0.052   7.755  3.2631  0.2089  1.4607
 2552SOL     OW19291   4.229   3.764   3.883 -0.1917  0.1989  0.2826
 2552SOL    HW119292   4.221   3.705   3.809  0.8096 -0.7509  0.9186
 2552SOL    HW219293   4.181   3.840   3.852  1.1301  0.9415  0.0598
 2553SOL     OW19294   1.631   3.872   3.903  0.0451  0.5890 -0.4946
 2553SOL    HW119295   1.697   3.911   3.846  1.3050  1.7482  1.7786
 2553SOL    HW219296   1.574   3.830   3.838 -1.2779  0.0092  1.0234
 2554SOL     OW19297   0.368   4.631  14.235  0.2834  0.1499  0.1710
 2554SOL    HW119298   0.283   4.627  14.191 -0.1230 -0.8747  1.0644
 2554SOL    HW219299   0.420   4.675  14.167  0.4092  4.0374  2.7930
 2555SOL     OW19300   2.711   2.527   3.501  0.1337 -0.0292  0.2927
 2555SOL    HW119301   2.796   2.569   3.486  0.3090  0.1956  1.9427
 2555SOL    HW219302   2.661   2.579   3.438  1.2377  3.4741  2.2855
 2556SOL     OW19303   2.690   0.199   1.626  0.7141 -0.4847 -0.0628
 2556SOL    HW119304   2.732   0.184   1.711  0.4806  1.7692  0.4307
 2556SOL    HW219305   2.621   0.132   1.634 -0.0853  0.4484  0.7751
 2557SOL     OW19306   2.023   2.988   3.861  0.1623  0.6101 -0.0045
 2557SOL    HW119307   2.117   2.991   3.843 -0.1911 -0.1477 -2.0087
 2557SOL    HW219308   1.978   3.025   3.785  2.0871  0.6645 -1.1054
 2558SOL     OW19309   0.932   4.719   5.609 -0.2728 -0.4036  0.0573
 2558SOL    HW119310   0.941   4.624   5.603 -1.7700 -0.5118 -0.6065
 2558SOL    HW219311   1.025   0.007   5.603 -0.6533  1.4734  1.1304
 2559SOL     OW19312   4.458   3.735   6.217  0.6828  0.1456 -0.2347
 2559SOL    HW119313   4.443   3.827   6.240 -0.5891 -0.6813  2.2485
 2559SOL    HW219314   4.421   3.728   6.129  0.0881  0.8491 -0.0411
 2560SOL     OW19315   1.553   3.532  17.470  0.8394 -0.2243  0.6948
 2560SOL    HW119316   1.497   3.454  17.466  2.4580 -1.3431 -0.4800
 2560SOL    HW219317   1.557   3.555  17.377  1.2824 -0.0472  0.7548
 2561SOL     OW19318   1.742   0.947  12.759  0.1804  0.0081  0.0716
 2561SOL    HW119319   1.814   0.918  12.703 -1.7371 -0.7495 -1.9938
 2561SOL    HW219320   1.707   0.863  12.790  0.1631  0.0419  0.1433
 2562SOL     OW19321   0.588   1.951   4.178  0.3552  0.2774 -0.4433
 2562SOL    HW119322   0.591   1.863   4.141 -0.4431 -0.0185  0.1897
 2562SOL    HW219323   0.601   1.925   4.269 -1.2348 -0.3634 -0.3863
 2563SOL     OW19324   4.209   2.020  16.941  0.2161  0.6841 -0.2907
 2563SOL    HW119325   4.206   2.104  16.988  2.3378  0.9068 -0.5637
 2563SOL    HW219326   4.118   2.004  16.966  0.1667  1.3828 -0.0006
 2564SOL     OW19327   4.105   3.643   1.933 -0.1148  0.0353  0.0046
 2564SOL    HW119328   4.095   3.549   1.926  0.3766 -0.0472  0.4148
 2564SOL    HW219329   4.150   3.657   2.016  1.4054 -1.1273 -0.6217
 2565SOL     OW19330   3.384   4.217   8.125  0.1055  0.1879 -0.1191
 2565SOL    HW119331   3.472   4.190   8.099 -0.6749 -2.1157 -0.4213
 2565SOL    HW219332   3.406   4.217   8.218  0.0174 -2.3030 -0.0866
 2566SOL     OW19333   1.773   4.353   9.581 -0.1789  1.3080 -0.0889
 2566SOL    HW119334   1.773   4.312   9.668 -0.9350 -0.0060 -0.7145
 2566SOL    HW219335   1.809   4.296   9.513  0.8525  1.0762  0.6354
 2567SOL     OW19336   2.986   4.509  11.088  0.0747 -0.4157  0.0385
 2567SOL    HW119337   2.996   4.599  11.120 -0.1379  0.8504 -3.4072
 2567SOL    HW219338   2.896   4.506  11.056 -0.7511 -0.0231  2.3430
 2568SOL     OW19339   3.495   1.778  10.740  0.1444 -0.1487  0.7184
 2568SOL    HW119340   3.551   1.704  10.716  0.8916  0.5010  0.4419
 2568SOL    HW219341   3.441   1.789  10.662  0.0776 -0.6914  0.6840
 2569SOL     OW19342   4.617   4.050   4.560  0.0668 -0.3385  0.0911
 2569SOL    HW119343   4.695   4.019   4.512 -1.0822  0.4734 -2.2859
 2569SOL    HW219344   4.547   3.993   4.528 -0.6007  0.3034  0.4480
 2570SOL     OW19345   2.178   4.070   8.947 -0.0728  0.0918 -0.1921
 2570SOL    HW119346   2.242   4.091   9.016  0.0546 -0.1924 -0.2227
 2570SOL    HW219347   2.232   4.024   8.883 -0.0993  1.1864 -0.9757
 2571SOL     OW19348   1.619   3.860   6.983 -0.0181 -0.6087 -0.1827
 2571SOL    HW119349   1.587   3.840   6.895  1.0589 -0.6658 -0.5651
 2571SOL    HW219350   1.672   3.939   6.975 -0.6076 -0.0882  1.0941
 2572SOL     OW19351   3.383   0.171   9.979  0.2856 -0.1612 -0.6779
 2572SOL    HW119352   3.447   0.100   9.964 -0.6881 -0.7954 -1.8641
 2572SOL    HW219353   3.380   0.197  10.071 -0.2219  2.1308 -1.3576
 2573SOL     OW19354   0.453   0.551  17.107 -0.3390  0.0574 -0.2114
 2573SOL    HW119355   0.396   0.561  17.183 -0.8922 -3.4781 -0.1867
 2573SOL    HW219356   0.380   0.549  17.045 -0.5587  0.5837  0.0341
 2574SOL     OW19357   3.365   1.730   7.838  0.1736 -0.1139 -0.3934
 2574SOL    HW119358   3.353   1.766   7.926 -2.5037  0.3414 -0.9569
 2574SOL    HW219359   3.282   1.682   7.842 -0.6616  1.4999  1.6428
 2575SOL     OW19360   1.923   4.005   9.057  0.2567 -0.6273  1.3261
 2575SOL    HW119361   1.858   3.981   8.991  0.7359  0.8116  0.3397
 2575SOL    HW219362   2.001   4.032   9.009  0.4600  1.0536  2.6036
 2576SOL     OW19363   4.152   3.954   6.431  0.4325  0.5247  0.6675
 2576SOL    HW119364   4.231   3.971   6.379  1.3825 -0.2413  1.8473
 2576SOL    HW219365   4.201   3.945   6.513 -0.4913  0.1199  1.1777
 2577SOL     OW19366   0.872   3.702   2.956  0.1008  0.4764  0.0669
 2577SOL    HW119367   0.948   3.662   2.999 -0.1263 -3.5197 -3.2497
 2577SOL    HW219368   0.828   3.739   3.033  0.5162 -1.5638  1.2832
 2578SOL     OW19369   2.659   1.140   5.888  0.1214 -0.1218 -0.1373
 2578SOL    HW119370   2.715   1.088   5.945  0.1544  0.4333  0.3468
 2578SOL    HW219371   2.632   1.076   5.822  0.4329  1.1560 -1.5004
 2579SOL     OW19372   3.807   3.581   2.984  0.2591  0.2823 -0.0457
 2579SOL    HW119373   3.871   3.652   2.974 -2.0995  2.5579  0.9186
 2579SOL    HW219374   3.877   3.520   2.962 -0.4970 -0.1033 -1.3409
 2580SOL     OW19375   1.703   0.697  14.420  0.8476 -0.9460 -1.1453
 2580SOL    HW119376   1.747   0.739  14.346 -1.2866 -0.9901 -2.4387
 2580SOL    HW219377   1.750   0.738  14.492  1.6683 -0.5059 -1.9253
 2581SOL     OW19378   4.527   1.206   3.422  0.4412  0.0201  0.1717
 2581SOL    HW119379   4.533   1.267   3.495 -0.9121  0.7603 -0.3540
 2581SOL    HW219380   4.454   1.152   3.451  0.1971  0.9057  1.1896
 2582SOL     OW19381   2.650   2.042  14.156  0.1343 -0.1420 -0.3567
 2582SOL    HW119382   2.674   1.957  14.118  0.5046 -0.4972  0.6684
 2582SOL    HW219383   2.565   2.055  14.115 -1.5142  0.8874  3.4172
 2583SOL     OW19384   4.499   1.124   1.347 -0.4266 -0.0467  0.2909
 2583SOL    HW119385   4.593   1.122   1.330 -0.0595 -0.8942  2.3582
 2583SOL    HW219386   4.495   1.059   1.418 -0.7589 -0.6914 -0.3193
 2584SOL     OW19387   2.933   0.727   6.722  0.0093  0.7400 -0.5430
 2584SOL    HW119388   2.962   0.653   6.777 -0.8617  0.1724 -0.8430
 2584SOL    HW219389   2.884   0.678   6.656  1.7726 -0.8350 -0.6841
 2585SOL     OW19390   4.414   4.262   8.509 -0.5357  0.3382 -0.3402
 2585SOL    HW119391   4.501   4.301   8.498 -0.2562 -0.5231 -1.1605
 2585SOL    HW219392   4.401   4.272   8.603 -0.3272  3.5482 -0.6380
 2586SOL     OW19393   2.503   1.196   5.586 -0.0401 -0.1720  0.5379
 2586SOL    HW119394   2.552   1.122   5.623  0.0569  0.3801  1.5185
 2586SOL    HW219395   2.459   1.232   5.663 -0.3205  2.9640 -1.0616
 2587SOL     OW19396   4.733   1.842   7.581 -0.4318  0.5809  0.2702
 2587SOL    HW119397   4.719   1.868   7.672  1.3117  1.1676  0.3629
 2587SOL    HW219398   0.077   1.895   7.563 -1.5384  2.5228  1.1330
 2588SOL     OW19399   1.090   0.498  12.508  0.4190  0.3645  0.7269
 2588SOL    HW119400   1.056   0.582  12.477 -0.5339 -0.2239  0.1602
 2588SOL    HW219401   1.062   0.437  12.439 -0.9301 -0.4274  1.9769
 2589SOL     OW19402   3.464   0.402  12.268 -0.2238  0.2211  0.3014
 2589SOL    HW119403   3.559   0.400  12.277 -0.2303  0.1998  0.3638
 2589SOL    HW219404   3.452   0.497  12.267 -1.1299  0.1016 -0.1172
 2590SOL     OW19405   1.773   0.947   5.232  0.4051  0.0798 -0.5720
 2590SOL    HW119406   1.858   0.906   5.247  0.4524 -0.5282 -2.5305
 2590SOL    HW219407   1.789   0.989   5.147 -1.4158  0.2333 -0.8375
 2591SOL     OW19408   4.205   0.651   5.096  0.3481 -0.4685 -0.3009
 2591SOL    HW119409   4.296   0.655   5.065  1.1417 -2.0933  1.8051
 2591SOL    HW219410   4.204   0.744   5.119 -0.4705 -0.5835  0.0965
 2592SOL     OW19411   2.003   1.525   1.750  0.1398  0.1708  0.1398
 2592SOL    HW119412   1.977   1.451   1.805  1.9950 -0.7339 -0.2064
 2592SOL    HW219413   1.923   1.576   1.763 -1.7599 -2.6201 -0.6003
 2593SOL     OW19414   1.679   4.352  15.216 -0.6660  0.3392  0.3607
 2593SOL    HW119415   1.634   4.430  15.248 -0.1526  0.8268 -0.1068
 2593SOL    HW219416   1.723   4.314  15.292 -2.7152 -3.6943 -0.4907
 2594SOL     OW19417   0.577   3.710   2.928  0.0439 -0.3450  0.7320
 2594SOL    HW119418   0.665   3.692   2.896  0.6998  1.5692  1.4461
 2594SOL    HW219419   0.543   3.622   2.943  1.2459 -1.2614 -1.9190
 2595SOL     OW19420   4.046   0.598  11.304 -0.1994  0.2637  0.6804
 2595SOL    HW119421   4.062   0.668  11.240  0.2231 -1.1806 -0.7912
 2595SOL    HW219422   4.013   0.527  11.249  2.5963 -0.9016  0.4832
 2596SOL     OW19423   1.877   3.719  12.659  0.1682 -0.3775 -0.4444
 2596SOL    HW119424   1.802   3.775  12.642 -0.1992 -1.3443 -1.9964
 2596SOL    HW219425   1.835   3.633  12.664  2.1435 -1.2530  1.3065
 2597SOL     OW19426   0.196   2.074   6.278  0.1138  0.1919  0.2464
 2597SOL    HW119427   0.281   2.098   6.314 -0.0825  1.0623  0.1285
 2597SOL    HW219428   0.217   1.984   6.255 -2.2519  0.2049 -1.9803
 2598SOL     OW19429   0.263   4.308   6.562  0.1725  0.3578 -0.6886
 2598SOL    HW119430   0.301   4.223   6.583 -0.6024  0.2265  0.1608
 2598SOL    HW219431   0.214   4.329   6.641 -1.7626  2.4320 -2.4272
 2599SOL     OW19432   0.671   1.012   6.226 -0.3362 -0.0917  0.4642
 2599SOL    HW119433   0.638   1.097   6.196 -0.3319 -0.5335 -0.7787
 2599SOL    HW219434   0.602   0.950   6.203 -0.8734  0.2005  1.2939
 2600SOL     OW19435   0.759   1.621   0.663 -0.0461 -0.3682  0.1363
 2600SOL    HW119436   0.777   1.566   0.587 -1.2407 -2.7347  1.5765
 2600SOL    HW219437   0.785   1.561   0.732  1.2339  2.3563  2.0246
 2601SOL     OW19438   2.613   1.964   5.054  0.1742 -0.1473  0.0904
 2601SOL    HW119439   2.632   1.904   5.126  3.4517  1.0041  0.1739
 2601SOL    HW219440   2.639   1.897   4.991  3.0938  1.0709  0.0253
 2602SOL     OW19441   3.741   1.424   5.629 -0.0099  0.4309 -0.1927
 2602SOL    HW119442   3.650   1.410   5.603  1.2571 -1.5555 -3.5088
 2602SOL    HW219443   3.782   1.344   5.597 -0.2776  0.3128 -0.2430
 2603SOL     OW19444   0.777   4.113   3.929 -0.4033 -0.3266  0.3622
 2603SOL    HW119445   0.827   4.032   3.936  0.3987  0.1147 -0.2513
 2603SOL    HW219446   0.833   4.176   3.974  1.2587  0.0985 -2.3277
 2604SOL     OW19447   3.450   2.844   3.832  0.4284  0.2779  0.1846
 2604SOL    HW119448   3.480   2.825   3.921  0.0795 -1.0702  0.0193
 2604SOL    HW219449   3.525   2.891   3.795 -0.4192 -0.0705 -1.9283
 2605SOL     OW19450   2.420   3.721   4.790 -0.3845 -0.7413 -0.2890
 2605SOL    HW119451   2.358   3.669   4.841 -1.5296  3.4271  2.5488
 2605SOL    HW219452   2.454   3.785   4.852 -1.9260  0.8300 -1.0482
 2606SOL     OW19453   3.583   2.304  15.208  0.0721  0.8646 -0.5105
 2606SOL    HW119454   3.627   2.227  15.243 -1.3385  0.3017 -0.0023
 2606SOL    HW219455   3.534   2.271  15.133  1.0247  1.0549 -1.2327
 2607SOL     OW19456   2.939   1.120   0.303  0.2394 -0.2731  0.5011
 2607SOL    HW119457   2.909   1.032   0.329  0.4767 -0.8844 -1.2972
 2607SOL    HW219458   3.032   1.099   0.293  0.2598 -0.7194  1.5977
 2608SOL     OW19459   1.033   1.082  10.280 -0.0177 -0.2397 -0.1875
 2608SOL    HW119460   0.953   1.077  10.331 -0.4697  1.2764 -0.7308
 2608SOL    HW219461   1.097   1.109  10.345  0.1155 -2.8567  0.7370
 2609SOL     OW19462   1.956   4.612   1.443  0.0539  0.1157  0.0977
 2609SOL    HW119463   1.889   4.621   1.375 -0.4766 -2.3040  0.3103
 2609SOL    HW219464   1.903   4.568   1.510  1.5774 -1.4094  0.2954
 2610SOL     OW19465   0.570   2.658   0.076  0.0242  0.5977  0.3358
 2610SOL    HW119466   0.642   2.594   0.077  1.4711  2.2142 -0.2497
 2610SOL    HW219467   0.579   2.691   0.166 -2.0234 -0.1122  0.8053
 2611SOL     OW19468   3.535   1.455  14.988  0.3533 -0.6990  0.7475
 2611SOL    HW119469   3.628   1.472  14.971  0.5017 -2.3986 -0.0998
 2611SOL    HW219470   3.528   1.397  14.911  0.9031  0.9542 -0.5534
 2612SOL     OW19471   2.293   0.388  13.243 -0.3237  0.0933  0.7583
 2612SOL    HW119472   2.207   0.428  13.255 -0.3787  0.4040 -0.7083
 2612SOL    HW219473   2.301   0.353  13.332  0.5344 -1.8714 -0.0793
 2613SOL     OW19474   4.211   3.502  10.191 -0.1284 -0.0611 -0.0593
 2613SOL    HW119475   4.262   3.558  10.133  1.5523 -1.1959  0.3245
 2613SOL    HW219476   4.134   3.559  10.198 -0.2642 -0.3431  0.8802
 2614SOL     OW19477   0.151   2.988  13.807 -0.0349  0.5351  0.0015
 2614SOL    HW119478   0.101   3.010  13.885 -1.0722 -1.5409 -0.0906
 2614SOL    HW219479   0.077   2.991  13.746 -2.1567 -0.2865  2.5899
 2615SOL     OW19480   0.673   4.166  15.303  0.0280  0.0129  0.1927
 2615SOL    HW119481   0.638   4.110  15.372 -1.7474 -0.7156 -1.2880
 2615SOL    HW219482   0.667   4.250  15.349 -3.0734 -0.4416  0.6523
 2616SOL     OW19483   4.059   1.110  12.848  0.2402  0.0968 -0.2852
 2616SOL    HW119484   4.065   1.047  12.920  1.5765  1.1461  0.5183
 2616SOL    HW219485   4.035   1.057  12.772 -0.4943  1.8709 -1.2838
 2617SOL     OW19486   2.211   2.619   8.075 -0.0398  0.4702  0.0850
 2617SOL    HW119487   2.277   2.671   8.121  0.9438  1.5219 -2.5433
 2617SOL    HW219488   2.213   2.531   8.115  2.4061 -0.3554 -1.8376
 2618SOL     OW19489   0.728   4.140   2.436 -0.2129  0.1589 -0.2271
 2618SOL    HW119490   0.733   4.229   2.402  0.0249 -0.2555 -1.2666
 2618SOL    HW219491   0.819   4.130   2.465 -1.3517 -2.1542  2.5919
 2619SOL     OW19492   0.521   3.746  15.797  0.0885 -0.4337  0.5413
 2619SOL    HW119493   0.574   3.666  15.789  0.7425  0.3781 -3.2230
 2619SOL    HW219494   0.437   3.709  15.771  1.0432 -1.8402 -0.5670
 2620SOL     OW19495   2.174   4.425   1.779 -0.2893  0.1064 -0.3982
 2620SOL    HW119496   2.168   4.490   1.849 -2.3914 -0.3807 -0.1293
 2620SOL    HW219497   2.190   4.476   1.700  2.6714 -1.0123 -0.5148
 2621SOL     OW19498   1.205   0.950   1.079 -0.6018  0.0787  0.1985
 2621SOL    HW119499   1.279   0.938   1.020 -1.0211  1.8456 -0.6747
 2621SOL    HW219500   1.140   0.905   1.024 -0.9226  0.5320  0.2067
 2622SOL     OW19501   0.885   3.851   2.285 -0.2962  0.1794 -0.2589
 2622SOL    HW119502   0.934   3.905   2.346  1.7975 -1.6430 -0.3182
 2622SOL    HW219503   0.835   3.915   2.234 -0.1025  0.6368  0.1281
 2623SOL     OW19504   0.645   2.110   0.343  0.5725 -0.0722 -0.5836
 2623SOL    HW119505   0.667   2.018   0.333 -0.6887 -0.4430  0.1616
 2623SOL    HW219506   0.725   2.148   0.306 -0.1778  4.2287  2.1683
 2624SOL     OW19507   3.233   2.428   7.281 -0.2285 -0.0065  0.0583
 2624SOL    HW119508   3.246   2.358   7.217  2.8530  0.7519 -0.1502
 2624SOL    HW219509   3.310   2.416   7.337  0.3250  0.6138 -0.5730
 2625SOL     OW19510   4.308   3.485   6.021  0.3466  0.5134  0.2074
 2625SOL    HW119511   4.247   3.443   6.081  1.8603 -0.9535  0.7116
 2625SOL    HW219512   4.331   3.418   5.957 -0.8851  0.5908 -0.3184
 2626SOL     OW19513   1.783   3.138   5.270  0.5259 -0.2769 -0.5278
 2626SOL    HW119514   1.767   3.206   5.205 -2.3371 -0.5747 -0.1096
 2626SOL    HW219515   1.845   3.176   5.332  1.3776 -0.8393 -1.0343
 2627SOL     OW19516   4.197   2.981  15.248 -0.6279  0.2448 -0.2140
 2627SOL    HW119517   4.233   3.066  15.220  1.2982 -0.1886  0.9680
 2627SOL    HW219518   4.254   2.925  15.196 -0.8771  0.7686 -1.0527
 2628SOL     OW19519   2.557   3.584   3.149 -0.4359  0.3650 -0.1482
 2628SOL    HW119520   2.604   3.507   3.118 -1.0480 -1.1051  2.5104
 2628SOL    HW219521   2.473   3.544   3.169  0.4008 -1.6098 -0.5889
 2629SOL     OW19522   4.204   1.963   8.406  0.0128 -0.6733 -0.1433
 2629SOL    HW119523   4.150   1.936   8.479  0.8364 -0.8199  0.4066
 2629SOL    HW219524   4.277   1.902   8.405 -0.3871 -1.1507 -1.1193
 2630SOL     OW19525   1.776   3.989  14.610 -0.0496  0.0746  0.1260
 2630SOL    HW119526   1.863   4.011  14.575 -0.9759 -0.0686 -2.2530
 2630SOL    HW219527   1.716   4.062  14.592 -0.7054 -0.1920  1.2759
 2631SOL     OW19528   2.037   2.643   3.106 -0.4614  1.0061 -0.6017
 2631SOL    HW119529   1.957   2.694   3.114  0.1613  2.0806 -1.2314
 2631SOL    HW219530   2.005   2.557   3.078  0.4486  0.7417 -0.8339
 2632SOL     OW19531   2.041   1.582   4.379  0.2743  0.4101 -0.4750
 2632SOL    HW119532   2.019   1.573   4.286 -1.8191  1.3596 -0.0959
 2632SOL    HW219533   2.128   1.543   4.379  0.5808  1.0763 -1.1482
 2633SOL     OW19534   4.130   3.345   6.776  0.5724 -0.3116 -0.0424
 2633SOL    HW119535   4.154   3.264   6.731  2.1033 -0.0455  0.2749
 2633SOL    HW219536   4.196   3.338   6.845  0.8135  1.0406 -0.1403
 2634SOL     OW19537   1.363   2.555   8.999  0.4771  0.4945  0.2599
 2634SOL    HW119538   1.312   2.477   8.978  3.7222 -1.2354 -1.1900
 2634SOL    HW219539   1.322   2.629   8.955  0.7075  0.1545 -0.5371
 2635SOL     OW19540   3.823   0.488  10.354 -0.0246  0.4061  0.4058
 2635SOL    HW119541   3.778   0.422  10.406 -2.6768  1.1332 -0.9817
 2635SOL    HW219542   3.827   0.562  10.416 -1.0017  0.5887  0.2453
 2636SOL     OW19543   4.060   0.971   3.993 -0.7215  0.3549  0.8951
 2636SOL    HW119544   4.133   0.981   4.054 -0.5882 -1.6505  1.0566
 2636SOL    HW219545   4.044   1.058   3.958 -0.2754  0.5215  1.1036
 2637SOL     OW19546   1.932   1.756   0.025 -0.6497 -0.1785 -0.7956
 2637SOL    HW119547   1.841   1.751  17.733 -0.5965  0.4145 -1.0698
 2637SOL    HW219548   1.956   1.849   0.021 -2.6231  0.3090 -1.3389
 2638SOL     OW19549   2.596   3.552   8.739  0.0464  1.0220 -0.1766
 2638SOL    HW119550   2.649   3.484   8.696 -2.5120 -1.3549  0.3858
 2638SOL    HW219551   2.656   3.587   8.804  0.1837  0.8178 -0.1930
 2639SOL     OW19552   1.557   1.992   4.584 -0.2004  0.2123  0.1000
 2639SOL    HW119553   1.559   2.034   4.670 -0.8760 -0.1326  0.2831
 2639SOL    HW219554   1.465   1.975   4.567 -0.1095 -2.6580  2.4063
 2640SOL     OW19555   0.311   4.459   7.508  0.6048 -0.2959 -0.1745
 2640SOL    HW119556   0.265   4.471   7.591  0.7523 -1.7954  0.1209
 2640SOL    HW219557   0.374   4.530   7.518  0.2696 -0.0528  0.2013
 2641SOL     OW19558   3.595   0.074   5.580 -0.1960  0.4243  0.6205
 2641SOL    HW119559   3.614   0.124   5.500  0.8951  0.6124  1.0042
 2641SOL    HW219560   3.673   0.094   5.630  0.2703  0.4451 -0.1130
 2642SOL     OW19561   0.398   3.494   0.592 -0.0716 -0.0101 -0.8776
 2642SOL    HW119562   0.344   3.504   0.670  0.2392 -0.5346 -0.5936
 2642SOL    HW219563   0.339   3.433   0.548 -1.0006  0.1855  0.1031
 2643SOL     OW19564   1.962   4.333   2.783 -0.3925  0.4382  0.0083
 2643SOL    HW119565   2.008   4.257   2.748 -0.9041  1.4950 -2.9252
 2643SOL    HW219566   2.025   4.379   2.838 -1.2950  0.3865  1.0932
 2644SOL     OW19567   1.864   1.912  15.353  0.4049 -0.3680  0.1878
 2644SOL    HW119568   1.822   1.829  15.376 -0.0116 -0.2852 -0.2863
 2644SOL    HW219569   1.798   1.980  15.364 -0.2002 -1.0644  0.8309
 2645SOL     OW19570   1.941   1.297   5.446  0.2113  0.1729  0.1995
 2645SOL    HW119571   2.015   1.240   5.423 -0.0433  0.0273 -0.2615
 2645SOL    HW219572   1.955   1.298   5.540 -0.0171  1.7965  0.2217
 2646SOL     OW19573   0.126   3.542   3.806 -0.1465 -0.2325 -0.2971
 2646SOL    HW119574   0.205   3.515   3.852 -0.5197  1.4066  1.2978
 2646SOL    HW219575   0.085   3.610   3.859  1.5506 -0.1225  0.8637
 2647SOL     OW19576   2.514   2.974   6.003 -0.0629  0.0881 -0.2657
 2647SOL    HW119577   2.560   2.993   5.921  0.3523 -1.5887 -0.4068
 2647SOL    HW219578   2.596   2.959   6.049  1.1336  0.8884 -2.0979
 2648SOL     OW19579   0.871   2.949   8.060  0.9436 -0.5834  1.0149
 2648SOL    HW119580   0.955   2.986   8.084 -0.4394  2.0151  1.8846
 2648SOL    HW219581   0.840   2.912   8.143 -0.7422 -2.5447 -0.4893
 2649SOL     OW19582   4.147   1.063  16.174  0.2927  0.1542  0.8259
 2649SOL    HW119583   4.237   1.089  16.196  0.2436  1.8431 -1.0256
 2649SOL    HW219584   4.116   1.030  16.258 -5.0035  0.6638 -0.9598
 2650SOL     OW19585   2.466   3.071  12.462 -0.6062  0.0527  0.4457
 2650SOL    HW119586   2.383   3.116  12.446 -0.7795 -0.1432  0.7909
 2650SOL    HW219587   2.430   2.987  12.490  1.9961  0.2045  4.3119
 2651SOL     OW19588   4.671   3.936  14.684  0.0397 -0.2808 -0.2704
 2651SOL    HW119589   4.611   3.963  14.754  0.7039 -0.0467  0.2070
 2651SOL    HW219590   4.657   3.843  14.703  0.3101 -0.1959  0.3476
 2652SOL     OW19591   1.963   3.122   4.130  0.0121 -0.8022  0.2420
 2652SOL    HW119592   1.978   3.104   4.037  0.4685  1.2303 -0.0870
 2652SOL    HW219593   2.018   3.055   4.170  0.0247 -1.2293 -0.4858
 2653SOL     OW19594   0.479   4.721   3.663 -0.1680 -0.6380  0.0977
 2653SOL    HW119595   0.505   0.020   3.748 -0.7950  0.3528 -0.0968
 2653SOL    HW219596   0.547   4.661   3.633 -2.2028 -2.6282 -0.5746
 2654SOL     OW19597   3.321   0.252   1.081 -0.4939 -0.1803  0.1065
 2654SOL    HW119598   3.338   0.168   1.124  3.9707  0.5308 -0.2255
 2654SOL    HW219599   3.230   0.237   1.057  0.0047  0.2180 -2.0273
 2655SOL     OW19600   0.915   4.304   5.817 -0.4955 -0.6815 -0.2953
 2655SOL    HW119601   0.898   4.216   5.782 -0.2451  0.1981 -2.5856
 2655SOL    HW219602   0.918   4.343   5.730  3.1922 -0.4096 -0.0490
 2656SOL     OW19603   3.600   4.404   6.696 -0.2689 -0.0496 -0.2542
 2656SOL    HW119604   3.560   4.474   6.749  0.3757  1.0685 -1.2508
 2656SOL    HW219605   3.692   4.426   6.712 -0.2664 -0.3338  0.1290
 2657SOL     OW19606   3.973   1.253   4.087 -0.3520  0.0883  0.1626
 2657SOL    HW119607   4.038   1.292   4.145 -0.1351  0.3979 -0.2957
 2657SOL    HW219608   3.973   1.160   4.112  0.9346  0.1331  0.3040
 2658SOL     OW19609   1.242   2.316   9.647  0.0229 -0.4558 -0.6048
 2658SOL    HW119610   1.335   2.339   9.646  0.0939 -0.6917  0.8837
 2658SOL    HW219611   1.237   2.256   9.721  2.1426  0.8279  0.5809
 2659SOL     OW19612   0.379   2.437   0.819 -0.0716  0.1488  0.2644
 2659SOL    HW119613   0.405   2.454   0.909  1.7120 -0.8576 -0.0581
 2659SOL    HW219614   0.404   2.346   0.801 -0.4265  0.1887 -0.4290
 2660SOL     OW19615   4.484   0.887   5.411 -1.0838  0.0393  0.2046
 2660SOL    HW119616   4.486   0.898   5.506  1.5611  0.4860  0.0874
 2660SOL    HW219617   4.543   0.814   5.395 -0.3802  0.3461  1.4217
 2661SOL     OW19618   0.796   2.436   9.589  0.7976 -0.1154  0.0008
 2661SOL    HW119619   0.718   2.479   9.625 -0.6057 -0.1762 -2.8999
 2661SOL    HW219620   0.866   2.487   9.628 -0.5271  2.3617 -0.7945
 2662SOL     OW19621   4.444   2.677   7.953 -0.1726  0.2616  0.4894
 2662SOL    HW119622   4.448   2.769   7.979  0.0341  0.6152 -0.8091
 2662SOL    HW219623   4.499   2.636   8.020 -1.7605 -1.9335  0.4628
 2663SOL     OW19624   2.421   1.676  15.491  0.0522  0.1391 -0.3207
 2663SOL    HW119625   2.451   1.686  15.582  1.1836  0.2230 -0.6962
 2663SOL    HW219626   2.346   1.734  15.491 -1.1482 -1.4102  0.5527
 2664SOL     OW19627   4.192   2.064   3.167  0.4784 -0.2470  0.0659
 2664SOL    HW119628   4.250   2.062   3.092 -1.0183 -0.1987 -1.0964
 2664SOL    HW219629   4.247   2.108   3.232  1.5374  1.5913 -2.0921
 2665SOL     OW19630   2.036   0.913  14.345 -0.8150 -0.6944 -0.0134
 2665SOL    HW119631   1.963   0.876  14.296 -2.4800  0.6021  1.4694
 2665SOL    HW219632   2.006   0.994  14.386  2.4044 -0.8975  2.7589
 2666SOL     OW19633   3.240   1.513   1.900  0.4834  0.3084 -0.6150
 2666SOL    HW119634   3.190   1.542   1.823 -0.8647  1.1089  0.5629
 2666SOL    HW219635   3.275   1.429   1.872 -2.6830 -1.6036  1.2265
 2667SOL     OW19636   2.207   1.746   8.477 -0.3477 -0.0208  0.1738
 2667SOL    HW119637   2.192   1.703   8.392  2.3424 -0.1818 -0.2330
 2667SOL    HW219638   2.289   1.792   8.457  0.0488 -0.3774  0.9979
 2668SOL     OW19639   0.132   2.102  12.211  0.1596 -0.2038 -0.2622
 2668SOL    HW119640   0.200   2.148  12.161 -0.2909 -0.1774 -0.8453
 2668SOL    HW219641   0.168   2.018  12.241  1.0886  0.4112  0.3553
 2669SOL     OW19642   3.193   1.365   8.772  0.2589 -0.3801  0.1144
 2669SOL    HW119643   3.200   1.460   8.763 -2.4564 -0.1488  0.1943
 2669SOL    HW219644   3.266   1.340   8.828  1.9975 -2.5056 -3.1065
 2670SOL     OW19645   2.224   2.066   3.406  0.3158  0.5043 -0.3884
 2670SOL    HW119646   2.189   2.046   3.319 -0.2023  1.9453 -0.5191
 2670SOL    HW219647   2.302   2.011   3.399 -1.3114 -1.9491  0.6718
 2671SOL     OW19648   2.777   1.616  10.263  1.0003  0.1654  0.5057
 2671SOL    HW119649   2.688   1.644  10.244  0.6133 -0.2104  1.8104
 2671SOL    HW219650   2.767   1.520  10.268 -2.3460  0.5880  1.8725
 2672SOL     OW19651   0.873   4.125   8.994 -0.4501 -0.3486  0.2653
 2672SOL    HW119652   0.800   4.108   9.053 -1.6493 -4.4800 -2.4173
 2672SOL    HW219653   0.933   4.175   9.050 -1.7312 -0.3003  1.5806
 2673SOL     OW19654   3.213   0.497   5.351  0.0233 -0.1271  0.1563
 2673SOL    HW119655   3.230   0.452   5.434  1.9784 -0.4555 -0.4203
 2673SOL    HW219656   3.270   0.452   5.288  1.7753  2.3052  0.0533
 2674SOL     OW19657   0.428   1.893  15.621 -0.7208 -0.4397 -0.2100
 2674SOL    HW119658   0.485   1.965  15.648  1.4228 -2.1423 -0.1032
 2674SOL    HW219659   0.353   1.939  15.585  0.3414 -0.8745 -2.9616
 2675SOL     OW19660   1.703   2.697   1.047 -0.0756  0.3936  0.5103
 2675SOL    HW119661   1.724   2.748   1.125  0.8486 -1.4814  1.5020
 2675SOL    HW219662   1.792   2.676   1.017  0.5102  2.6497  0.6650
 2676SOL     OW19663   0.917   4.349   7.821  0.5957 -0.4856  0.1210
 2676SOL    HW119664   0.905   4.315   7.909 -0.9910 -1.2120 -0.3645
 2676SOL    HW219665   0.950   4.433   7.853 -1.3041  0.7660 -1.1692
 2677SOL     OW19666   1.518   4.587   2.732 -0.1609 -0.7081 -0.2130
 2677SOL    HW119667   1.443   4.597   2.790  0.1465  0.2424  0.0336
 2677SOL    HW219668   1.559   4.501   2.741  1.0116 -0.2217 -0.7663
 2678SOL     OW19669   1.674   3.626   9.040  0.0768  0.2762 -0.4942
 2678SOL    HW119670   1.678   3.539   9.079  1.9610  0.3269 -0.5961
 2678SOL    HW219671   1.754   3.639   8.990  0.4463 -1.5296 -0.3507
 2679SOL     OW19672   3.862   1.337  13.548 -0.4829 -0.4170 -0.1929
 2679SOL    HW119673   3.776   1.377  13.533 -0.3060  0.0808  0.1121
 2679SOL    HW219674   3.881   1.310  13.459  1.7459  2.3762 -0.5664
 2680SOL     OW19675   1.300   1.372   2.865 -0.3558  0.0919 -0.7605
 2680SOL    HW119676   1.325   1.456   2.905 -0.7364  0.3648 -1.0904
 2680SOL    HW219677   1.354   1.360   2.787  0.7828  0.5195 -0.0415
 2681SOL     OW19678   0.814   3.015   1.069  0.2213  0.4126  0.1535
 2681SOL    HW119679   0.727   3.042   1.099  0.3346  0.8646  0.0627
 2681SOL    HW219680   0.857   2.970   1.142  0.4253  1.5268  0.7157
 2682SOL     OW19681   4.505   0.159   9.424  0.1684 -0.0601 -0.0461
 2682SOL    HW119682   4.483   0.104   9.500 -1.0271  0.8766  0.2950
 2682SOL    HW219683   4.553   0.235   9.457 -0.0151 -0.6014  1.4990
 2683SOL     OW19684   2.389   0.975   9.112 -0.3497 -0.0819 -0.3923
 2683SOL    HW119685   2.431   0.951   9.194 -0.4833  2.4369  0.4410
 2683SOL    HW219686   2.306   1.013   9.142 -0.1766 -0.5565  0.6801
 2684SOL     OW19687   1.081   0.109  15.917 -0.5595  0.1719 -0.6182
 2684SOL    HW119688   1.069   0.017  15.942  0.5248 -0.3255 -1.9317
 2684SOL    HW219689   1.082   0.138  16.009  1.3191 -0.3924 -0.4476
 2685SOL     OW19690   3.550   2.267   5.321 -0.0637 -0.3515 -0.2893
 2685SOL    HW119691   3.503   2.327   5.378  0.3480 -0.1086 -0.2053
 2685SOL    HW219692   3.630   2.258   5.373  0.9029  1.2942 -1.4948
 2686SOL     OW19693   1.645   2.460  16.006  0.1138  0.4108 -0.0655
 2686SOL    HW119694   1.585   2.520  16.051 -2.1384 -1.6991 -0.3020
 2686SOL    HW219695   1.700   2.524  15.960 -2.2799  1.9633 -0.7492
 2687SOL     OW19696   3.582   3.306   3.901 -0.4043 -0.5570 -0.6483
 2687SOL    HW119697   3.548   3.347   3.981  3.6636 -1.1487  1.3885
 2687SOL    HW219698   3.531   3.343   3.830  0.9426  0.4553 -1.0793
 2688SOL     OW19699   0.327   3.948   2.418 -0.1648  0.0885  0.3597
 2688SOL    HW119700   0.420   3.931   2.407 -0.1012 -0.8176  2.3833
 2688SOL    HW219701   0.324   4.005   2.341 -1.8039  1.2004  1.2602
 2689SOL     OW19702   2.120   2.136  10.614 -0.3690 -0.5777  0.1220
 2689SOL    HW119703   2.161   2.199  10.554 -2.8769  0.0011 -0.9895
 2689SOL    HW219704   2.026   2.151  10.612 -0.3308 -0.1000  2.6716
 2690SOL     OW19705   0.211   3.155  15.050  0.5322  0.1232 -0.0132
 2690SOL    HW119706   0.241   3.239  15.082  0.3939  0.4172 -0.6584
 2690SOL    HW219707   0.276   3.091  15.081 -1.1298 -1.8723 -0.5997
 2691SOL     OW19708   1.001   0.481  11.088 -0.2672  0.0899  0.2661
 2691SOL    HW119709   1.083   0.472  11.041  0.0298  0.3985  0.7247
 2691SOL    HW219710   0.994   0.576  11.095  0.9011  0.2103 -0.3095
 2692SOL     OW19711   0.236   0.998   7.505 -0.5026 -0.1043  0.0424
 2692SOL    HW119712   0.216   0.937   7.433  1.5188  0.3283 -0.8865
 2692SOL    HW219713   0.256   1.079   7.459 -1.9635  0.3946  0.3065
 2693SOL     OW19714   2.823   1.876   5.979 -0.3882  0.1150  0.4074
 2693SOL    HW119715   2.916   1.854   5.982 -0.4225  0.1368  1.5527
 2693SOL    HW219716   2.775   1.800   5.946 -0.2648 -0.6177  1.9062
 2694SOL     OW19717   1.080   0.392   9.056  0.9160 -0.1185  0.3090
 2694SOL    HW119718   1.153   0.444   9.021  0.1789  0.7116 -0.0136
 2694SOL    HW219719   1.018   0.462   9.074  1.0368  0.0224  0.1829
 2695SOL     OW19720   3.540   1.161  16.512  0.3746 -0.2814  0.2773
 2695SOL    HW119721   3.565   1.193  16.426 -0.0180  1.0928  0.6707
 2695SOL    HW219722   3.620   1.174  16.562 -0.3331  1.6010  0.9232
 2696SOL     OW19723   0.529   0.757   4.910  0.4126 -0.1863 -0.0952
 2696SOL    HW119724   0.522   0.674   4.862  2.5643  0.4240 -1.4178
 2696SOL    HW219725   0.500   0.815   4.839  1.4860 -0.2186 -0.5520
 2697SOL     OW19726   3.341   1.616  16.967 -0.7186 -0.5187  0.5996
 2697SOL    HW119727   3.331   1.698  17.015  0.1448  0.0155 -0.1153
 2697SOL    HW219728   3.417   1.625  16.909 -1.3175 -0.8645 -0.2428
 2698SOL     OW19729   3.884   3.100   8.748  0.0598 -0.2685  0.1263
 2698SOL    HW119730   3.807   3.148   8.718  0.8228  1.0828  0.3443
 2698SOL    HW219731   3.944   3.169   8.774 -0.4223  0.5788 -1.0446
 2699SOL     OW19732   2.507   0.401   8.587  0.2273 -0.4534 -0.1800
 2699SOL    HW119733   2.588   0.446   8.565  0.1475 -0.2792 -0.1180
 2699SOL    HW219734   2.435   0.456   8.557  0.5949 -0.4461 -1.0593
 2700SOL     OW19735   1.519   2.110   4.818  0.5404 -0.0313  0.4606
 2700SOL    HW119736   1.453   2.154   4.872  0.9614 -1.3021  2.0139
 2700SOL    HW219737   1.576   2.080   4.889  0.5119 -1.3443 -0.0612
 2701SOL     OW19738   2.773   0.119   5.169 -0.2234  0.3114 -0.7938
 2701SOL    HW119739   2.830   0.088   5.098 -1.3774 -1.6101 -0.8619
 2701SOL    HW219740   2.690   0.103   5.124  0.5452 -0.9593 -1.7750
 2702SOL     OW19741   1.017   4.348   7.094  0.3881 -0.3669 -0.0315
 2702SOL    HW119742   1.067   4.336   7.014  0.8852  0.5240  0.1461
 2702SOL    HW219743   1.011   4.260   7.130 -1.6534  0.1696  0.9941
 2703SOL     OW19744   1.766   1.357   7.130  0.0774  0.4166  0.0323
 2703SOL    HW119745   1.798   1.446   7.147  2.1022 -0.4435  0.7887
 2703SOL    HW219746   1.829   1.332   7.062 -0.6772  0.3774 -0.6534
 2704SOL     OW19747   3.998   2.027  17.326  0.0617 -0.4006 -0.5059
 2704SOL    HW119748   3.962   2.050  17.412 -1.4482 -0.7023 -1.0566
 2704SOL    HW219749   4.063   1.960  17.347 -0.4388 -0.7860 -0.1641
 2705SOL     OW19750   1.659   1.809   3.937 -0.0424  0.2600  0.0056
 2705SOL    HW119751   1.686   1.827   3.847  2.3524 -0.1259  0.6661
 2705SOL    HW219752   1.730   1.854   3.982  1.4631 -0.8175 -1.3389
 2706SOL     OW19753   4.391   4.380   7.858  0.2197  0.1713  0.3938
 2706SOL    HW119754   4.464   4.328   7.890  0.6115  1.6601  1.9744
 2706SOL    HW219755   4.397   4.357   7.766 -1.2381  0.3532  0.2529
 2707SOL     OW19756   4.424   1.804   9.562 -0.6701 -0.0313  0.1332
 2707SOL    HW119757   4.421   1.848   9.478 -0.5177  2.5354  1.4817
 2707SOL    HW219758   4.507   1.758   9.550 -1.1186 -0.8861  0.2641
 2708SOL     OW19759   2.108   2.014   5.597 -0.4041 -0.0247  0.1393
 2708SOL    HW119760   2.065   2.008   5.683  0.7294 -1.3796  0.6120
 2708SOL    HW219761   2.031   2.005   5.541 -1.1330  1.8910  0.8415
 2709SOL     OW19762   0.498   3.690  15.349 -0.4112  0.4222 -0.4835
 2709SOL    HW119763   0.445   3.714  15.273 -0.5151  0.0284 -0.5367
 2709SOL    HW219764   0.498   3.774  15.395 -1.7266  0.4326 -0.5149
 2710SOL     OW19765   4.338   3.635  12.875  0.5335  0.2381  0.3004
 2710SOL    HW119766   4.390   3.688  12.935  2.1866 -1.4265  0.3703
 2710SOL    HW219767   4.247   3.639  12.905 -0.0076  0.1232 -1.3428
 2711SOL     OW19768   3.984   3.354   7.303 -0.5215  0.0110  0.0028
 2711SOL    HW119769   3.934   3.342   7.222 -0.3358 -1.8627  0.1536
 2711SOL    HW219770   4.067   3.308   7.287 -1.6546 -1.6032 -1.2928
 2712SOL     OW19771   3.575   0.276   3.437 -0.4134  0.6145 -0.0775
 2712SOL    HW119772   3.486   0.303   3.416 -1.4179  0.2219  3.7177
 2712SOL    HW219773   3.605   0.223   3.363  0.4637  0.5274  0.3409
 2713SOL     OW19774   0.223   4.021   4.715 -0.7132 -0.3216 -0.4542
 2713SOL    HW119775   0.174   3.963   4.774 -0.0788 -2.0082 -1.5818
 2713SOL    HW219776   0.293   3.963   4.685  0.2281  0.2556  0.6429
 2714SOL     OW19777   2.391   2.982   7.592  0.8148  0.1629  0.2889
 2714SOL    HW119778   2.444   2.990   7.512 -1.2581 -0.0770 -1.1191
 2714SOL    HW219779   2.341   2.903   7.572 -0.1435  0.5396  1.1919
 2715SOL     OW19780   0.651   4.650   6.839 -0.0205 -0.1199 -0.1852
 2715SOL    HW119781   0.687   4.599   6.912  1.4889  2.1325  0.6615
 2715SOL    HW219782   0.691   4.610   6.762  0.5263 -0.9488  0.5346
 2716SOL     OW19783   4.588   2.402   9.272 -0.1058 -0.4285 -0.1697
 2716SOL    HW119784   4.556   2.469   9.332 -1.8817 -1.4482  0.0358
 2716SOL    HW219785   4.527   2.418   9.200 -0.6545 -0.6866  0.2421
 2717SOL     OW19786   0.134   1.955   1.971  0.2902 -0.0513 -0.1427
 2717SOL    HW119787   0.119   1.934   1.879 -0.1672  1.6687 -0.4568
 2717SOL    HW219788   0.152   1.873   2.017 -0.5592 -1.0607 -1.6316
 2718SOL     OW19789   1.169   1.416   4.027 -0.4467  0.1203 -0.2805
 2718SOL    HW119790   1.150   1.459   3.944  2.0052  0.0782 -0.8701
 2718SOL    HW219791   1.189   1.493   4.080  0.8628 -0.0988 -0.4390
 2719SOL     OW19792   3.716   3.042   1.182 -0.3348 -0.2827  0.0113
 2719SOL    HW119793   3.716   3.063   1.275 -1.8200  0.8444 -0.2473
 2719SOL    HW219794   3.640   3.094   1.156 -0.5045  0.9093  2.9840
 2720SOL     OW19795   1.184   2.727  10.704  0.9202 -0.4124 -0.0800
 2720SOL    HW119796   1.279   2.715  10.704  1.3203  2.9157 -1.2431
 2720SOL    HW219797   1.179   2.783  10.626  0.4755  1.0545  1.0054
 2721SOL     OW19798   4.012   1.335   0.875 -0.3199 -0.0565  0.3505
 2721SOL    HW119799   4.013   1.291   0.790  0.1720  1.4294 -0.4241
 2721SOL    HW219800   4.105   1.353   0.886  0.2521 -0.6054 -3.5415
 2722SOL     OW19801   1.809   0.392   5.829 -0.8295 -0.2619  0.2731
 2722SOL    HW119802   1.733   0.336   5.844 -1.4312  0.1426 -1.3518
 2722SOL    HW219803   1.830   0.415   5.920  0.4037  0.9835 -0.3295
 2723SOL     OW19804   3.482   0.421  17.075 -0.4976 -0.2139  0.3193
 2723SOL    HW119805   3.490   0.350  17.011  1.0503 -1.4249  1.8529
 2723SOL    HW219806   3.386   0.422  17.077 -0.4658  2.1188  1.2861
 2724SOL     OW19807   2.165   1.171  17.086 -0.2446  0.3779  0.5320
 2724SOL    HW119808   2.118   1.250  17.112  0.6565  1.9661 -2.6270
 2724SOL    HW219809   2.192   1.196  16.997 -2.3781  0.8336  0.0192
 2725SOL     OW19810   0.665   1.973   1.967  0.8913 -0.4101 -0.3389
 2725SOL    HW119811   0.650   1.884   1.935  0.6842 -0.6126  0.3338
 2725SOL    HW219812   0.619   1.969   2.051 -0.4000 -0.9522 -1.0613
 2726SOL     OW19813   1.665   0.851   3.242  0.1352  0.2690  0.0508
 2726SOL    HW119814   1.683   0.822   3.331  1.5678  2.2655  0.3974
 2726SOL    HW219815   1.647   0.944   3.234  1.1596  0.4645 -0.1053
 2727SOL     OW19816   4.322   1.669   4.112  0.3918 -0.7226  0.4139
 2727SOL    HW119817   4.250   1.612   4.085 -0.7243  0.6759  0.5007
 2727SOL    HW219818   4.396   1.608   4.102  0.4153 -1.0378  2.3746
 2728SOL     OW19819   3.094   3.024   3.159  0.1920 -0.0482 -0.4295
 2728SOL    HW119820   3.176   3.070   3.176  0.2677 -0.8543  1.4634
 2728SOL    HW219821   3.051   3.090   3.105  0.3967  0.9023  0.5646
 2729SOL     OW19822   0.721   2.887   3.986  0.1694  0.2791 -0.1473
 2729SOL    HW119823   0.731   2.792   3.990 -0.7588  0.2748  2.0632
 2729SOL    HW219824   0.658   2.889   4.058  2.9822  0.1407  2.2981
 2730SOL     OW19825   4.315   0.666   7.415 -0.3483 -0.2274 -0.1843
 2730SOL    HW119826   4.329   0.761   7.418 -0.0849 -0.2748  0.0484
 2730SOL    HW219827   4.376   0.646   7.344  0.7909  0.6052  0.5550
 2731SOL     OW19828   3.541   3.797   7.566  0.0481 -0.5920  0.4109
 2731SOL    HW119829   3.619   3.775   7.514  0.1906  0.9388 -0.0333
 2731SOL    HW219830   3.482   3.790   7.491  2.1700  0.3161 -1.3689
 2732SOL     OW19831   0.141   2.912   2.190  0.0055 -0.8064 -0.1118
 2732SOL    HW119832   0.120   2.992   2.141  2.5526  1.3600  2.3227
 2732SOL    HW219833   0.070   2.851   2.171 -0.4277  0.0184 -1.1247
 2733SOL     OW19834   0.649   2.508   8.252 -0.6455 -0.7470  0.2538
 2733SOL    HW119835   0.720   2.493   8.316  0.6809 -1.3298 -1.3637
 2733SOL    HW219836   0.643   2.420   8.216  1.8563 -0.3518 -1.1131
 2734SOL     OW19837   2.183   4.420  16.002 -0.3132  0.0497 -0.5014
 2734SOL    HW119838   2.144   4.375  15.927  1.2511 -3.4276  0.7416
 2734SOL    HW219839   2.272   4.385  16.004 -0.0434  0.6973 -1.3701
 2735SOL     OW19840   2.864   2.058   2.181  0.2792  0.2225  0.1838
 2735SOL    HW119841   2.868   1.972   2.138 -0.6187 -0.4410  1.4381
 2735SOL    HW219842   2.879   2.118   2.107 -1.6277  1.0362  0.4456
 2736SOL     OW19843   4.046   4.445   9.102  0.0348  0.3128 -0.1953
 2736SOL    HW119844   4.053   4.447   9.198  2.2158 -0.8334 -0.3243
 2736SOL    HW219845   4.141   4.447   9.087  0.2321 -0.9029  0.8646
 2737SOL     OW19846   4.315   3.592  17.136 -0.7026 -0.2823  0.0433
 2737SOL    HW119847   4.376   3.620  17.068 -1.0811  2.6505  0.9156
 2737SOL    HW219848   4.247   3.534  17.101  0.4867 -2.2142  0.9033
 2738SOL     OW19849   2.078   4.340   6.373 -0.0341 -0.1990 -0.0680
 2738SOL    HW119850   2.037   4.315   6.456 -1.5258  0.3627 -0.6354
 2738SOL    HW219851   2.030   4.276   6.321 -1.7459 -0.9844  2.4968
 2739SOL     OW19852   0.359   2.044   0.363 -0.1466 -0.9405 -0.6574
 2739SOL    HW119853   0.330   2.016   0.449  0.0462  0.7665 -0.0453
 2739SOL    HW219854   0.439   2.094   0.377 -0.3180 -0.2288 -2.2162
 2740SOL     OW19855   0.228   2.444  10.498 -0.4035  0.8491  0.2075
 2740SOL    HW119856   0.241   2.372  10.437 -1.6305  1.2011 -0.4661
 2740SOL    HW219857   0.179   2.395  10.565 -0.1128  1.3061  0.7576
 2741SOL     OW19858   1.206   4.445   6.415  0.8103  0.1630  0.0284
 2741SOL    HW119859   1.215   4.533   6.451  1.9880  0.4583 -0.9891
 2741SOL    HW219860   1.165   4.390   6.481  0.2564  0.1740 -0.3057
 2742SOL     OW19861   2.316   2.937  10.755  0.2593 -0.4424  0.3195
 2742SOL    HW119862   2.260   2.886  10.697 -0.5098  0.2698  0.4441
 2742SOL    HW219863   2.254   2.978  10.815 -0.8687 -0.3737 -0.8812
 2743SOL     OW19864   2.635   1.754  15.909  0.6937  0.4596  0.5662
 2743SOL    HW119865   2.615   1.827  15.851 -0.6805 -0.0605  0.3787
 2743SOL    HW219866   2.629   1.793  15.997 -0.1713 -1.8031  1.5214
 2744SOL     OW19867   2.252   0.877   1.022 -0.4312  0.8468  1.0155
 2744SOL    HW119868   2.199   0.816   0.970 -0.4378  1.6886  0.0306
 2744SOL    HW219869   2.188   0.946   1.038 -1.1248  0.8013 -1.5334
 2745SOL     OW19870   4.703   1.296   4.452  0.0346  1.2126  0.1425
 2745SOL    HW119871   4.686   1.216   4.402 -0.4356  0.5868  1.3157
 2745SOL    HW219872   0.004   1.349   4.380  1.3750 -2.3775 -1.8637
 2746SOL     OW19873   0.100   0.115   6.256  0.1505 -0.1799 -0.3354
 2746SOL    HW119874   0.049   0.163   6.321  1.8228  1.5914 -0.3019
 2746SOL    HW219875   0.024   0.076   6.214 -0.3577  0.2410  0.2055
 2747SOL     OW19876   2.006   4.349   8.899  0.0381 -0.1488  0.1453
 2747SOL    HW119877   2.040   4.261   8.880  0.5285 -0.0244  0.4614
 2747SOL    HW219878   1.931   4.332   8.956  0.1177 -1.5832 -0.1757
 2748SOL     OW19879   0.360   1.772   0.325  0.3369 -0.3414  0.1166
 2748SOL    HW119880   0.293   1.742   0.263 -2.9419  1.0409  2.9662
 2748SOL    HW219881   0.324   1.850   0.367  0.7739 -0.1545  0.1411
 2749SOL     OW19882   4.678   4.546  12.891  0.1644  0.2065  0.6108
 2749SOL    HW119883   0.003   4.576  12.960  0.7707 -2.4964  1.2829
 2749SOL    HW219884   4.647   4.461  12.921  0.6688 -1.0069 -2.2967
 2750SOL     OW19885   1.679   1.544  14.822 -0.1265 -0.1552  0.0052
 2750SOL    HW119886   1.694   1.618  14.880  3.2806  0.9408 -2.2821
 2750SOL    HW219887   1.662   1.585  14.737 -0.8704 -0.7546 -0.1311
 2751SOL     OW19888   3.708   4.184   2.446  0.1747 -0.1947  0.5318
 2751SOL    HW119889   3.789   4.134   2.452  0.2223 -0.4745 -2.2559
 2751SOL    HW219890   3.729   4.256   2.386  0.1836 -0.9971 -0.4279
 2752SOL     OW19891   0.517   1.079   4.518  0.2279  0.2451  0.3443
 2752SOL    HW119892   0.577   1.005   4.521  0.2000  0.1908 -0.4045
 2752SOL    HW219893   0.546   1.132   4.444 -3.0393  1.7585  0.1365
 2753SOL     OW19894   4.669   0.021   3.698 -0.3018 -0.0511 -0.6341
 2753SOL    HW119895   4.707   0.087   3.756  0.1531 -0.2169 -0.7418
 2753SOL    HW219896   0.013   4.703   3.680 -0.7791 -0.8467 -0.4366
 2754SOL     OW19897   3.365   1.896  10.505 -0.0936 -0.2639  0.1691
 2754SOL    HW119898   3.357   1.947  10.424  1.0023  0.5634  0.5757
 2754SOL    HW219899   3.420   1.958  10.553 -1.4395  0.1153  1.2433
 2755SOL     OW19900   3.500   0.349  16.368  0.5128 -0.0300  0.5377
 2755SOL    HW119901   3.555   0.428  16.368  1.0068 -0.3758  1.0250
 2755SOL    HW219902   3.429   0.371  16.308 -0.8559 -4.2713  0.6462
 2756SOL     OW19903   0.635   2.501  11.131 -0.1411  0.1547 -0.0770
 2756SOL    HW119904   0.670   2.443  11.199 -0.7891 -0.9087 -0.6403
 2756SOL    HW219905   0.597   2.575  11.178  3.3036  0.6555  1.9061
 2757SOL     OW19906   1.447   2.585  11.347  0.0274 -0.5223 -0.4412
 2757SOL    HW119907   1.498   2.666  11.351  0.0558 -0.5999  0.6964
 2757SOL    HW219908   1.525   2.528  11.351 -1.3405 -2.3649  0.0483
 2758SOL     OW19909   4.559   0.012   6.312  0.3913  0.2408 -0.1886
 2758SOL    HW119910   4.490   0.072   6.285  0.3336  0.4053  0.3119
 2758SOL    HW219911   4.552   0.026   6.407 -0.1412 -3.6455  0.3336
 2759SOL     OW19912   3.651   4.621   7.758 -0.6641 -0.2904  0.0791
 2759SOL    HW119913   3.667   4.631   7.852  1.9479  1.1911 -0.5139
 2759SOL    HW219914   3.688   4.703   7.724 -0.1534 -0.0662  1.1536
 2760SOL     OW19915   0.195   2.915   4.323  0.2602  0.2327  0.9461
 2760SOL    HW119916   0.211   2.997   4.276  0.9953 -0.1112  0.6118
 2760SOL    HW219917   0.109   2.940   4.357 -0.1454  1.1218 -0.7080
 2761SOL     OW19918   0.573   2.841   3.533 -0.2524  0.2204  0.2155
 2761SOL    HW119919   0.668   2.848   3.535 -0.2093 -0.3341  0.1726
 2761SOL    HW219920   0.547   2.775   3.598  1.1041  1.0655  1.6131
 2762SOL     OW19921   3.130   2.058   4.758 -0.1634 -0.0734  0.4906
 2762SOL    HW119922   3.107   1.969   4.784  1.5204 -0.9843 -1.1660
 2762SOL    HW219923   3.196   2.041   4.691  0.9956 -1.2269  1.9254
 2763SOL     OW19924   3.177   2.976   2.867 -0.3359 -0.1378  0.2616
 2763SOL    HW119925   3.185   2.991   2.961  0.2327  0.1751  0.1630
 2763SOL    HW219926   3.261   3.008   2.834 -1.2363  0.5935 -1.3322
 2764SOL     OW19927   1.328   2.429   7.162  0.1730  0.0111  0.1617
 2764SOL    HW119928   1.328   2.343   7.119  2.3791  1.1124 -2.0540
 2764SOL    HW219929   1.296   2.409   7.250 -0.3417  0.0223 -0.0211
 2765SOL     OW19930   2.470   0.748   9.863  0.6493  0.7023 -0.2330
 2765SOL    HW119931   2.466   0.757   9.767  0.7461 -0.9807 -0.4022
 2765SOL    HW219932   2.542   0.686   9.873  0.2287  0.3175  0.3790
 2766SOL     OW19933   4.456   2.913  17.643 -0.0421  0.1919 -0.1240
 2766SOL    HW119934   4.361   2.911  17.653  0.2274  0.8681  2.5294
 2766SOL    HW219935   4.483   2.822  17.655  0.2562  0.3939  0.7483
 2767SOL     OW19936   4.018   0.646   2.582 -0.5420 -0.4129 -0.5087
 2767SOL    HW119937   4.009   0.735   2.549  0.3262 -0.5778 -1.1820
 2767SOL    HW219938   3.935   0.633   2.627  1.1744 -1.5492  2.3591
 2768SOL     OW19939   3.353   2.567  11.589 -0.1969  0.0763 -0.1601
 2768SOL    HW119940   3.438   2.611  11.595 -1.3947  2.5042 -0.8538
 2768SOL    HW219941   3.315   2.628  11.525 -2.0316 -2.8027 -1.7986
 2769SOL     OW19942   1.934   3.207   2.277 -0.1071 -0.3308 -0.2604
 2769SOL    HW119943   2.017   3.232   2.237  1.0177 -2.3866  0.7947
 2769SOL    HW219944   1.889   3.154   2.212  0.1050 -0.0668 -0.6184
 2770SOL     OW19945   4.639   1.233   9.781 -0.4136 -0.4136 -0.1906
 2770SOL    HW119946   4.569   1.295   9.802  0.1806  0.5212 -0.9764
 2770SOL    HW219947   4.716   1.283   9.807  0.0142 -1.5111  0.6455
 2771SOL     OW19948   2.580   0.516   1.861  0.0164  1.0483 -0.5666
 2771SOL    HW119949   2.509   0.577   1.881  0.0927  0.9472  0.0248
 2771SOL    HW219950   2.571   0.504   1.766  0.0296  0.1269 -0.4583
 2772SOL     OW19951   0.646   3.759   2.105 -0.0260 -0.5617 -0.1095
 2772SOL    HW119952   0.699   3.726   2.177  2.4785  0.3529 -1.5546
 2772SOL    HW219953   0.625   3.679   2.057 -0.3922  0.7198 -2.0592
 2773SOL     OW19954   3.487   3.211   1.142 -0.4093  0.4091 -0.0940
 2773SOL    HW119955   3.471   3.298   1.107 -0.7296  0.9424  1.3599
 2773SOL    HW219956   3.439   3.213   1.225  0.4595  0.6078  0.4124
 2774SOL     OW19957   1.592   2.830  15.803  0.3953 -0.7575  0.3340
 2774SOL    HW119958   1.589   2.906  15.746 -0.6895 -1.1473 -0.1425
 2774SOL    HW219959   1.520   2.845  15.865 -0.3473  1.4214 -1.0508
 2775SOL     OW19960   4.053   3.825  17.545  0.1944  0.4029  0.0383
 2775SOL    HW119961   4.095   3.794  17.465 -0.2417  0.0458 -0.0502
 2775SOL    HW219962   4.090   3.913  17.550 -0.7306  0.7624  0.4771
 2776SOL     OW19963   0.560   3.596  17.001 -0.4062 -0.0000 -0.4395
 2776SOL    HW119964   0.623   3.632  17.063 -0.1219  1.0344 -1.3221
 2776SOL    HW219965   0.482   3.595  17.057 -0.5771  1.1245 -0.6505
 2777SOL     OW19966   1.619   1.379  13.003  0.4060  0.3266 -0.2643
 2777SOL    HW119967   1.635   1.295  12.959  1.2858 -0.2077  1.0995
 2777SOL    HW219968   1.666   1.362  13.085  0.0112  3.0083  0.5210
 2778SOL     OW19969   0.304   4.156   3.124  0.1745 -0.0688  0.2347
 2778SOL    HW119970   0.337   4.100   3.054 -0.4990 -0.3404  0.1410
 2778SOL    HW219971   0.319   4.102   3.202  0.7422  0.2056  0.3202
 2779SOL     OW19972   2.850   4.303   9.672  0.1127  0.1518  0.4641
 2779SOL    HW119973   2.855   4.396   9.694  0.8248  0.4343 -0.9270
 2779SOL    HW219974   2.758   4.297   9.648  0.1357 -0.7881  0.5741
 2780SOL     OW19975   1.020   2.394  12.022  0.1701  0.3236 -0.3266
 2780SOL    HW119976   0.974   2.460  11.971  0.6668 -0.1241 -1.3632
 2780SOL    HW219977   1.056   2.450  12.091  1.4258 -2.0115  0.9299
 2781SOL     OW19978   0.421   1.958  10.727  0.6506  0.2137  0.3507
 2781SOL    HW119979   0.412   2.013  10.650  0.2922 -1.2424 -0.6488
 2781SOL    HW219980   0.510   1.977  10.757  1.5380 -1.3296 -1.2968
 2782SOL     OW19981   2.081   1.423  14.538  0.5435  0.1326  0.3181
 2782SOL    HW119982   2.005   1.479  14.520 -0.0648 -1.0163 -0.6719
 2782SOL    HW219983   2.106   1.483  14.607 -0.2227  0.4255  0.3468
 2783SOL     OW19984   4.706   3.493   1.832  0.2774  0.2496 -0.1355
 2783SOL    HW119985   0.008   3.568   1.879 -0.6901 -0.4680  1.7493
 2783SOL    HW219986   0.056   3.449   1.819 -0.0507  0.0375 -1.5371
 2784SOL     OW19987   3.300   3.131   4.838 -0.3246 -0.1272 -0.3168
 2784SOL    HW119988   3.367   3.067   4.814 -0.7765 -0.5831 -0.3667
 2784SOL    HW219989   3.325   3.160   4.926  2.4598  0.5286 -1.3174
 2785SOL     OW19990   0.281   4.481  15.384  0.4147  0.0206 -0.0921
 2785SOL    HW119991   0.195   4.447  15.360 -1.0540  1.0920  3.6995
 2785SOL    HW219992   0.323   4.492  15.298 -1.1221 -1.2454 -0.9860
 2786SOL     OW19993   2.648   0.704   6.809  0.0719 -0.2834  0.3454
 2786SOL    HW119994   2.685   0.792   6.804  0.5020 -0.6082 -2.2407
 2786SOL    HW219995   2.674   0.677   6.721  1.2911  0.6540  0.4213
 2787SOL     OW19996   4.312   2.693  14.820  0.3361  0.3022  0.4800
 2787SOL    HW119997   4.313   2.775  14.869  0.4065  0.9299 -0.5695
 2787SOL    HW219998   4.284   2.637  14.892 -2.3547 -0.2481 -1.0318
 2788SOL     OW19999   2.296   4.283  15.218 -0.5459  0.0865 -0.1993
 2788SOL    HW120000   2.373   4.280  15.161 -0.6217  0.0957 -0.3022
 2788SOL    HW220001   2.221   4.255  15.166  1.2137 -1.7222 -1.7521
 2789SOL     OW20002   3.064   1.035   4.321  0.3477 -0.3041  0.1093
 2789SOL    HW120003   3.058   0.945   4.289 -0.4645 -0.2679  0.1580
 2789SOL    HW220004   3.010   1.084   4.259 -2.5689 -2.2691  1.1031
 2790SOL     OW20005   2.196   0.148   6.659 -0.0393 -0.0651 -0.4127
 2790SOL    HW120006   2.169   0.225   6.709 -1.5106 -0.0917 -1.1657
 2790SOL    HW220007   2.110   0.138   6.618 -0.3850 -0.2052  0.3486
 2791SOL     OW20008   0.921   1.767   4.772 -0.4744 -0.0632  0.1335
 2791SOL    HW120009   0.964   1.713   4.840  1.5037 -0.4831 -1.4302
 2791SOL    HW220010   0.831   1.736   4.781  0.2064 -2.4080 -1.1252
 2792SOL     OW20011   3.405   4.453   7.684 -0.0118 -0.7738 -0.1175
 2792SOL    HW120012   3.451   4.388   7.737  1.1501 -1.4599 -1.9753
 2792SOL    HW220013   3.457   4.528   7.711  2.1779 -2.7040  1.0773
 2793SOL     OW20014   0.788   2.144   3.748 -0.3443  0.5389  0.2866
 2793SOL    HW120015   0.821   2.234   3.753  0.6895  0.1171  1.2109
 2793SOL    HW220016   0.756   2.135   3.838  0.9648 -2.6922  0.4358
 2794SOL     OW20017   0.577   0.120  17.176  0.0050 -0.1049  0.2900
 2794SOL    HW120018   0.515   0.140  17.106  2.6550 -1.0179 -2.3230
 2794SOL    HW220019   0.601   0.035  17.140 -2.5120 -0.5584 -0.2916
 2795SOL     OW20020   2.326   0.276  10.755  0.6996  0.9455 -0.3025
 2795SOL    HW120021   2.314   0.301  10.664 -0.2016 -1.9140 -0.9765
 2795SOL    HW220022   2.398   0.336  10.774 -0.2743  2.0809 -0.1882
 2796SOL     OW20023   3.645   2.208   6.082  0.1076  0.4382  0.3338
 2796SOL    HW120024   3.686   2.122   6.096  1.9294  1.3804  0.8844
 2796SOL    HW220025   3.684   2.253   6.157  0.1102 -0.1670  0.6975
 2797SOL     OW20026   0.765   3.568   5.930  0.2010  0.6188 -0.7252
 2797SOL    HW120027   0.824   3.562   6.006 -1.5943  2.7397  0.8240
 2797SOL    HW220028   0.686   3.596   5.975  0.6686  1.2619 -0.3095
 2798SOL     OW20029   2.484   1.503  14.368 -0.0833  0.0438 -0.0343
 2798SOL    HW120030   2.498   1.434  14.432 -0.1951 -0.4616 -0.5460
 2798SOL    HW220031   2.543   1.570  14.402 -1.2492  1.3092 -0.5144
 2799SOL     OW20032   3.503   3.702   6.146  0.6412 -0.1449  0.1710
 2799SOL    HW120033   3.412   3.723   6.168  0.3800 -3.2146  2.1274
 2799SOL    HW220034   3.541   3.789   6.136  2.6995 -1.0074  0.4134
 2800SOL     OW20035   4.254   2.046  14.063 -0.0066 -0.2203 -0.2375
 2800SOL    HW120036   4.235   2.136  14.037 -0.8373 -0.2917  0.1147
 2800SOL    HW220037   4.320   2.065  14.130 -0.8313  0.7909  0.2878
 2801SOL     OW20038   2.117   1.693   9.130 -1.4647 -0.0443  0.0752
 2801SOL    HW120039   2.131   1.628   9.199  0.1542 -0.3706 -0.5435
 2801SOL    HW220040   2.206   1.714   9.099 -0.1905 -1.4765  2.8068
 2802SOL     OW20041   2.664   4.719  16.414  0.2005  0.0649 -0.1044
 2802SOL    HW120042   2.647   4.669  16.494 -2.1536  1.8581  0.5138
 2802SOL    HW220043   2.754   4.691  16.401 -0.3799 -1.5358 -0.6327
 2803SOL     OW20044   3.343   1.918   7.172  0.6172  0.1848 -0.0498
 2803SOL    HW120045   3.371   2.007   7.196  0.1012  0.2061  0.4711
 2803SOL    HW220046   3.353   1.879   7.259 -1.0027  0.4373  0.2433
 2804SOL     OW20047   3.967   2.941   2.439 -0.0446  0.1046  0.0788
 2804SOL    HW120048   4.054   2.945   2.479  0.7655  0.8023 -1.7738
 2804SOL    HW220049   3.913   3.011   2.476  0.8160  0.8760 -0.1287
 2805SOL     OW20050   4.140   3.946   9.346 -0.3951  0.5664  0.1206
 2805SOL    HW120051   4.080   3.938   9.420  0.1937  2.9384  0.8561
 2805SOL    HW220052   4.097   4.004   9.283 -0.0447 -0.1597 -0.7944
 2806SOL     OW20053   3.772   1.510   8.386  0.3992 -0.4620  0.5566
 2806SOL    HW120054   3.833   1.457   8.437 -1.1564 -1.9061  0.9249
 2806SOL    HW220055   3.821   1.527   8.306 -0.5645  2.6824  0.6575
 2807SOL     OW20056   1.346   1.125   2.331  0.0651  0.3316  0.4270
 2807SOL    HW120057   1.343   1.102   2.423 -1.2974  0.5584  0.4513
 2807SOL    HW220058   1.334   1.035   2.299  1.4480 -0.5183  2.3464
 2808SOL     OW20059   2.064   2.059   7.344 -0.4724  0.2041  0.8469
 2808SOL    HW120060   2.006   2.131   7.318  2.2234  1.2974 -2.1449
 2808SOL    HW220061   2.136   2.082   7.286 -1.1653 -0.4347 -0.2788
 2809SOL     OW20062   0.792   0.369   6.614  0.2032  0.0539  0.1262
 2809SOL    HW120063   0.753   0.314   6.682  0.6859 -1.0054 -0.4726
 2809SOL    HW220064   0.885   0.365   6.636  0.5421  1.7762 -1.0008
 2810SOL     OW20065   4.535   3.164   9.888  0.2100 -0.0790  0.0513
 2810SOL    HW120066   4.509   3.078   9.856  1.8848 -0.4545 -0.2881
 2810SOL    HW220067   4.456   3.191   9.937 -0.7043  1.2494 -2.1377
 2811SOL     OW20068   0.935   2.639  12.344 -0.1112 -0.2843 -0.5712
 2811SOL    HW120069   1.002   2.584  12.302 -0.5045 -0.1309 -1.3973
 2811SOL    HW220070   0.892   2.576  12.401  0.7507 -0.7256 -0.3991
 2812SOL     OW20071   4.387   0.475  15.320 -0.1085  0.5910  0.0520
 2812SOL    HW120072   4.405   0.556  15.274 -1.1242  1.7173  1.6163
 2812SOL    HW220073   4.468   0.432  15.294 -2.0588 -1.7817 -2.1355
 2813SOL     OW20074   1.719   0.498   6.569 -0.5302  0.4933  0.0978
 2813SOL    HW120075   1.635   0.454   6.581 -0.8783  1.0044 -0.4967
 2813SOL    HW220076   1.736   0.546   6.650 -0.9860  1.6775 -0.5072
 2814SOL     OW20077   2.965   0.404   9.131 -0.0369 -0.0612 -0.6452
 2814SOL    HW120078   2.952   0.394   9.037  1.7246 -2.9363 -0.6165
 2814SOL    HW220079   2.884   0.447   9.157 -0.8035 -1.4655 -0.7206
 2815SOL     OW20080   3.101   1.393  10.250 -0.3228 -0.4625 -0.0326
 2815SOL    HW120081   3.043   1.460  10.212  0.3744  0.3241  0.2699
 2815SOL    HW220082   3.100   1.320  10.188  0.9356 -0.2777 -0.2738
 2816SOL     OW20083   3.206   0.477   2.032  0.2441  0.3972  0.0452
 2816SOL    HW120084   3.286   0.480   1.978  0.9734 -0.7202  1.0902
 2816SOL    HW220085   3.169   0.562   2.006 -0.7836  0.4697  1.7962
 2817SOL     OW20086   3.358   2.304  12.364 -0.0005  0.0057  0.1334
 2817SOL    HW120087   3.397   2.300  12.452 -1.8654  1.3481  1.0227
 2817SOL    HW220088   3.301   2.379  12.381 -3.1484 -2.2935 -0.2355
 2818SOL     OW20089   0.621   2.927   2.967  0.0067  0.3544 -0.2101
 2818SOL    HW120090   0.612   3.004   2.911  2.3773 -1.1725 -2.6622
 2818SOL    HW220091   0.543   2.873   2.954 -1.0390  1.7140  0.3681
 2819SOL     OW20092   3.510   0.399   4.262 -0.0739 -0.1716  0.7402
 2819SOL    HW120093   3.577   0.440   4.317 -0.8425  0.2421  1.3698
 2819SOL    HW220094   3.511   0.469   4.197 -0.7977 -0.9596 -0.1107
 2820SOL     OW20095   0.733   0.847  17.561  0.3269  0.2246  0.0517
 2820SOL    HW120096   0.810   0.905  17.556  0.2178  0.2362 -1.8240
 2820SOL    HW220097   0.701   0.859  17.650 -1.4268  0.0228 -0.5505
 2821SOL     OW20098   1.160   4.534   8.149  0.0055  0.1826  0.3615
 2821SOL    HW120099   1.180   4.443   8.126 -0.8146 -0.3373  1.6642
 2821SOL    HW220100   1.137   4.516   8.240 -0.2719 -0.0221  0.2512
 2822SOL     OW20101   0.766   0.662  12.081 -0.4927  0.3163 -0.1752
 2822SOL    HW120102   0.778   0.588  12.140  0.6138  0.6060 -0.0338
 2822SOL    HW220103   0.849   0.709  12.091 -1.7856  2.7371 -0.8021
 2823SOL     OW20104   2.529   3.854  17.680 -0.1413  0.2899 -0.2534
 2823SOL    HW120105   2.554   3.822   0.030  1.8039 -0.3937 -1.0816
 2823SOL    HW220106   2.589   3.797  17.633 -0.4658 -1.6478  1.6573
 2824SOL     OW20107   1.705   2.598   5.540  0.3914  0.4557  0.2753
 2824SOL    HW120108   1.626   2.616   5.590  0.9549 -0.0852  1.3639
 2824SOL    HW220109   1.710   2.503   5.552 -1.8437  0.5035  1.6357
 2825SOL     OW20110   4.701   2.040  16.151 -0.2203  0.0525 -0.2799
 2825SOL    HW120111   0.060   2.060  16.147 -0.3148  0.9648  2.3684
 2825SOL    HW220112   4.698   1.949  16.120  1.4430  0.4732 -1.6425
 2826SOL     OW20113   1.218   0.262   4.969 -0.0727 -0.3527  0.3077
 2826SOL    HW120114   1.216   0.286   5.062  0.1780 -1.9664  0.7203
 2826SOL    HW220115   1.268   0.181   4.962 -1.0768 -0.9066 -0.3315
 2827SOL     OW20116   2.154   3.382  11.596 -0.4646  0.0368  0.6751
 2827SOL    HW120117   2.093   3.394  11.668 -0.9986  1.5393 -0.0314
 2827SOL    HW220118   2.090   3.393  11.526  0.2818  0.5016  0.0640
 2828SOL     OW20119   2.848   3.713   6.993 -0.1811  0.2614  0.0442
 2828SOL    HW120120   2.837   3.808   6.992 -0.5845  0.2134 -0.0129
 2828SOL    HW220121   2.804   3.694   7.076 -1.2435  0.1045 -0.5654
 2829SOL     OW20122   1.531   1.256   8.442  0.2362 -0.3332 -0.3456
 2829SOL    HW120123   1.449   1.260   8.491  1.1211 -2.3580  1.3641
 2829SOL    HW220124   1.588   1.199   8.495  0.7365  0.9387  0.4711
 2830SOL     OW20125   3.063   4.439  10.655 -0.0558 -0.2962 -0.8827
 2830SOL    HW120126   3.089   4.515  10.707 -0.5829 -0.0801 -0.9359
 2830SOL    HW220127   3.065   4.380  10.730 -0.5314 -1.1619 -1.5492
 2831SOL     OW20128   2.563   3.997   4.247  0.4203 -0.4986 -0.4940
 2831SOL    HW120129   2.629   4.033   4.305  0.3114 -0.7227 -0.2315
 2831SOL    HW220130   2.555   3.912   4.291  0.1740 -0.2347 -0.0392
 2832SOL     OW20131   2.071   0.891   1.756 -0.5616 -0.6277 -0.1490
 2832SOL    HW120132   2.069   0.813   1.811 -2.8062  0.9231  1.9586
 2832SOL    HW220133   1.982   0.920   1.772 -0.0987  0.3674  0.5871
 2833SOL     OW20134   1.359   1.582   5.160 -0.0702  0.7664  0.2610
 2833SOL    HW120135   1.389   1.549   5.076 -0.7237  0.8107  0.0109
 2833SOL    HW220136   1.396   1.521   5.224 -1.0028  0.1320  0.1968
 2834SOL     OW20137   2.449   2.209   4.016  0.8491 -0.3990 -0.0392
 2834SOL    HW120138   2.421   2.167   4.097 -0.5758  2.8138  1.1508
 2834SOL    HW220139   2.487   2.292   4.043 -0.8880  0.2279  0.5061
 2835SOL     OW20140   1.828   2.804   1.269 -0.4028 -0.0965 -0.4038
 2835SOL    HW120141   1.775   2.852   1.333 -1.5514 -1.1396 -0.5789
 2835SOL    HW220142   1.917   2.826   1.297  0.0717  1.9859 -3.4696
 2836SOL     OW20143   0.059   2.489   2.842 -0.3653 -0.2818 -0.0892
 2836SOL    HW120144   0.115   2.412   2.853 -1.3912 -0.7622  1.6989
 2836SOL    HW220145   0.078   2.525   2.755  1.6449  1.1531  0.9495
 2837SOL     OW20146   4.326   0.494   7.842 -0.2321  0.0398 -0.3507
 2837SOL    HW120147   4.292   0.483   7.754 -0.5287  1.3067 -0.3933
 2837SOL    HW220148   4.288   0.582   7.854  1.1846  0.5393  0.4823
 2838SOL     OW20149   2.338   0.561  14.607 -0.3238  0.2543  0.7362
 2838SOL    HW120150   2.390   0.639  14.623 -2.2289  1.3582  1.5603
 2838SOL    HW220151   2.259   0.601  14.572  1.3956  3.0346  0.0574
 2839SOL     OW20152   3.781   1.153   7.159 -0.3336 -0.1116 -0.4909
 2839SOL    HW120153   3.829   1.133   7.078 -0.4407  0.7252 -0.7665
 2839SOL    HW220154   3.736   1.236   7.138  1.1815  0.3292 -2.0771
 2840SOL     OW20155   3.004   2.335   7.629  0.2419 -0.0736 -0.0452
 2840SOL    HW120156   3.059   2.346   7.706 -0.2111 -0.6318  0.3590
 2840SOL    HW220157   3.045   2.253   7.601 -1.2556 -1.0498  0.5781
 2841SOL     OW20158   1.059   0.441   3.863  0.5389 -0.0736 -0.1013
 2841SOL    HW120159   1.132   0.383   3.838  0.5430 -0.6739  1.3626
 2841SOL    HW220160   1.014   0.384   3.924  1.2245 -0.2224  0.2677
 2842SOL     OW20161   3.841   1.137   3.191 -0.4237  0.1064 -0.1259
 2842SOL    HW120162   3.811   1.089   3.268 -1.5078 -0.4196 -0.8794
 2842SOL    HW220163   3.794   1.220   3.203  2.1970  1.4535  0.8750
 2843SOL     OW20164   3.135   3.549  13.900  1.0739  0.0353  0.8100
 2843SOL    HW120165   3.141   3.481  13.833  0.1003  2.7871 -2.0577
 2843SOL    HW220166   3.225   3.579  13.904  1.0247  0.1986  0.6701
 2844SOL     OW20167   0.385   1.645  10.762  0.4447  0.1864  0.2408
 2844SOL    HW120168   0.333   1.724  10.746  0.9752  0.1502 -1.5858
 2844SOL    HW220169   0.313   1.583  10.772  1.3363 -0.9600 -0.5217
 2845SOL     OW20170   0.631   2.445   5.623  0.2716  0.4405 -0.1431
 2845SOL    HW120171   0.610   2.404   5.539 -1.7375  0.9776  0.1032
 2845SOL    HW220172   0.550   2.443   5.672 -0.6573  0.6274 -1.6658
 2846SOL     OW20173   0.226   2.269   3.894 -0.5736 -0.0298  0.6472
 2846SOL    HW120174   0.271   2.198   3.940  0.1956 -1.0343 -1.6992
 2846SOL    HW220175   0.268   2.260   3.809 -0.2588 -2.0995  1.0213
 2847SOL     OW20176   1.234   1.020   8.639  0.2687  0.3829  0.0232
 2847SOL    HW120177   1.174   1.005   8.565 -0.0674  0.6895  0.2335
 2847SOL    HW220178   1.299   0.952   8.621  1.1186  0.7424  1.7897
 2848SOL     OW20179   4.403   3.552   6.721  0.1384 -0.1158 -0.1708
 2848SOL    HW120180   4.482   3.509   6.690  0.7191  1.0477 -0.3193
 2848SOL    HW220181   4.387   3.589   6.634 -1.7798 -1.6469 -0.4716
 2849SOL     OW20182   4.197   2.572   8.083 -0.8076 -0.1070 -0.5281
 2849SOL    HW120183   4.186   2.626   8.161  0.7180  2.8964 -2.3898
 2849SOL    HW220184   4.291   2.589   8.074 -0.7292  0.2114  0.9009
 2850SOL     OW20185   2.518   0.884   8.661 -0.3654  0.2392  0.3604
 2850SOL    HW120186   2.437   0.884   8.610 -0.2732 -2.4919  0.2136
 2850SOL    HW220187   2.482   0.836   8.736  0.2737  1.9645  1.7593
 2851SOL     OW20188   1.608   1.943  13.732 -0.3540 -0.1544  0.0612
 2851SOL    HW120189   1.543   2.012  13.742 -1.9738 -1.4906 -1.3109
 2851SOL    HW220190   1.606   1.943  13.636 -2.1023  2.6398  0.1010
 2852SOL     OW20191   2.246   1.078   3.362  0.1821  0.2701 -0.2288
 2852SOL    HW120192   2.173   1.065   3.422  0.6749 -0.6328  0.1665
 2852SOL    HW220193   2.208   1.139   3.299  1.5339 -0.7508 -2.0539
 2853SOL     OW20194   2.784   0.760   4.533  0.7169 -0.2234 -0.0374
 2853SOL    HW120195   2.722   0.801   4.473  0.1991 -0.0844  0.5928
 2853SOL    HW220196   2.754   0.670   4.520  2.1923 -0.7974  0.5045
 2854SOL     OW20197   3.232   0.754   2.680 -0.1832 -0.1122  0.4289
 2854SOL    HW120198   3.190   0.687   2.626 -0.9666 -0.5621  1.6120
 2854SOL    HW220199   3.304   0.781   2.623 -1.5364  0.9894 -0.7690
 2855SOL     OW20200   3.051   1.224   6.074  0.4352  0.0849  0.4164
 2855SOL    HW120201   3.071   1.162   6.145  1.9771 -0.4543 -0.4902
 2855SOL    HW220202   3.036   1.174   5.994  0.6947  1.1256 -0.2807
 2856SOL     OW20203   4.527   2.194   2.730 -0.2117  0.3181 -0.0820
 2856SOL    HW120204   4.473   2.267   2.700 -0.1630  1.2359  2.0256
 2856SOL    HW220205   4.577   2.225   2.806  2.5116  0.0396 -1.7586
 2857SOL     OW20206   1.979   2.103   2.965 -0.0117 -0.1061 -0.3886
 2857SOL    HW120207   1.919   2.087   3.039  1.1581  3.2253  1.2697
 2857SOL    HW220208   2.018   2.017   2.948  0.1922 -0.1192  0.1370
 2858SOL     OW20209   1.198   2.558  17.349 -0.1591  0.3422  0.0944
 2858SOL    HW120210   1.125   2.506  17.316  0.5532 -2.4409  2.8729
 2858SOL    HW220211   1.256   2.578  17.276 -0.3709 -0.6743 -0.3560
 2859SOL     OW20212   2.020   0.672   1.943 -0.1716 -0.2344  0.0132
 2859SOL    HW120213   2.002   0.583   1.974 -1.6495 -0.0710 -0.4021
 2859SOL    HW220214   2.066   0.710   2.019  0.5490  0.8521 -0.9799
 2860SOL     OW20215   1.367   1.593   5.723 -0.0048  0.0282  0.4541
 2860SOL    HW120216   1.367   1.670   5.667 -1.0096 -1.4090 -1.5295
 2860SOL    HW220217   1.410   1.524   5.672  0.1757 -0.5717  1.4195
 2861SOL     OW20218   4.564   1.062  15.227 -0.1792  0.1651  0.3816
 2861SOL    HW120219   4.629   1.049  15.296 -1.5380 -1.3654  1.3593
 2861SOL    HW220220   4.499   1.006  15.268  1.2192 -1.3895  0.5064
 2862SOL     OW20221   3.173   2.135  15.096  0.5254  0.1976 -0.2101
 2862SOL    HW120222   3.153   2.051  15.054  3.3778 -0.4046 -0.3525
 2862SOL    HW220223   3.158   2.195  15.022  3.1596  1.9942  0.7015
 2863SOL     OW20224   2.044   4.680   2.562  0.0579 -0.3866  0.3467
 2863SOL    HW120225   2.052   0.028   2.514 -1.1254 -1.2768 -1.3688
 2863SOL    HW220226   2.129   4.668   2.605  1.5288 -1.4550 -2.8553
 2864SOL     OW20227   3.510   3.318  12.829  0.1832  0.2232 -0.1728
 2864SOL    HW120228   3.436   3.297  12.772 -1.4658  0.9909  1.6881
 2864SOL    HW220229   3.475   3.388  12.884  0.8511 -0.0341  0.5771
 2865SOL     OW20230   2.975   3.765   3.184 -0.2231 -0.6346  0.3006
 2865SOL    HW120231   2.884   3.787   3.206 -0.0351  2.6520 -2.2350
 2865SOL    HW220232   2.983   3.783   3.090 -0.4828  1.4451  0.6704
 2866SOL     OW20233   1.437   1.390   2.366 -0.7302 -0.1587  0.0205
 2866SOL    HW120234   1.467   1.371   2.455  1.1742  1.1066 -0.3690
 2866SOL    HW220235   1.383   1.313   2.347 -1.9727  0.9834 -1.1163
 2867SOL     OW20236   1.877   2.075   5.420  0.1729 -0.2178 -0.4455
 2867SOL    HW120237   1.947   2.057   5.357  2.0883  2.7630  0.8015
 2867SOL    HW220238   1.825   2.137   5.369  0.6721  1.1788  0.7453
 2868SOL     OW20239   3.306   4.203   8.659  0.0232  0.8422  0.0388
 2868SOL    HW120240   3.301   4.126   8.717 -0.7176  1.3330  0.6238
 2868SOL    HW220241   3.232   4.258   8.683 -1.4823 -2.1984  2.3713
 2869SOL     OW20242   0.098   0.435   3.435  0.0400 -0.0908  0.9831
 2869SOL    HW120243   0.124   0.343   3.440  1.0821  0.1750  0.4183
 2869SOL    HW220244   0.003   0.420   3.444  0.3643 -2.0557  1.2348
 2870SOL     OW20245   1.097   4.504  17.124  0.3189  0.2870  0.0234
 2870SOL    HW120246   1.082   4.597  17.142  0.9069 -0.0578  2.3044
 2870SOL    HW220247   1.127   4.487  17.213 -0.5870  0.9282  0.4504
 2871SOL     OW20248   3.293   4.626   6.192 -0.1535 -0.2770 -0.1844
 2871SOL    HW120249   3.200   4.604   6.197  0.1211 -1.6647 -1.1741
 2871SOL    HW220250   3.325   4.550   6.143  2.1623  0.9368 -0.5503
 2872SOL     OW20251   2.249   2.012   3.143 -0.1322  0.5791  0.2727
 2872SOL    HW120252   2.203   1.964   3.073 -0.5032 -1.2035  1.7311
 2872SOL    HW220253   2.320   1.953   3.166  0.9307  1.9482  0.4736
 2873SOL     OW20254   0.744   4.726   4.238  0.0192  0.1027  0.4131
 2873SOL    HW120255   0.742   4.709   4.332  0.0521 -2.9248 -0.1256
 2873SOL    HW220256   0.830   0.033   4.233  0.0576 -0.3710 -2.7483
 2874SOL     OW20257   1.660   1.594   7.505 -0.1670 -0.1916  0.1743
 2874SOL    HW120258   1.572   1.581   7.468  0.1730 -1.0739 -0.3417
 2874SOL    HW220259   1.704   1.512   7.480 -0.0544  0.2208 -0.9947
 2875SOL     OW20260   1.637   2.692   8.778 -0.3476 -0.3716  1.0505
 2875SOL    HW120261   1.623   2.661   8.868 -4.3547 -1.5446  0.0222
 2875SOL    HW220262   1.564   2.649   8.734  0.2414  0.6422 -0.8969
 2876SOL     OW20263   3.264   0.179   3.231 -0.3789  0.2089 -0.2042
 2876SOL    HW120264   3.257   0.097   3.280  3.6539  0.4740  0.7885
 2876SOL    HW220265   3.359   0.192   3.235 -0.3896  0.8040 -1.6509
 2877SOL     OW20266   3.972   3.096   5.280  0.2684  0.3059 -0.0455
 2877SOL    HW120267   4.018   3.158   5.222  0.6711 -0.3969 -0.4910
 2877SOL    HW220268   4.013   3.020   5.238 -1.1240 -0.1484 -0.5743
 2878SOL     OW20269   4.172   4.417   5.089 -0.3063 -0.5345  0.0557
 2878SOL    HW120270   4.093   4.439   5.039  0.5339 -0.2805 -1.1764
 2878SOL    HW220271   4.185   4.329   5.055 -1.2453 -0.9094  0.6689
 2879SOL     OW20272   0.947   1.442   4.412 -0.2816  0.8518  0.4368
 2879SOL    HW120273   1.022   1.405   4.459 -0.4888 -1.9081 -1.3971
 2879SOL    HW220274   0.949   1.406   4.324 -1.5277 -0.4766  0.9466
 2880SOL     OW20275   0.318   0.261   6.030 -0.1843 -0.0163 -0.1193
 2880SOL    HW120276   0.385   0.193   6.023 -1.7037 -1.4141 -0.8992
 2880SOL    HW220277   0.264   0.235   6.105  0.5840  2.0533  1.1534
 2881SOL     OW20278   1.547   3.975   3.062  0.6242  0.0773  1.3311
 2881SOL    HW120279   1.577   3.908   3.123  0.8031 -1.0199  0.0353
 2881SOL    HW220280   1.518   4.044   3.121  0.2849  1.6258 -0.6380
 2882SOL     OW20281   1.722   3.058   4.570  0.1413 -0.0478  0.0099
 2882SOL    HW120282   1.645   3.056   4.626  0.3533 -1.0546  0.2520
 2882SOL    HW220283   1.750   2.968   4.582  1.0848  0.8693  4.8058
 2883SOL     OW20284   3.404   1.820   6.282  0.6380 -0.1549 -0.4398
 2883SOL    HW120285   3.439   1.817   6.193 -0.6367 -0.1967 -0.9396
 2883SOL    HW220286   3.372   1.910   6.284 -0.1828 -0.4502 -0.4191
 2884SOL     OW20287   2.380   1.626   6.821  0.1583  0.1785 -0.4251
 2884SOL    HW120288   2.434   1.619   6.743  0.9968  0.6591  0.1138
 2884SOL    HW220289   2.321   1.701   6.808 -0.2450  0.3078  2.0467
 2885SOL     OW20290   2.872   1.929   4.006  0.5095  0.0210 -0.5532
 2885SOL    HW120291   2.822   1.904   4.084  0.9921  1.2872  0.1743
 2885SOL    HW220292   2.875   2.024   4.023  1.1829 -0.3832  1.6471
 2886SOL     OW20293   4.431   1.308   4.341  0.1740  0.7595  0.4396
 2886SOL    HW120294   4.491   1.383   4.351  1.7410 -0.2591 -1.4005
 2886SOL    HW220295   4.432   1.265   4.427 -2.5364 -0.3142 -0.0847
 2887SOL     OW20296   2.155   3.471  13.823  0.3243  0.4119 -0.5060
 2887SOL    HW120297   2.076   3.521  13.842 -0.0625 -1.4293  2.6927
 2887SOL    HW220298   2.126   3.410  13.754  1.6085 -1.0623  0.2577
 2888SOL     OW20299   0.609   0.358   3.111 -0.5406 -0.2643 -0.0282
 2888SOL    HW120300   0.578   0.276   3.073  1.2494 -0.2153 -1.6058
 2888SOL    HW220301   0.562   0.341   3.193  0.1395 -2.7972 -0.1849
 2889SOL     OW20302   1.522   0.778   2.466 -0.2739  0.6012 -0.4756
 2889SOL    HW120303   1.486   0.690   2.482 -0.4116  1.0368  1.6073
 2889SOL    HW220304   1.595   0.756   2.408  0.3885  3.2176 -0.6205
 2890SOL     OW20305   4.275   0.532   4.333 -0.2348 -0.1801  0.1043
 2890SOL    HW120306   4.258   0.480   4.412  2.7557 -0.1328  0.7888
 2890SOL    HW220307   4.252   0.470   4.264  0.8006 -1.5670  1.0058
 2891SOL     OW20308   2.320   2.167   5.838  0.5379  0.5029 -0.1471
 2891SOL    HW120309   2.259   2.229   5.879 -2.7065 -2.2777 -0.7720
 2891SOL    HW220310   2.296   2.170   5.746 -0.7269  2.0649  0.2187
 2892SOL     OW20311   2.387   4.067   6.541 -0.1066  0.1043  0.0072
 2892SOL    HW120312   2.316   4.058   6.605  0.6374  0.5611  0.8879
 2892SOL    HW220313   2.393   4.161   6.522 -1.5127  0.5358  1.6390
 2893SOL     OW20314   3.715   3.861   9.143 -0.0487 -0.1401  0.3204
 2893SOL    HW120315   3.668   3.815   9.213  0.2716 -0.1828  0.5114
 2893SOL    HW220316   3.807   3.841   9.162  0.5794  1.0324 -1.5479
 2894SOL     OW20317   0.972   2.245   4.021 -0.1956  0.1347 -0.5281
 2894SOL    HW120318   0.923   2.240   4.103  0.9899  1.9021  0.2988
 2894SOL    HW220319   1.003   2.335   4.010  1.1054 -0.1801  0.5834
 2895SOL     OW20320   3.202   0.565   4.193  0.1209  0.2585 -0.3585
 2895SOL    HW120321   3.176   0.550   4.102  0.8599 -0.4484 -0.4480
 2895SOL    HW220322   3.283   0.613   4.176  2.1217 -2.1343  2.6013
 2896SOL     OW20323   1.793   1.849  15.731 -0.3744 -0.0742 -0.8022
 2896SOL    HW120324   1.716   1.793  15.728  1.6254 -2.8477 -0.7689
 2896SOL    HW220325   1.760   1.933  15.700  0.6117  1.1893  1.5476
 2897SOL     OW20326   3.169   0.944   7.089 -0.5430  0.1813  0.1440
 2897SOL    HW120327   3.097   0.901   7.136  0.3870 -0.8447  0.6225
 2897SOL    HW220328   3.135   0.957   7.001  2.2989 -1.9780 -1.2724
 2898SOL     OW20329   1.504   4.341   6.509 -0.4762 -0.2097 -0.0747
 2898SOL    HW120330   1.458   4.270   6.553 -1.6432  0.7782  0.2999
 2898SOL    HW220331   1.423   4.386   6.487 -0.3162  0.1069 -0.0151
 2899SOL     OW20332   1.293   2.030   3.317  0.6631 -0.2534 -0.4092
 2899SOL    HW120333   1.272   2.038   3.411 -0.2225 -1.5784 -0.4995
 2899SOL    HW220334   1.218   2.065   3.268 -0.1356  0.1555  1.0908
 2900SOL     OW20335   1.115   2.120  15.089 -0.3952 -0.2983 -0.2764
 2900SOL    HW120336   1.054   2.047  15.079  1.3089 -1.8220  0.4923
 2900SOL    HW220337   1.191   2.074  15.122 -1.6444 -3.6607 -2.0884
 2901SOL     OW20338   1.908   4.711   8.228  0.1005 -0.4270  0.8439
 2901SOL    HW120339   1.896   4.691   8.320 -0.5643 -1.3101  0.5710
 2901SOL    HW220340   1.899   4.628   8.180 -0.4796  0.8077 -1.1898
 2902SOL     OW20341   3.740   2.037  15.592  0.0045 -0.7459  0.0087
 2902SOL    HW120342   3.647   2.053  15.610  0.3169  0.3113  0.6932
 2902SOL    HW220343   3.762   1.986  15.670 -2.0215 -1.4594  0.1274
 2903SOL     OW20344   0.603   3.368   2.641 -0.4379 -0.2873 -0.3469
 2903SOL    HW120345   0.529   3.429   2.635 -1.1166 -0.7264  3.5098
 2903SOL    HW220346   0.637   3.368   2.552  1.4716  3.4144  0.3832
 2904SOL     OW20347   2.748   3.359   7.203 -0.0214  0.0089  0.0497
 2904SOL    HW120348   2.736   3.312   7.286  1.7975  1.1729  0.9881
 2904SOL    HW220349   2.820   3.313   7.160 -0.1886  1.6719 -2.0250
 2905SOL     OW20350   4.561   0.420   2.462 -0.0151 -0.0479 -0.3399
 2905SOL    HW120351   4.495   0.470   2.412 -2.7166 -0.3199  2.9461
 2905SOL    HW220352   4.624   0.492   2.457 -0.3974  0.2521 -0.9728
 2906SOL     OW20353   0.189   0.266  13.243  0.0786 -0.1103 -0.3763
 2906SOL    HW120354   0.160   0.221  13.164 -1.4222  1.3367 -0.6385
 2906SOL    HW220355   0.129   0.234  13.311  0.6686 -0.0978  0.1541
 2907SOL     OW20356   4.547   1.543   2.753 -0.2867  0.1511 -0.3682
 2907SOL    HW120357   4.508   1.608   2.696 -0.8691 -0.0894 -0.2480
 2907SOL    HW220358   4.482   1.540   2.824 -1.7640 -1.4246 -1.7963
 2908SOL     OW20359   4.620   3.886  14.978 -0.4809 -0.0574  0.4514
 2908SOL    HW120360   4.586   3.801  15.005  0.1872 -0.3103  0.4786
 2908SOL    HW220361   4.550   3.946  15.004 -0.2321  1.2460 -1.9330
 2909SOL     OW20362   2.350   3.172   0.071  0.0489  0.4069 -0.8927
 2909SOL    HW120363   2.376   3.080   0.063 -3.7062 -0.6786 -0.5985
 2909SOL    HW220364   2.422   3.223   0.034  0.6033  0.0417 -0.3285
 2910SOL     OW20365   3.192   2.327   3.802 -0.1888 -0.2157 -0.8140
 2910SOL    HW120366   3.212   2.303   3.893  0.6664 -0.9797 -1.2085
 2910SOL    HW220367   3.278   2.354   3.771 -0.4994 -0.0072 -1.4907
 2911SOL     OW20368   1.986   1.944   7.773  0.4282  0.1930 -0.2620
 2911SOL    HW120369   2.042   2.016   7.744  1.1798 -0.1011  0.4672
 2911SOL    HW220370   1.902   1.985   7.750  0.7652 -0.0540 -1.8942
 2912SOL     OW20371   4.517   1.146   5.289  0.1410  0.1979 -0.1097
 2912SOL    HW120372   4.494   1.092   5.365  2.2068 -1.1303 -0.4170
 2912SOL    HW220373   4.430   1.142   5.250  0.2212  0.1987 -0.2939
 2913SOL     OW20374   1.606   0.597   1.892 -0.3714 -0.0905 -0.1466
 2913SOL    HW120375   1.575   0.561   1.975  0.4307  2.2757  1.1752
 2913SOL    HW220376   1.668   0.526   1.876  0.2418  0.5925 -0.7813
 2914SOL     OW20377   2.492   0.117   4.365  0.2442 -0.2463  0.1313
 2914SOL    HW120378   2.431   0.167   4.419 -1.5674  0.8571 -2.9414
 2914SOL    HW220379   2.537   0.061   4.429  0.5969 -1.5727 -1.2632
 2915SOL     OW20380   2.976   0.377   8.873 -0.0813  0.6083  0.2057
 2915SOL    HW120381   2.903   0.346   8.820  1.3415  0.0306 -1.4049
 2915SOL    HW220382   2.984   0.456   8.819 -1.1413  0.1221 -0.6705
 2916SOL     OW20383   1.273   2.138   9.861  0.2588  0.1972  0.6375
 2916SOL    HW120384   1.345   2.198   9.886 -0.7762  1.4942  0.5179
 2916SOL    HW220385   1.258   2.093   9.944  0.3691  0.9592  1.0711
 2917SOL     OW20386   1.552   1.466   3.527  1.1806 -0.5052  0.1334
 2917SOL    HW120387   1.631   1.472   3.581  0.1929 -2.6233  1.8279
 2917SOL    HW220388   1.477   1.494   3.581  1.5560  1.2851 -0.2849
 2918SOL     OW20389   3.632   3.280   7.956  0.3855 -0.4465  0.3277
 2918SOL    HW120390   3.550   3.274   8.006  1.4583  1.6618  2.3660
 2918SOL    HW220391   3.647   3.187   7.936  1.6668 -0.1973  0.1566
 2919SOL     OW20392   4.536   4.110   6.577 -0.6453  0.1252  0.0813
 2919SOL    HW120393   4.529   4.191   6.626  2.2924 -0.9369  2.1982
 2919SOL    HW220394   4.540   4.153   6.491  0.3020 -0.5762 -0.2241
 2920SOL     OW20395   2.529   0.073   2.285  0.0088  0.5675 -0.1065
 2920SOL    HW120396   2.495   0.139   2.344 -0.7706  0.3910 -0.3556
 2920SOL    HW220397   2.550   0.002   2.345  0.6342 -0.2424 -1.2736
 2921SOL     OW20398   0.231   1.980   5.129  0.0562 -0.3025 -0.3260
 2921SOL    HW120399   0.236   1.886   5.145 -0.5152  0.1559  2.6221
 2921SOL    HW220400   0.235   2.011   5.220 -2.9119 -1.5238  0.2114
 2922SOL     OW20401   3.780   2.549   8.549 -0.2582  0.1023 -0.3019
 2922SOL    HW120402   3.772   2.641   8.574 -2.0451 -0.0443 -0.3105
 2922SOL    HW220403   3.694   2.524   8.583  0.3108 -1.3279  0.0815
 2923SOL     OW20404   1.303   0.077  15.609 -0.2985  0.2203 -0.2223
 2923SOL    HW120405   1.210   0.094  15.623 -0.3733  1.1102 -1.8110
 2923SOL    HW220406   1.298   0.068  15.514  0.1729  0.1235 -0.2371
 2924SOL     OW20407   4.277   1.987  16.683  0.0349 -0.2451  0.2021
 2924SOL    HW120408   4.248   2.010  16.771 -0.6459  2.2802 -0.6475
 2924SOL    HW220409   4.212   1.918  16.668 -0.6546 -0.3365  3.7222
 2925SOL     OW20410   2.100   3.273   5.687 -0.1744 -0.1536 -0.0146
 2925SOL    HW120411   2.173   3.283   5.626 -0.7404 -1.6593 -0.9423
 2925SOL    HW220412   2.124   3.337   5.754 -1.1819  0.0571  0.1531
 2926SOL     OW20413   4.631   0.755   3.566 -0.4064 -0.2743 -0.0775
 2926SOL    HW120414   4.623   0.708   3.648  0.1642 -0.0370  0.1146
 2926SOL    HW220415   4.569   0.705   3.513 -0.5797 -2.1695  1.9457
 2927SOL     OW20416   4.415   3.977   9.618 -0.4411 -0.8265  0.2389
 2927SOL    HW120417   4.378   3.896   9.654 -0.8301 -1.4423 -1.5420
 2927SOL    HW220418   4.389   3.970   9.526 -1.6963  0.2472  0.5151
 2928SOL     OW20419   1.104   0.918   1.792 -0.4543 -0.4441  0.2464
 2928SOL    HW120420   1.171   0.897   1.857  0.1615 -0.3978 -0.3658
 2928SOL    HW220421   1.071   1.003   1.822 -0.5500 -0.5070  0.3192
 2929SOL     OW20422   3.015   0.297   4.352 -0.3329 -0.1027 -0.2167
 2929SOL    HW120423   3.008   0.342   4.268 -0.8438  1.2886  0.5595
 2929SOL    HW220424   3.082   0.234   4.325 -2.8556 -2.0208 -1.8656
 2930SOL     OW20425   3.596   2.931   5.062 -0.8254 -0.4201  0.7033
 2930SOL    HW120426   3.589   3.027   5.065 -0.0509 -0.2868 -1.7002
 2930SOL    HW220427   3.593   2.897   4.973 -0.2740  0.2085  0.4443
 2931SOL     OW20428   0.805   3.787  16.915  0.6953 -0.1781  0.3411
 2931SOL    HW120429   0.805   3.754  17.005 -1.1012 -0.8302  0.0977
 2931SOL    HW220430   0.754   3.866  16.933 -1.7328 -1.4090 -1.0250
 2932SOL     OW20431   1.592   3.283  16.278  0.4592 -0.1024  0.3346
 2932SOL    HW120432   1.612   3.232  16.199  0.7253 -1.1593  1.0788
 2932SOL    HW220433   1.521   3.232  16.317  1.3010 -0.4426  1.4396
 2933SOL     OW20434   1.924   2.487   8.953  0.0351  0.1215  0.1751
 2933SOL    HW120435   2.012   2.510   8.983  0.4161  0.1720 -0.9922
 2933SOL    HW220436   1.935   2.392   8.951  3.4035  0.5379 -2.8816
 2934SOL     OW20437   2.944   1.190   1.803 -0.4834  0.0751 -0.3627
 2934SOL    HW120438   2.925   1.270   1.755  0.1708  0.9634  0.8425
 2934SOL    HW220439   2.923   1.221   1.891  1.4256 -3.2680  1.2882
 2935SOL     OW20440   1.668   2.981  11.122  0.6283 -0.2138 -0.1095
 2935SOL    HW120441   1.722   2.998  11.199 -0.1127  2.1511 -0.1093
 2935SOL    HW220442   1.717   2.927  11.060  3.1315 -0.3197  1.9532
 2936SOL     OW20443   2.280   3.516   3.204  0.1269  0.0535  0.1040
 2936SOL    HW120444   2.202   3.468   3.231 -0.6468  0.2821 -1.7358
 2936SOL    HW220445   2.319   3.533   3.290 -0.9969 -0.7743  0.7802
 2937SOL     OW20446   0.462   1.072   5.336  0.2823 -0.0280  0.1135
 2937SOL    HW120447   0.529   1.015   5.299 -1.0447 -0.9672 -0.8321
 2937SOL    HW220448   0.478   1.052   5.428  2.5614 -0.8698 -0.4748
 2938SOL     OW20449   1.889   1.619   0.994 -0.2651  0.2898  0.0566
 2938SOL    HW120450   1.908   1.711   0.976 -2.8970  0.6834 -0.6927
 2938SOL    HW220451   1.897   1.577   0.908 -1.3851 -1.6321  0.8907
 2939SOL     OW20452   0.505   2.075   5.904 -0.3361  0.4545 -0.1407
 2939SOL    HW120453   0.515   2.134   5.979  1.6039  2.4214 -1.9523
 2939SOL    HW220454   0.500   1.991   5.949 -1.9942  0.5952 -0.0606
 2940SOL     OW20455   1.902   2.282  11.375  0.5041 -0.5493  0.3179
 2940SOL    HW120456   1.851   2.234  11.310  0.4366 -0.6191  0.4232
 2940SOL    HW220457   1.829   2.330  11.415  0.5779 -1.7656  1.8781
 2941SOL     OW20458   1.783   3.558   4.639 -0.4251  0.1856  0.4025
 2941SOL    HW120459   1.812   3.516   4.558  1.6400  0.3089  1.0890
 2941SOL    HW220460   1.787   3.484   4.700 -1.1077 -0.2062 -0.0286
 2942SOL     OW20461   1.935   1.572   5.408  0.3945 -0.0128  0.1225
 2942SOL    HW120462   1.946   1.478   5.420 -1.7577 -0.0958  1.6124
 2942SOL    HW220463   1.981   1.614   5.481 -0.7053 -1.8765  1.8869
 2943SOL     OW20464   0.631   0.764   8.576 -0.0727 -0.1787 -0.2158
 2943SOL    HW120465   0.707   0.714   8.544 -0.8903 -1.2329 -0.5220
 2943SOL    HW220466   0.593   0.789   8.492  0.5275 -1.0074 -0.7412
 2944SOL     OW20467   0.581   0.619   3.457 -0.1695 -0.0335  0.3123
 2944SOL    HW120468   0.643   0.619   3.384 -2.0306  2.3760 -1.2690
 2944SOL    HW220469   0.569   0.711   3.477 -1.4444 -0.1402  0.0471
 2945SOL     OW20470   1.815   3.171   1.293  0.1342 -0.1827 -0.6132
 2945SOL    HW120471   1.821   3.247   1.235 -0.8478  1.8864  2.0087
 2945SOL    HW220472   1.782   3.106   1.231  1.3858 -0.4677 -0.9799
 2946SOL     OW20473   2.450   0.468  12.036  0.2698 -0.0356  0.3990
 2946SOL    HW120474   2.396   0.515  11.972  0.7005 -1.0505 -0.6935
 2946SOL    HW220475   2.405   0.491  12.118  1.0547  0.7464  0.6132
 2947SOL     OW20476   0.131   1.302  15.494  0.3421 -0.2878 -0.0190
 2947SOL    HW120477   0.203   1.262  15.445  0.5762 -1.7760  1.5319
 2947SOL    HW220478   0.090   1.226  15.534 -0.0003  0.0085  0.1948
 2948SOL     OW20479   0.991   2.743   9.424  0.3128 -0.6051 -0.4838
 2948SOL    HW120480   0.903   2.726   9.458 -0.1779  0.0828 -1.3964
 2948SOL    HW220481   1.009   2.655   9.393  2.2626 -1.0786  2.0554
 2949SOL     OW20482   0.052   4.485   9.038  0.4233  0.1478 -0.0908
 2949SOL    HW120483   0.101   4.546   8.983  1.1543 -0.8184 -0.5177
 2949SOL    HW220484   0.074   4.521   9.124  0.4663 -0.8163  0.3071
 2950SOL     OW20485   1.848   4.234   2.361 -0.1667 -0.0366  0.8543
 2950SOL    HW120486   1.791   4.201   2.430  1.3719 -0.5347  1.8911
 2950SOL    HW220487   1.896   4.295   2.418  1.2312  0.2929 -0.6796
 2951SOL     OW20488   0.646   2.234   2.515  0.1343  0.1169  0.5204
 2951SOL    HW120489   0.681   2.154   2.555 -0.8115  0.1096  1.3536
 2951SOL    HW220490   0.727   2.276   2.485  0.4001  0.0056  1.0671
 2952SOL     OW20491   4.440   2.703   2.583  0.3705 -0.3502 -0.6784
 2952SOL    HW120492   4.426   2.647   2.659  1.3959 -2.0906 -1.7576
 2952SOL    HW220493   4.519   2.747   2.613  0.3631 -0.4479 -0.5130
 2953SOL     OW20494   1.662   2.327   0.440 -0.2447 -0.3348 -0.3014
 2953SOL    HW120495   1.665   2.289   0.352 -0.7998 -1.6814  0.2654
 2953SOL    HW220496   1.754   2.315   0.465 -0.3513 -0.8159 -0.1529
 2954SOL     OW20497   1.041   3.652   8.827 -0.1691  0.3111 -0.1243
 2954SOL    HW120498   1.086   3.696   8.755  2.2282 -0.8551  0.6259
 2954SOL    HW220499   1.060   3.714   8.898  2.4359 -1.6000  0.8895
 2955SOL     OW20500   2.479   0.231   9.779  0.5185 -0.1146  0.0175
 2955SOL    HW120501   2.553   0.258   9.724 -0.3893  0.8620 -0.7431
 2955SOL    HW220502   2.430   0.312   9.763 -0.9605 -0.5655  2.3441
 2956SOL     OW20503   1.948   2.520   5.786 -0.7920  0.0301  0.2317
 2956SOL    HW120504   1.889   2.523   5.861 -1.0582 -1.6195  0.0866
 2956SOL    HW220505   1.921   2.605   5.750 -0.1958  0.8596  1.7750
 2957SOL     OW20506   1.324   3.800   2.057  0.0550  0.5230 -0.0936
 2957SOL    HW120507   1.355   3.712   2.079 -0.2847  0.2474 -0.7239
 2957SOL    HW220508   1.229   3.787   2.057  0.2579 -0.9930 -0.2235
 2958SOL     OW20509   2.340   4.157  11.529 -0.0438  0.2950 -0.3459
 2958SOL    HW120510   2.432   4.150  11.557 -0.0478  0.9710 -0.1683
 2958SOL    HW220511   2.314   4.203  11.609 -1.8370 -1.4168  0.0497
 2959SOL     OW20512   1.354   4.556   5.866  0.5166 -0.4576 -0.0271
 2959SOL    HW120513   1.365   4.651   5.872 -1.6115 -0.1156 -1.4097
 2959SOL    HW220514   1.262   4.531   5.872 -0.1079  1.1715 -2.6264
 2960SOL     OW20515   0.135   2.614   4.939 -0.1101  0.1048  0.6523
 2960SOL    HW120516   0.077   2.539   4.935 -0.8556  0.9313 -4.0299
 2960SOL    HW220517   0.179   2.598   4.856 -0.4141  0.6090  0.3926
 2961SOL     OW20518   3.360   2.108   7.946  0.3041  0.2904 -0.3847
 2961SOL    HW120519   3.321   2.184   7.903 -0.1117  1.0459  1.3068
 2961SOL    HW220520   3.438   2.093   7.894  0.3638  1.0690 -0.5140
 2962SOL     OW20521   3.407   1.934   8.886  0.4347  0.0454  0.3307
 2962SOL    HW120522   3.422   1.930   8.981 -0.8308  0.1373  0.5274
 2962SOL    HW220523   3.497   1.940   8.853 -0.3762  1.2231 -1.6418
 2963SOL     OW20524   2.538   0.786   1.296 -0.2640  0.3208  0.6878
 2963SOL    HW120525   2.492   0.755   1.374 -0.7598 -2.9883 -0.8959
 2963SOL    HW220526   2.627   0.773   1.327  0.3554 -0.0749 -1.2473
 2964SOL     OW20527   0.249   4.381  13.462  0.5365  0.2989 -0.6361
 2964SOL    HW120528   0.263   4.395  13.556 -0.0683 -2.0102 -0.2129
 2964SOL    HW220529   0.181   4.314  13.464  0.9846 -0.1316  0.1338
 2965SOL     OW20530   2.618   0.517   3.378  0.2721  0.3148  0.4112
 2965SOL    HW120531   2.649   0.436   3.419 -0.8755 -0.1581  0.3343
 2965SOL    HW220532   2.526   0.502   3.356  0.4680  1.5829 -1.3279
 2966SOL     OW20533   2.001   3.365  16.233 -0.7306 -0.3735  0.4027
 2966SOL    HW120534   2.093   3.366  16.205 -0.9994 -0.7605 -0.4963
 2966SOL    HW220535   1.952   3.387  16.154 -0.8393 -0.8501  0.3340
 2967SOL     OW20536   2.305   4.336   6.825  0.7389  0.0122 -0.0741
 2967SOL    HW120537   2.283   4.262   6.881  1.2316 -0.4187 -0.4407
 2967SOL    HW220538   2.220   4.380   6.826  0.9915  0.5661 -2.3179
 2968SOL     OW20539   4.132   2.608  15.023  0.6268 -0.2430  0.2431
 2968SOL    HW120540   4.156   2.565  15.105  2.0248 -0.1050 -0.0977
 2968SOL    HW220541   4.046   2.569  15.007  0.9312 -1.2784  1.2000
 2969SOL     OW20542   3.460   1.359   5.620  0.2586 -0.0454  0.3735
 2969SOL    HW120543   3.386   1.314   5.578  0.8200 -0.7696  0.1627
 2969SOL    HW220544   3.447   1.329   5.710 -2.2823  0.8856  0.3127
 2970SOL     OW20545   3.144   3.056  13.142  0.2142 -0.3227 -0.2064
 2970SOL    HW120546   3.172   2.976  13.098 -0.9215 -0.5917 -0.4393
 2970SOL    HW220547   3.112   3.105  13.065  0.0636  2.6753  1.7453
 2971SOL     OW20548   1.001   3.511  12.095 -0.2595  0.7592 -0.2211
 2971SOL    HW120549   1.073   3.558  12.137  1.6163 -1.0144 -1.4798
 2971SOL    HW220550   0.971   3.445  12.158 -0.3904 -1.1534 -2.3094
 2972SOL     OW20551   3.430   2.111   2.874  0.3822  0.6489 -0.2148
 2972SOL    HW120552   3.412   2.030   2.827  1.5920 -0.2142  0.8007
 2972SOL    HW220553   3.347   2.154   2.853 -1.5700 -1.4778  3.1676
 2973SOL     OW20554   2.444   4.643   4.737 -0.0764  0.3421 -0.1911
 2973SOL    HW120555   2.499   4.691   4.675 -0.6460 -2.5488 -2.9389
 2973SOL    HW220556   2.514   4.584   4.766  0.3737  0.5736 -0.8164
 2974SOL     OW20557   4.394   0.031   4.629 -0.0337  0.1987 -0.0083
 2974SOL    HW120558   4.413   0.092   4.557  0.2870  0.0161 -0.0775
 2974SOL    HW220559   4.431   4.697   4.573  0.2612  0.8115 -0.5636
 2975SOL     OW20560   3.285   0.903   8.830  0.4950 -0.1011 -0.3320
 2975SOL    HW120561   3.214   0.958   8.864 -0.7064 -1.6862 -0.2522
 2975SOL    HW220562   3.239   0.819   8.827  0.6208 -0.1009 -1.9513
 2976SOL     OW20563   2.275   3.937   7.538  0.1136 -0.9371  0.2501
 2976SOL    HW120564   2.367   3.958   7.519 -0.2004  0.4231  0.2391
 2976SOL    HW220565   2.258   3.971   7.626 -0.7815  1.8811 -1.0080
 2977SOL     OW20566   1.585   3.586   8.426 -0.5772 -0.0745  0.0618
 2977SOL    HW120567   1.603   3.497   8.395  2.1413  0.1926  0.9100
 2977SOL    HW220568   1.662   3.630   8.389 -0.8720  1.1974  0.9508
 2978SOL     OW20569   1.915   0.279  16.745  0.1341 -0.3569  0.1267
 2978SOL    HW120570   1.929   0.184  16.747 -2.2998 -0.7097  1.0968
 2978SOL    HW220571   1.834   0.277  16.797  0.2205  2.5732  0.3510
 2979SOL     OW20572   2.403   1.616   5.914  0.0098  0.0844  0.4278
 2979SOL    HW120573   2.399   1.579   6.003  1.7322  0.9630  0.8651
 2979SOL    HW220574   2.352   1.694   5.935 -0.2200  0.0439  0.0102
 2980SOL     OW20575   0.977   4.398   3.013 -0.2894 -0.0811 -0.3674
 2980SOL    HW120576   0.992   4.369   3.104 -0.4663  2.6642  0.5202
 2980SOL    HW220577   1.033   4.474   2.999 -0.2393  0.1448  1.0026
 2981SOL     OW20578   1.156   3.187   6.612  0.2091 -0.0597 -0.0912
 2981SOL    HW120579   1.163   3.092   6.627  2.1812  0.0462 -0.2788
 2981SOL    HW220580   1.062   3.197   6.623 -0.3474 -1.2124 -3.6335
 2982SOL     OW20581   4.306   1.542   8.869 -0.3410  0.4272 -0.1953
 2982SOL    HW120582   4.285   1.455   8.904 -0.1719  1.5120  2.5963
 2982SOL    HW220583   4.284   1.531   8.776 -1.0542 -0.9966  0.1400
 2983SOL     OW20584   4.498   2.185   8.964 -0.0076  0.1730 -0.6388
 2983SOL    HW120585   4.526   2.276   8.951  2.4454 -0.2799  1.4405
 2983SOL    HW220586   4.404   2.204   8.973  0.2863  1.0343  0.6985
 2984SOL     OW20587   2.334   0.890  14.410  0.4782  0.7055 -0.2871
 2984SOL    HW120588   2.351   0.928  14.496 -1.0536  0.0903  0.2843
 2984SOL    HW220589   2.242   0.916  14.405  0.8912  1.9066 -1.9067
 2985SOL     OW20590   1.133   4.649  16.120 -0.6909 -0.5891  1.0623
 2985SOL    HW120591   1.212   4.659  16.172 -0.9187  2.4942  0.8369
 2985SOL    HW220592   1.156   4.581  16.056  1.3186  2.4251 -1.4387
 2986SOL     OW20593   3.507   0.791   1.903 -0.7357 -0.2605  1.0455
 2986SOL    HW120594   3.456   0.710   1.910  0.1249 -0.7069  2.3236
 2986SOL    HW220595   3.485   0.821   1.815 -2.4387  2.9980  2.6263
 2987SOL     OW20596   3.884   4.310   8.433  0.8203 -0.5238  0.3045
 2987SOL    HW120597   3.963   4.282   8.386  0.1798  2.5328 -2.5551
 2987SOL    HW220598   3.899   4.404   8.440  0.6417 -0.4001 -0.9932
 2988SOL     OW20599   0.496   3.303   1.825 -0.1175  0.1440 -0.3230
 2988SOL    HW120600   0.520   3.300   1.732  1.2157 -2.3723  0.0790
 2988SOL    HW220601   0.478   3.211   1.847  0.7140  0.0134 -0.1709
 2989SOL     OW20602   3.014   1.460   3.896  0.2877 -0.1407 -0.0736
 2989SOL    HW120603   3.087   1.511   3.931  0.4183 -0.8752  0.7251
 2989SOL    HW220604   2.943   1.520   3.917 -1.4743 -1.0786 -3.3268
 2990SOL     OW20605   3.628   0.507   4.004  0.0814  0.0369 -0.3026
 2990SOL    HW120606   3.680   0.442   3.956 -0.4376 -0.8607  0.3601
 2990SOL    HW220607   3.562   0.536   3.940  0.0864 -0.6876 -0.6322
 2991SOL     OW20608   1.856   1.709   2.929  0.5416  0.5033  0.6714
 2991SOL    HW120609   1.859   1.791   2.977 -1.8441  0.9982 -0.0380
 2991SOL    HW220610   1.791   1.659   2.978 -0.6184  1.1797 -0.2022
 2992SOL     OW20611   3.474   0.660  17.207  0.2019 -0.0951 -0.7439
 2992SOL    HW120612   3.471   0.575  17.164 -2.9674  0.2260 -1.1970
 2992SOL    HW220613   3.383   0.676  17.233 -0.7875 -1.1043 -3.5384
 2993SOL     OW20614   0.368   4.110   1.725  0.2309  0.2261  0.5248
 2993SOL    HW120615   0.312   4.116   1.802 -1.7267  2.1444 -1.0552
 2993SOL    HW220616   0.313   4.131   1.649  0.4302  1.3845  0.7038
 2994SOL     OW20617   0.714   1.326   7.055  0.0503 -0.1795  0.3516
 2994SOL    HW120618   0.745   1.251   7.003  1.5809  0.9079 -0.2929
 2994SOL    HW220619   0.777   1.314   7.126 -2.3059 -3.8314  1.8731
 2995SOL     OW20620   3.741   1.815  17.257  0.6423 -0.1703 -0.1002
 2995SOL    HW120621   3.831   1.836  17.282  0.5135  0.2994 -0.0330
 2995SOL    HW220622   3.704   1.903  17.263  1.2880  0.2564 -2.1617
 2996SOL     OW20623   1.222   0.332   8.245 -0.2087 -0.0459  0.9044
 2996SOL    HW120624   1.297   0.322   8.303  0.3131 -2.2530 -0.1418
 2996SOL    HW220625   1.178   0.247   8.251 -0.0597 -0.3044 -1.5409
 2997SOL     OW20626   3.221   4.561   3.052 -0.1620  0.5900  0.0240
 2997SOL    HW120627   3.232   4.539   2.959 -1.8654 -0.0947 -0.0075
 2997SOL    HW220628   3.126   4.561   3.065 -0.2858 -0.7307 -0.8833
 2998SOL     OW20629   0.898   2.978   0.354  0.3499  0.2601  0.1017
 2998SOL    HW120630   0.826   2.965   0.415  0.0581  0.4284 -0.2098
 2998SOL    HW220631   0.879   3.068   0.328 -0.3397  0.0664 -0.0494
 2999SOL     OW20632   1.912   4.725   3.557 -0.4727 -0.2229 -0.2168
 2999SOL    HW120633   1.947   4.661   3.619  0.8638  0.7065 -0.0233
 2999SOL    HW220634   1.917   0.070   3.609  0.7849 -0.4700  0.0419
 3000SOL     OW20635   1.065   2.954   2.688  0.4535  0.1296  0.2230
 3000SOL    HW120636   1.085   2.881   2.629  1.7465  0.9016 -0.2803
 3000SOL    HW220637   0.978   2.978   2.655  1.5622 -0.5359 -3.1879
 3001SOL     OW20638   0.730   0.368  14.620  0.3975 -0.1809 -0.1029
 3001SOL    HW120639   0.758   0.283  14.588 -2.0367 -0.9180 -0.2944
 3001SOL    HW220640   0.791   0.388  14.691 -0.4653  1.1699  0.2563
 3002SOL     OW20641   0.027   0.046   2.084 -0.2854 -0.5503 -0.2773
 3002SOL    HW120642   4.727   0.118   2.136  0.1233  0.5648 -1.5354
 3002SOL    HW220643   4.698   4.712   2.107 -1.6925  0.4672 -1.1507
 3003SOL     OW20644   0.277   0.373   6.470 -0.4387  0.3010  0.0795
 3003SOL    HW120645   0.229   0.388   6.551  2.1852 -0.9628  1.8847
 3003SOL    HW220646   0.342   0.304   6.485 -0.5826 -0.2981 -2.0238
 3004SOL     OW20647   3.817   0.214  11.607 -0.0552  0.0570 -0.5974
 3004SOL    HW120648   3.871   0.141  11.578 -1.6073 -0.9880 -0.8087
 3004SOL    HW220649   3.863   0.260  11.677  1.7058  0.7610 -2.2016
 3005SOL     OW20650   0.444   3.675   3.217 -0.1975  0.1831  0.5950
 3005SOL    HW120651   0.514   3.704   3.159  0.2715 -0.4030  0.8638
 3005SOL    HW220652   0.429   3.585   3.186  2.5274 -0.5026  1.3133
 3006SOL     OW20653   2.183   1.164   5.422 -0.3704 -0.2046 -0.0382
 3006SOL    HW120654   2.253   1.106   5.451 -0.0878  0.6248  0.9625
 3006SOL    HW220655   2.235   1.244   5.416 -0.2343 -0.1900  1.4000
 3007SOL     OW20656   4.634   3.614   3.252 -0.6883 -0.4860 -0.4057
 3007SOL    HW120657   4.583   3.537   3.276 -0.2206 -1.7255 -3.3441
 3007SOL    HW220658   4.575   3.663   3.195 -2.0672 -1.4659  0.1751
 3008SOL     OW20659   3.549   1.557  11.076 -0.6707 -0.3889 -0.1957
 3008SOL    HW120660   3.531   1.634  11.130 -1.4323 -1.2252  0.7521
 3008SOL    HW220661   3.592   1.595  10.999  0.4337 -1.8347 -0.2789
 3009SOL     OW20662   1.435   2.674   6.200  0.2683 -0.1063 -0.5069
 3009SOL    HW120663   1.373   2.612   6.162  0.6713 -0.7190 -0.1568
 3009SOL    HW220664   1.403   2.667   6.290 -1.8518 -0.7898 -1.2971
 3010SOL     OW20665   4.732   4.265   2.425 -0.3272 -0.1055  0.7328
 3010SOL    HW120666   4.708   4.355   2.445  0.2621  0.1815  0.1516
 3010SOL    HW220667   0.057   4.246   2.497 -1.5285  0.8039  1.9435
 3011SOL     OW20668   0.560   0.135   6.047  0.2273  0.1324  0.4552
 3011SOL    HW120669   0.582   0.110   6.137 -1.0034 -0.0262  0.7099
 3011SOL    HW220670   0.584   0.066   5.985 -0.6789 -0.3484  0.6421
 3012SOL     OW20671   3.401   4.060   7.215  0.4621  0.3305 -0.5520
 3012SOL    HW120672   3.315   4.056   7.256  0.3141  0.0458 -0.8876
 3012SOL    HW220673   3.440   3.977   7.244  0.3818  0.9886  1.4711
 3013SOL     OW20674   4.032   0.318   8.301  0.3705 -0.0625 -0.1227
 3013SOL    HW120675   3.997   0.387   8.358 -0.6588  0.3554 -1.2698
 3013SOL    HW220676   3.998   0.349   8.218  2.1398  1.1523 -0.4032
 3014SOL     OW20677   2.052   4.365   0.211  0.4603 -0.1124 -0.2720
 3014SOL    HW120678   2.023   4.298   0.148  2.0627  0.7369 -1.9205
 3014SOL    HW220679   2.142   4.338   0.226  1.2025  1.0161 -2.6552
 3015SOL     OW20680   3.338   3.481   6.851  0.6283  0.1529 -0.5839
 3015SOL    HW120681   3.262   3.534   6.878  0.3825  0.0971 -1.1702
 3015SOL    HW220682   3.399   3.548   6.821  0.1017 -0.4905 -3.0428
 3016SOL     OW20683   0.098   3.017   5.899  0.4006 -0.5924 -0.3083
 3016SOL    HW120684   0.005   2.996   5.889  0.2152 -0.3174  0.7949
 3016SOL    HW220685   0.101   3.099   5.851 -0.0581 -0.8623 -0.8081
 3017SOL     OW20686   1.249   4.688  12.516  0.3165  0.3925 -0.0206
 3017SOL    HW120687   1.240   0.013  12.442 -0.8086  0.2761  0.0230
 3017SOL    HW220688   1.286   4.613  12.471 -0.0189 -0.2533  0.7829
 3018SOL     OW20689   1.581   0.052  11.239 -0.1018 -0.1858 -0.1577
 3018SOL    HW120690   1.612   4.703  11.202  1.7819  0.5766 -0.2910
 3018SOL    HW220691   1.605   0.033  11.330  0.7062 -0.1623 -0.3648
 3019SOL     OW20692   1.666   2.465   3.084 -0.1385  0.0834  0.0943
 3019SOL    HW120693   1.663   2.530   3.014 -1.4163  0.1813  0.2290
 3019SOL    HW220694   1.754   2.430   3.073  0.4503  1.8131 -0.7308
 3020SOL     OW20695   3.053   0.029   7.138  0.2272  0.0111  0.6628
 3020SOL    HW120696   2.969   4.733   7.105  0.6699 -0.2549 -0.2266
 3020SOL    HW220697   3.015   0.063   7.219 -1.0162 -0.1076  0.1294
 3021SOL     OW20698   3.751   4.360   4.560  0.3302 -0.5263 -0.2577
 3021SOL    HW120699   3.828   4.404   4.524  0.4898  1.6280  2.7568
 3021SOL    HW220700   3.697   4.363   4.481  0.2015  2.6317 -0.0309
 3022SOL     OW20701   4.073   4.589  13.518 -0.1789  0.0443  0.1122
 3022SOL    HW120702   4.012   4.555  13.453 -0.3485 -0.2081  0.4025
 3022SOL    HW220703   4.034   4.580  13.605 -0.7409 -0.0548 -0.1494
 3023SOL     OW20704   0.128   0.842   0.157 -0.1454  0.2129  0.5262
 3023SOL    HW120705   0.067   0.914   0.166 -1.3560 -0.4321 -2.7282
 3023SOL    HW220706   0.135   0.832   0.063  0.0996  1.3879  0.4195
 3024SOL     OW20707   0.440   1.153   8.934 -0.3034 -0.1402  0.4187
 3024SOL    HW120708   0.386   1.176   9.011  0.6653  1.9824  0.4671
 3024SOL    HW220709   0.411   1.208   8.861 -0.6242  0.4168  0.9583
 3025SOL     OW20710   1.504   0.323   3.762 -0.5615  0.6665 -0.0466
 3025SOL    HW120711   1.556   0.359   3.834 -1.6385 -0.2117  1.1759
 3025SOL    HW220712   1.579   0.299   3.709 -1.0081  0.2161 -0.4791
 3026SOL     OW20713   2.364   4.064   8.221 -0.1645  0.5193 -0.1656
 3026SOL    HW120714   2.372   4.123   8.296 -1.0870 -0.1502  0.4581
 3026SOL    HW220715   2.403   4.111   8.147  2.5471 -1.5212 -0.0288
 3027SOL     OW20716   4.086   1.716  12.900  0.0960  0.5895 -0.0683
 3027SOL    HW120717   4.156   1.769  12.862 -1.6295  2.6943 -0.3571
 3027SOL    HW220718   4.071   1.762  12.983  1.2721  1.1276 -0.1536
 3028SOL     OW20719   0.222   1.467   7.911  0.0184 -0.5714  0.0094
 3028SOL    HW120720   0.206   1.410   7.987  2.7384 -1.1610  0.1537
 3028SOL    HW220721   0.315   1.446   7.899  0.0266 -0.8208  0.4941
 3029SOL     OW20722   4.720   1.844   9.549 -0.2409  0.0635  0.7302
 3029SOL    HW120723   0.017   1.853   9.459  0.6508  2.6564  1.3102
 3029SOL    HW220724   0.017   1.755   9.567 -0.8955 -0.2001  0.5280
 3030SOL     OW20725   1.334   4.599  10.066  0.4635  0.2821 -0.3209
 3030SOL    HW120726   1.309   4.533  10.130  1.0088 -0.2140 -0.6247
 3030SOL    HW220727   1.259   4.658  10.075 -0.3541 -0.9529  0.9665
 3031SOL     OW20728   2.022   0.401   5.419  0.2139  1.0550  0.2944
 3031SOL    HW120729   2.108   0.391   5.379 -0.1963 -1.5242  0.1018
 3031SOL    HW220730   2.037   0.346   5.496 -3.8387  0.2431  0.5081
 3032SOL     OW20731   0.574   1.715   6.811 -0.2302  0.4634 -0.1651
 3032SOL    HW120732   0.486   1.699   6.846 -0.0986  0.7103  0.2720
 3032SOL    HW220733   0.570   1.807   6.786 -1.0761  0.2284 -0.9187
 3033SOL     OW20734   2.155   1.463   8.779  0.0524 -0.0701  0.4879
 3033SOL    HW120735   2.165   1.422   8.693 -1.7894 -0.2535  0.3710
 3033SOL    HW220736   2.126   1.392   8.836 -3.5351  0.6429 -0.4164
 3034SOL     OW20737   0.777   2.921   6.336 -0.2991 -0.2211 -0.4863
 3034SOL    HW120738   0.698   2.871   6.355 -0.3566  0.4059  0.9272
 3034SOL    HW220739   0.824   2.853   6.288 -0.3016  1.1029 -2.3398
 3035SOL     OW20740   1.479   1.370  10.868 -0.5933 -0.1575  0.0602
 3035SOL    HW120741   1.485   1.359  10.963 -0.4969 -0.1337  0.0573
 3035SOL    HW220742   1.388   1.343  10.864 -0.3796 -0.8933  0.2239
 3036SOL     OW20743   0.428   1.531   0.088 -0.3194 -0.2712  0.3937
 3036SOL    HW120744   0.337   1.509   0.073 -0.7347  0.1185  2.4180
 3036SOL    HW220745   0.483   1.458   0.057  0.5298  0.3761  0.3540
 3037SOL     OW20746   2.227   3.842  10.816 -0.0836 -0.1565  0.3088
 3037SOL    HW120747   2.272   3.886  10.887 -0.2716  0.6113 -0.0481
 3037SOL    HW220748   2.138   3.839  10.850  0.9484 -0.5301  2.9297
 3038SOL     OW20749   1.661   1.952   7.879  0.1784  0.8304  0.4032
 3038SOL    HW120750   1.710   1.952   7.961  1.5484 -0.9709 -0.4006
 3038SOL    HW220751   1.657   1.858   7.859 -0.4815  1.0814 -0.6683
 3039SOL     OW20752   2.846   0.498   2.656  0.2643  0.1525 -0.0526
 3039SOL    HW120753   2.849   0.450   2.738  0.5612 -0.8866 -0.6653
 3039SOL    HW220754   2.939   0.498   2.633  0.8527  0.8532  2.3734
 3040SOL     OW20755   0.675   4.626  15.598 -1.0793  0.6592  0.3448
 3040SOL    HW120756   0.770   4.617  15.603 -1.4444 -1.9144  2.6551
 3040SOL    HW220757   0.653   4.636  15.691  0.1958  3.2704  0.3815
 3041SOL     OW20758   0.527   3.005  14.138 -0.2812  0.3799 -0.1667
 3041SOL    HW120759   0.616   2.984  14.166 -0.3372  0.1087 -0.1885
 3041SOL    HW220760   0.490   3.030  14.223 -0.8044  0.2685 -0.3635
 3042SOL     OW20761   1.771   1.125   6.034  0.1900 -0.0733 -0.0867
 3042SOL    HW120762   1.762   1.096   5.943  1.4743  1.8961 -0.8311
 3042SOL    HW220763   1.816   1.050   6.072  0.1324 -0.4570 -0.7767
 3043SOL     OW20764   1.205   4.650   2.408 -0.0877 -0.1843 -0.3964
 3043SOL    HW120765   1.136   4.606   2.357 -2.6873  1.9087  1.3180
 3043SOL    HW220766   1.196   0.005   2.374 -0.0596  0.2251  0.6814
 3044SOL     OW20767   4.256   2.471   0.578  0.0372  0.0571  0.2138
 3044SOL    HW120768   4.288   2.406   0.516  0.5869 -0.7691  1.3650
 3044SOL    HW220769   4.263   2.428   0.663  0.0159 -0.3752 -0.0074
 3045SOL     OW20770   1.195   0.586   8.031 -0.4458 -0.3275  0.3399
 3045SOL    HW120771   1.278   0.586   8.079 -0.2615 -1.1512  0.0101
 3045SOL    HW220772   1.139   0.551   8.101 -0.3238  1.2403  1.2258
 3046SOL     OW20773   1.734   0.145  17.200  0.3721  0.7515 -0.0642
 3046SOL    HW120774   1.768   0.142  17.290 -0.8515  0.8070  0.3991
 3046SOL    HW220775   1.738   0.055  17.167  3.6279  0.4133  1.2113
 3047SOL     OW20776   0.146   4.465  14.317 -0.0140  0.6347  0.1402
 3047SOL    HW120777   0.205   4.433  14.249 -1.2423  1.4729 -1.3341
 3047SOL    HW220778   0.125   4.555  14.290  2.8669  1.0127 -0.8326
 3048SOL     OW20779   1.087   1.124   2.016 -0.2392  0.1727 -0.1051
 3048SOL    HW120780   1.019   1.184   1.985  0.3725  2.3926  2.9060
 3048SOL    HW220781   1.069   1.108   2.108  0.7418 -0.1757  0.0348
 3049SOL     OW20782   2.109   2.245  11.186 -0.0185 -0.4181  0.4159
 3049SOL    HW120783   2.046   2.307  11.224  0.9876  1.5534 -1.1295
 3049SOL    HW220784   2.177   2.233  11.253  0.5442  0.7618  0.0586
 3050SOL     OW20785   3.573   0.907   1.020  0.3101 -0.2518  0.1200
 3050SOL    HW120786   3.555   0.883   1.111  0.5690 -0.8179  0.0198
 3050SOL    HW220787   3.666   0.886   1.018  0.6129  1.0944 -0.0085
 3051SOL     OW20788   1.041   0.469   6.092 -0.0685 -0.1262 -0.0794
 3051SOL    HW120789   0.995   0.484   6.010 -2.0922 -0.1934  1.0435
 3051SOL    HW220790   1.052   0.375   6.080 -0.5599  0.0390 -1.8112
 3052SOL     OW20791   4.222   2.384   2.044 -0.0309  0.4575  0.8234
 3052SOL    HW120792   4.307   2.374   2.087  0.3678 -0.9569 -0.3178
 3052SOL    HW220793   4.261   2.422   1.965  3.0706 -2.3093  1.0289
 3053SOL     OW20794   4.068   1.842   6.766  0.6268  0.1735 -0.1233
 3053SOL    HW120795   4.022   1.920   6.736 -0.6948  0.7367  3.3016
 3053SOL    HW220796   4.060   1.853   6.861  2.0227 -1.4209  0.1905
 3054SOL     OW20797   3.910   1.200   4.400  0.2382  0.1121 -0.3240
 3054SOL    HW120798   3.902   1.112   4.364 -1.9926 -0.1248  0.7530
 3054SOL    HW220799   4.000   1.208   4.431  0.2645  2.7046 -1.0471
 3055SOL     OW20800   4.502   4.266   6.271  0.0080 -0.9907  0.3140
 3055SOL    HW120801   4.430   4.326   6.251  0.7652  0.2012  1.2395
 3055SOL    HW220802   4.564   4.332   6.300 -1.1506  0.2102  0.0220
 3056SOL     OW20803   0.077   0.988  15.393  0.0570  0.5299 -0.5282
 3056SOL    HW120804   0.060   0.986  15.487  1.2468  0.4915 -0.3203
 3056SOL    HW220805   0.115   1.074  15.377  2.9015 -0.6675 -0.1408
 3057SOL     OW20806   0.597   0.441  12.674 -0.2831 -0.4828  0.4374
 3057SOL    HW120807   0.689   0.462  12.689 -0.2663 -0.7294  0.6888
 3057SOL    HW220808   0.571   0.507  12.610 -1.2501 -0.4500  0.8656
 3058SOL     OW20809   2.977   1.312   9.482 -0.5353 -0.2321  0.6511
 3058SOL    HW120810   2.898   1.265   9.509 -0.1570 -1.2298  0.0344
 3058SOL    HW220811   2.993   1.277   9.394 -2.3454  1.2337 -0.2712
 3059SOL     OW20812   2.012   4.502   4.719  0.3348 -0.4952  0.3763
 3059SOL    HW120813   1.983   4.418   4.755  1.0651 -1.2512 -0.7886
 3059SOL    HW220814   2.092   4.490   4.667  0.3953 -2.9091  1.0158
 3060SOL     OW20815   1.705   2.162   0.215  0.3236 -0.2661  0.4884
 3060SOL    HW120816   1.711   2.236   0.155 -4.8493 -1.3753 -1.3505
 3060SOL    HW220817   1.689   2.088   0.156  0.2252  1.8427 -2.1295
 3061SOL     OW20818   1.487   0.928   6.677 -0.3344  0.3637 -0.2145
 3061SOL    HW120819   1.568   0.877   6.667 -0.0603  0.8085 -0.2519
 3061SOL    HW220820   1.467   0.942   6.584  0.0627 -0.5406 -0.4417
 3062SOL     OW20821   1.789   2.603   6.796  0.4286 -0.5888  0.0028
 3062SOL    HW120822   1.777   2.599   6.891 -0.0900  0.5292 -0.0121
 3062SOL    HW220823   1.707   2.648   6.775  1.8032  1.3912 -1.1480
 3063SOL     OW20824   4.703   3.088   7.595  0.7147 -0.1293 -0.4586
 3063SOL    HW120825   0.005   3.076   7.508  1.5969  0.6188 -0.2003
 3063SOL    HW220826   4.628   3.145   7.578  0.1632 -1.0560 -1.0868
 3064SOL     OW20827   2.556   3.978   6.102  0.3414  0.0678 -0.4399
 3064SOL    HW120828   2.594   3.963   6.016  2.2757 -2.5111  0.8623
 3064SOL    HW220829   2.468   3.941   6.099  1.0459 -1.6260 -0.3416
 3065SOL     OW20830   4.297   2.454  12.637  0.0032  0.4092 -0.1997
 3065SOL    HW120831   4.225   2.409  12.683 -0.5866  1.6027  0.0310
 3065SOL    HW220832   4.372   2.412  12.680 -1.1862  0.1045  1.6047
 3066SOL     OW20833   3.729   0.351   2.015  0.3650  0.5865 -0.6527
 3066SOL    HW120834   3.799   0.287   2.004  0.0589  0.0142  0.6971
 3066SOL    HW220835   3.773   0.427   1.978 -0.6939  2.7271  2.5713
 3067SOL     OW20836   1.743   2.154   5.007 -0.1498  0.9249 -0.8204
 3067SOL    HW120837   1.757   2.249   5.008 -0.6129  0.9857  0.0956
 3067SOL    HW220838   1.711   2.131   5.094 -0.7044  3.4421 -0.3383
 3068SOL     OW20839   3.955   4.235   1.946 -0.0851  0.3830 -0.0496
 3068SOL    HW120840   3.922   4.319   1.915 -2.6275  0.5178  3.0411
 3068SOL    HW220841   3.880   4.212   2.001 -0.0584  0.4957  0.0329
 3069SOL     OW20842   4.227   2.217  12.078  0.2839 -0.3275 -0.4050
 3069SOL    HW120843   4.290   2.177  12.017 -0.5823 -0.4996 -1.1787
 3069SOL    HW220844   4.261   2.306  12.089 -0.2826 -0.3569  1.5792
 3070SOL     OW20845   1.112   2.623   2.099  0.1348 -0.6755  0.2967
 3070SOL    HW120846   1.025   2.662   2.102 -0.0612 -0.9804 -1.9688
 3070SOL    HW220847   1.162   2.698   2.130 -0.3165 -0.4449  0.4749
 3071SOL     OW20848   1.647   2.983   4.324  0.1394 -0.1319 -0.1678
 3071SOL    HW120849   1.677   3.061   4.278  1.6185 -0.7021 -0.1669
 3071SOL    HW220850   1.664   3.012   4.414 -1.0464 -1.6841  0.5691
 3072SOL     OW20851   0.249   0.788   0.881  0.3469  0.0404 -0.0352
 3072SOL    HW120852   0.252   0.785   0.977  1.4978 -1.1609 -0.1208
 3072SOL    HW220853   0.166   0.837   0.882  0.5526  0.4105 -1.6204
 3073SOL     OW20854   0.685   2.486  17.200  0.0306 -0.4070  0.1340
 3073SOL    HW120855   0.708   2.556  17.138 -1.5584  0.5083  0.5866
 3073SOL    HW220856   0.595   2.479  17.170  1.0017  0.9236 -3.1239
 3074SOL     OW20857   2.141   0.306   9.458  0.0698 -0.4412  0.4150
 3074SOL    HW120858   2.148   0.400   9.477 -3.1253 -0.0234 -0.5038
 3074SOL    HW220859   2.227   0.292   9.419 -0.0963  0.2810 -0.2184
 3075SOL     OW20860   3.625   0.678   5.451 -0.1029  0.0917  0.3270
 3075SOL    HW120861   3.555   0.660   5.514 -1.6594  3.3534 -0.4640
 3075SOL    HW220862   3.574   0.687   5.370 -0.1712  0.0743  0.3677
 3076SOL     OW20863   0.681   2.325  17.417 -0.3808 -0.1612 -0.3826
 3076SOL    HW120864   0.768   2.337  17.455 -1.2434  0.5602  1.3907
 3076SOL    HW220865   0.680   2.384  17.341 -1.1804  1.2496  0.7052
 3077SOL     OW20866   2.739   2.970   6.138  0.5041 -0.2022 -0.2882
 3077SOL    HW120867   2.793   2.893   6.155  0.2900 -0.5869 -1.3643
 3077SOL    HW220868   2.781   3.016   6.066  0.6081 -0.7377 -0.5674
 3078SOL     OW20869   3.224   0.586   0.204 -0.4607  0.5056 -0.2878
 3078SOL    HW120870   3.283   0.523   0.162  0.2703  0.6444  0.5058
 3078SOL    HW220871   3.142   0.549   0.171  0.8510 -0.1531 -2.8166
 3079SOL     OW20872   0.817   0.212   0.462  0.1100  0.1670  0.2897
 3079SOL    HW120873   0.778   0.136   0.506 -0.3540  1.5600  2.2618
 3079SOL    HW220874   0.893   0.164   0.431 -0.6730  1.3792 -3.4234
 3080SOL     OW20875   2.864   0.850   9.808  0.4086 -0.1330 -0.0598
 3080SOL    HW120876   2.909   0.787   9.864  1.5846 -0.8896 -1.8516
 3080SOL    HW220877   2.819   0.896   9.879  0.9370  0.2138  0.0514
 3081SOL     OW20878   3.181   1.885   0.284  0.7144 -0.5619 -0.3853
 3081SOL    HW120879   3.126   1.942   0.338  1.9822 -0.7955  1.1600
 3081SOL    HW220880   3.157   1.895   0.192 -0.8021  0.3870  0.1248
 3082SOL     OW20881   3.827   1.763  12.744 -0.1572  0.2358  0.1705
 3082SOL    HW120882   3.900   1.737  12.800  1.4331  0.3666 -1.8369
 3082SOL    HW220883   3.843   1.698  12.676 -1.4913  0.9315 -0.8087
 3083SOL     OW20884   2.561   4.602   0.914 -0.6205 -0.1029 -0.4603
 3083SOL    HW120885   2.524   4.687   0.940 -1.6302 -0.7927  0.3790
 3083SOL    HW220886   2.492   4.541   0.939  0.4868 -1.5848 -1.0696
 3084SOL     OW20887   1.292   1.264  11.537  0.3055 -0.5414  0.7126
 3084SOL    HW120888   1.315   1.174  11.561 -0.2225 -0.6138  0.9456
 3084SOL    HW220889   1.374   1.311  11.530 -0.2108  0.1762 -0.5958
 3085SOL     OW20890   0.001   4.265   4.313 -0.0354  0.0504 -0.2158
 3085SOL    HW120891   0.060   4.276   4.387  0.3900 -2.9738 -0.1155
 3085SOL    HW220892   4.658   4.233   4.358 -0.6363 -2.4871 -3.0026
 3086SOL     OW20893   3.320   2.653   0.183 -0.1095  0.0222 -0.1776
 3086SOL    HW120894   3.293   2.563   0.205  1.3457  0.0431  1.6930
 3086SOL    HW220895   3.411   2.650   0.213  1.1088  1.0072 -3.8397
 3087SOL     OW20896   1.097   2.476   9.460 -0.5475  0.1497  0.2378
 3087SOL    HW120897   1.140   2.426   9.530 -1.5104 -0.2796  0.5248
 3087SOL    HW220898   1.152   2.447   9.387  0.2087 -0.3877  1.0163
 3088SOL     OW20899   3.862   4.082   5.582 -0.6685 -0.7390  0.7597
 3088SOL    HW120900   3.869   4.058   5.675  0.2008 -3.3777  0.0127
 3088SOL    HW220901   3.897   4.013   5.526 -0.1764  0.0468  0.1023
 3089SOL     OW20902   3.846   0.079  13.344 -0.2637  0.0597  0.3490
 3089SOL    HW120903   3.895   4.732  13.330  2.8505  2.0861 -0.5978
 3089SOL    HW220904   3.766   0.039  13.377  0.3247  1.3854  3.3237
 3090SOL     OW20905   4.178   4.153   5.035  0.4976  0.4150  0.1628
 3090SOL    HW120906   4.099   4.101   5.022  1.2779 -0.4000 -1.3363
 3090SOL    HW220907   4.235   4.111   4.970 -0.1616  0.2048 -0.2792
 3091SOL     OW20908   3.712   0.561  10.094  0.5017 -0.0806 -0.2983
 3091SOL    HW120909   3.734   0.575  10.187 -0.1847  1.5931 -0.3773
 3091SOL    HW220910   3.781   0.501  10.068  0.1382 -0.3773 -0.5769
 3092SOL     OW20911   3.148   0.411   4.712 -0.5261 -0.1654  0.2427
 3092SOL    HW120912   3.182   0.407   4.623  1.0554  0.1065  0.8455
 3092SOL    HW220913   3.220   0.361   4.750 -0.1987  0.3697  0.3322
 3093SOL     OW20914   0.865   0.557   4.495  0.3409  0.3193 -0.3423
 3093SOL    HW120915   0.944   0.545   4.441  1.0434 -0.6803  0.9057
 3093SOL    HW220916   0.903   0.564   4.583  1.3684  0.9737 -0.8360
 3094SOL     OW20917   3.946   0.414   9.726  0.1441  0.3356  1.0679
 3094SOL    HW120918   3.884   0.486   9.711  0.0013 -0.3430 -1.7179
 3094SOL    HW220919   4.022   0.463   9.754 -0.1976  0.9948  0.8344
 3095SOL     OW20920   0.518   1.269   1.667  0.0929 -0.5086 -0.2229
 3095SOL    HW120921   0.565   1.307   1.593  0.1345  0.0478  0.0953
 3095SOL    HW220922   0.572   1.191   1.679  1.7082  0.3977 -1.6205
 3096SOL     OW20923   1.337   1.987  11.661 -0.1263  0.3447  0.2553
 3096SOL    HW120924   1.270   1.968  11.728 -1.5647  0.1773 -1.2355
 3096SOL    HW220925   1.320   2.078  11.636 -0.4233 -0.0764 -1.0796
 3097SOL     OW20926   0.798   1.646  17.512  0.0242  0.0922  0.2108
 3097SOL    HW120927   0.728   1.683  17.566 -0.0769  1.7281 -1.0202
 3097SOL    HW220928   0.879   1.652  17.562  0.5396  0.6186 -0.6768
 3098SOL     OW20929   0.538   0.865   8.320 -0.4011  0.0414  0.1751
 3098SOL    HW120930   0.521   0.949   8.363  1.6416  0.0632  0.9264
 3098SOL    HW220931   0.468   0.877   8.256  0.2143  1.2953 -0.2693
 3099SOL     OW20932   2.810   4.028   2.214 -0.0077 -0.1177  0.4651
 3099SOL    HW120933   2.860   4.046   2.293  0.5001 -2.2820  0.6313
 3099SOL    HW220934   2.817   3.933   2.224 -2.3664 -0.2676  0.6847
 3100SOL     OW20935   3.105   4.265   8.403  0.8150  0.9123  0.5365
 3100SOL    HW120936   3.200   4.260   8.395  0.9274  3.2742  0.3699
 3100SOL    HW220937   3.082   4.325   8.333 -0.5046 -0.9251 -0.6006
 3101SOL     OW20938   0.180   4.730   2.737  0.1415  0.3382  0.2446
 3101SOL    HW120939   0.263   4.688   2.761 -0.0696 -1.3250 -1.8311
 3101SOL    HW220940   0.139   4.659   2.687  1.4356 -0.1454 -0.1455
 3102SOL     OW20941   3.311   3.026  15.696 -0.3620  0.2599 -0.3264
 3102SOL    HW120942   3.358   3.006  15.616  0.0332 -2.5028  0.6046
 3102SOL    HW220943   3.244   3.090  15.672 -0.1123  0.5583 -0.2248
 3103SOL     OW20944   0.099   3.905   4.931 -0.0547 -0.1542  0.3906
 3103SOL    HW120945   0.049   3.936   5.006  0.8877 -1.3516  1.5267
 3103SOL    HW220946   0.093   3.810   4.939 -1.5031 -0.3580 -3.1820
 3104SOL     OW20947   1.379   2.425   5.469 -0.4099  0.2776 -0.0257
 3104SOL    HW120948   1.284   2.431   5.460 -0.2663  0.6597 -1.1649
 3104SOL    HW220949   1.409   2.484   5.538  1.9192 -2.6785  1.5106
 3105SOL     OW20950   3.622   3.862   4.428  0.2956  0.0431 -0.1162
 3105SOL    HW120951   3.566   3.932   4.460  0.5025 -0.6135  1.6623
 3105SOL    HW220952   3.565   3.827   4.359 -0.2546 -1.3385  1.0597
 3106SOL     OW20953   2.617   2.223  12.173 -0.0325 -0.1143 -0.6383
 3106SOL    HW120954   2.652   2.180  12.251 -1.5899 -0.0313  0.1154
 3106SOL    HW220955   2.696   2.261  12.135 -1.4685  2.4051 -1.0945
 3107SOL     OW20956   3.988   3.551  17.694  0.4705  0.2162  0.0035
 3107SOL    HW120957   3.996   3.605   0.037  2.7817  1.7458 -1.2689
 3107SOL    HW220958   4.009   3.620  17.631 -0.5753  0.4603 -0.0790
 3108SOL     OW20959   0.851   2.402   5.002 -0.1156 -0.9507  0.4492
 3108SOL    HW120960   0.767   2.425   5.041  0.2616 -1.1113  1.3660
 3108SOL    HW220961   0.863   2.314   5.038 -1.4234 -1.7863 -1.1887
 3109SOL     OW20962   0.575   0.488   4.848  1.0508 -0.6820  0.3574
 3109SOL    HW120963   0.657   0.454   4.886  1.0082  0.3488  1.3804
 3109SOL    HW220964   0.519   0.468   4.923  0.0626  0.3412 -0.1238
 3110SOL     OW20965   4.671   0.312   2.715 -0.7639  0.5418  0.0835
 3110SOL    HW120966   4.616   0.294   2.640 -2.0150 -1.4739  1.4805
 3110SOL    HW220967   4.654   0.404   2.735 -0.1055  0.8020 -0.5661
 3111SOL     OW20968   4.552   1.792   5.567 -1.0177 -0.4503  0.0756
 3111SOL    HW120969   4.512   1.871   5.605  1.0798  0.7021 -0.1007
 3111SOL    HW220970   4.478   1.742   5.535  1.0151 -3.3535 -0.0766
 3112SOL     OW20971   0.033   0.220   1.845 -0.0343  0.6958  0.1255
 3112SOL    HW120972   0.012   0.149   1.906 -2.2328  1.2991  0.0777
 3112SOL    HW220973   0.072   0.287   1.902  1.9746 -0.3862  0.0231
 3113SOL     OW20974   2.356   4.731   9.723 -0.1658  0.2876  0.5658
 3113SOL    HW120975   2.431   4.690   9.680  0.1975  0.6290  0.8769
 3113SOL    HW220976   2.400   0.079   9.742  2.9738 -0.7006 -2.4449
 3114SOL     OW20977   3.430   4.481   3.484  0.0056  0.5551 -0.1590
 3114SOL    HW120978   3.400   4.547   3.421  0.3818  0.1274 -0.7770
 3114SOL    HW220979   3.487   4.422   3.435 -1.9065  0.6003 -2.4613
 3115SOL     OW20980   1.930   2.245   4.377 -0.0609 -0.2792 -0.1716
 3115SOL    HW120981   1.888   2.331   4.379  1.4980  0.5708 -3.5990
 3115SOL    HW220982   2.000   2.266   4.315  0.6646 -0.1317  0.6899
 3116SOL     OW20983   2.804   2.299   9.282  0.2186 -0.1881  0.2409
 3116SOL    HW120984   2.813   2.218   9.233 -0.4701 -0.8592  1.2415
 3116SOL    HW220985   2.876   2.345   9.239  2.1929 -2.4727  1.1244
 3117SOL     OW20986   3.832   3.705   7.663  0.5324  0.0307  0.4122
 3117SOL    HW120987   3.873   3.623   7.633  0.1061  0.2088 -0.6597
 3117SOL    HW220988   3.798   3.682   7.749 -3.0319 -0.6346 -1.1595
 3118SOL     OW20989   2.034   0.998   0.758 -0.2653  0.2168 -0.6901
 3118SOL    HW120990   2.107   0.973   0.702  1.8147 -0.9440  2.5527
 3118SOL    HW220991   2.012   1.084   0.722  1.6109  0.9784 -0.0198
 3119SOL     OW20992   3.254   2.339   5.111 -0.0361 -0.0472 -0.2649
 3119SOL    HW120993   3.304   2.362   5.033  1.0582  1.0441  0.7541
 3119SOL    HW220994   3.260   2.244   5.110  2.1599  0.0720  1.4777
 3120SOL     OW20995   4.402   3.934   4.410 -0.3798  0.0158  0.3056
 3120SOL    HW120996   4.349   4.006   4.376 -2.9677 -1.7686  0.6242
 3120SOL    HW220997   4.370   3.866   4.351 -0.8243  0.4536  0.0416
 3121SOL     OW20998   1.061   3.463  13.498  0.1314  0.2885  0.4066
 3121SOL    HW120999   0.974   3.455  13.537 -0.3214  1.6671 -0.3386
 3121SOL    HW221000   1.108   3.531  13.547 -0.0355  0.9494 -0.3601
 3122SOL     OW21001   0.388   3.026   3.492 -0.0672 -0.1042  0.0522
 3122SOL    HW121002   0.451   2.958   3.516 -0.7532 -0.4047  0.9579
 3122SOL    HW221003   0.309   3.004   3.542 -0.7757 -0.6868 -1.3019
 3123SOL     OW21004   4.033   3.664   1.300 -1.0119 -0.7433  0.2186
 3123SOL    HW121005   3.957   3.697   1.251 -2.1997  0.7682  3.0613
 3123SOL    HW221006   4.100   3.682   1.235 -3.1588 -0.0695 -1.7807
 3124SOL     OW21007   2.938   2.152   5.805  0.2749  0.2121 -0.4216
 3124SOL    HW121008   3.005   2.207   5.845  2.1476 -1.6830 -1.0063
 3124SOL    HW221009   2.999   2.115   5.742  3.8027  2.1404  1.8712
 3125SOL     OW21010   2.688   0.855  13.779 -0.3359 -0.5750  0.1953
 3125SOL    HW121011   2.611   0.798  13.791 -0.7856 -1.0246 -4.5707
 3125SOL    HW221012   2.723   0.822  13.696 -1.2235 -1.4953  0.1851
 3126SOL     OW21013   3.833   2.229   0.226  0.3076  0.1529 -0.2974
 3126SOL    HW121014   3.916   2.272   0.206  0.5500 -0.4668 -0.6206
 3126SOL    HW221015   3.802   2.273   0.305 -1.5420 -0.6690 -0.5613
 3127SOL     OW21016   3.944   1.880   7.463  0.2482  0.1195  0.2163
 3127SOL    HW121017   3.869   1.823   7.476 -1.1586  2.0109  0.4136
 3127SOL    HW221018   4.020   1.822   7.462 -1.0988 -1.6577  0.7865
 3128SOL     OW21019   2.538   2.363  15.432 -0.0003 -0.3113 -0.4189
 3128SOL    HW121020   2.607   2.386  15.495  1.0311 -1.5095 -1.1318
 3128SOL    HW221021   2.558   2.429  15.366 -1.7847  1.8016  1.1418
 3129SOL     OW21022   4.252   0.822   7.026 -0.0122 -0.0199  0.0652
 3129SOL    HW121023   4.160   0.810   7.003 -0.7322  2.0092  1.8926
 3129SOL    HW221024   4.246   0.910   7.062 -2.2300 -0.1511 -0.0093
 3130SOL     OW21025   2.837   3.117  10.742 -0.3829 -0.4438 -0.7726
 3130SOL    HW121026   2.913   3.059  10.734 -1.9528 -2.5030 -0.7178
 3130SOL    HW221027   2.837   3.110  10.837 -1.7612  1.2122 -0.6463
 3131SOL     OW21028   0.566   0.641   0.617  0.3261 -0.0076  0.0786
 3131SOL    HW121029   0.544   0.698   0.543 -2.9500 -1.7723 -0.2637
 3131SOL    HW221030   0.632   0.694   0.661  1.9075 -1.4224 -0.5814
 3132SOL     OW21031   3.496   2.227   7.654  0.3456  0.3083  0.2556
 3132SOL    HW121032   3.535   2.141   7.671  1.3582  0.6591 -0.2943
 3132SOL    HW221033   3.513   2.279   7.732 -0.3836  0.1027  0.5532
 3133SOL     OW21034   3.891   0.535   3.678  0.3465 -0.2740 -0.4731
 3133SOL    HW121035   3.916   0.569   3.593  0.3421 -0.6720 -0.6351
 3133SOL    HW221036   3.971   0.551   3.728  0.0364  0.3210 -0.1666
 3134SOL     OW21037   2.129   1.615  14.028  0.4441 -0.1618 -0.1866
 3134SOL    HW121038   2.102   1.532  14.068 -2.2011  1.5045  1.5465
 3134SOL    HW221039   2.207   1.593  13.977 -0.2775 -2.0112 -0.5208
 3135SOL     OW21040   1.171   2.950  16.179 -0.1674  0.2257  0.3608
 3135SOL    HW121041   1.252   2.920  16.220  0.7157  3.6369  1.1014
 3135SOL    HW221042   1.172   2.895  16.100 -0.6801  1.7080 -0.6890
 3136SOL     OW21043   2.445   1.039   3.774  0.8958 -0.1123  0.2000
 3136SOL    HW121044   2.457   1.134   3.779 -2.6391  0.2738  1.9106
 3136SOL    HW221045   2.537   1.016   3.774  1.3776  1.7948  0.4352
 3137SOL     OW21046   3.826   0.650  12.569 -0.0604 -0.3229  0.0977
 3137SOL    HW121047   3.804   0.742  12.558 -1.7092 -0.8328 -0.8119
 3137SOL    HW221048   3.793   0.635  12.658  0.7387  0.4944  0.5275
 3138SOL     OW21049   0.235   2.069   5.712 -0.1465 -0.6198 -0.0348
 3138SOL    HW121050   0.254   2.002   5.777 -1.3555 -0.8424  0.0867
 3138SOL    HW221051   0.294   2.140   5.739  1.4365 -2.2220  0.7703
 3139SOL     OW21052   1.328   1.955   0.631 -0.1717 -0.2079 -0.7708
 3139SOL    HW121053   1.271   1.955   0.554 -2.3032  2.0182  0.8100
 3139SOL    HW221054   1.416   1.957   0.593  0.2590 -0.1829  0.2395
 3140SOL     OW21055   0.427   1.575   7.577  0.4197 -0.2799  0.1637
 3140SOL    HW121056   0.412   1.553   7.669 -0.7023  1.1558  0.3182
 3140SOL    HW221057   0.337   1.603   7.562  0.4965 -0.7606 -1.1754
 3141SOL     OW21058   3.571   2.629  13.661  0.1784 -0.4321 -0.1889
 3141SOL    HW121059   3.631   2.656  13.730  0.5837 -1.5917 -0.0840
 3141SOL    HW221060   3.577   2.695  13.592  0.7801 -1.4419 -1.1048
 3142SOL     OW21061   2.785   4.288   5.761  0.4434  0.3379 -0.3955
 3142SOL    HW121062   2.841   4.242   5.699  0.0433 -0.2475 -0.3285
 3142SOL    HW221063   2.815   4.248   5.842  0.1781  0.8838 -0.0243
 3143SOL     OW21064   1.386   0.697   0.899 -0.2392 -0.6352 -0.0388
 3143SOL    HW121065   1.402   0.632   0.831  3.5904  1.3462 -1.0584
 3143SOL    HW221066   1.466   0.691   0.951  0.0814  1.5397 -0.2750
 3144SOL     OW21067   1.285   3.051  13.322 -0.0942 -0.2796 -0.2682
 3144SOL    HW121068   1.259   2.990  13.392 -2.7054 -1.3328 -2.1315
 3144SOL    HW221069   1.360   3.095  13.362 -0.1705  0.4224 -0.9169
 3145SOL     OW21070   0.753   1.654   4.364  0.4306 -0.2118 -0.3141
 3145SOL    HW121071   0.835   1.604   4.370 -0.2770 -1.3487 -0.1162
 3145SOL    HW221072   0.754   1.672   4.270  0.0467 -0.1127 -0.3005
 3146SOL     OW21073   3.745   1.158   1.362  0.4851 -0.1252 -0.5558
 3146SOL    HW121074   3.835   1.126   1.357  0.2296 -1.2442  2.3674
 3146SOL    HW221075   3.701   1.074   1.348 -0.8060  0.4977 -0.2076
 3147SOL     OW21076   4.048   3.681   8.134  0.0228 -0.4441 -0.2005
 3147SOL    HW121077   4.044   3.763   8.085 -1.5193 -1.0923 -1.1795
 3147SOL    HW221078   4.111   3.635   8.079 -0.7603  1.0209 -2.3328
 3148SOL     OW21079   1.367   1.618   2.983  0.2259 -0.0873 -0.2213
 3148SOL    HW121080   1.413   1.692   2.944 -0.1371  0.6107  0.6533
 3148SOL    HW221081   1.298   1.671   3.023  1.4474  1.5880 -0.3656
 3149SOL     OW21082   1.806   1.452   8.114 -0.0960  0.7929  0.9585
 3149SOL    HW121083   1.711   1.452   8.120 -0.1060  1.9855  0.9147
 3149SOL    HW221084   1.808   1.380   8.052 -0.7322 -0.9380  2.9304
 3150SOL     OW21085   0.165   4.254   4.567  0.2469 -0.5277  0.0885
 3150SOL    HW121086   0.231   4.186   4.583  0.8802  0.5989  2.1848
 3150SOL    HW221087   0.112   4.237   4.645  0.3616 -1.3369 -0.0042
 3151SOL     OW21088   3.558   1.095   8.888  0.4169  0.9889 -0.4963
 3151SOL    HW121089   3.466   1.110   8.865  0.3219 -0.4996 -1.0395
 3151SOL    HW221090   3.591   1.182   8.863 -2.5401  2.2183 -0.1141
 3152SOL     OW21091   0.383   1.039   4.851 -0.1469  0.0010 -0.4986
 3152SOL    HW121092   0.314   1.082   4.801 -0.8487 -0.0171  0.4403
 3152SOL    HW221093   0.345   1.055   4.938  0.2448 -0.8992 -0.1563
 3153SOL     OW21094   3.425   0.886  16.081 -0.5932  0.0359  0.6073
 3153SOL    HW121095   3.350   0.826  16.078 -0.5614  0.0781 -0.9303
 3153SOL    HW221096   3.468   0.866  15.998  0.2357  1.9031  0.5815
 3154SOL     OW21097   1.536   0.544   9.284  0.1942 -0.5044  0.2860
 3154SOL    HW121098   1.509   0.570   9.373  0.1111  0.8744 -0.1313
 3154SOL    HW221099   1.512   0.627   9.243  0.2611  0.4220  2.0851
 3155SOL     OW21100   1.596   4.586   4.915  0.3978  0.3366 -0.3701
 3155SOL    HW121101   1.596   4.495   4.946 -0.9412  0.9588  1.4592
 3155SOL    HW221102   1.660   4.576   4.844 -0.7598 -0.7011 -1.2873
 3156SOL     OW21103   1.694   4.280  16.444  0.1801  0.0309 -0.6424
 3156SOL    HW121104   1.786   4.295  16.422  0.3886  0.4757  0.5192
 3156SOL    HW221105   1.686   4.185  16.453  1.6236  0.1572  2.1756
 3157SOL     OW21106   0.473   2.698   3.256  0.3563  0.5772  0.5246
 3157SOL    HW121107   0.498   2.766   3.318  2.9313  2.0343 -2.1215
 3157SOL    HW221108   0.377   2.705   3.255  0.3110 -0.1168 -0.3864
 3158SOL     OW21109   1.029   2.812   0.517  0.0537  0.2185 -0.3186
 3158SOL    HW121110   1.059   2.885   0.572  0.3954 -1.8342  2.2058
 3158SOL    HW221111   0.970   2.861   0.460 -0.3434  0.5332  0.3579
 3159SOL     OW21112   1.873   2.767   8.647  0.1721 -0.0823  0.2316
 3159SOL    HW121113   1.808   2.746   8.714  1.0042 -0.7491  0.8329
 3159SOL    HW221114   1.827   2.841   8.607  0.9785  0.6437  0.6432
 3160SOL     OW21115   1.963   2.984  15.894  0.9388  0.2989 -0.2327
 3160SOL    HW121116   2.033   3.041  15.927  0.2670  0.6037  0.6923
 3160SOL    HW221117   1.922   2.971  15.980 -0.5515  0.8542 -0.8534
 3161SOL     OW21118   3.186   1.257   5.101  0.9579  0.1144  0.5296
 3161SOL    HW121119   3.148   1.183   5.053 -1.0213  2.0466 -0.8285
 3161SOL    HW221120   3.249   1.213   5.158  2.1766  1.3285  0.1287
 3162SOL     OW21121   0.913   2.862   5.522 -0.9203 -0.0367 -0.2044
 3162SOL    HW121122   0.847   2.808   5.565 -0.0515  0.8338  2.1869
 3162SOL    HW221123   0.883   2.951   5.542  1.7031  0.5731  1.0377
 3163SOL     OW21124   4.437   3.415   4.115  0.1189  0.1924 -0.4426
 3163SOL    HW121125   4.475   3.335   4.079 -1.0404 -0.7594  0.4654
 3163SOL    HW221126   4.501   3.487   4.111 -1.5130  1.5017 -3.2664
 3164SOL     OW21127   2.726   4.007  15.691 -0.3527 -0.0104 -0.3448
 3164SOL    HW121128   2.717   4.080  15.752  1.5411  0.2048 -0.3312
 3164SOL    HW221129   2.798   3.953  15.723  0.7992 -0.3134 -3.3812
 3165SOL     OW21130   2.477   1.034  14.991  0.3246  0.2969 -0.1855
 3165SOL    HW121131   2.550   1.078  14.949  1.0991 -0.8675 -0.0644
 3165SOL    HW221132   2.489   1.071  15.078 -0.2374  1.2751 -0.5269
 3166SOL     OW21133   0.865   3.057   0.631  0.0908  0.3081  0.4009
 3166SOL    HW121134   0.952   3.033   0.664  0.8955  0.4353 -1.5953
 3166SOL    HW221135   0.839   3.127   0.691  2.6489  2.0335 -0.5161
 3167SOL     OW21136   0.028   4.647   3.403  0.0942 -0.4347 -0.0581
 3167SOL    HW121137   0.119   4.670   3.421 -0.3408  0.5069  0.9936
 3167SOL    HW221138   0.030   4.552   3.393 -0.9167 -0.7510  2.5810
 3168SOL     OW21139   2.913   1.410  11.436  0.4920  0.2606  0.4105
 3168SOL    HW121140   2.895   1.330  11.387 -1.7358  0.3798  1.0503
 3168SOL    HW221141   2.851   1.476  11.406  1.9893 -0.1463 -3.5190
 3169SOL     OW21142   4.185   4.666   6.290 -0.4071  0.5557  0.5354
 3169SOL    HW121143   4.100   4.661   6.246 -0.6860 -0.9898  1.2600
 3169SOL    HW221144   4.203   0.024   6.277 -1.0814  0.7530  0.9653
 3170SOL     OW21145   4.576   1.126   3.140 -0.2601  0.5004  0.0971
 3170SOL    HW121146   4.559   1.038   3.174  1.1202  0.1922 -0.0272
 3170SOL    HW221147   4.554   1.181   3.215 -0.1423 -1.2495  1.4289
 3171SOL     OW21148   1.466   0.424  10.535  0.1193 -0.0839 -0.2208
 3171SOL    HW121149   1.454   0.389  10.447  2.3507  0.4878 -0.7375
 3171SOL    HW221150   1.556   0.406  10.561 -0.2086 -0.3345  0.7513
 3172SOL     OW21151   0.449   0.178   6.542  0.1285  0.1076  0.0101
 3172SOL    HW121152   0.393   0.105   6.570  0.5121 -0.3443 -0.4005
 3172SOL    HW221153   0.520   0.166   6.605  0.7448 -1.9088 -1.0778
 3173SOL     OW21154   0.504   2.605   7.438  0.4163  0.0247  0.4334
 3173SOL    HW121155   0.457   2.573   7.360  1.7990  1.1756 -0.8850
 3173SOL    HW221156   0.500   2.700   7.424  0.0269 -0.1957 -0.9655
 3174SOL     OW21157   1.570   4.095   8.393  0.2909 -0.6335  0.0556
 3174SOL    HW121158   1.482   4.069   8.421 -0.4162  1.4843 -0.2131
 3174SOL    HW221159   1.597   4.023   8.337  0.9917  1.0191 -1.7290
 3175SOL     OW21160   3.894   0.973  17.107  0.3602 -0.1583  0.4016
 3175SOL    HW121161   3.941   0.917  17.045 -1.3033 -2.2338  0.9998
 3175SOL    HW221162   3.832   0.912  17.148 -0.8152  0.8978  0.2030
 3176SOL     OW21163   1.792   4.617   8.991  0.0028 -0.2222 -0.2238
 3176SOL    HW121164   1.881   4.617   8.955  0.1661  0.8188  0.1808
 3176SOL    HW221165   1.762   4.706   8.972  0.1151 -0.4886 -1.6333
 3177SOL     OW21166   3.539   2.507   1.317 -0.5125 -1.2602  0.3348
 3177SOL    HW121167   3.588   2.484   1.395  2.5013  0.6104 -1.0288
 3177SOL    HW221168   3.535   2.429   1.262  0.9939  0.8027 -2.6911
 3178SOL     OW21169   2.416   0.654  14.266  0.1193  0.5836  0.3844
 3178SOL    HW121170   2.345   0.668  14.203  0.5609 -0.1072 -0.2619
 3178SOL    HW221171   2.400   0.724  14.330  2.3505  2.2324 -0.8441
 3179SOL     OW21172   4.271   3.137   2.247 -0.1482 -0.2533 -0.2235
 3179SOL    HW121173   4.298   3.063   2.301 -1.1305 -1.4832 -1.3873
 3179SOL    HW221174   4.322   3.208   2.284 -1.6168  0.5498  0.2237
 3180SOL     OW21175   1.287   2.321   8.620  0.0956 -0.3602 -0.9781
 3180SOL    HW121176   1.246   2.321   8.706  1.2180  1.7417 -0.4389
 3180SOL    HW221177   1.378   2.301   8.643 -0.5255  0.0084  1.7061
 3181SOL     OW21178   3.422   3.007  15.442 -0.1576 -0.2486 -0.2126
 3181SOL    HW121179   3.379   2.978  15.361 -1.9908 -2.2311  1.4792
 3181SOL    HW221180   3.460   2.923  15.469  0.8209  0.4440  0.5300
 3182SOL     OW21181   0.161   2.565   5.690  0.6213 -0.2655 -0.3093
 3182SOL    HW121182   0.080   2.580   5.739 -0.9124 -1.6647 -2.4135
 3182SOL    HW221183   0.132   2.597   5.604 -3.2042  0.9495  1.4343
 3183SOL     OW21184   1.187   1.187   1.295  0.0155 -0.3700  0.6397
 3183SOL    HW121185   1.224   1.194   1.207 -0.0285  1.0036  0.7415
 3183SOL    HW221186   1.250   1.126   1.332 -0.5962 -0.4681  1.5124
 3184SOL     OW21187   3.685   1.912   3.614  0.0895  0.3222 -0.1291
 3184SOL    HW121188   3.734   1.870   3.684 -0.2359  0.3340  0.1059
 3184SOL    HW221189   3.599   1.869   3.607  0.3506 -0.5956  2.6762
 3185SOL     OW21190   1.840   3.011   0.821 -0.1893  0.1420 -0.1923
 3185SOL    HW121191   1.768   2.964   0.778 -1.5447  3.1566 -1.2312
 3185SOL    HW221192   1.909   2.968   0.771  0.4104 -0.0170  0.7792
 3186SOL     OW21193   2.995   1.592   3.579 -0.1037 -0.8534  0.3306
 3186SOL    HW121194   2.903   1.600   3.554  0.3835 -1.0008 -1.4749
 3186SOL    HW221195   3.014   1.499   3.583 -0.0857 -0.7063  3.5774
 3187SOL     OW21196   1.764   3.738   4.863  0.0978 -0.1669  0.6135
 3187SOL    HW121197   1.680   3.696   4.882  0.5094 -0.5572  1.5479
 3187SOL    HW221198   1.778   3.726   4.769  0.8574 -0.6356  0.7834
 3188SOL     OW21199   4.327   2.951  14.920  0.2347 -0.1870 -0.2032
 3188SOL    HW121200   4.373   3.005  14.985 -0.9408  1.8269 -1.0313
 3188SOL    HW221201   4.238   2.986  14.929  0.3434  0.1260 -0.3312
 3189SOL     OW21202   0.257   3.188   7.686 -0.3569  0.1352  0.0369
 3189SOL    HW121203   0.177   3.178   7.634  2.3000  0.5682 -4.1260
 3189SOL    HW221204   0.233   3.134   7.762 -0.8505  0.0001 -0.2093
 3190SOL     OW21205   0.790   3.463  11.710 -0.4847  0.2959  0.0270
 3190SOL    HW121206   0.884   3.483  11.706 -0.5823  0.6493 -0.5918
 3190SOL    HW221207   0.765   3.450  11.619  0.2969  0.9888 -0.2852
 3191SOL     OW21208   3.498   3.113   8.545  0.2576 -0.0434  1.0468
 3191SOL    HW121209   3.561   3.183   8.562 -0.0928  0.6624 -0.5831
 3191SOL    HW221210   3.419   3.141   8.592 -0.5910  0.5994 -0.7658
 3192SOL     OW21211   0.109   4.446  12.325  0.4662  0.2610  0.0421
 3192SOL    HW121212   0.134   4.372  12.381  1.0955  1.1694  0.9558
 3192SOL    HW221213   0.032   4.470  12.376 -0.8527 -0.3822 -1.6514
 3193SOL     OW21214   4.332   0.500   2.316  0.2148  0.2413 -0.4440
 3193SOL    HW121215   4.327   0.424   2.258 -1.1384 -0.3175  0.4311
 3193SOL    HW221216   4.279   0.471   2.389 -0.0337 -1.9184 -1.4943
 3194SOL     OW21217   1.380   3.043   4.231 -0.2915  0.2540 -0.1547
 3194SOL    HW121218   1.324   3.040   4.309  0.3532 -0.2003  0.2877
 3194SOL    HW221219   1.451   2.998   4.277 -2.2345  0.0310  2.6753
 3195SOL     OW21220   2.890   2.491   6.509 -0.2409  0.5306 -0.4551
 3195SOL    HW121221   2.978   2.456   6.519 -0.8218 -0.9498 -0.5342
 3195SOL    HW221222   2.906   2.553   6.437  1.9821  2.6482  1.8769
 3196SOL     OW21223   4.361   2.219   3.321 -0.4370 -0.4755  0.2568
 3196SOL    HW121224   4.386   2.224   3.413 -0.8027  0.8154  0.2902
 3196SOL    HW221225   4.375   2.308   3.287 -0.7049 -0.6049 -0.2002
 3197SOL     OW21226   2.571   1.498   7.754  0.1035  0.2292 -0.5703
 3197SOL    HW121227   2.526   1.492   7.838  1.0614  3.0202  0.1095
 3197SOL    HW221228   2.638   1.433   7.773  1.3872  1.8241  0.3057
 3198SOL     OW21229   2.233   0.378   2.344  0.4104  0.4250  0.3462
 3198SOL    HW121230   2.253   0.356   2.253  3.5271  2.3012  0.6045
 3198SOL    HW221231   2.220   0.473   2.340  3.0254  0.7625 -0.2152
 3199SOL     OW21232   2.481   3.084   8.284 -0.1713 -0.2961  0.1641
 3199SOL    HW121233   2.464   3.173   8.315 -1.1258  0.1926 -1.7457
 3199SOL    HW221234   2.576   3.085   8.271 -0.1274 -2.0676  0.3567
 3200SOL     OW21235   0.733   3.393   5.177 -0.0520  0.0443 -0.1853
 3200SOL    HW121236   0.673   3.322   5.200  0.0232  0.0188 -0.0668
 3200SOL    HW221237   0.678   3.468   5.201 -2.2147 -1.5211 -0.2291
 3201SOL     OW21238   4.609   0.774  12.732 -0.2823  0.0491 -0.0346
 3201SOL    HW121239   4.623   0.868  12.720 -0.7884 -0.1289 -2.0080
 3201SOL    HW221240   4.690   0.761  12.781 -0.1347  0.1039 -0.2653
 3202SOL     OW21241   1.724   2.630   9.052  0.0108 -0.2491  0.0098
 3202SOL    HW121242   1.799   2.597   9.003  1.9602  2.1228  1.4303
 3202SOL    HW221243   1.702   2.551   9.101 -0.3919  0.7714  1.4538
 3203SOL     OW21244   4.446   3.682   1.362 -0.8818 -0.4362  0.5194
 3203SOL    HW121245   4.391   3.621   1.314  2.1439 -1.7139 -1.3191
 3203SOL    HW221246   4.452   3.642   1.449  0.6316 -0.4855  0.3976
 3204SOL     OW21247   3.977   0.008  10.143  1.0650  0.3729  0.0051
 3204SOL    HW121248   3.919   4.677  10.184  0.0144  1.1246 -0.2995
 3204SOL    HW221249   4.041   4.684  10.101  1.6672  1.6295 -0.8087
 3205SOL     OW21250   0.895   2.880  17.130  0.2327  0.3249  0.3593
 3205SOL    HW121251   0.811   2.925  17.129 -0.4801 -1.0306 -0.7899
 3205SOL    HW221252   0.863   2.791  17.112 -1.2979  0.6968  1.2146
 3206SOL     OW21253   1.507   1.352  14.698 -0.5100 -0.5736 -0.4635
 3206SOL    HW121254   1.446   1.400  14.642 -2.2259 -1.6731  0.4725
 3206SOL    HW221255   1.555   1.421  14.744  2.8156 -2.3579 -1.2116
 3207SOL     OW21256   2.572   4.424   5.061  0.6441  0.1194  0.3729
 3207SOL    HW121257   2.493   4.477   5.075 -0.1781 -0.3426 -2.4558
 3207SOL    HW221258   2.633   4.492   5.090 -2.5863  2.8975  0.7160
 3208SOL     OW21259   2.897   2.597  11.862 -0.0350  0.8643  0.4200
 3208SOL    HW121260   2.896   2.508  11.896 -1.1426  0.7539  0.1278
 3208SOL    HW221261   2.990   2.620  11.862  0.5183 -1.3691  0.8395
 3209SOL     OW21262   0.710   1.566   7.493  0.0424 -0.2386  0.2092
 3209SOL    HW121263   0.732   1.484   7.538 -0.2125 -1.0347 -1.1422
 3209SOL    HW221264   0.620   1.576   7.524  0.2835  1.3229  0.4143
 3210SOL     OW21265   2.869   1.519   5.734  0.6367 -0.2486  0.3747
 3210SOL    HW121266   2.869   1.504   5.639  1.5722  1.0971  0.1609
 3210SOL    HW221267   2.815   1.449   5.771  0.0010 -0.9566 -1.8489
 3211SOL     OW21268   4.329   2.363  14.770 -0.9488  0.5600 -0.2298
 3211SOL    HW121269   4.322   2.357  14.675 -0.6625 -1.7480 -0.0939
 3211SOL    HW221270   4.411   2.314  14.776 -0.2203  2.0067  1.6189
 3212SOL     OW21271   1.341   3.495   5.148 -0.0332  0.3615 -0.7677
 3212SOL    HW121272   1.288   3.541   5.213 -0.9383  0.9521 -1.9096
 3212SOL    HW221273   1.413   3.452   5.194 -0.8516  0.9248  1.0412
 3213SOL     OW21274   3.389   3.765  17.710  0.7580 -0.0874 -0.1331
 3213SOL    HW121275   3.455   3.714   0.020  1.3219  0.3533 -0.4593
 3213SOL    HW221276   3.345   3.818   0.040  0.7482  0.5693 -0.6691
 3214SOL     OW21277   2.202   3.528   8.243 -0.0915  0.0348  0.5815
 3214SOL    HW121278   2.140   3.511   8.314 -2.1794  0.5578 -1.1380
 3214SOL    HW221279   2.198   3.622   8.257  1.3358  0.2060 -0.0990
 3215SOL     OW21280   4.306   0.743   3.580 -0.2350 -0.6975 -0.1400
 3215SOL    HW121281   4.335   0.834   3.581  0.4207 -0.9058 -0.0392
 3215SOL    HW221282   4.328   0.711   3.668 -0.9186 -0.5020  0.1017
 3216SOL     OW21283   4.253   0.923   2.139  0.0421 -0.1522  0.9501
 3216SOL    HW121284   4.234   0.892   2.051 -1.2975  1.8477  0.5366
 3216SOL    HW221285   4.328   0.982   2.125 -0.3030  0.7000  2.6441
 3217SOL     OW21286   4.607   4.572   1.074 -0.0047 -0.2974  0.3626
 3217SOL    HW121287   4.526   4.520   1.075  0.6157 -1.2224  1.3830
 3217SOL    HW221288   4.578   4.645   1.019 -1.1202 -0.6706  0.4521
 3218SOL     OW21289   0.835   2.330   0.417  0.2399  0.4395 -0.1148
 3218SOL    HW121290   0.895   2.255   0.407 -0.4747 -0.0807 -0.5353
 3218SOL    HW221291   0.892   2.394   0.459 -0.0961  0.5566  0.1633
 3219SOL     OW21292   3.310   2.422   5.590  0.0278  0.8302  0.0346
 3219SOL    HW121293   3.253   2.402   5.516  2.5227  0.0024 -1.6877
 3219SOL    HW221294   3.393   2.436   5.544  1.7582 -0.4095  2.8003
 3220SOL     OW21295   4.133   4.460   4.750 -0.0968  0.6605 -0.3681
 3220SOL    HW121296   4.131   4.469   4.655 -4.2517 -1.7465 -0.4808
 3220SOL    HW221297   4.199   4.392   4.766 -2.6237 -1.8870 -0.7707
 3221SOL     OW21298   3.597   0.092   2.327 -0.4806 -0.0155  0.2813
 3221SOL    HW121299   3.541   0.131   2.394 -0.8806  0.2967 -0.2321
 3221SOL    HW221300   3.595   0.167   2.268 -0.0917 -1.0411 -1.0411
 3222SOL     OW21301   0.651   3.487   7.548  0.5757  0.6620 -0.3833
 3222SOL    HW121302   0.633   3.465   7.640  1.0415 -0.5320 -0.5814
 3222SOL    HW221303   0.570   3.462   7.504  1.3624 -0.3126 -1.2906
 3223SOL     OW21304   3.037   2.437   6.958  0.5281 -0.7512  0.3981
 3223SOL    HW121305   2.976   2.474   6.893  0.5989  1.5670  1.6443
 3223SOL    HW221306   2.973   2.402   7.020  0.8646  1.5423  2.0422
 3224SOL     OW21307   1.331   4.014   7.663 -0.5838 -0.4064  0.0687
 3224SOL    HW121308   1.276   4.086   7.694 -1.0704 -2.7393  4.7183
 3224SOL    HW221309   1.354   4.059   7.582  0.4862 -2.6089 -0.8411
 3225SOL     OW21310   1.474   3.646   4.928  0.3540 -0.3087  0.3729
 3225SOL    HW121311   1.486   3.573   4.868  0.6510 -0.2759  0.3910
 3225SOL    HW221312   1.415   3.603   4.990  0.5076  1.1512  1.5448
 3226SOL     OW21313   3.742   0.078   4.686 -0.8285  0.1539 -0.4959
 3226SOL    HW121314   3.675   0.053   4.749 -1.7879  1.3161 -1.0691
 3226SOL    HW221315   3.700   0.147   4.635 -0.5397  0.2634 -0.5852
 3227SOL     OW21316   1.273   3.765   3.360 -0.1477 -0.3353  0.3202
 3227SOL    HW121317   1.321   3.735   3.282  3.3787  1.5145  1.7680
 3227SOL    HW221318   1.184   3.785   3.331 -1.0548 -1.9642  1.9918
 3228SOL     OW21319   2.047   1.045   1.066  0.3554 -0.6472 -0.0078
 3228SOL    HW121320   2.043   1.089   0.982  0.5197 -1.4874 -0.4557
 3228SOL    HW221321   1.998   1.105   1.123 -2.6211 -1.5664 -1.6174
 3229SOL     OW21322   2.489   0.703   2.413  0.5300  0.3127 -0.5934
 3229SOL    HW121323   2.504   0.699   2.319 -0.7448 -1.8719 -0.6997
 3229SOL    HW221324   2.521   0.617   2.440  2.4700  0.0893 -3.6576
 3230SOL     OW21325   1.267   1.498   7.085 -0.2561 -0.2075 -0.4766
 3230SOL    HW121326   1.206   1.491   7.012  1.9551 -0.4690 -2.2770
 3230SOL    HW221327   1.249   1.420   7.138  0.7177  0.1320  0.3470
 3231SOL     OW21328   2.351   1.280   4.627  0.7229  0.3083  0.2273
 3231SOL    HW121329   2.332   1.239   4.543 -0.2928  0.4682  0.3773
 3231SOL    HW221330   2.427   1.229   4.655  0.2646 -0.4044  0.1685
 3232SOL     OW21331   0.131   1.851   7.278  0.0553 -0.4128  0.5649
 3232SOL    HW121332   0.181   1.864   7.359  0.5114 -0.9194  0.3664
 3232SOL    HW221333   0.146   1.757   7.267 -0.5791 -0.7618  2.6996
 3233SOL     OW21334   2.266   3.012   5.548 -0.5217 -0.3496  0.0784
 3233SOL    HW121335   2.315   3.069   5.488  1.2076 -1.2013  0.6534
 3233SOL    HW221336   2.282   2.924   5.512  2.4121  0.1573  0.1302
 3234SOL     OW21337   1.823   1.909   4.750  0.3273  0.8048  0.2938
 3234SOL    HW121338   1.764   1.888   4.823 -1.4430  0.1623 -1.3049
 3234SOL    HW221339   1.750   1.939   4.695  1.2148 -3.6666 -3.2890
 3235SOL     OW21340   1.833   2.704   3.402  0.1525 -0.3832 -0.4138
 3235SOL    HW121341   1.863   2.769   3.337 -1.4284 -1.1087 -1.8650
 3235SOL    HW221342   1.743   2.735   3.415  0.0620 -1.7712  2.1762
 3236SOL     OW21343   0.417   3.818   6.876 -0.0858 -0.1318  0.4352
 3236SOL    HW121344   0.399   3.911   6.862  2.9864  0.6697  1.7729
 3236SOL    HW221345   0.411   3.822   6.971  1.4935 -0.1276  0.5411
 3237SOL     OW21346   1.242   0.821   1.320 -0.2420  0.0209 -0.5064
 3237SOL    HW121347   1.196   0.856   1.396  1.5984 -2.1013  1.5733
 3237SOL    HW221348   1.197   0.868   1.249 -2.6926  1.6214  2.1246
 3238SOL     OW21349   2.611   0.296   3.686 -0.1520 -0.7810  0.7442
 3238SOL    HW121350   2.543   0.232   3.668  1.9329 -2.7779 -0.1290
 3238SOL    HW221351   2.601   0.314   3.779  1.7295 -0.5853  0.9072
 3239SOL     OW21352   3.487   3.393   8.856 -0.6305  0.4349  0.2759
 3239SOL    HW121353   3.429   3.317   8.847  1.5726 -1.2769  0.6270
 3239SOL    HW221354   3.487   3.413   8.950  1.8178  1.4640  0.0520
 3240SOL     OW21355   2.864   0.762   9.266  0.3979  0.1818 -0.1804
 3240SOL    HW121356   2.853   0.750   9.361  0.1894 -2.3128 -0.5136
 3240SOL    HW221357   2.825   0.683   9.228  1.3058 -0.5872  0.4648
 3241SOL     OW21358   1.097   2.277   3.562 -0.0223  0.1287  0.0163
 3241SOL    HW121359   1.170   2.249   3.617  0.5373 -1.1045 -1.3562
 3241SOL    HW221360   1.044   2.303   3.637  0.6437 -2.5149  1.3881
 3242SOL     OW21361   0.205   1.010   3.145  0.6679  0.1504 -0.1362
 3242SOL    HW121362   0.181   1.078   3.082 -1.0236 -0.3902 -0.0702
 3242SOL    HW221363   0.229   1.052   3.227  0.9404  1.7404 -1.0395
 3243SOL     OW21364   0.298   1.512   3.993 -0.1224  0.3663 -0.2121
 3243SOL    HW121365   0.308   1.558   4.076 -0.1064 -0.2672  0.1390
 3243SOL    HW221366   0.366   1.444   4.002 -1.8813 -1.4276 -0.5243
 3244SOL     OW21367   2.334   0.783   8.830  0.2831 -0.3973  0.0725
 3244SOL    HW121368   2.275   0.707   8.824  0.0515 -0.1180 -1.2799
 3244SOL    HW221369   2.403   0.749   8.886  0.1844 -0.5894  0.0790
 3245SOL     OW21370   2.961   1.126  12.777  0.2952  0.0645 -0.7615
 3245SOL    HW121371   2.877   1.173  12.774 -0.3305 -1.0514 -0.7112
 3245SOL    HW221372   2.980   1.126  12.683  1.9409 -0.5431 -0.4313
 3246SOL     OW21373   0.937   0.421   0.737 -0.2541 -0.1569  0.7419
 3246SOL    HW121374   0.983   0.451   0.815 -1.4789 -1.1502  1.8528
 3246SOL    HW221375   0.976   0.334   0.735  0.3243  0.0630  2.7412
 3247SOL     OW21376   2.987   4.368  17.235 -0.9642 -0.1969  0.4799
 3247SOL    HW121377   2.919   4.301  17.244 -0.9244 -0.1090  1.4577
 3247SOL    HW221378   3.058   4.319  17.192 -0.4012  1.3260 -0.3269
 3248SOL     OW21379   3.949   0.772   8.609  0.3843  0.3705 -0.1026
 3248SOL    HW121380   3.945   0.679   8.631  1.5557  0.7025  1.5367
 3248SOL    HW221381   3.857   0.793   8.618  0.8984  1.9283  1.5631
 3249SOL     OW21382   2.928   0.046  10.742 -0.5493 -0.2050  0.1901
 3249SOL    HW121383   2.884   4.706  10.784 -0.3686 -1.5825 -2.0381
 3249SOL    HW221384   2.852   0.077  10.693  0.7811  1.8197 -0.5638
 3250SOL     OW21385   4.398   3.848   7.935  0.5025 -0.1139  0.3043
 3250SOL    HW121386   4.386   3.759   7.903  1.1141  0.6406 -2.0598
 3250SOL    HW221387   4.387   3.901   7.855  0.7293  1.2663  1.1945
 3251SOL     OW21388   1.190   0.383   3.420 -0.1422  0.3221 -0.1171
 3251SOL    HW121389   1.112   0.438   3.412  0.8394  1.6321 -0.8810
 3251SOL    HW221390   1.228   0.427   3.496 -3.4451  2.1167  0.5033
 3252SOL     OW21391   2.900   0.136   7.323 -0.4583  0.5645 -0.3206
 3252SOL    HW121392   2.956   0.182   7.386 -1.3015  0.9897  0.1069
 3252SOL    HW221393   2.859   0.211   7.279 -0.2441 -0.4262 -2.2332
 3253SOL     OW21394   0.940   1.027   1.199  0.4375  0.7073  0.4061
 3253SOL    HW121395   1.030   1.037   1.232  0.1947  3.8045  0.1772
 3253SOL    HW221396   0.950   1.057   1.109 -1.7780  0.2298  0.0148
 3254SOL     OW21397   0.323   0.106   4.603 -0.6929 -0.4462 -0.2579
 3254SOL    HW121398   0.315   0.174   4.670 -1.8717 -0.2478 -0.6092
 3254SOL    HW221399   0.281   0.034   4.649  1.6294 -1.1792  0.7388
 3255SOL     OW21400   2.299   2.162   7.244 -0.1711 -0.0495  0.0564
 3255SOL    HW121401   2.390   2.140   7.267 -1.2168 -0.3140  4.0035
 3255SOL    HW221402   2.293   2.254   7.270 -1.7760  0.6660 -2.9042
 3256SOL     OW21403   2.431   1.463   3.034 -0.3134 -0.3061  0.4884
 3256SOL    HW121404   2.482   1.382   3.044  0.4915  0.4277  2.3025
 3256SOL    HW221405   2.395   1.439   2.949 -2.8064 -1.8066  1.9463
 3257SOL     OW21406   3.445   2.418   2.007  0.1428  0.1650  0.9318
 3257SOL    HW121407   3.459   2.327   2.033 -0.9847  0.0572  1.1997
 3257SOL    HW221408   3.526   2.453   2.043  0.7815 -1.1482  0.7473
 3258SOL     OW21409   4.720   0.159   9.178 -0.5114  0.3162 -0.7997
 3258SOL    HW121410   4.708   0.232   9.239 -0.3206 -0.0009 -0.3864
 3258SOL    HW221411   4.630   0.135   9.154 -0.3741  0.9715 -1.9922
 3259SOL     OW21412   0.085   1.427   2.125  0.5937  0.4099 -0.0945
 3259SOL    HW121413   0.179   1.426   2.104 -0.0119 -0.3112 -2.8263
 3259SOL    HW221414   0.068   1.335   2.104 -0.2174  0.2468  1.3339
 3260SOL     OW21415   4.033   2.852   0.897 -0.3856 -1.1422 -0.3939
 3260SOL    HW121416   4.053   2.768   0.857 -2.4405 -1.9426  0.2899
 3260SOL    HW221417   4.118   2.896   0.892 -1.7052  1.5576  0.4768
 3261SOL     OW21418   4.707   4.607  11.213 -0.7978 -0.5546  0.0125
 3261SOL    HW121419   4.652   4.643  11.283  1.4834  0.2184  1.4210
 3261SOL    HW221420   4.656   4.621  11.133 -0.9948  1.8275  0.5523
 3262SOL     OW21421   2.112   2.360  16.235 -0.4655  0.0460  0.4319
 3262SOL    HW121422   2.084   2.308  16.310  0.9835 -1.2982  0.0411
 3262SOL    HW221423   2.061   2.311  16.170  0.9420 -1.0226  0.1571
 3263SOL     OW21424   3.228   0.897   1.449 -0.1489  0.0275 -0.3699
 3263SOL    HW121425   3.174   0.838   1.503 -0.4320  0.2355 -0.4278
 3263SOL    HW221426   3.173   0.974   1.453 -1.6254 -1.0730  0.6266
 3264SOL     OW21427   3.234   1.166   2.484 -0.1221 -0.1717  0.3285
 3264SOL    HW121428   3.215   1.165   2.578  4.5995  0.7874  1.2785
 3264SOL    HW221429   3.146   1.154   2.448  0.1496 -0.1232 -0.3440
 3265SOL     OW21430   1.052   2.712  12.718  0.0389  0.1462  0.1640
 3265SOL    HW121431   1.053   2.620  12.693 -0.6846 -0.0015  0.6832
 3265SOL    HW221432   1.100   2.754  12.646  0.0933 -0.5121 -0.1814
 3266SOL     OW21433   1.619   4.578   1.932  0.1342  0.1546 -0.0644
 3266SOL    HW121434   1.538   4.582   1.881  0.3782  0.9397 -0.3941
 3266SOL    HW221435   1.590   4.562   2.022  0.0491  1.0984  0.0717
 3267SOL     OW21436   0.830   0.385   6.965  0.0026 -0.0809 -0.5057
 3267SOL    HW121437   0.741   0.357   6.941 -0.2695  0.2663  0.1003
 3267SOL    HW221438   0.823   0.393   7.060 -0.7783 -0.5217 -0.5274
 3268SOL     OW21439   0.589   0.340   3.532  0.4780  0.0737  0.5651
 3268SOL    HW121440   0.680   0.337   3.560  0.5608 -0.3360  0.2390
 3268SOL    HW221441   0.577   0.435   3.528 -0.3540 -0.0317  0.4963
 3269SOL     OW21442   0.614   3.960  13.057 -0.1034  0.7688 -0.4306
 3269SOL    HW121443   0.575   3.953  13.145 -0.1339  1.3954 -0.3884
 3269SOL    HW221444   0.668   3.882  13.043  1.0045  1.7865 -1.8285
 3270SOL     OW21445   3.046   1.134   4.753 -0.0138  0.4444 -0.0802
 3270SOL    HW121446   3.051   1.062   4.690  0.2085  0.7804 -0.4492
 3270SOL    HW221447   3.079   1.098   4.835  0.5798  2.5803  0.6224
 3271SOL     OW21448   1.041   3.769   2.076 -0.5101 -0.2958  0.7086
 3271SOL    HW121449   0.998   3.787   2.159 -1.1537  0.4947  0.2086
 3271SOL    HW221450   1.022   3.851   2.028  0.4090 -1.6122 -1.9301
 3272SOL     OW21451   4.308   3.704   3.416 -0.2201 -0.0971 -0.2385
 3272SOL    HW121452   4.381   3.659   3.460 -1.1928 -1.8320 -0.4055
 3272SOL    HW221453   4.252   3.627   3.407 -2.2993  1.0663  2.8846
 3273SOL     OW21454   3.671   4.637   3.487 -0.4459 -0.6866  0.7315
 3273SOL    HW121455   3.664   4.699   3.414 -0.6019  0.3588  1.6462
 3273SOL    HW221456   3.593   4.663   3.535 -0.6258  0.4121 -0.1439
 3274SOL     OW21457   2.050   0.176  12.567 -0.0837 -0.5283  0.3171
 3274SOL    HW121458   2.018   0.096  12.609 -1.6549 -0.6835 -1.1737
 3274SOL    HW221459   2.058   0.235  12.642 -0.1290 -0.1296  0.0096
 3275SOL     OW21460   0.631   4.497  14.019 -0.3415 -1.1285  0.4968
 3275SOL    HW121461   0.662   4.507  13.929  0.5696 -1.5797  0.7690
 3275SOL    HW221462   0.596   4.585  14.033 -1.2896 -1.1650 -1.5706
 3276SOL     OW21463   1.701   4.054   2.508  0.0909 -0.6144  0.0999
 3276SOL    HW121464   1.609   4.058   2.533 -0.0174 -1.8437 -0.0627
 3276SOL    HW221465   1.740   3.991   2.568 -0.5160 -0.7358  0.3697
 3277SOL     OW21466   3.018   3.459   4.702 -1.1162  0.5200 -0.3080
 3277SOL    HW121467   3.113   3.471   4.695 -1.2275  0.3952 -2.0354
 3277SOL    HW221468   3.004   3.474   4.795  0.0259  0.7690 -0.1656
 3278SOL     OW21469   2.706   0.411   6.727 -0.8069  0.0168  0.8555
 3278SOL    HW121470   2.617   0.409   6.691  0.2567 -0.3808 -1.8028
 3278SOL    HW221471   2.738   0.472   6.661 -2.1488  0.2675  0.4318
 3279SOL     OW21472   3.594   0.224   9.653 -0.6146  0.1451  0.4104
 3279SOL    HW121473   3.517   0.246   9.706 -0.9519 -2.0033  0.8173
 3279SOL    HW221474   3.557   0.166   9.587  2.7466 -0.6121 -0.7624
 3280SOL     OW21475   2.332   1.557  12.282  0.5127 -0.0057 -0.0886
 3280SOL    HW121476   2.272   1.532  12.211 -0.9017  1.2101  0.6804
 3280SOL    HW221477   2.316   1.651  12.289  1.9933  0.1932  0.5198
 3281SOL     OW21478   2.359   3.513   7.291  0.2231 -0.0267  0.0434
 3281SOL    HW121479   2.422   3.513   7.364 -0.4962 -1.0420  0.6631
 3281SOL    HW221480   2.309   3.593   7.308 -0.2804 -0.5135  0.8745
 3282SOL     OW21481   4.664   4.399  11.846 -0.2134  0.5030  0.2828
 3282SOL    HW121482   4.651   4.447  11.765  0.2556  2.3700  1.3222
 3282SOL    HW221483   0.020   4.369  11.832 -0.0435  0.5584  1.2240
 3283SOL     OW21484   0.086   0.932  14.899 -0.3228 -0.0442  0.7276
 3283SOL    HW121485   0.017   0.868  14.915 -0.3610 -0.4255 -0.9353
 3283SOL    HW221486   0.118   0.952  14.987  2.5055  1.0590 -0.5405
 3284SOL     OW21487   1.592   4.118   5.595 -0.0765 -0.0663  0.2971
 3284SOL    HW121488   1.562   4.073   5.516  0.3594 -0.3749  0.3096
 3284SOL    HW221489   1.542   4.195   5.566 -1.8948 -1.0310  0.8733
 3285SOL     OW21490   3.433   1.183   3.633 -0.2167 -0.6510  0.1898
 3285SOL    HW121491   3.444   1.251   3.567  1.3077  0.0076  1.1189
 3285SOL    HW221492   3.349   1.209   3.671  0.0114 -0.7034  0.7275
 3286SOL     OW21493   3.728   4.599   8.680 -0.2948  0.4283 -0.4624
 3286SOL    HW121494   3.721   4.692   8.659 -1.1229 -0.0208 -2.1849
 3286SOL    HW221495   3.803   4.576   8.624 -1.9631  0.3653 -2.6639
 3287SOL     OW21496   3.738   0.677   7.288 -0.4995 -0.5620  0.2943
 3287SOL    HW121497   3.788   0.621   7.349 -1.7620 -2.6364 -0.5982
 3287SOL    HW221498   3.655   0.630   7.285 -1.4420  1.0487  0.9727
 3288SOL     OW21499   1.164   0.942  16.388  0.6149 -0.0196  0.0835
 3288SOL    HW121500   1.166   0.932  16.293  1.5088  1.7777 -0.0914
 3288SOL    HW221501   1.088   0.886  16.404  3.2666 -3.9567 -0.8493
 3289SOL     OW21502   4.578   3.131   5.235  0.5066  0.7610  0.3852
 3289SOL    HW121503   4.585   3.075   5.312  0.5951 -1.2570 -1.0896
 3289SOL    HW221504   4.654   3.106   5.183 -0.4600  0.2303 -0.7713
 3290SOL     OW21505   1.782   1.536   6.224 -0.2452 -0.6198  0.7334
 3290SOL    HW121506   1.736   1.456   6.199 -0.1637 -0.0214 -1.3646
 3290SOL    HW221507   1.809   1.563   6.135 -0.2584 -0.7999  0.6751
 3291SOL     OW21508   3.957   2.458   2.110  0.2411  0.0901 -0.7778
 3291SOL    HW121509   3.970   2.486   2.201  2.3969 -0.5954 -0.8686
 3291SOL    HW221510   4.044   2.421   2.091  0.7620  0.6013  0.6316
 3292SOL     OW21511   2.051   3.428   0.395 -0.1016  0.1890 -0.3433
 3292SOL    HW121512   2.006   3.360   0.444 -0.3317  1.3829  1.1059
 3292SOL    HW221513   2.065   3.386   0.310 -0.5189 -0.5505 -0.0401
 3293SOL     OW21514   2.594   0.778   7.541  0.0705 -0.4449  0.0848
 3293SOL    HW121515   2.660   0.711   7.522 -0.2562 -1.0988  1.2483
 3293SOL    HW221516   2.628   0.857   7.499 -1.4157  0.6843  1.0371
 3294SOL     OW21517   2.413   3.409   5.566 -0.3070 -0.0153  0.1604
 3294SOL    HW121518   2.370   3.395   5.482  1.8546 -0.0818 -0.9051
 3294SOL    HW221519   2.381   3.341   5.625  0.3846 -3.4611 -3.4694
 3295SOL     OW21520   3.996   2.527   0.328  0.1910 -0.6188  0.0025
 3295SOL    HW121521   4.060   2.460   0.350  0.6204  0.5053  2.1667
 3295SOL    HW221522   3.944   2.535   0.408 -0.3765  3.7860 -0.8234
 3296SOL     OW21523   2.992   4.216  16.723 -0.2420 -0.3215 -0.3154
 3296SOL    HW121524   2.924   4.270  16.681  1.1524  0.5633 -1.4562
 3296SOL    HW221525   2.945   4.143  16.763  0.0534  0.3476  1.2640
 3297SOL     OW21526   1.074   4.416   4.835 -0.8603  0.5483 -0.1474
 3297SOL    HW121527   1.103   4.482   4.897  0.6327  0.1880 -0.4804
 3297SOL    HW221528   1.046   4.483   4.772 -2.7600 -0.7232 -0.6689
 3298SOL     OW21529   3.220   1.235   5.539  0.4061  0.4014  0.4605
 3298SOL    HW121530   3.178   1.252   5.455  0.0637 -0.7242  0.4080
 3298SOL    HW221531   3.226   1.140   5.531 -0.3502  0.3616  0.3749
 3299SOL     OW21532   3.545   4.344   5.509  0.7375 -0.5034 -0.2383
 3299SOL    HW121533   3.473   4.406   5.516  1.3600  0.2225 -0.2782
 3299SOL    HW221534   3.538   4.334   5.415 -1.1091 -0.3000 -0.1202
 3300SOL     OW21535   1.592   2.573   1.981  0.3065 -0.7422 -0.4128
 3300SOL    HW121536   1.535   2.512   1.935  1.2231 -1.6532 -0.3248
 3300SOL    HW221537   1.559   2.558   2.069 -0.7617  1.8319 -0.3785
 3301SOL     OW21538   0.840   1.777  12.810 -0.0962 -0.1531 -0.2906
 3301SOL    HW121539   0.855   1.857  12.861 -1.6584 -1.1324  1.7048
 3301SOL    HW221540   0.869   1.708  12.869 -0.7821  0.6346  0.9618
 3302SOL     OW21541   1.570   1.955   0.096 -0.5575 -0.6627  0.6735
 3302SOL    HW121542   1.597   1.872   0.057  2.1993  0.0736  0.9939
 3302SOL    HW221543   1.484   1.959   0.055 -0.0392 -0.8090 -0.4190
 3303SOL     OW21544   3.962   1.489  12.832  1.0421 -0.0951  0.1166
 3303SOL    HW121545   4.021   1.492  12.757  0.3588  2.4394 -0.3111
 3303SOL    HW221546   4.008   1.548  12.891  1.2938 -1.3967  1.2253
 3304SOL     OW21547   2.341   3.830   5.516  0.3595 -0.2450  0.5916
 3304SOL    HW121548   2.284   3.880   5.575 -0.0703 -0.1194  0.0658
 3304SOL    HW221549   2.411   3.892   5.498 -1.0014  0.4217 -2.3552
 3305SOL     OW21550   0.849   1.571   7.255 -0.2761 -0.1657 -0.2910
 3305SOL    HW121551   0.780   1.626   7.218  2.2561  2.0539 -1.7509
 3305SOL    HW221552   0.813   1.581   7.343  0.6731 -0.1659  0.0999
 3306SOL     OW21553   3.082   1.831  17.385 -0.1494 -0.3128  0.5341
 3306SOL    HW121554   3.037   1.861  17.307 -1.2572 -2.0766  0.4956
 3306SOL    HW221555   3.024   1.766  17.424 -2.2044  0.3393 -1.4368
 3307SOL     OW21556   1.139   2.939   5.395 -0.3549  0.5740 -0.0068
 3307SOL    HW121557   1.076   2.894   5.451 -1.1361  0.2377 -1.1529
 3307SOL    HW221558   1.123   3.032   5.412  0.4432  0.3891  1.7043
 3308SOL     OW21559   0.319   2.212   3.650 -0.3230 -0.2880  0.2076
 3308SOL    HW121560   0.392   2.257   3.608 -2.8332  2.9022 -0.8159
 3308SOL    HW221561   0.261   2.197   3.575 -1.5484  0.9664  0.9075
 3309SOL     OW21562   3.569   2.278   9.548  0.2686 -0.1705 -0.4417
 3309SOL    HW121563   3.544   2.290   9.640 -0.9602 -0.3489 -0.7505
 3309SOL    HW221564   3.661   2.304   9.549  0.1182  0.3557 -0.7619
 3310SOL     OW21565   0.771   2.441   4.417  0.7849  0.2977  0.1236
 3310SOL    HW121566   0.803   2.410   4.502  1.7450  0.8014 -0.0594
 3310SOL    HW221567   0.757   2.535   4.426  0.1062  0.0831  1.2814
 3311SOL     OW21568   1.479   3.134   1.110 -0.0853 -0.4098  0.3581
 3311SOL    HW121569   1.458   3.189   1.034  0.1022 -3.0963 -1.6723
 3311SOL    HW221570   1.568   3.099   1.103  0.1556  0.1089  0.8960
 3312SOL     OW21571   3.618   4.468   7.409 -0.1396  0.7440  0.0581
 3312SOL    HW121572   3.569   4.421   7.476  0.1340 -1.8284 -1.5313
 3312SOL    HW221573   3.704   4.425   7.407 -1.6199 -2.1755 -0.5930
 3313SOL     OW21574   0.871   0.186   2.367  0.8463 -0.2602  0.1550
 3313SOL    HW121575   0.815   0.147   2.434 -0.3263  3.1746  1.1945
 3313SOL    HW221576   0.838   0.274   2.385  1.2620  0.3609 -2.0583
 3314SOL     OW21577   0.210   0.529   5.111  0.0914 -0.5369  0.2977
 3314SOL    HW121578   0.130   0.505   5.157 -0.8846  0.2256 -0.9975
 3314SOL    HW221579   0.207   0.625   5.117 -0.4602 -0.6132  1.1745
 3315SOL     OW21580   0.239   4.613  10.261  0.1492 -0.6332  0.0350
 3315SOL    HW121581   0.239   4.524  10.296 -0.8581 -1.0505 -1.0252
 3315SOL    HW221582   0.267   4.660  10.339 -0.1210 -2.4076  1.2091
 3316SOL     OW21583   1.774   3.469  12.587  0.0737  0.6794  0.3112
 3316SOL    HW121584   1.736   3.382  12.579  0.2811  0.5110  1.1962
 3316SOL    HW221585   1.851   3.451  12.533  0.3690  0.8295  0.6800
 3317SOL     OW21586   4.668   2.927   3.261  0.3937 -0.1788 -0.2450
 3317SOL    HW121587   4.620   3.008   3.281  2.9853  2.1222 -3.3744
 3317SOL    HW221588   4.714   2.945   3.179 -0.3239  1.0633 -0.3815
 3318SOL     OW21589   0.800   2.164   2.950 -0.1417 -0.2572  0.2448
 3318SOL    HW121590   0.868   2.211   2.997 -0.5086  0.4860  0.0437
 3318SOL    HW221591   0.743   2.109   3.003 -0.5929  1.2589  1.3125
 3319SOL     OW21592   4.690   4.365   8.469  0.2439  0.3787 -0.7328
 3319SOL    HW121593   0.027   4.307   8.493  0.4924  0.8129 -0.4219
 3319SOL    HW221594   4.711   4.438   8.528 -1.9333  0.4766 -0.0539
 3320SOL     OW21595   3.504   2.876   5.490  0.1418 -0.2321 -0.2254
 3320SOL    HW121596   3.421   2.866   5.444 -0.3134 -1.0157  0.7864
 3320SOL    HW221597   3.560   2.880   5.412 -0.3659 -0.4641 -0.6041
 3321SOL     OW21598   4.576   0.662  10.570  0.1981  0.4245  0.1436
 3321SOL    HW121599   4.499   0.714  10.548 -0.6429 -1.4754 -1.3896
 3321SOL    HW221600   4.638   0.731  10.591  1.2311 -1.2533  2.6380
 3322SOL     OW21601   3.797   0.387  11.910  0.0087 -0.1646  0.4561
 3322SOL    HW121602   3.888   0.392  11.880 -0.0029 -0.5307  0.3588
 3322SOL    HW221603   3.799   0.437  11.992  1.8195 -1.2021  1.0688
 3323SOL     OW21604   4.507   3.242  12.559  0.0961 -0.5572  0.4594
 3323SOL    HW121605   4.424   3.249  12.606  0.4324 -2.0462  1.2519
 3323SOL    HW221606   4.481   3.211  12.472 -1.2934 -3.0921  1.7883
 3324SOL     OW21607   4.135   0.153   5.019 -0.4100 -0.4064 -0.0527
 3324SOL    HW121608   4.129   0.093   5.093  0.6675 -1.2062 -0.6210
 3324SOL    HW221609   4.145   0.088   4.950  0.9453 -1.4278  1.1194
 3325SOL     OW21610   3.666   4.612   6.344 -0.0124  0.8421 -0.2997
 3325SOL    HW121611   3.626   4.699   6.354  0.3342  1.1629 -1.6719
 3325SOL    HW221612   3.595   4.558   6.378  3.7990 -3.1400  1.2301
 3326SOL     OW21613   1.754   0.984   8.224  0.0956 -0.0160  0.1199
 3326SOL    HW121614   1.806   0.914   8.183  2.4700  3.2982 -2.5356
 3326SOL    HW221615   1.699   1.017   8.153 -0.3136 -1.9737 -0.4700
 3327SOL     OW21616   0.697   0.809   5.790  0.7247 -0.0457  0.0622
 3327SOL    HW121617   0.689   0.727   5.741 -0.5342 -0.7600  1.4763
 3327SOL    HW221618   0.712   0.768   5.875 -1.7882  0.6086  0.8120
 3328SOL     OW21619   1.313   2.327  12.361 -0.4023 -0.1015  0.3447
 3328SOL    HW121620   1.346   2.378  12.435  0.7829 -1.3800  0.7122
 3328SOL    HW221621   1.244   2.276  12.404 -0.0124 -0.0841  1.0027
 3329SOL     OW21622   0.298   0.590   8.013 -0.0575 -0.3461  0.0587
 3329SOL    HW121623   0.303   0.496   7.997  0.9480  0.0519 -1.8737
 3329SOL    HW221624   0.383   0.607   8.055 -0.0855 -2.9941  1.2411
 3330SOL     OW21625   3.229   0.740   6.372  0.0217 -0.4187  0.7780
 3330SOL    HW121626   3.253   0.648   6.384  0.3585 -0.1159  2.3659
 3330SOL    HW221627   3.167   0.737   6.300 -0.4434 -1.5960  1.2283
 3331SOL     OW21628   1.818   4.536   7.719  0.5056 -0.2725 -0.1048
 3331SOL    HW121629   1.799   4.589   7.641 -3.3241  0.6191  1.4160
 3331SOL    HW221630   1.735   4.544   7.767  0.9673  2.3244  0.2969
 3332SOL     OW21631   1.300   2.565   1.029 -0.0511 -0.2524 -0.7130
 3332SOL    HW121632   1.334   2.653   1.045 -4.1898  1.6181 -1.9707
 3332SOL    HW221633   1.265   2.571   0.940 -1.1249 -0.7097 -0.3199
 3333SOL     OW21634   2.916   2.490   5.110 -0.7039 -0.3126 -0.1482
 3333SOL    HW121635   2.903   2.413   5.165 -1.0658 -0.2706 -0.1794
 3333SOL    HW221636   2.888   2.448   5.029 -1.4802  0.2480 -0.1691
 3334SOL     OW21637   0.027   0.886  10.652  0.2335 -0.7782 -0.8748
 3334SOL    HW121638   0.012   0.970  10.610  3.2239  0.0744 -0.2872
 3334SOL    HW221639   0.111   0.864  10.610  1.3483  0.3434  0.7527
 3335SOL     OW21640   1.649   3.790   4.577  0.2100  0.1060  0.1372
 3335SOL    HW121641   1.713   3.861   4.573 -1.0330  1.2627  1.0057
 3335SOL    HW221642   1.692   3.706   4.559 -0.4502  0.1940 -1.9295
 3336SOL     OW21643   3.446   4.556   3.847  0.5413 -0.6045 -0.7814
 3336SOL    HW121644   3.472   4.477   3.895  2.1459  0.4375  0.0552
 3336SOL    HW221645   3.399   4.518   3.773  1.6142  0.4846 -2.0142
 3337SOL     OW21646   1.121   2.521   5.463  0.0180  0.2512  0.0055
 3337SOL    HW121647   1.089   2.435   5.436 -0.0216  0.2799 -0.0388
 3337SOL    HW221648   1.095   2.565   5.382  2.3664  0.0034 -0.8988
 3338SOL     OW21649   3.267   1.843   4.922 -0.0543  0.7940  0.6114
 3338SOL    HW121650   3.267   1.751   4.896 -0.1753  0.8673  0.3510
 3338SOL    HW221651   3.305   1.880   4.841 -2.8769  1.5828 -0.3476
 3339SOL     OW21652   0.197   1.331   5.593 -0.0154 -0.0549  0.0964
 3339SOL    HW121653   0.165   1.265   5.531 -0.2146  0.7162 -0.6227
 3339SOL    HW221654   0.124   1.354   5.650  1.7371  1.2312  1.8094
 3340SOL     OW21655   4.210   2.803   7.619 -0.0833  0.0427 -0.1325
 3340SOL    HW121656   4.176   2.759   7.697 -1.1358  0.3417 -0.4152
 3340SOL    HW221657   4.146   2.874   7.612  3.0662  2.9068  0.2731
 3341SOL     OW21658   2.115   3.694  11.759 -0.1081 -0.0235  0.3898
 3341SOL    HW121659   2.060   3.624  11.795  0.0605  0.4688  1.5948
 3341SOL    HW221660   2.065   3.710  11.679  0.8526  1.4011  0.0791
 3342SOL     OW21661   0.390   1.329   8.369  0.6311 -0.2582  0.1024
 3342SOL    HW121662   0.417   1.372   8.288 -0.7166 -0.8547 -0.6641
 3342SOL    HW221663   0.298   1.346   8.352  0.6016 -2.2565 -1.7903
 3343SOL     OW21664   4.021   2.727  13.734 -0.0392 -0.5781  0.3983
 3343SOL    HW121665   4.104   2.704  13.692 -0.0785  2.7080 -1.4742
 3343SOL    HW221666   4.041   2.797  13.796 -4.6113  0.5636  0.5680
 3344SOL     OW21667   4.142   4.300   8.297 -0.1196 -0.8314 -0.4617
 3344SOL    HW121668   4.161   4.285   8.205 -0.0750  1.4599 -0.8229
 3344SOL    HW221669   4.197   4.377   8.312  0.4978 -1.3960  0.1657
 3345SOL     OW21670   4.497   4.539   4.471 -0.1824  0.1890  0.4488
 3345SOL    HW121671   4.580   4.581   4.495  0.9425 -1.2920 -0.9120
 3345SOL    HW221672   4.513   4.444   4.468  0.1132  0.2179  1.0328
 3346SOL     OW21673   2.450   1.054   1.239 -0.3736  0.7433 -0.2206
 3346SOL    HW121674   2.466   0.961   1.254  1.9490  0.9694 -1.2445
 3346SOL    HW221675   2.417   1.057   1.149 -1.7646  3.2318  0.3724
 3347SOL     OW21676   3.199   0.830   7.558 -0.1394  0.1605  0.3534
 3347SOL    HW121677   3.283   0.785   7.567 -0.1183  0.0527 -0.3644
 3347SOL    HW221678   3.226   0.906   7.609  0.4868  0.8844 -1.0588
 3348SOL     OW21679   1.183   1.831   2.707  0.4079  0.2483  0.2269
 3348SOL    HW121680   1.264   1.882   2.700 -0.7198  2.2141  1.7638
 3348SOL    HW221681   1.179   1.803   2.615  0.7831  1.7132 -0.2236
 3349SOL     OW21682   3.193   3.992  15.250 -0.1595 -0.0986  0.6685
 3349SOL    HW121683   3.196   4.087  15.241  1.0709 -0.1096  0.8928
 3349SOL    HW221684   3.130   3.981  15.179 -0.1017  0.0371  0.5965
 3350SOL     OW21685   0.914   2.680   5.265 -0.0745  0.0542  0.2647
 3350SOL    HW121686   0.902   2.757   5.322  0.4310  0.6793 -0.4745
 3350SOL    HW221687   0.962   2.729   5.198 -0.0218 -0.3180  0.0331
 3351SOL     OW21688   0.454   0.023  15.394 -0.0217  0.7400 -0.7121
 3351SOL    HW121689   0.408   0.102  15.421  1.0659  1.0393  0.2603
 3351SOL    HW221690   0.503   4.728  15.471 -0.0817  1.8617 -0.2468
 3352SOL     OW21691   2.111   3.450  12.047  0.2365 -0.5379 -0.3608
 3352SOL    HW121692   2.121   3.388  12.119  0.8298 -0.3418 -0.2732
 3352SOL    HW221693   2.199   3.446  12.010  0.1825  0.0260 -0.5514
 3353SOL     OW21694   1.502   2.109   1.886  0.2727 -0.2633  0.2389
 3353SOL    HW121695   1.586   2.155   1.880  1.1924 -1.8005  1.1056
 3353SOL    HW221696   1.534   2.034   1.937  1.1165  0.0146  0.1138
 3354SOL     OW21697   4.537   0.601   3.309  0.0806  0.2993 -0.0485
 3354SOL    HW121698   4.539   0.511   3.343 -2.1740 -0.4613 -1.8721
 3354SOL    HW221699   4.442   0.607   3.299 -0.2222 -3.7489  0.1043
 3355SOL     OW21700   1.495   3.110   7.376 -0.1892  0.0392  0.0014
 3355SOL    HW121701   1.490   3.132   7.470  1.2524 -2.2288  0.6099
 3355SOL    HW221702   1.492   3.197   7.336  1.0649 -0.9263 -2.1748
 3356SOL     OW21703   1.061   3.397   0.916 -0.0009 -0.0333  0.1036
 3356SOL    HW121704   1.064   3.317   0.970 -1.0430 -0.2285 -0.1364
 3356SOL    HW221705   1.116   3.364   0.846  0.2690  2.3281 -0.7713
 3357SOL     OW21706   3.890   0.070  15.314  0.1155 -0.3616 -0.2528
 3357SOL    HW121707   3.933   4.719  15.319 -0.4820 -0.5981  0.9095
 3357SOL    HW221708   3.916   0.093  15.225  1.8327  3.6950  1.2962
 3358SOL     OW21709   0.780   3.569   4.108  0.2355  0.4536  0.4594
 3358SOL    HW121710   0.872   3.556   4.086  0.7414  3.0383  0.9741
 3358SOL    HW221711   0.743   3.620   4.036  1.5660  1.4311  0.4600
 3359SOL     OW21712   1.472   1.060  13.707 -0.2470 -0.1714 -0.2640
 3359SOL    HW121713   1.547   1.005  13.685 -0.0857  0.1425 -0.4933
 3359SOL    HW221714   1.464   1.120  13.633 -3.4062 -2.1231 -1.5194
 3360SOL     OW21715   0.884   0.842   3.786  0.0908 -0.8494 -0.0785
 3360SOL    HW121716   0.815   0.783   3.815 -1.1544  1.2456  1.2505
 3360SOL    HW221717   0.827   0.906   3.744 -0.0414 -1.2726 -0.5307
 3361SOL     OW21718   0.289   1.981  16.125  0.4040 -0.1484 -0.6308
 3361SOL    HW121719   0.277   1.983  16.030  1.0450  1.3123 -0.6683
 3361SOL    HW221720   0.349   1.908  16.142 -1.6814 -1.2741  2.0275
 3362SOL     OW21721   2.662   3.983  16.275  0.5447 -0.0072  0.1139
 3362SOL    HW121722   2.735   3.921  16.283  0.0565 -0.8099 -1.4660
 3362SOL    HW221723   2.636   3.982  16.367  0.2041 -1.4220  0.0079
 3363SOL     OW21724   3.368   0.742   5.313  0.2665 -0.3251 -0.3235
 3363SOL    HW121725   3.322   0.662   5.338 -0.1003 -0.4908 -1.5106
 3363SOL    HW221726   3.349   0.736   5.219  1.4080 -3.7410 -0.3524
 3364SOL     OW21727   3.780   4.090   9.533 -0.1649 -0.4512 -0.0757
 3364SOL    HW121728   3.836   4.143   9.590  2.3093 -0.1687 -2.7929
 3364SOL    HW221729   3.696   4.129   9.558  0.0041 -0.5105  0.6008
 3365SOL     OW21730   0.012   4.240   6.433 -0.2961  0.2563 -0.0937
 3365SOL    HW121731   4.716   4.314   6.486 -0.5436  0.9134 -1.1472
 3365SOL    HW221732   0.099   4.279   6.433  0.2260 -0.9280 -0.5587
 3366SOL     OW21733   0.402   3.939   2.937 -0.4357 -0.1508  0.0203
 3366SOL    HW121734   0.446   3.854   2.936 -0.5496 -0.2333  1.8382
 3366SOL    HW221735   0.474   3.990   2.898  0.2704 -0.7956  0.4900
 3367SOL     OW21736   0.123   1.358   9.830  0.6172 -0.3938  0.4293
 3367SOL    HW121737   0.212   1.341   9.800  0.5872 -0.6286  0.4691
 3367SOL    HW221738   0.095   1.428   9.772  2.6828 -0.7945 -1.0546
 3368SOL     OW21739   3.897   4.662   9.856  0.4669 -0.5010 -0.2956
 3368SOL    HW121740   3.868   4.671   9.947  1.2701 -0.2887 -0.0616
 3368SOL    HW221741   3.873   0.015   9.825  0.4229 -0.4527 -0.1230
 3369SOL     OW21742   3.987   2.748   1.951  0.0232 -0.2932  0.1157
 3369SOL    HW121743   4.069   2.704   1.974 -0.6063 -1.0339  0.9518
 3369SOL    HW221744   3.931   2.683   1.994 -1.7592  0.1697 -1.5322
 3370SOL     OW21745   1.045   4.673   0.684 -0.2508  0.3679  0.4556
 3370SOL    HW121746   1.133   4.636   0.682 -0.3695 -0.0621  2.5442
 3370SOL    HW221747   1.025   4.705   0.772 -1.2618 -2.7913  1.3700
 3371SOL     OW21748   2.853   2.726   4.948  0.0396  0.5093  0.2624
 3371SOL    HW121749   2.836   2.698   5.038 -0.1207 -0.5828 -0.1024
 3371SOL    HW221750   2.949   2.722   4.939 -0.2244 -1.7001 -1.6284
 3372SOL     OW21751   0.112   3.962   4.413  0.0173  0.0147 -0.1641
 3372SOL    HW121752   0.195   3.993   4.378 -0.0782 -1.0501 -1.3548
 3372SOL    HW221753   0.089   3.888   4.357 -0.3337  1.1057 -1.4510
 3373SOL     OW21754   0.442   2.318   6.501  0.0355 -0.0888 -0.0506
 3373SOL    HW121755   0.516   2.379   6.504  0.5765 -0.7297 -0.2621
 3373SOL    HW221756   0.418   2.314   6.408  1.2887  0.7080 -0.4143
 3374SOL     OW21757   3.298   3.791  14.583  0.1329  0.5565  0.1708
 3374SOL    HW121758   3.272   3.880  14.558  1.5064  1.9618  3.7149
 3374SOL    HW221759   3.243   3.739  14.525 -0.7496  1.6064  0.0587
 3375SOL     OW21760   3.434   4.516   2.674 -0.0824  0.0464  0.6272
 3375SOL    HW121761   3.428   4.541   2.582  0.1118 -1.2247  0.2705
 3375SOL    HW221762   3.344   4.516   2.706 -0.0734  1.6933  0.6746
 3376SOL     OW21763   3.447   0.576   5.628  0.0379 -0.1609  0.0409
 3376SOL    HW121764   3.446   0.613   5.716  1.8575 -1.4455  0.6046
 3376SOL    HW221765   3.360   0.544   5.600  1.0527 -2.6351 -0.3384
 3377SOL     OW21766   3.037   3.063   4.809  0.2524 -0.0468  0.6842
 3377SOL    HW121767   3.121   3.097   4.838  0.9911  0.1874 -1.7088
 3377SOL    HW221768   3.065   2.974   4.793 -0.7272  0.1384 -2.0856
 3378SOL     OW21769   1.844   2.915  16.152  0.2559 -0.0540 -0.9389
 3378SOL    HW121770   1.884   2.971  16.219 -0.4866 -0.1728 -0.4031
 3378SOL    HW221771   1.756   2.909  16.188  1.3879 -1.5937  1.6142
 3379SOL     OW21772   3.937   4.688   2.699 -0.4650 -0.4542 -0.1045
 3379SOL    HW121773   3.871   4.729   2.754  0.3627  0.1615  0.4090
 3379SOL    HW221774   3.961   0.018   2.633 -0.0418  1.1917  1.6610
 3380SOL     OW21775   1.071   1.111   8.854  0.4851 -0.2603 -0.0325
 3380SOL    HW121776   1.139   1.120   8.920  1.1196  2.5596 -1.0724
 3380SOL    HW221777   1.119   1.045   8.803 -0.9521 -2.2315  1.1679
 3381SOL     OW21778   1.270   0.222   3.777  0.1319 -0.3092  0.2508
 3381SOL    HW121779   1.362   0.247   3.777  0.5423 -1.7793 -0.7797
 3381SOL    HW221780   1.257   0.177   3.693 -0.2798 -0.1828  0.2475
 3382SOL     OW21781   1.185   0.994   3.495 -0.2013  0.0659  0.0849
 3382SOL    HW121782   1.191   1.090   3.489  0.2752  0.0600  0.5189
 3382SOL    HW221783   1.102   0.978   3.450  0.3097 -2.9425  0.2348
 3383SOL     OW21784   1.324   3.407  13.251 -0.4423 -0.5743 -0.0200
 3383SOL    HW121785   1.354   3.382  13.339  3.1337 -1.0870 -1.3863
 3383SOL    HW221786   1.386   3.479  13.245  0.0816 -1.3050 -3.2356
 3384SOL     OW21787   1.848   1.424  13.889  0.9976 -0.5702  0.1668
 3384SOL    HW121788   1.890   1.368  13.955  3.4558  1.5007  0.3771
 3384SOL    HW221789   1.810   1.359  13.829  0.9114  0.3649 -0.7877
 3385SOL     OW21790   4.066   4.637   6.550 -0.0756 -0.5491  0.2740
 3385SOL    HW121791   4.123   4.633   6.474 -0.3140  2.2453 -0.0494
 3385SOL    HW221792   4.023   4.719   6.526 -0.8591 -0.4953  1.8807
 3386SOL     OW21793   4.487   1.926   9.047  0.0536  0.0600  0.4731
 3386SOL    HW121794   4.493   2.020   9.030 -0.8401  0.4856  2.5440
 3386SOL    HW221795   4.550   1.892   8.983 -0.4358  3.0282 -1.5724
 3387SOL     OW21796   3.644   3.593   3.387 -0.6069  0.5786 -0.4686
 3387SOL    HW121797   3.672   3.663   3.444  2.2456 -0.8594 -0.1204
 3387SOL    HW221798   3.601   3.532   3.448 -0.8647  1.7041  0.4578
 3388SOL     OW21799   3.786   0.330   2.436 -0.0733 -0.2577  0.0209
 3388SOL    HW121800   3.710   0.372   2.396  0.0012 -1.4234 -1.3635
 3388SOL    HW221801   3.778   0.353   2.528  0.5050 -1.8637  0.4766
 3389SOL     OW21802   0.026   1.617   3.033  0.0108 -0.3583  0.3597
 3389SOL    HW121803   0.037   1.698   2.982  0.7772 -0.7358 -0.0745
 3389SOL    HW221804   0.001   1.551   2.968 -1.2851  0.1995  0.2889
 3390SOL     OW21805   2.915   2.918   8.094  0.2914  0.6820 -0.4517
 3390SOL    HW121806   2.859   2.985   8.134 -1.4079 -0.7297 -0.4642
 3390SOL    HW221807   2.864   2.915   8.013 -0.3658 -0.1432 -0.0138
 3391SOL     OW21808   1.802   0.113   5.860  0.1214 -0.0783 -0.2957
 3391SOL    HW121809   1.711   0.106   5.890  0.4603  1.6068  1.1329
 3391SOL    HW221810   1.846   0.050   5.917  1.6006  1.1693 -0.0582
 3392SOL     OW21811   3.933   0.630   1.568 -0.1277  0.0775  0.2315
 3392SOL    HW121812   3.856   0.626   1.625 -1.3648  0.7371 -1.3849
 3392SOL    HW221813   3.976   0.704   1.611  1.3104 -0.5662 -0.1140
 3393SOL     OW21814   4.154   2.189   2.827 -0.0987 -0.4621 -0.2254
 3393SOL    HW121815   4.096   2.261   2.804  0.6384  0.7399  1.7284
 3393SOL    HW221816   4.122   2.113   2.778  1.1190 -2.0326  1.3667
 3394SOL     OW21817   1.195   1.503  16.292 -0.2534  0.2347  0.3378
 3394SOL    HW121818   1.203   1.411  16.315 -1.5570  0.6400  2.3837
 3394SOL    HW221819   1.224   1.543  16.374  0.3438  0.7512 -0.1267
 3395SOL     OW21820   3.197   3.033   5.219 -0.1908  0.7155  0.2615
 3395SOL    HW121821   3.251   3.090   5.164 -1.4405  1.2243 -0.4485
 3395SOL    HW221822   3.121   3.088   5.239 -0.3859  0.7193 -0.4951
 3396SOL     OW21823   3.659   2.277   2.815 -0.0961 -0.9691  0.3024
 3396SOL    HW121824   3.605   2.216   2.865 -0.7063 -0.9513 -0.3252
 3396SOL    HW221825   3.643   2.358   2.862  2.0855 -0.3644  0.0040
 3397SOL     OW21826   1.477   1.718   1.004 -0.0264 -0.1011 -0.1707
 3397SOL    HW121827   1.535   1.655   1.046  2.5401  0.7327 -2.5007
 3397SOL    HW221828   1.498   1.792   1.062 -2.1034  0.1076  0.3300
 3398SOL     OW21829   3.301   1.747   7.424 -0.0948  1.1588  0.2638
 3398SOL    HW121830   3.305   1.678   7.490  0.2539  2.5650  1.7233
 3398SOL    HW221831   3.226   1.716   7.373  1.2262 -1.9584  0.2582
 3399SOL     OW21832   0.602   4.418  15.374  0.1059  0.4820 -0.2189
 3399SOL    HW121833   0.557   4.469  15.306  0.5968 -1.5553 -2.0723
 3399SOL    HW221834   0.614   4.472  15.451  1.1003 -0.6271  0.4002
 3400SOL     OW21835   0.223   3.147   3.279  0.5887  0.3108 -0.4079
 3400SOL    HW121836   0.274   3.111   3.351 -0.0862  0.1928  0.0015
 3400SOL    HW221837   0.284   3.216   3.251  0.7468 -0.5098 -2.1279
 3401SOL     OW21838   1.533   3.561  15.577  0.4584 -0.0603 -0.5002
 3401SOL    HW121839   1.443   3.578  15.548 -1.1375 -2.5668  2.9215
 3401SOL    HW221840   1.586   3.633  15.542  0.2523  0.4675  0.2512
 3402SOL     OW21841   2.427   3.181   5.722 -0.0617 -0.4750 -0.0981
 3402SOL    HW121842   2.493   3.113   5.712 -0.8817 -1.1602 -0.9020
 3402SOL    HW221843   2.344   3.140   5.700  0.4746 -1.9853  0.7618
 3403SOL     OW21844   3.745   1.400   5.075  0.5395 -0.4751 -0.3181
 3403SOL    HW121845   3.786   1.331   5.126 -2.5004 -2.2967 -0.3925
 3403SOL    HW221846   3.811   1.468   5.091  1.1557 -1.3976  1.0279
 3404SOL     OW21847   2.705   1.378   3.492  0.3865 -0.7885 -0.4069
 3404SOL    HW121848   2.676   1.440   3.559  1.7741 -2.0747  1.3598
 3404SOL    HW221849   2.621   1.341   3.464 -0.6402  0.5157  0.9058
 3405SOL     OW21850   2.179   4.548   8.887  0.6368 -0.0196  0.0508
 3405SOL    HW121851   2.226   4.524   8.968  0.8094 -0.3831 -0.1586
 3405SOL    HW221852   2.100   4.495   8.880  0.9333 -0.4866  0.2248
 3406SOL     OW21853   2.172   2.788   7.562 -0.1194  0.1818  0.5750
 3406SOL    HW121854   2.116   2.731   7.614 -1.3318  0.3922 -0.5110
 3406SOL    HW221855   2.254   2.739   7.559 -0.0082  0.4263 -0.4536
 3407SOL     OW21856   4.375   1.806   1.834  0.3198 -0.3266  0.6084
 3407SOL    HW121857   4.306   1.745   1.807  1.8174 -0.8180 -2.0930
 3407SOL    HW221858   4.324   1.838   1.909  0.8226  1.4538  0.1792
 3408SOL     OW21859   2.797   4.365   4.070  0.7954 -0.4975  0.0982
 3408SOL    HW121860   2.741   4.289   4.084 -3.1175  2.3266 -0.1382
 3408SOL    HW221861   2.740   4.401   4.002 -0.7843  0.3563  1.8697
 3409SOL     OW21862   2.213   1.342   3.262 -0.2677 -0.1931 -0.6549
 3409SOL    HW121863   2.121   1.365   3.254  0.7054  3.0619 -2.5733
 3409SOL    HW221864   2.246   1.369   3.176  0.6943 -0.3556 -0.3397
 3410SOL     OW21865   3.595   2.573  12.890 -0.9604  0.1751 -0.0240
 3410SOL    HW121866   3.671   2.534  12.934 -0.3214  0.6281 -0.7100
 3410SOL    HW221867   3.537   2.605  12.959 -1.3149  2.0136 -1.1641
 3411SOL     OW21868   3.057   1.124   7.871  0.3919 -0.0111 -0.3535
 3411SOL    HW121869   2.964   1.102   7.883  0.1332  1.0511 -0.3658
 3411SOL    HW221870   3.071   1.188   7.941 -1.5799 -0.3333  0.3297
 3412SOL     OW21871   4.073   3.298  17.497 -0.0930  0.2923 -0.2852
 3412SOL    HW121872   4.026   3.382  17.500 -2.7639 -1.1801 -1.1816
 3412SOL    HW221873   4.086   3.283  17.404  0.5173  1.8176 -0.4367
 3413SOL     OW21874   1.302   2.573   4.094 -0.1395 -0.2927 -0.2369
 3413SOL    HW121875   1.380   2.628   4.100  0.0017 -0.4883 -0.2957
 3413SOL    HW221876   1.292   2.528   4.177 -0.3096 -0.3760 -0.3024
 3414SOL     OW21877   0.775   4.253   3.667 -0.2635 -0.3914  0.4778
 3414SOL    HW121878   0.838   4.206   3.613  0.2487  0.9106 -0.0638
 3414SOL    HW221879   0.769   4.201   3.747 -1.5403  0.5970  1.0225
 3415SOL     OW21880   4.502   0.010   4.088 -0.3682 -0.3366 -0.0377
 3415SOL    HW121881   4.573   4.681   4.097  0.3816  0.1744 -2.2861
 3415SOL    HW221882   4.438   4.712   4.151 -0.3531 -1.0160 -0.3690
 3416SOL     OW21883   1.399   4.537   8.483  0.1277  0.4956  0.2230
 3416SOL    HW121884   1.307   4.516   8.470  0.3533 -0.9912  1.0790
 3416SOL    HW221885   1.421   4.485   8.560  1.7609  0.9913  0.1060
 3417SOL     OW21886   0.001   3.738  16.354 -0.6684  0.4384 -0.4115
 3417SOL    HW121887   0.001   3.650  16.318  0.3447  0.4320 -0.4012
 3417SOL    HW221888   4.641   3.755  16.361 -0.8233  0.4952 -2.7395
 3418SOL     OW21889   4.591   0.723   7.899  0.0130  0.7415 -0.7767
 3418SOL    HW121890   4.540   0.683   7.969  1.3223  2.1902  1.0207
 3418SOL    HW221891   4.661   0.762   7.951  2.1708 -1.0628 -2.3305
 3419SOL     OW21892   2.652   3.927   3.747 -0.0721  0.5592  0.0031
 3419SOL    HW121893   2.612   3.906   3.831  1.5047  1.1373  0.8863
 3419SOL    HW221894   2.716   3.855   3.752  1.2823  1.7737  0.1179
 3420SOL     OW21895   1.025   0.515   5.306  0.0139  0.2315  0.4329
 3420SOL    HW121896   1.078   0.574   5.359  0.7699  0.6389 -0.7969
 3420SOL    HW221897   0.935   0.544   5.319 -0.3730  0.0717 -2.0102
 3421SOL     OW21898   4.366   3.752   4.870 -0.4481  0.3421  0.3200
 3421SOL    HW121899   4.346   3.736   4.778  1.6355  0.6572 -0.1652
 3421SOL    HW221900   4.352   3.846   4.874  1.1353  0.5610  0.4664
 3422SOL     OW21901   1.475   3.745   8.594  0.2360 -0.4461  0.2206
 3422SOL    HW121902   1.516   3.681   8.536 -3.9077 -1.9333 -1.0348
 3422SOL    HW221903   1.446   3.692   8.668  1.0050 -1.1614  0.0174
 3423SOL     OW21904   3.264   4.505   8.681 -0.1382 -0.0239 -0.2434
 3423SOL    HW121905   3.321   4.457   8.621  0.5870 -0.2837  0.6535
 3423SOL    HW221906   3.323   4.575   8.708 -0.9467  0.6074 -0.1052
 3424SOL     OW21907   4.296   4.362   9.421 -0.1263  0.8660  0.5014
 3424SOL    HW121908   4.315   4.327   9.334  0.3282 -1.1224  1.4043
 3424SOL    HW221909   4.228   4.424   9.392 -0.5930 -0.2112 -0.7205
 3425SOL     OW21910   3.834   2.215   4.118  0.1354 -0.3806  0.1940
 3425SOL    HW121911   3.828   2.172   4.203  1.3619  0.0225  0.4820
 3425SOL    HW221912   3.897   2.159   4.071 -0.0179  0.0114 -0.4727
 3426SOL     OW21913   3.252   0.811   2.971  0.2712  0.1626  0.7690
 3426SOL    HW121914   3.342   0.780   2.967 -0.2657 -1.0420 -2.0049
 3426SOL    HW221915   3.241   0.807   2.876 -0.4067  1.5108  0.7962
 3427SOL     OW21916   2.874   4.255   0.317 -0.2938  0.3199 -0.2029
 3427SOL    HW121917   2.813   4.199   0.269 -2.3447  2.0119  0.4166
 3427SOL    HW221918   2.811   4.312   0.362 -0.1206 -0.1834  0.6793
 3428SOL     OW21919   2.879   0.983  15.920  0.3510 -0.1403 -0.3339
 3428SOL    HW121920   2.865   0.905  15.866  0.7386 -0.7173  0.4058
 3428SOL    HW221921   2.808   1.039  15.888  3.0873  2.9410 -1.0470
 3429SOL     OW21922   4.367   4.332   4.812 -0.3423  0.1499  0.0636
 3429SOL    HW121923   4.439   4.395   4.819 -0.6542  0.2861  2.0287
 3429SOL    HW221924   4.393   4.260   4.869  0.3156  1.8034  1.8725
 3430SOL     OW21925   3.675   2.779  12.330  0.2251 -1.0041  0.0908
 3430SOL    HW121926   3.603   2.759  12.271 -0.7623  0.9933  0.6229
 3430SOL    HW221927   3.679   2.692  12.370  1.6640 -0.7344  0.5270
 3431SOL     OW21928   2.587   4.153   7.738  0.5187  0.1802  0.6945
 3431SOL    HW121929   2.638   4.072   7.739 -0.1952 -0.2681  0.6264
 3431SOL    HW221930   2.563   4.157   7.645 -1.1727  1.1231  1.1642
 3432SOL     OW21931   4.519   1.418   6.026 -0.3670  0.0007 -0.1235
 3432SOL    HW121932   4.474   1.451   6.104 -0.7317 -0.4252 -0.1590
 3432SOL    HW221933   4.447   1.390   5.970  2.6101 -0.6942 -3.6294
 3433SOL     OW21934   2.934   2.923   8.816 -0.0926 -0.2464  0.2983
 3433SOL    HW121935   2.890   2.843   8.788  0.0204 -0.5107  0.8864
 3433SOL    HW221936   2.863   2.982   8.791 -1.6651 -1.9893  0.6858
 3434SOL     OW21937   4.673   0.453  15.268 -0.4727  0.1939 -0.3062
 3434SOL    HW121938   4.690   0.397  15.344 -2.3255  1.1362  0.7967
 3434SOL    HW221939   4.726   0.404  15.205 -2.0581 -1.0941 -0.6335
 3435SOL     OW21940   1.702   3.174   6.021  0.2527  0.0027 -0.8125
 3435SOL    HW121941   1.609   3.171   6.046  0.4522 -0.2827 -0.1056
 3435SOL    HW221942   1.755   3.139   6.093  1.3571 -1.3979 -2.2893
 3436SOL     OW21943   2.685   1.100   6.566  0.6447  0.5692  0.6035
 3436SOL    HW121944   2.695   1.141   6.652  1.0394  1.1846  0.2730
 3436SOL    HW221945   2.713   1.177   6.516  0.6502  0.3022  0.1914
 3437SOL     OW21946   2.318   0.887   6.582 -0.2616 -0.4544 -0.4205
 3437SOL    HW121947   2.252   0.956   6.594  0.0359 -0.3828  0.7677
 3437SOL    HW221948   2.275   0.804   6.602 -2.0553  0.5814  0.0281
 3438SOL     OW21949   3.509   2.331  14.645 -0.0870 -0.0086 -0.4152
 3438SOL    HW121950   3.483   2.279  14.569  0.9608 -0.8749 -0.1712
 3438SOL    HW221951   3.441   2.296  14.703  0.0913  0.4530  0.0763
 3439SOL     OW21952   3.423   3.595   2.155 -0.4180 -0.4163  0.0878
 3439SOL    HW121953   3.516   3.609   2.173 -0.0322 -1.7873 -0.8504
 3439SOL    HW221954   3.391   3.685   2.146  2.1646  0.3935 -0.9189
 3440SOL     OW21955   3.593   3.226   5.404  0.1754  0.2281  0.1293
 3440SOL    HW121956   3.507   3.210   5.443  0.3298 -0.4058  0.2169
 3440SOL    HW221957   3.581   3.301   5.346  0.5668  1.0452  1.1153
 3441SOL     OW21958   1.105   1.972   0.087 -0.2128  0.3262  0.1225
 3441SOL    HW121959   1.093   1.891   0.138 -0.2442  0.4214  0.2648
 3441SOL    HW221960   1.172   1.949   0.023  1.2611  3.3913  0.5958
 3442SOL     OW21961   2.727   4.116  16.898  0.0319 -0.3424  0.2401
 3442SOL    HW121962   2.655   4.054  16.904 -1.0235  0.7204 -1.6466
 3442SOL    HW221963   2.764   4.079  16.818 -1.4450  0.2030 -0.6959
 3443SOL     OW21964   3.900   1.116   6.853  0.3153 -0.2116 -0.5506
 3443SOL    HW121965   3.932   1.051   6.791 -2.5268 -0.1065 -2.1584
 3443SOL    HW221966   3.858   1.184   6.799  0.2783  1.0347  1.0534
 3444SOL     OW21967   0.157   3.674   9.144  0.2197  0.1366 -0.4024
 3444SOL    HW121968   0.243   3.644   9.115  0.7821  0.9583  0.4248
 3444SOL    HW221969   0.144   3.628   9.227  0.0720  0.2767 -0.3466
 3445SOL     OW21970   2.691   1.002   6.860 -0.2241 -0.1434  0.0894
 3445SOL    HW121971   2.603   1.033   6.838  0.1416  0.7053 -0.1594
 3445SOL    HW221972   2.730   1.069   6.917  1.9188 -0.6649 -0.7865
 3446SOL     OW21973   3.484   3.069   4.455 -0.1372 -0.3500 -0.1243
 3446SOL    HW121974   3.389   3.067   4.467 -0.0753  0.0256  0.4205
 3446SOL    HW221975   3.512   2.982   4.485 -0.2589 -0.5013 -0.4585
 3447SOL     OW21976   3.837   1.096   0.970  0.2118  0.0269  0.2436
 3447SOL    HW121977   3.879   1.178   0.943 -1.3756 -0.2078 -2.9333
 3447SOL    HW221978   3.759   1.133   1.011 -0.7929 -2.7590  0.7891
 3448SOL     OW21979   2.585   3.426   2.383  0.6437  0.8272 -0.3700
 3448SOL    HW121980   2.591   3.428   2.288 -1.9118  1.6735 -0.5144
 3448SOL    HW221981   2.514   3.363   2.393 -0.2157  1.5822 -1.7005
 3449SOL     OW21982   3.143   4.119   2.163  0.1439 -0.4589 -0.8755
 3449SOL    HW121983   3.174   4.062   2.234 -2.2842 -0.5746  0.1188
 3449SOL    HW221984   3.213   4.098   2.102 -0.6185  0.2162 -1.9679
 3450SOL     OW21985   1.749   3.428  13.318 -0.2168  0.4933 -0.5140
 3450SOL    HW121986   1.743   3.385  13.403  0.1590 -0.8859 -1.1807
 3450SOL    HW221987   1.823   3.380  13.279  0.6123  1.4538 -0.1247
 3451SOL     OW21988   3.891   3.113   8.452 -0.7542 -0.1560  0.1158
 3451SOL    HW121989   3.850   3.197   8.470 -0.2335  0.5012 -1.6869
 3451SOL    HW221990   3.950   3.106   8.527 -1.3593 -2.9069  0.3518
 3452SOL     OW21991   0.673   0.083   7.298  0.0531 -0.7491 -0.2413
 3452SOL    HW121992   0.676   0.174   7.327  1.3147 -1.4369  1.8155
 3452SOL    HW221993   0.581   0.060   7.290 -0.4274  1.7215 -1.7433
 3453SOL     OW21994   1.462   3.168  11.137  0.3153  0.2753  0.5227
 3453SOL    HW121995   1.406   3.120  11.198 -1.1041  0.5003 -0.6123
 3453SOL    HW221996   1.526   3.106  11.100 -0.5566 -2.2148  3.2202
 3454SOL     OW21997   0.425   1.649  11.188 -0.1218  0.2045 -0.3962
 3454SOL    HW121998   0.435   1.690  11.103 -0.0859  1.6591  0.3161
 3454SOL    HW221999   0.482   1.573  11.174  0.7171  0.6704  0.4118
 3455SOL     OW22000   4.120   2.211   4.686  0.5223 -0.5854 -0.1305
 3455SOL    HW122001   4.181   2.250   4.749  3.2316  0.2286 -3.2855
 3455SOL    HW222002   4.167   2.137   4.648  3.2122 -0.2779  2.6073
 3456SOL     OW22003   4.181   2.287  14.982 -0.0425 -0.4049 -0.5768
 3456SOL    HW122004   4.261   2.293  15.035 -0.3894 -0.9153  0.0043
 3456SOL    HW222005   4.212   2.337  14.906  1.0773 -0.2827 -0.0297
 3457SOL     OW22006   3.301   3.475   5.611 -0.0007  0.2381 -0.1760
 3457SOL    HW122007   3.323   3.382   5.615  2.6893  0.9041  0.8050
 3457SOL    HW222008   3.269   3.486   5.700 -0.7623  1.0719 -0.5573
 3458SOL     OW22009   4.121   3.753  16.896 -0.4367  0.2689 -0.0176
 3458SOL    HW122010   4.195   3.776  16.839  0.0002 -1.1552 -0.0273
 3458SOL    HW222011   4.139   3.814  16.967 -1.3792  0.6237 -0.0876
 3459SOL     OW22012   3.238   4.277   6.489 -0.5085 -0.1444  0.1657
 3459SOL    HW122013   3.334   4.280   6.489 -0.5679  1.5926  0.8394
 3459SOL    HW222014   3.228   4.208   6.555  0.1518 -0.0759  0.3401
 3460SOL     OW22015   1.928   1.035   2.722 -0.1648 -0.1271  0.5316
 3460SOL    HW122016   1.976   1.058   2.642 -0.8200 -1.7426 -0.3352
 3460SOL    HW222017   1.987   1.046   2.796 -1.4058 -1.5422  1.7091
 3461SOL     OW22018   3.441   0.949  11.778  0.2833  0.3971 -0.0985
 3461SOL    HW122019   3.456   0.923  11.687 -1.2132 -0.3721 -0.1166
 3461SOL    HW222020   3.390   1.029  11.766 -3.2628 -1.7085  0.9357
 3462SOL     OW22021   3.045   4.385   9.151 -0.2828 -0.7338 -0.2417
 3462SOL    HW122022   3.084   4.376   9.065  0.1145 -0.3137 -0.1083
 3462SOL    HW222023   2.952   4.387   9.128 -0.3055  0.2437 -0.0921
 3463SOL     OW22024   2.784   3.320   8.061 -0.2461 -0.0936  0.1604
 3463SOL    HW122025   2.797   3.352   7.972 -2.2454  0.3696  0.0298
 3463SOL    HW222026   2.832   3.386   8.112  1.3259 -0.6933 -0.5560
 3464SOL     OW22027   3.457   0.441   1.918 -0.3451  0.0658  0.3904
 3464SOL    HW122028   3.516   0.380   1.964  1.8777  3.7403  2.3832
 3464SOL    HW222029   3.473   0.402   1.832  0.6012  0.3109  0.4603
 3465SOL     OW22030   3.580   0.500   8.174 -0.6972  0.1058 -0.2597
 3465SOL    HW122031   3.518   0.517   8.104  0.5674  2.4907 -0.7981
 3465SOL    HW222032   3.568   0.578   8.229  0.4145 -0.3642  0.6573
 3466SOL     OW22033   0.153   2.532   2.581 -0.4843 -0.2693  0.1466
 3466SOL    HW122034   0.149   2.437   2.570  3.2976 -0.1739 -1.9056
 3466SOL    HW222035   0.177   2.563   2.494  0.3956 -1.6750 -0.1120
 3467SOL     OW22036   0.506   2.111   4.880 -0.0726 -0.1776 -0.3768
 3467SOL    HW122037   0.597   2.133   4.901 -0.1386 -0.0333 -0.2503
 3467SOL    HW222038   0.464   2.186   4.837  1.0252  1.0543  0.6914
 3468SOL     OW22039   1.789   2.636   7.070 -0.4384 -0.2487 -0.0894
 3468SOL    HW122040   1.735   2.582   7.127  0.2087  1.5366  2.1852
 3468SOL    HW222041   1.753   2.720   7.096 -1.0583 -0.8868  1.0973
 3469SOL     OW22042   1.602   2.401  10.087 -0.8765 -0.3451 -0.4380
 3469SOL    HW122043   1.661   2.373  10.157 -2.5446  0.7871  1.3978
 3469SOL    HW222044   1.541   2.446  10.146 -0.1056  0.0805  0.0378
 3470SOL     OW22045   0.937   3.771   0.911 -0.7251 -0.0590  0.0690
 3470SOL    HW122046   1.016   3.762   0.858 -1.2265  0.4364 -0.7763
 3470SOL    HW222047   0.929   3.866   0.913  1.7156  0.1273  0.4723
 3471SOL     OW22048   1.580   2.142   6.414  0.6716  0.0368  0.4811
 3471SOL    HW122049   1.504   2.191   6.448  1.1335  1.1027 -0.0283
 3471SOL    HW222050   1.587   2.074   6.481 -1.1955 -0.1497  0.5101
 3472SOL     OW22051   4.715   0.907  17.102 -0.2571  0.3753  0.2702
 3472SOL    HW122052   0.022   0.903  17.016  0.5737 -0.2430  0.6905
 3472SOL    HW222053   4.730   0.822  17.143  1.3461 -0.2835 -1.6721
 3473SOL     OW22054   0.952   2.676   7.636  0.0614 -0.4383  0.3276
 3473SOL    HW122055   0.990   2.708   7.718 -1.0987 -1.5892  1.3084
 3473SOL    HW222056   0.858   2.682   7.651  0.1003 -0.6767  0.6527
 3474SOL     OW22057   1.506   0.864   1.617 -0.0335 -0.6164 -0.3420
 3474SOL    HW122058   1.453   0.934   1.579 -1.5509 -2.7724 -2.1609
 3474SOL    HW222059   1.525   0.803   1.546  1.0568 -0.7052  0.0270
 3475SOL     OW22060   4.273   1.718  14.949 -0.2872  0.0351  0.0982
 3475SOL    HW122061   4.301   1.778  15.018  0.0665 -1.0010  0.8702
 3475SOL    HW222062   4.348   1.730  14.891  0.3418 -2.1730  0.4221
 3476SOL     OW22063   3.939   0.253   4.662 -0.3879  0.1895 -0.2006
 3476SOL    HW122064   3.962   0.261   4.755 -1.1030  2.3830 -0.1951
 3476SOL    HW222065   3.870   0.188   4.666  1.3281 -1.7034 -1.8620
 3477SOL     OW22066   2.411   0.381   9.102 -0.0853  0.1159 -0.1053
 3477SOL    HW122067   2.399   0.366   9.008 -0.8629  0.9457 -0.1391
 3477SOL    HW222068   2.494   0.338   9.124  0.9374  2.8768  1.4643
 3478SOL     OW22069   2.368   1.593   0.432 -0.3248 -0.3102  0.0001
 3478SOL    HW122070   2.357   1.681   0.467 -0.1330 -0.4320  0.3652
 3478SOL    HW222071   2.460   1.604   0.409 -0.4935  0.7704 -0.1648
 3479SOL     OW22072   3.650   0.526   9.571  0.2965  0.4791  0.1886
 3479SOL    HW122073   3.660   0.432   9.558  0.6790  0.8556 -2.3442
 3479SOL    HW222074   3.612   0.538   9.658 -0.3861 -2.1733  0.2339
 3480SOL     OW22075   0.850   3.637  10.026 -0.2791 -0.5175  0.5396
 3480SOL    HW122076   0.896   3.606   9.948 -0.1322 -1.1162  0.8671
 3480SOL    HW222077   0.928   3.660  10.077  0.1687 -0.0377 -0.3628
 3481SOL     OW22078   1.252   2.093   2.967 -0.3906 -0.1362  0.3576
 3481SOL    HW122079   1.282   2.093   2.876  2.0153  3.1806  1.1352
 3481SOL    HW222080   1.308   2.162   3.004 -0.5012  1.1560 -1.8782
 3482SOL     OW22081   1.219   2.706   5.259 -0.2767 -0.7368 -0.3480
 3482SOL    HW122082   1.285   2.707   5.329 -1.7820 -2.1065  1.0640
 3482SOL    HW222083   1.163   2.781   5.281  0.3296 -0.3777 -0.0123
 3483SOL     OW22084   3.441   2.165   7.273 -0.3058  0.1522 -0.9529
 3483SOL    HW122085   3.447   2.250   7.317 -1.3815 -0.5663  0.5904
 3483SOL    HW222086   3.497   2.182   7.197  2.2565  1.0821  1.1398
 3484SOL     OW22087   4.611   2.512  11.758 -0.2030 -0.3213  0.4034
 3484SOL    HW122088   4.586   2.437  11.704 -0.8785  0.0540  0.1918
 3484SOL    HW222089   4.686   2.546  11.710 -1.3763  0.7370 -0.7066
 3485SOL     OW22090   3.740   2.391   6.285  0.1123  0.7726 -0.1935
 3485SOL    HW122091   3.808   2.427   6.341 -1.5579 -0.8469  2.9281
 3485SOL    HW222092   3.778   2.416   6.201 -1.1408 -0.8911 -1.2655
 3486SOL     OW22093   2.443   2.949  17.637 -0.4939  0.8392  0.1482
 3486SOL    HW122094   2.364   2.896  17.646  0.1003 -0.0093  0.4695
 3486SOL    HW222095   2.511   2.889  17.668 -0.5327  0.7921  0.1421
 3487SOL     OW22096   3.478   4.312  16.434  0.2468  0.5750 -0.1410
 3487SOL    HW122097   3.397   4.327  16.482 -0.6140 -1.0131 -1.1149
 3487SOL    HW222098   3.515   4.247  16.493 -0.7488  0.3226  0.2069
 3488SOL     OW22099   1.457   2.669   2.829  0.1859  0.3586 -0.6380
 3488SOL    HW122100   1.460   2.761   2.856 -1.3789  0.1008  0.4136
 3488SOL    HW222101   1.547   2.638   2.819  0.2003 -0.4236  1.9169
 3489SOL     OW22102   1.678   2.610   5.273  0.4536  0.5151  0.0921
 3489SOL    HW122103   1.680   2.586   5.366  0.5725 -1.8136 -0.5282
 3489SOL    HW222104   1.722   2.695   5.276  2.1219 -0.3983  1.4733
 3490SOL     OW22105   1.260   1.947   7.892 -0.6333  0.9058  0.2002
 3490SOL    HW122106   1.298   1.912   7.811 -1.4855 -0.1855  0.2927
 3490SOL    HW222107   1.175   1.903   7.891 -1.5091  2.6066 -0.5729
 3491SOL     OW22108   4.621   1.925   8.447 -0.1837 -0.1515  0.2059
 3491SOL    HW122109   4.698   1.980   8.460 -1.4672  2.1191 -1.6663
 3491SOL    HW222110   4.632   1.895   8.357  0.1886  3.2006 -0.8749
 3492SOL     OW22111   0.920   1.528  11.158 -0.0750 -0.0556  0.6407
 3492SOL    HW122112   0.896   1.560  11.245 -1.3067 -0.5667  0.4834
 3492SOL    HW222113   1.014   1.547  11.160 -0.2688  0.9141  0.6333
 3493SOL     OW22114   1.611   1.296   4.411  0.4741 -0.2261  0.4328
 3493SOL    HW122115   1.657   1.376   4.437 -1.4466  0.5154  1.4953
 3493SOL    HW222116   1.644   1.285   4.321 -1.1192 -2.9808  0.1660
 3494SOL     OW22117   3.100   0.657   7.360 -0.3101 -0.2939 -0.0282
 3494SOL    HW122118   3.119   0.684   7.450 -2.0106  2.0198 -0.3545
 3494SOL    HW222119   3.127   0.566   7.369 -0.7446 -0.5546 -1.3757
 3495SOL     OW22120   2.469   0.949   2.112  0.5242  0.1752 -0.5373
 3495SOL    HW122121   2.475   0.983   2.201 -1.9943  2.7044 -1.3301
 3495SOL    HW222122   2.374   0.948   2.103  0.2345  1.6867  2.4109
 3496SOL     OW22123   0.533   1.695  10.519 -0.5330  0.2044  0.0815
 3496SOL    HW122124   0.522   1.788  10.500  0.4419  0.4193  0.5574
 3496SOL    HW222125   0.482   1.699  10.600  0.8097  1.8139  0.8345
 3497SOL     OW22126   4.683   0.131   7.359 -0.3504  0.0699  0.0256
 3497SOL    HW122127   4.686   0.226   7.370 -1.2165  0.3723 -2.3478
 3497SOL    HW222128   4.626   0.125   7.283 -1.1086  1.1763  0.5063
 3498SOL     OW22129   0.873   0.388   7.235 -0.7058 -0.4867 -0.2503
 3498SOL    HW122130   0.803   0.362   7.295 -0.7971  1.0871  0.3331
 3498SOL    HW222131   0.942   0.427   7.288 -0.9416 -1.6138  0.8995
 3499SOL     OW22132   2.929   0.532  14.125 -0.8455  0.0335 -0.4905
 3499SOL    HW122133   2.989   0.468  14.088 -0.7408 -1.0211  1.5373
 3499SOL    HW222134   2.858   0.524  14.060 -0.7161 -0.6439 -0.5431
 3500SOL     OW22135   3.759   2.697  13.146  0.3777 -0.3853  0.4141
 3500SOL    HW122136   3.756   2.629  13.078  0.8716  0.4283 -0.4130
 3500SOL    HW222137   3.733   2.774  13.095 -2.0826 -1.9428 -0.7133
 3501SOL     OW22138   1.830   0.874   8.513 -0.1442 -0.5252  0.4050
 3501SOL    HW122139   1.880   0.861   8.433 -1.0950  0.2777 -0.3121
 3501SOL    HW222140   1.904   0.861   8.572 -0.9812 -0.6928  1.4219
 3502SOL     OW22141   0.115   3.232   8.083  0.5300  0.2960 -0.2210
 3502SOL    HW122142   0.041   3.222   8.023 -0.1276  1.7336  0.3327
 3502SOL    HW222143   0.082   3.250   8.171 -0.1129 -3.2665  0.2659
 3503SOL     OW22144   1.368   3.218  14.043 -0.1272  0.2344  0.5052
 3503SOL    HW122145   1.442   3.157  14.038 -1.2559 -1.1840  1.0819
 3503SOL    HW222146   1.374   3.241  13.950 -0.2318  1.1863  0.7405
 3504SOL     OW22147   2.045   1.949   4.914 -0.0135 -0.1426 -0.6419
 3504SOL    HW122148   1.972   1.930   4.855  0.0699  1.5418 -1.2960
 3504SOL    HW222149   2.114   1.978   4.855  0.9825 -1.3706 -0.0646
 3505SOL     OW22150   4.224   1.272   4.850  0.4453 -0.7170 -0.3605
 3505SOL    HW122151   4.258   1.265   4.761  0.9490 -2.1449 -0.0496
 3505SOL    HW222152   4.305   1.288   4.898  0.9476 -1.2967 -1.0108
 3506SOL     OW22153   1.197   3.305   8.546 -0.0638 -0.9527  0.0255
 3506SOL    HW122154   1.168   3.384   8.500  1.8432  0.3761  1.1299
 3506SOL    HW222155   1.126   3.276   8.604 -0.0607 -1.5633 -0.2787
 3507SOL     OW22156   4.081   3.303  12.001 -0.1077  0.1196  0.1856
 3507SOL    HW122157   4.003   3.324  12.052 -1.4626  0.0005 -1.8396
 3507SOL    HW222158   4.048   3.242  11.935  2.2957 -2.4618  1.3510
 3508SOL     OW22159   2.798   1.934   4.498 -0.1102 -0.3449 -0.3096
 3508SOL    HW122160   2.742   2.000   4.457  0.5126  0.1258 -0.4192
 3508SOL    HW222161   2.750   1.857   4.469  1.2377 -0.9366 -0.9974
 3509SOL     OW22162   1.321   1.114   7.002 -0.2814  0.5486  0.4094
 3509SOL    HW122163   1.245   1.166   6.978 -1.6089 -2.3729 -1.7531
 3509SOL    HW222164   1.288   1.024   7.002  2.0743 -0.3181  0.5819
 3510SOL     OW22165   1.073   0.131   1.985  0.2711 -0.0861  0.1850
 3510SOL    HW122166   1.102   0.205   1.931  1.0446 -0.2207  0.4062
 3510SOL    HW222167   1.112   0.055   1.942  2.2157  2.6314 -2.9217
 3511SOL     OW22168   0.240   1.193   6.223 -0.1813  0.2006  0.4858
 3511SOL    HW122169   0.169   1.132   6.203 -1.4407  1.0420  2.3270
 3511SOL    HW222170   0.197   1.264   6.272  0.8208  0.2905  1.2386
 3512SOL     OW22171   0.974   0.771   6.669 -0.0788  0.0955  0.1565
 3512SOL    HW122172   0.960   0.862   6.642 -0.1556 -0.2432 -0.9413
 3512SOL    HW222173   1.070   0.768   6.675  0.1638  2.3396 -2.7016
 3513SOL     OW22174   2.776   0.364   2.255  0.3833  0.3263 -0.2126
 3513SOL    HW122175   2.752   0.357   2.347 -0.7941  0.0202 -0.5482
 3513SOL    HW222176   2.869   0.386   2.266  0.0322  1.6114  0.1408
 3514SOL     OW22177   0.563   2.141  11.430 -0.6592  0.4978 -0.2346
 3514SOL    HW122178   0.504   2.097  11.370  1.4788 -2.4723 -0.1605
 3514SOL    HW222179   0.514   2.144  11.512 -1.1685  1.0309 -0.5604
 3515SOL     OW22180   4.274   3.920   1.718  0.0424 -0.3380 -0.4177
 3515SOL    HW122181   4.222   3.960   1.788 -0.0520  1.5808 -1.5800
 3515SOL    HW222182   4.202   3.930   1.656 -0.3934  4.5091  0.8519
 3516SOL     OW22183   1.494   2.946   8.412  0.2969  0.0360  0.6335
 3516SOL    HW122184   1.569   2.964   8.470  0.2609 -0.3493  0.7996
 3516SOL    HW222185   1.548   2.929   8.334 -1.0867 -1.0939 -0.0753
 3517SOL     OW22186   2.709   4.179   3.495  0.1348 -0.2794 -0.2155
 3517SOL    HW122187   2.709   4.269   3.462  0.3127  0.2082  1.1089
 3517SOL    HW222188   2.790   4.141   3.459 -1.0623 -3.2059  0.2380
 3518SOL     OW22189   2.149   2.893  16.796  0.2570  0.2927 -0.0844
 3518SOL    HW122190   2.148   2.925  16.887  1.4881 -0.6473  0.2655
 3518SOL    HW222191   2.169   2.966  16.737 -1.8142  3.3047  2.8903
 3519SOL     OW22192   1.054   0.610  16.651  0.3252  0.2593  0.2355
 3519SOL    HW122193   0.983   0.644  16.704  2.5582  1.9440  2.1324
 3519SOL    HW222194   1.109   0.586  16.726 -0.8312  0.3175  1.1032
 3520SOL     OW22195   1.001   4.257  16.094 -0.2384  0.3137  0.4546
 3520SOL    HW122196   0.946   4.321  16.050  0.6837  1.3263  0.7818
 3520SOL    HW222197   0.976   4.181  16.042  0.2917  0.0782  0.5413
 3521SOL     OW22198   3.696   3.299   8.652  0.7161 -0.3824 -0.0367
 3521SOL    HW122199   3.734   3.371   8.601 -0.1180 -0.2848 -0.5301
 3521SOL    HW222200   3.626   3.347   8.695  1.9100  0.3851  1.0267
 3522SOL     OW22201   2.974   2.571   3.456 -0.4172  0.0710 -0.3616
 3522SOL    HW122202   2.974   2.478   3.433  0.2903  0.6889 -2.9131
 3522SOL    HW222203   3.017   2.599   3.375  2.5789 -0.4280  1.0734
 3523SOL     OW22204   0.873   3.333   4.940  0.1338 -0.0093 -0.0689
 3523SOL    HW122205   0.963   3.308   4.961  0.3443  0.6565 -0.1907
 3523SOL    HW222206   0.821   3.350   5.018 -0.3965 -1.2438 -0.1484
 3524SOL     OW22207   4.223   1.489   5.995 -0.6278  0.0490 -0.0556
 3524SOL    HW122208   4.241   1.419   5.931  0.5461  0.6562 -0.3892
 3524SOL    HW222209   4.196   1.437   6.071 -0.1891 -0.1603 -0.0433
 3525SOL     OW22210   0.881   3.362   3.291  0.1623 -0.1941  0.5575
 3525SOL    HW122211   0.896   3.335   3.201 -2.2043  1.3889 -0.2996
 3525SOL    HW222212   0.863   3.278   3.334 -0.2330 -1.1653 -1.5359
 3526SOL     OW22213   0.964   1.689   5.945  0.3071  0.2205  0.0432
 3526SOL    HW122214   0.968   1.663   6.037  1.6598  0.4172  0.0460
 3526SOL    HW222215   1.029   1.628   5.910  1.8921  1.4786  0.7984
 3527SOL     OW22216   1.191   2.111   8.863  0.3185  0.2278  0.5078
 3527SOL    HW122217   1.232   2.047   8.922  0.2522 -2.3902 -2.2686
 3527SOL    HW222218   1.169   2.052   8.791 -0.0810  1.9213 -0.7627
 3528SOL     OW22219   4.337   2.426   1.798 -0.4796  0.0740  0.0444
 3528SOL    HW122220   4.429   2.403   1.817 -0.2962  1.4647  0.8270
 3528SOL    HW222221   4.305   2.343   1.764  0.8035 -1.6515  2.9536
 3529SOL     OW22222   0.861   3.183   6.419  0.4607  0.0353 -0.3227
 3529SOL    HW122223   0.842   3.092   6.396 -0.1784  1.1867 -4.3884
 3529SOL    HW222224   0.807   3.225   6.352 -1.2415 -2.2329 -0.3772
 3530SOL     OW22225   0.338   3.209   4.303 -0.4087 -0.5860  0.3475
 3530SOL    HW122226   0.414   3.221   4.246 -0.2110 -1.6893  0.3736
 3530SOL    HW222227   0.272   3.269   4.267 -0.5273 -0.7481  0.2915
 3531SOL     OW22228   3.698   3.290   7.225 -0.5264 -0.1175 -0.1293
 3531SOL    HW122229   3.713   3.198   7.205  0.4578 -0.1212  0.6182
 3531SOL    HW222230   3.721   3.331   7.141  0.7049 -0.3779  0.0970
 3532SOL     OW22231   1.543   3.974   7.848 -0.6456  0.3804 -0.1079
 3532SOL    HW122232   1.471   3.983   7.785 -1.8029 -1.5134  0.9469
 3532SOL    HW222233   1.519   3.894   7.895  0.4433 -0.4636 -0.9769
 3533SOL     OW22234   4.730   2.121  15.673  0.1315 -0.4059 -0.3810
 3533SOL    HW122235   0.020   2.212  15.687  0.5169 -0.6431  0.4763
 3533SOL    HW222236   4.678   2.107  15.753 -1.0309 -1.5068 -1.3171
 3534SOL     OW22237   1.934   4.258   6.874 -0.2281 -0.2977  0.3322
 3534SOL    HW122238   1.904   4.175   6.911  0.7327 -0.6132  0.4274
 3534SOL    HW222239   1.873   4.323   6.907 -1.8574 -1.2780 -0.7795
 3535SOL     OW22240   4.177   3.944  17.073 -0.4315  0.1472  0.1024
 3535SOL    HW122241   4.267   3.957  17.043 -1.3532  2.0422 -1.8289
 3535SOL    HW222242   4.127   4.017  17.036 -0.4223 -0.6722 -1.5077
 3536SOL     OW22243   1.656   0.877  14.696 -0.2509 -0.2178 -0.7569
 3536SOL    HW122244   1.683   0.968  14.694  0.8562 -0.5194  0.2851
 3536SOL    HW222245   1.568   0.882  14.735  0.0047 -0.2490 -0.1773
 3537SOL     OW22246   2.925   2.162  11.499  0.4202 -0.0656  0.0976
 3537SOL    HW122247   2.907   2.227  11.432  0.8210  0.1375  0.1833
 3537SOL    HW222248   2.842   2.153  11.545  0.2765  1.0889  0.0559
 3538SOL     OW22249   0.530   1.083   6.524  0.0461  0.2436 -0.0128
 3538SOL    HW122250   0.575   1.035   6.595 -0.1636  0.3155  0.1698
 3538SOL    HW222251   0.457   1.023   6.512  1.5151 -1.6999  0.6613
 3539SOL     OW22252   0.940   1.090   9.589 -0.4493  0.1007 -0.5111
 3539SOL    HW122253   0.900   1.168   9.629 -0.5863 -0.5725  0.6508
 3539SOL    HW222254   0.954   1.047   9.674  3.0256  2.3372  0.0620
 3540SOL     OW22255   4.627   1.033   7.491  0.0091  0.8058 -0.0076
 3540SOL    HW122256   4.653   0.941   7.480 -1.2319  0.2762  1.4271
 3540SOL    HW222257   4.598   1.045   7.582  1.0477 -0.8850  0.5531
 3541SOL     OW22258   0.957   1.875   5.319 -0.1246  0.2225 -0.1337
 3541SOL    HW122259   0.979   1.796   5.369 -0.6662 -1.0455 -1.9155
 3541SOL    HW222260   1.035   1.929   5.319  0.3678 -0.4740  0.6955
 3542SOL     OW22261   2.765   1.848   3.770 -0.7968  0.2307 -0.4183
 3542SOL    HW122262   2.820   1.843   3.848  1.8846  3.1824 -2.1165
 3542SOL    HW222263   2.706   1.921   3.789 -0.8596 -0.2651  1.3105
 3543SOL     OW22264   2.294   2.855   5.973 -0.2377 -0.1669 -0.2231
 3543SOL    HW122265   2.234   2.922   5.940 -0.3512  0.7877  1.9318
 3543SOL    HW222266   2.379   2.900   5.973 -0.2235 -0.1883 -2.8441
 3544SOL     OW22267   2.091   0.904  12.298 -0.6404 -0.0383 -0.1737
 3544SOL    HW122268   2.014   0.868  12.255 -0.3665 -0.6664 -0.1328
 3544SOL    HW222269   2.043   0.958  12.362 -0.4432  1.0565 -0.9526
 3545SOL     OW22270   4.226   0.532   9.650 -0.2118  0.4366 -0.4871
 3545SOL    HW122271   4.271   0.547   9.567  0.1799  0.5454 -0.2568
 3545SOL    HW222272   4.152   0.591   9.634 -0.7169  0.1760  0.9224
 3546SOL     OW22273   3.125   4.549   2.252  0.2870  0.1908  0.0587
 3546SOL    HW122274   3.084   4.606   2.188  1.2108  1.2421  0.3892
 3546SOL    HW222275   3.105   4.463   2.217 -2.4076  1.1480 -0.7399
 3547SOL     OW22276   2.319   4.354   2.648 -0.3342 -0.1322 -0.0964
 3547SOL    HW122277   2.365   4.395   2.574  0.4914  1.1661  1.1418
 3547SOL    HW222278   2.260   4.291   2.606  0.6474 -0.4628 -1.0075
 3548SOL     OW22279   0.186   3.247   8.363 -0.3689  0.5264 -0.0688
 3548SOL    HW122280   0.235   3.325   8.337 -0.0810  1.3119  2.8583
 3548SOL    HW222281   0.108   3.282   8.405  0.4749  2.3569 -0.0292
 3549SOL     OW22282   0.093   2.386   7.480 -0.0681  0.3249  0.4590
 3549SOL    HW122283   0.028   2.422   7.541 -0.5773 -1.4475  0.9528
 3549SOL    HW222284   0.177   2.413   7.519  0.3033  2.2957 -1.7131
 3550SOL     OW22285   2.615   4.059   9.804  0.5565  0.2900 -0.5424
 3550SOL    HW122286   2.671   4.005   9.859 -2.1464 -0.2425  1.6893
 3550SOL    HW222287   2.581   4.127   9.862  0.9488 -0.6713  0.7939
 3551SOL     OW22288   3.668   4.318   0.394 -0.0058 -0.0254 -0.1558
 3551SOL    HW122289   3.606   4.263   0.443  2.3965 -2.5078  0.0553
 3551SOL    HW222290   3.609   4.329   0.320  2.0589  2.4018 -1.4244
 3552SOL     OW22291   4.223   3.741   5.989  0.0427  0.8132 -0.1746
 3552SOL    HW122292   4.243   3.647   5.988  1.8275  1.2059 -0.6912
 3552SOL    HW222293   4.291   3.769   5.928 -0.4690  3.1152  0.3253
 3553SOL     OW22294   2.574   0.129   7.660 -0.0698 -0.0977 -0.5978
 3553SOL    HW122295   2.598   0.107   7.570 -1.5143 -0.5892 -0.8570
 3553SOL    HW222296   2.602   0.219   7.677 -0.2131  0.3913 -3.0136
 3554SOL     OW22297   0.226   3.334   9.191 -0.3038  0.2673 -0.2134
 3554SOL    HW122298   0.157   3.312   9.129 -0.4394  1.0053 -0.3204
 3554SOL    HW222299   0.291   3.345   9.122  0.9111 -1.0483  0.7130
 3555SOL     OW22300   2.575   2.187   3.759  0.9043  0.9269 -0.1276
 3555SOL    HW122301   2.625   2.268   3.772  1.2782  1.0434 -2.3012
 3555SOL    HW222302   2.526   2.178   3.841 -0.4137  2.8257 -0.7286
 3556SOL     OW22303   0.796   3.247  10.592 -0.2846  0.1659  0.0960
 3556SOL    HW122304   0.733   3.184  10.557 -1.0778  0.4968  0.9362
 3556SOL    HW222305   0.867   3.196  10.631 -1.6937 -2.6274 -1.0156
 3557SOL     OW22306   0.548   2.989  14.654  0.1725 -0.1417 -0.3070
 3557SOL    HW122307   0.569   2.985  14.561 -0.3558  1.4825 -0.4899
 3557SOL    HW222308   0.454   3.002  14.662  0.0757 -0.8212 -0.3175
 3558SOL     OW22309   2.389   3.541   3.453  0.3484  0.1011 -0.1769
 3558SOL    HW122310   2.428   3.462   3.491  1.2538 -0.1013 -1.5556
 3558SOL    HW222311   2.448   3.606   3.490  0.8339 -0.0204 -0.7367
 3559SOL     OW22312   0.143   0.737   7.134  0.6384  1.0724  0.5184
 3559SOL    HW122313   0.091   0.668   7.092  1.4248  0.2467  0.9068
 3559SOL    HW222314   0.224   0.692   7.156  1.0825  0.0586 -3.2843
 3560SOL     OW22315   3.604   0.290   4.615 -0.0199  0.3700 -0.1500
 3560SOL    HW122316   3.604   0.312   4.708 -1.1888 -0.7447  0.1112
 3560SOL    HW222317   3.616   0.378   4.578 -0.2193  0.0465 -0.9749
 3561SOL     OW22318   3.714   1.941   6.122  0.4609 -0.2669 -0.5861
 3561SOL    HW122319   3.724   1.881   6.196  2.4803  0.7601 -0.0209
 3561SOL    HW222320   3.649   1.892   6.072  0.5263  0.9619 -1.8650
 3562SOL     OW22321   0.229   4.539   7.748  0.0882  0.9574  0.6559
 3562SOL    HW122322   0.168   4.495   7.806  0.3784 -0.9335 -0.4788
 3562SOL    HW222323   0.289   4.572   7.814 -0.2470 -1.0594  1.9511
 3563SOL     OW22324   2.725   4.672  16.674  1.0072  0.0836  0.3912
 3563SOL    HW122325   2.800   4.732  16.678  1.0062  0.1538 -0.8005
 3563SOL    HW222326   2.776   4.591  16.678 -0.1204 -0.7731 -2.8536
 3564SOL     OW22327   0.831   4.230   3.378  0.1164  0.8618 -0.1741
 3564SOL    HW122328   0.776   4.171   3.327  0.0011  1.3815 -0.6653
 3564SOL    HW222329   0.768   4.284   3.426  1.7241  0.2219  2.5990
 3565SOL     OW22330   1.370   3.233  12.069 -0.1020 -0.5359 -0.4537
 3565SOL    HW122331   1.402   3.143  12.076 -2.6019 -1.3263  0.7851
 3565SOL    HW222332   1.434   3.274  12.011  0.4019 -0.7349 -0.0445
 3566SOL     OW22333   1.452   1.873   2.055 -0.9082  0.2250  0.0641
 3566SOL    HW122334   1.445   1.819   1.976  1.4619 -0.0129  0.0266
 3566SOL    HW222335   1.366   1.915   2.054 -1.3536 -0.7626 -2.1268
 3567SOL     OW22336   3.403   0.098   2.037  0.5470  0.0950 -0.0760
 3567SOL    HW122337   3.376   0.177   2.083  1.2207  1.2451 -1.6542
 3567SOL    HW222338   3.355   0.102   1.954  0.6146  0.4196 -0.0991
 3568SOL     OW22339   1.756   1.233  10.516  0.3371 -0.3352 -0.1400
 3568SOL    HW122340   1.662   1.231  10.532  0.5385 -1.5200  0.8332
 3568SOL    HW222341   1.744   1.250  10.422  1.1589  0.1835 -0.1512
 3569SOL     OW22342   1.804   0.837  14.227  0.5500  0.2930  0.1108
 3569SOL    HW122343   1.769   0.925  14.216  0.1022  0.1387  0.3327
 3569SOL    HW222344   1.849   0.831  14.142 -2.4236  0.4353 -1.4785
 3570SOL     OW22345   1.701   4.136  14.303  0.8471 -0.9322  0.3561
 3570SOL    HW122346   1.629   4.164  14.246  1.2019  0.1582  0.4463
 3570SOL    HW222347   1.652   4.116  14.382 -0.1190 -0.8985 -0.2345
 3571SOL     OW22348   2.377   0.195   7.314 -0.0546 -0.0297 -0.0826
 3571SOL    HW122349   2.417   0.233   7.393 -0.8775 -2.5240  1.5333
 3571SOL    HW222350   2.402   0.252   7.242 -1.5615 -0.8691 -1.2710
 3572SOL     OW22351   3.797   2.694   2.287 -0.7374 -0.8820  0.1968
 3572SOL    HW122352   3.877   2.741   2.307 -1.2141  0.4798 -1.1074
 3572SOL    HW222353   3.764   2.756   2.222  1.0712  1.3887  1.4460
 3573SOL     OW22354   1.615   3.820   1.880 -0.0885  0.1452  0.0541
 3573SOL    HW122355   1.699   3.789   1.847  0.2337  0.3742  0.6589
 3573SOL    HW222356   1.585   3.739   1.922  1.6347  1.3442  3.6206
 3574SOL     OW22357   4.704   2.635   0.260 -0.1561  0.0781 -0.8031
 3574SOL    HW122358   4.680   2.659   0.350  2.7840 -0.0171  0.0159
 3574SOL    HW222359   0.058   2.601   0.276  0.1558  0.7068 -1.1796
 3575SOL     OW22360   4.569   2.249   8.341  0.2830 -0.6743 -0.7927
 3575SOL    HW122361   4.499   2.202   8.385 -1.3382  2.2701 -0.2316
 3575SOL    HW222362   4.538   2.334   8.372  0.5008 -0.0236 -2.3451
 3576SOL     OW22363   3.964   2.144   8.857  0.6476  0.4233 -0.0876
 3576SOL    HW122364   3.904   2.168   8.786 -1.8831 -2.4476  1.1058
 3576SOL    HW222365   3.930   2.057   8.876 -1.2677  1.6035  1.9506
 3577SOL     OW22366   0.957   4.259   8.068  0.1560 -0.2741  0.3621
 3577SOL    HW122367   1.045   4.230   8.091 -0.2848 -0.7213  1.5331
 3577SOL    HW222368   0.936   4.316   8.142  0.0831 -2.3329  1.9466
 3578SOL     OW22369   2.939   3.213   4.362  0.2852  0.2623  0.2405
 3578SOL    HW122370   2.933   3.305   4.336  0.8335  0.7339  1.8066
 3578SOL    HW222371   3.029   3.210   4.396  0.3854 -0.5911 -0.0893
 3579SOL     OW22372   1.510   0.878   4.837  0.1593  0.7732  0.0463
 3579SOL    HW122373   1.448   0.806   4.851 -0.2885  0.9049 -1.1859
 3579SOL    HW222374   1.480   0.898   4.748  1.4314 -2.5546 -1.1379
 3580SOL     OW22375   1.463   2.494  12.539  0.3571 -0.0848  0.0550
 3580SOL    HW122376   1.551   2.489  12.501 -0.3029 -1.4355 -1.3289
 3580SOL    HW222377   1.425   2.580  12.520  0.6693 -0.5543 -2.7618
 3581SOL     OW22378   0.940   1.466   1.031  0.2602 -0.7324 -0.1451
 3581SOL    HW122379   1.011   1.526   1.012 -0.6406 -0.1752 -1.8015
 3581SOL    HW222380   0.901   1.506   1.109  0.9615 -0.7314  0.2002
 3582SOL     OW22381   1.026   1.291  10.077  0.4665 -0.0850 -0.0703
 3582SOL    HW122382   1.018   1.212  10.130 -1.1036 -0.1370 -0.3871
 3582SOL    HW222383   1.066   1.356  10.135 -1.6128 -0.2895  1.5971
 3583SOL     OW22384   3.398   4.263  15.118 -0.1742 -0.7689  0.7019
 3583SOL    HW122385   3.421   4.211  15.041 -1.5289 -0.4719  0.1150
 3583SOL    HW222386   3.479   4.262  15.170  0.7670  1.3006 -0.7355
 3584SOL     OW22387   0.231   4.297  15.011 -0.5207 -0.1584 -0.1044
 3584SOL    HW122388   0.323   4.271  15.014 -1.2882 -2.6316  2.0015
 3584SOL    HW222389   0.210   4.267  14.923 -0.8454 -0.2234 -0.0031
 3585SOL     OW22390   4.389   3.078   2.858 -0.6137  0.4389 -0.2451
 3585SOL    HW122391   4.451   3.023   2.907 -0.2381  0.5805 -0.5596
 3585SOL    HW222392   4.456   3.119   2.804 -0.4772  0.4775 -0.0466
 3586SOL     OW22393   2.484   0.989   9.631 -0.8123 -0.2085  0.1261
 3586SOL    HW122394   2.401   1.035   9.642 -1.5119 -0.7697 -2.8263
 3586SOL    HW222395   2.523   0.992   9.719  0.3981  0.1592 -0.4257
 3587SOL     OW22396   4.466   1.195   5.624 -0.2485 -0.5725  0.4960
 3587SOL    HW122397   4.530   1.263   5.643  0.0621 -0.5818 -0.4696
 3587SOL    HW222398   4.525   1.122   5.601 -1.8968 -1.8405  0.2692
 3588SOL     OW22399   0.300   0.402   7.423  0.3851 -0.4335  0.0277
 3588SOL    HW122400   0.288   0.307   7.431  1.3608 -0.4830  0.9264
 3588SOL    HW222401   0.272   0.434   7.509  1.5692 -1.7339  0.8896
 3589SOL     OW22402   1.214   4.089   3.318  0.1289 -0.1402  0.2862
 3589SOL    HW122403   1.150   4.151   3.354  0.5131  1.4181 -1.7487
 3589SOL    HW222404   1.160   4.017   3.284 -0.8183 -0.4036  2.3281
 3590SOL     OW22405   0.639   0.459   1.532  0.1457  0.0325 -0.3291
 3590SOL    HW122406   0.662   0.538   1.581 -1.5288 -0.2687  0.9391
 3590SOL    HW222407   0.600   0.409   1.604 -2.4613  1.7573 -0.5670
 3591SOL     OW22408   2.290   4.313   1.428 -0.3951 -0.4742  0.0834
 3591SOL    HW122409   2.366   4.348   1.382 -0.3605  1.1403  1.3707
 3591SOL    HW222410   2.257   4.394   1.466 -0.7674  0.1355 -1.5420
 3592SOL     OW22411   1.736   4.375   6.660 -0.9466  0.6586 -0.2244
 3592SOL    HW122412   1.813   4.373   6.602  0.2677  1.4263  1.3533
 3592SOL    HW222413   1.660   4.378   6.603  1.2488 -1.3701 -3.2295
 3593SOL     OW22414   3.248   4.715   1.525  0.0082 -0.2503 -0.1136
 3593SOL    HW122415   3.167   0.002   1.572 -0.3581  0.7120 -1.2011
 3593SOL    HW222416   3.281   4.636   1.568  1.8172  2.1744  2.9538
 3594SOL     OW22417   0.198   0.512   6.240 -0.3999  0.2050 -0.1822
 3594SOL    HW122418   0.289   0.538   6.227 -0.5734  0.9911  0.1436
 3594SOL    HW222419   0.212   0.449   6.310  2.5183  0.6131 -0.4195
 3595SOL     OW22420   0.943   2.380   9.002  0.0176  0.0850  0.3356
 3595SOL    HW122421   0.944   2.379   9.097 -2.0148  1.4951  0.3738
 3595SOL    HW222422   0.849   2.381   8.983  0.2430 -4.4250 -0.9401
 3596SOL     OW22423   3.542   4.004   1.121 -0.3161 -0.5789 -0.1490
 3596SOL    HW122424   3.573   3.917   1.098 -1.0379 -0.6832 -0.7181
 3596SOL    HW222425   3.564   4.047   1.038  2.2351 -0.3304  0.6629
 3597SOL     OW22426   3.680   0.891   4.194 -0.2547  0.1200 -0.1681
 3597SOL    HW122427   3.766   0.919   4.225 -0.8617  0.1447  1.4875
 3597SOL    HW222428   3.686   0.796   4.202  1.7673  0.1305 -1.3773
 3598SOL     OW22429   2.843   1.858  13.015 -0.0225 -0.2017  0.6095
 3598SOL    HW122430   2.923   1.820  13.053  0.4761 -1.5917 -1.8426
 3598SOL    HW222431   2.775   1.809  13.061 -1.8558 -0.5668 -2.4951
 3599SOL     OW22432   1.731   4.312  10.006  0.1350  0.4230 -0.5041
 3599SOL    HW122433   1.734   4.256   9.929  2.5216 -1.2068  0.7781
 3599SOL    HW222434   1.788   4.382   9.974  0.1702  1.8549  2.6262
 3600SOL     OW22435   1.531   3.813  16.756 -0.2728 -0.5162  0.0992
 3600SOL    HW122436   1.441   3.818  16.726  0.6825 -1.1575 -2.8627
 3600SOL    HW222437   1.565   3.776  16.674 -0.1919 -0.7841  0.2560
 3601SOL     OW22438   1.415   3.909   2.711  0.4390  0.2789  0.6447
 3601SOL    HW122439   1.469   3.979   2.749 -0.6463  1.8662 -0.7660
 3601SOL    HW222440   1.373   3.873   2.789  1.2373  0.7819  1.3070
 3602SOL     OW22441   2.344   0.374   3.954  0.4710  0.5139  0.2205
 3602SOL    HW122442   2.378   0.462   3.939 -1.2294  0.8278 -1.6272
 3602SOL    HW222443   2.358   0.348   4.045  0.3629  0.8992  0.3470
 3603SOL     OW22444   0.062   0.224  15.460  0.3256  0.0042  0.3759
 3603SOL    HW122445   0.092   0.138  15.429  1.1525  0.1928  0.6564
 3603SOL    HW222446   0.146   0.269  15.458  1.8490 -3.0043 -3.4715
 3604SOL     OW22447   0.360   4.495   3.928 -0.4625 -0.8512 -0.1769
 3604SOL    HW122448   0.369   4.424   3.865 -0.2100 -0.5137 -0.5254
 3604SOL    HW222449   0.321   4.451   4.004  0.2056 -3.0192 -1.1085
 3605SOL     OW22450   2.121   4.100  11.112 -0.0680 -0.1167  0.3770
 3605SOL    HW122451   2.146   4.094  11.204  2.1121  0.3379 -0.1863
 3605SOL    HW222452   2.028   4.080  11.111 -0.0244 -0.3405  0.8984
 3606SOL     OW22453   3.516   1.865   6.950 -0.7764  0.2150 -0.3088
 3606SOL    HW122454   3.446   1.883   7.013  0.1390 -0.9586  1.0631
 3606SOL    HW222455   3.484   1.916   6.876 -1.5315  0.0194 -0.1143
 3607SOL     OW22456   3.541   2.039   6.736 -0.2320 -0.2062  0.2626
 3607SOL    HW122457   3.552   2.101   6.664 -1.0285  1.3656  1.5014
 3607SOL    HW222458   3.534   1.961   6.681  2.5664 -1.5983  1.8433
 3608SOL     OW22459   2.039   3.826   1.726 -0.2910 -0.4158 -0.0040
 3608SOL    HW122460   1.999   3.746   1.759 -0.7708  1.0222  2.8510
 3608SOL    HW222461   2.090   3.802   1.649  1.0665  2.6031 -0.0333
 3609SOL     OW22462   3.191   3.977   3.935 -0.6912 -0.2761  0.5074
 3609SOL    HW122463   3.201   3.882   3.935 -0.3695 -0.2470 -0.7369
 3609SOL    HW222464   3.221   3.992   4.024  2.4130 -1.1145 -0.3893
 3610SOL     OW22465   1.820   0.158   7.141  0.2324 -0.3030 -0.2716
 3610SOL    HW122466   1.852   0.069   7.130  0.7208 -0.4485  2.4022
 3610SOL    HW222467   1.889   0.180   7.203 -2.8790  1.8168  2.4506
 3611SOL     OW22468   2.232   3.984  14.149 -0.3446 -0.1565  0.3302
 3611SOL    HW122469   2.150   3.997  14.197 -1.0545  1.1828 -1.2510
 3611SOL    HW222470   2.227   3.901  14.101  1.5523  0.4940 -0.9975
 3612SOL     OW22471   4.409   2.274   0.993 -0.0960 -0.2679  0.0893
 3612SOL    HW122472   4.482   2.332   0.970  0.1537 -0.7493 -0.3415
 3612SOL    HW222473   4.381   2.256   0.903  0.0539 -0.6164  0.1133
 3613SOL     OW22474   1.101   4.368   6.822  0.2309 -1.0013  0.9504
 3613SOL    HW122475   1.137   4.454   6.801 -0.9270 -0.4127  1.3949
 3613SOL    HW222476   1.015   4.358   6.781  1.2123 -2.8277 -0.6698
 3614SOL     OW22477   1.150   4.542   1.525 -0.0995 -0.1138 -0.2007
 3614SOL    HW122478   1.168   4.611   1.461 -4.2593 -1.1484 -2.4449
 3614SOL    HW222479   1.129   4.607   1.592  0.5403 -0.3848  0.2660
 3615SOL     OW22480   3.533   3.519   5.941  0.3550  0.0853  0.1810
 3615SOL    HW122481   3.542   3.578   5.866 -0.5229 -2.2312 -1.7518
 3615SOL    HW222482   3.521   3.585   6.009 -0.7911 -1.0924  1.1147
 3616SOL     OW22483   0.579   4.017  15.882  0.2527 -0.1363  0.1012
 3616SOL    HW122484   0.494   4.053  15.860 -0.1944 -2.2666 -1.7030
 3616SOL    HW222485   0.566   3.926  15.854  1.2706 -0.9306  2.1690
 3617SOL     OW22486   2.581   3.748  16.087 -0.3938 -0.3696  0.9337
 3617SOL    HW122487   2.674   3.765  16.099  0.3301 -2.5163 -1.5979
 3617SOL    HW222488   2.549   3.834  16.060 -1.2994 -1.0920 -0.3057
 3618SOL     OW22489   4.097   1.882   4.296  0.6841  0.4526  0.7656
 3618SOL    HW122490   4.142   1.895   4.212 -2.8402 -0.8045 -1.3490
 3618SOL    HW222491   4.165   1.830   4.338 -0.0113 -1.2136 -0.1324
 3619SOL     OW22492   2.388   1.086  15.672 -0.0162  0.6256 -0.2467
 3619SOL    HW122493   2.442   1.042  15.738  2.0332  4.0455  0.3450
 3619SOL    HW222494   2.438   1.074  15.592  0.0184 -0.9003  0.0173
 3620SOL     OW22495   3.212   0.047   5.445  0.3770  0.1807  0.0077
 3620SOL    HW122496   3.155   0.090   5.509 -0.6235 -2.5780  0.9828
 3620SOL    HW222497   3.250   0.126   5.408  0.2370 -0.0617 -0.6498
 3621SOL     OW22498   1.353   1.213   7.794  0.2695 -0.2206  0.0676
 3621SOL    HW122499   1.313   1.146   7.739 -1.1469 -0.6031  1.5924
 3621SOL    HW222500   1.433   1.225   7.742 -1.6429  0.9721 -2.6532
 3622SOL     OW22501   2.336   0.397   6.992  0.6820  0.0539 -0.1389
 3622SOL    HW122502   2.408   0.460   6.987  1.6080 -1.0923 -1.4493
 3622SOL    HW222503   2.290   0.419   7.073  0.3164  0.2041 -0.3859
 3623SOL     OW22504   0.310   0.409   2.553 -0.3244 -0.7439  0.3018
 3623SOL    HW122505   0.321   0.357   2.632 -0.3719  0.9992  1.4543
 3623SOL    HW222506   0.268   0.490   2.582 -0.3263 -1.1317  1.3786
 3624SOL     OW22507   1.949   4.344   5.702  0.2378 -0.2645 -0.4182
 3624SOL    HW122508   1.867   4.339   5.752  0.9400  1.1675  0.8513
 3624SOL    HW222509   1.982   4.257   5.723  2.1677  0.7888  0.8681
 3625SOL     OW22510   3.817   2.555   4.873 -0.0456  0.8925  0.4237
 3625SOL    HW122511   3.894   2.600   4.907 -0.2612  0.3648  1.6058
 3625SOL    HW222512   3.837   2.556   4.780 -0.3611 -0.2769  0.3380
 3626SOL     OW22513   4.332   2.809   3.081  0.6161  0.4259 -0.3180
 3626SOL    HW122514   4.410   2.841   3.036 -0.9892  2.0216 -1.9870
 3626SOL    HW222515   4.312   2.882   3.140 -1.6011 -2.3240  2.3352
 3627SOL     OW22516   3.233   4.236   0.800  0.6453 -0.3868 -0.2700
 3627SOL    HW122517   3.169   4.301   0.772  1.9486  0.9053 -0.2363
 3627SOL    HW222518   3.197   4.228   0.889 -0.1261 -2.7321 -0.7776
 3628SOL     OW22519   3.099   2.363   5.925 -0.7489 -0.3523 -0.0440
 3628SOL    HW122520   3.158   2.413   5.981  1.0109 -1.6440 -0.7723
 3628SOL    HW222521   3.148   2.385   5.846 -1.0590  0.7160  0.0588
 3629SOL     OW22522   0.315   1.093  10.572 -0.1596  0.0693 -0.0856
 3629SOL    HW122523   0.224   1.065  10.562 -0.1226  0.1577 -0.6429
 3629SOL    HW222524   0.306   1.188  10.564  1.8216  0.4150  1.9459
 3630SOL     OW22525   0.085   3.609  14.934  0.1730  0.6750 -0.1305
 3630SOL    HW122526   0.074   3.659  14.854 -1.9523  1.0408  0.3976
 3630SOL    HW222527   0.044   3.528  14.903 -1.2236  1.9582 -1.6262
 3631SOL     OW22528   2.938   0.093  12.551 -0.1536  0.1187  0.1093
 3631SOL    HW122529   3.001   0.161  12.525 -1.6104  0.4962 -2.4162
 3631SOL    HW222530   2.869   0.117  12.489 -1.1624  3.2230  2.4345
 3632SOL     OW22531   2.301   0.835  14.080 -0.2910  0.4091  0.2838
 3632SOL    HW122532   2.333   0.899  14.144  2.9624 -0.5771 -0.3760
 3632SOL    HW222533   2.356   0.853  14.004 -0.0982 -1.0109  0.0912
 3633SOL     OW22534   0.453   3.579   9.004  0.4730 -0.0748  0.3905
 3633SOL    HW122535   0.535   3.584   9.054 -0.5059 -4.3927  2.4831
 3633SOL    HW222536   0.471   3.646   8.939  0.7691  0.3811  0.9409
 3634SOL     OW22537   0.242   3.029   4.074 -0.0405  0.0863  0.1630
 3634SOL    HW122538   0.254   3.081   3.995 -4.0219 -0.8313 -1.0616
 3634SOL    HW222539   0.152   2.997   4.063  0.4431 -0.9870 -0.6096
 3635SOL     OW22540   3.054   1.784   4.562  0.4545 -0.0382 -0.4158
 3635SOL    HW122541   3.006   1.726   4.503 -0.0827  1.4487 -1.4309
 3635SOL    HW222542   2.986   1.848   4.582  1.3815  0.8679 -0.1585
 3636SOL     OW22543   1.196   2.371   5.745 -0.2962  0.4243  0.8938
 3636SOL    HW122544   1.110   2.407   5.766 -0.3443  0.5992  0.3878
 3636SOL    HW222545   1.171   2.281   5.724 -0.6335  0.4623  1.1307
 3637SOL     OW22546   2.041   0.397   1.973  0.5493  0.3525  0.6459
 3637SOL    HW122547   2.012   0.314   1.936 -1.0789  1.5637 -0.7765
 3637SOL    HW222548   2.130   0.371   1.997 -0.6424 -4.4786 -0.2972
 3638SOL     OW22549   3.100   1.915   4.226  0.4853  0.3716 -0.3644
 3638SOL    HW122550   3.172   1.853   4.241  1.0680  0.6768 -1.9308
 3638SOL    HW222551   3.079   1.894   4.135 -0.6625  1.7537 -0.4168
 3639SOL     OW22552   2.614   1.020   6.274 -0.3883 -0.3695  0.0603
 3639SOL    HW122553   2.638   1.031   6.366  0.4877  3.1307 -0.5904
 3639SOL    HW222554   2.701   1.007   6.237  0.5620  1.2466  1.7445
 3640SOL     OW22555   3.716   3.828   3.602 -0.2159 -0.1421 -0.4641
 3640SOL    HW122556   3.724   3.769   3.677  1.0838 -0.9412 -1.2316
 3640SOL    HW222557   3.649   3.883   3.643 -0.6330 -0.8250 -0.2374
 3641SOL     OW22558   0.747   2.123  13.934  0.0353 -0.4423  0.2502
 3641SOL    HW122559   0.661   2.122  13.977 -1.3008 -0.4856 -2.4318
 3641SOL    HW222560   0.804   2.140  14.009  1.1957  2.8981 -1.3755
 3642SOL     OW22561   0.833   0.050   8.858 -0.1518  0.1759  0.0585
 3642SOL    HW122562   0.802   0.035   8.948  3.2634  1.0799  1.3852
 3642SOL    HW222563   0.901   4.716   8.861 -0.5215 -0.2877 -2.5126
 3643SOL     OW22564   1.327   2.867   2.356 -0.3344 -0.0388  0.5236
 3643SOL    HW122565   1.365   2.924   2.423  0.0934 -1.2927  1.3469
 3643SOL    HW222566   1.268   2.932   2.318  0.3633 -0.5963 -1.5454
 3644SOL     OW22567   3.577   0.840   7.846  0.3059 -0.7460  0.8880
 3644SOL    HW122568   3.578   0.753   7.885  1.6375 -0.5557  1.2969
 3644SOL    HW222569   3.629   0.894   7.906  1.6781 -1.4896  0.3654
 3645SOL     OW22570   4.085   3.179   4.208 -0.4407 -0.6871 -0.8027
 3645SOL    HW122571   4.168   3.135   4.190  0.5201  1.8260 -2.6399
 3645SOL    HW222572   4.078   3.208   4.117 -0.9127  2.1896  0.1415
 3646SOL     OW22573   3.871   0.680   7.911 -0.3043 -0.3185 -0.9008
 3646SOL    HW122574   3.844   0.752   7.854 -1.8293  0.8757  1.3232
 3646SOL    HW222575   3.942   0.645   7.858  0.0435 -1.4113  0.2929
 3647SOL     OW22576   3.837   3.227   7.695  0.9446  0.1878  0.3506
 3647SOL    HW122577   3.790   3.288   7.639 -1.7939 -1.8201  0.4617
 3647SOL    HW222578   3.791   3.145   7.674 -0.2349  0.7963  0.5777
 3648SOL     OW22579   0.791   0.671   2.048 -0.2449 -0.3465 -0.1368
 3648SOL    HW122580   0.854   0.687   1.978 -1.3059  0.3115 -0.9342
 3648SOL    HW222581   0.768   0.582   2.025 -1.5115  0.7071 -2.8944
 3649SOL     OW22582   1.827   3.798   2.579  0.0366 -0.3196 -0.1857
 3649SOL    HW122583   1.906   3.795   2.524  1.6706  0.6270  2.1305
 3649SOL    HW222584   1.764   3.764   2.514 -0.6221 -0.7690  0.6942
 3650SOL     OW22585   3.382   1.874   2.335  0.0345  0.1199  0.2430
 3650SOL    HW122586   3.353   1.830   2.255 -0.0223  1.5585 -0.5184
 3650SOL    HW222587   3.353   1.964   2.320 -2.0592 -0.3207  1.6452
 3651SOL     OW22588   3.488   1.205   5.142  0.3688 -0.2142 -0.2235
 3651SOL    HW122589   3.526   1.118   5.136  2.8108  0.8922 -0.5942
 3651SOL    HW222590   3.539   1.240   5.215 -0.4613  1.8849 -0.6387
 3652SOL     OW22591   1.403   3.810  15.679  0.5134  0.3083 -0.3943
 3652SOL    HW122592   1.456   3.831  15.602  0.2760 -1.1250 -0.9405
 3652SOL    HW222593   1.458   3.754  15.733  0.0388 -1.1405 -1.4071
 3653SOL     OW22594   0.761   3.311   5.814 -0.1041  0.2547  0.5276
 3653SOL    HW122595   0.838   3.269   5.853  1.3843  2.9788  0.5495
 3653SOL    HW222596   0.780   3.402   5.837 -2.1299  0.3406  1.7681
 3654SOL     OW22597   3.767   2.499   8.298 -0.2668  0.2435 -0.1602
 3654SOL    HW122598   3.807   2.536   8.376 -0.0036  1.3935 -0.8393
 3654SOL    HW222599   3.838   2.436   8.283 -0.1151 -0.2970  2.8189
 3655SOL     OW22600   4.021   1.735  17.223  0.1206  0.5077 -0.3567
 3655SOL    HW122601   4.018   1.702  17.133 -0.8992 -1.5300  0.4119
 3655SOL    HW222602   4.095   1.685  17.257 -1.3612 -1.4426  0.0471
 3656SOL     OW22603   3.267   4.496   5.033  0.1110  0.1163  0.1155
 3656SOL    HW122604   3.243   4.540   5.114 -0.4286 -1.6717  0.9220
 3656SOL    HW222605   3.362   4.492   5.041  0.1581  0.3256 -0.3478
 3657SOL     OW22606   1.786   0.134   3.895  0.0771  0.0959 -0.1304
 3657SOL    HW122607   1.840   0.163   3.822  1.1781 -1.1974  0.1635
 3657SOL    HW222608   1.800   0.041   3.877  1.8287  0.3165  0.1069
 3658SOL     OW22609   4.436   0.313   6.651  0.1804  0.0284 -0.3548
 3658SOL    HW122610   4.448   0.221   6.630  1.6502  0.6289 -2.1087
 3658SOL    HW222611   4.351   0.321   6.607  0.3330  1.3801 -0.3985
 3659SOL     OW22612   1.302   1.563   6.216 -0.0398  0.5616 -0.6158
 3659SOL    HW122613   1.353   1.545   6.137 -0.3097  1.7224 -1.0565
 3659SOL    HW222614   1.355   1.639   6.241  1.0927 -0.5944  0.5168
 3660SOL     OW22615   2.859   1.399   1.654 -0.0274 -0.2693  0.3273
 3660SOL    HW122616   2.837   1.430   1.566  3.6097 -0.2125 -0.5555
 3660SOL    HW222617   2.946   1.437   1.664 -1.4373  2.4043  2.4074
 3661SOL     OW22618   4.461   3.341   3.159 -0.1749 -0.2309 -0.0395
 3661SOL    HW122619   4.431   3.358   3.248  0.0124 -2.7457  0.5098
 3661SOL    HW222620   4.539   3.289   3.179  0.8026  0.2171 -2.6608
 3662SOL     OW22621   4.041   2.062  11.566  0.0871  0.7251 -0.7421
 3662SOL    HW122622   4.037   2.044  11.472 -0.8416  1.5657 -0.8623
 3662SOL    HW222623   3.969   2.126  11.567  0.7305  1.4900 -3.1024
 3663SOL     OW22624   2.633   2.138   6.276 -0.8953 -0.2765 -0.1286
 3663SOL    HW122625   2.708   2.134   6.217 -1.5481 -0.5398 -0.9553
 3663SOL    HW222626   2.585   2.220   6.261 -1.2472 -0.8252 -2.0750
 3664SOL     OW22627   3.011   4.724   2.090  0.0451  0.1783 -0.0832
 3664SOL    HW122628   3.041   0.058   2.030  2.2266  0.4053  1.2670
 3664SOL    HW222629   2.930   0.030   2.122 -0.1333  1.4682 -2.1542
 3665SOL     OW22630   3.735   3.654  10.537  0.3340  0.2059 -0.5309
 3665SOL    HW122631   3.664   3.709  10.570 -0.3771 -1.1820  0.2012
 3665SOL    HW222632   3.728   3.587  10.604  0.9697 -0.4419 -1.1159
 3666SOL     OW22633   1.182   3.348   6.108 -0.2642  0.2867 -0.1100
 3666SOL    HW122634   1.150   3.353   6.198 -2.0343  2.1484 -0.8434
 3666SOL    HW222635   1.227   3.433   6.106  3.2819 -1.5421  0.7645
 3667SOL     OW22636   0.326   1.014  15.126 -0.3220 -0.3397 -0.2295
 3667SOL    HW122637   0.409   1.019  15.078 -0.4242  0.5104 -0.3090
 3667SOL    HW222638   0.311   0.919  15.125 -2.5307 -0.0026  0.9013
 3668SOL     OW22639   3.681   4.332   6.970 -0.3169 -0.4159 -0.4329
 3668SOL    HW122640   3.627   4.353   7.046  1.2719  1.8452  0.0760
 3668SOL    HW222641   3.614   4.312   6.905  1.4696 -0.4172 -2.2641
 3669SOL     OW22642   0.058   3.705   6.889 -0.0085 -0.1954  1.1008
 3669SOL    HW122643   0.016   3.773   6.836  0.2319  0.6978  2.0483
 3669SOL    HW222644   0.116   3.660   6.828 -0.2506  0.4560  0.3941
 3670SOL     OW22645   3.864   0.138  10.781 -0.5895 -0.3066 -0.3013
 3670SOL    HW122646   3.790   0.079  10.767  0.8310 -2.8417  2.9654
 3670SOL    HW222647   3.838   0.191  10.856 -1.6587 -1.3043  0.0331
 3671SOL     OW22648   2.201   1.781  13.740 -0.6273 -0.0628  0.0320
 3671SOL    HW122649   2.109   1.794  13.717 -0.2162  0.2243 -1.4941
 3671SOL    HW222650   2.211   1.686  13.741  2.4258  0.2690 -0.6923
 3672SOL     OW22651   1.465   4.093  11.689  0.8854 -0.1383 -0.0630
 3672SOL    HW122652   1.376   4.111  11.657  1.7985  0.9979 -1.9592
 3672SOL    HW222653   1.452   4.068  11.781  2.1315 -1.2249 -0.1892
 3673SOL     OW22654   1.486   1.983   8.536 -0.0804 -0.1589 -0.0656
 3673SOL    HW122655   1.518   2.068   8.507 -0.9724  0.2949  0.2712
 3673SOL    HW222656   1.473   1.949   8.447  0.4799  2.6470 -1.2166
 3674SOL     OW22657   1.621   3.873  12.665 -0.4433 -0.2751  0.4608
 3674SOL    HW122658   1.571   3.912  12.593  2.0812 -1.1795 -1.8367
 3674SOL    HW222659   1.565   3.801  12.694 -0.6464  0.8355  2.8027
 3675SOL     OW22660   1.689   3.290   5.554  0.5095  0.6482 -0.0994
 3675SOL    HW122661   1.689   3.198   5.580 -1.2292  1.1726  1.8070
 3675SOL    HW222662   1.723   3.328   5.635 -0.7778  1.2498  0.1652
 3676SOL     OW22663   1.315   4.048  16.952 -0.1802  0.0367 -0.3607
 3676SOL    HW122664   1.287   4.137  16.974 -1.1074 -0.5865  0.9520
 3676SOL    HW222665   1.410   4.045  16.969  0.2955  1.3421 -2.7529
 3677SOL     OW22666   3.332   0.598   2.370 -0.7906  0.0006 -0.9624
 3677SOL    HW122667   3.313   0.623   2.280 -0.9524 -2.4036 -1.5825
 3677SOL    HW222668   3.394   0.670   2.385 -1.0813 -0.3694  2.0335
 3678SOL     OW22669   2.824   1.285   5.083 -0.2171  0.3003 -0.1723
 3678SOL    HW122670   2.813   1.374   5.114 -1.3052  0.0516  0.1506
 3678SOL    HW222671   2.889   1.246   5.142  0.5171  2.4088  0.4134
 3679SOL     OW22672   0.903   2.747   0.163 -0.7874 -0.0982 -0.3826
 3679SOL    HW122673   0.869   2.832   0.192 -0.0425  0.4846 -1.2460
 3679SOL    HW222674   0.965   2.771   0.095 -1.1371 -0.3096 -0.7813
 3680SOL     OW22675   1.560   2.551   0.869  0.0555 -0.1714 -0.3976
 3680SOL    HW122676   1.474   2.533   0.906  0.0770  0.4954 -0.0292
 3680SOL    HW222677   1.609   2.599   0.935 -0.1158 -0.9901  0.3323
 3681SOL     OW22678   1.207   0.004   5.524 -0.2505  0.2989 -0.3749
 3681SOL    HW122679   1.297   0.023   5.551  0.1972 -2.3859 -0.0398
 3681SOL    HW222680   1.215   4.647   5.499 -2.4970  0.1702 -0.6512
 3682SOL     OW22681   2.519   3.200   7.672  0.0647  0.2163  0.3129
 3682SOL    HW122682   2.452   3.268   7.666 -1.1521 -0.9727  0.4877
 3682SOL    HW222683   2.462   3.126   7.655 -0.7250  0.7329  0.7182
 3683SOL     OW22684   1.473   0.993   6.045  0.3142  0.1480 -0.0365
 3683SOL    HW122685   1.465   1.000   5.949 -1.4557 -0.5349  0.0770
 3683SOL    HW222686   1.518   0.908   6.049  1.2712  0.7198  1.4251
 3684SOL     OW22687   3.484   3.601   4.017 -0.3497  0.2384 -0.3827
 3684SOL    HW122688   3.492   3.562   4.104 -0.9457 -1.0901 -0.9222
 3684SOL    HW222689   3.398   3.645   4.014 -0.9761 -0.8101  2.5043
 3685SOL     OW22690   4.462   4.288   6.986 -0.1977  0.3750  0.0349
 3685SOL    HW122691   4.367   4.297   6.994 -0.0440  2.7442 -0.8454
 3685SOL    HW222692   4.460   4.196   6.961 -0.8254  0.6153 -0.8088
 3686SOL     OW22693   3.330   3.458  13.038 -0.5431  0.1481  0.3611
 3686SOL    HW122694   3.330   3.525  13.106 -3.4430  2.2558 -1.7061
 3686SOL    HW222695   3.337   3.371  13.079 -0.7249  0.5755  1.3014
 3687SOL     OW22696   1.957   4.338  13.023  0.1434  0.0101  0.2394
 3687SOL    HW122697   2.046   4.332  13.058 -0.6254 -0.5649  2.0958
 3687SOL    HW222698   1.964   4.418  12.972  0.2323 -1.0991 -1.4919
 3688SOL     OW22699   2.358   4.516   3.918 -0.3133 -0.4484  0.0927
 3688SOL    HW122700   2.390   4.591   3.968 -0.9709 -0.1923  0.1359
 3688SOL    HW222701   2.332   4.459   3.990 -3.1533  1.0362  0.2782
 3689SOL     OW22702   1.188   4.337   6.162 -0.3773  0.1897  0.1515
 3689SOL    HW122703   1.202   4.376   6.248 -1.6427 -0.7983  0.7990
 3689SOL    HW222704   1.266   4.280   6.158 -0.3047  0.4341 -2.0605
 3690SOL     OW22705   1.863   4.480   1.668 -0.1274 -0.0037  0.0203
 3690SOL    HW122706   1.895   4.513   1.752  2.8012 -2.3226 -0.2231
 3690SOL    HW222707   1.827   4.396   1.698 -0.1556  0.1237  0.3444
 3691SOL     OW22708   0.553   1.763   8.411  0.2926 -0.4704  0.6210
 3691SOL    HW122709   0.515   1.682   8.443  1.2270 -1.5192 -0.9072
 3691SOL    HW222710   0.646   1.750   8.392 -0.1669 -1.9966 -0.6292
 3692SOL     OW22711   3.451   1.667  16.378 -0.1162  0.1502 -0.7339
 3692SOL    HW122712   3.460   1.614  16.458  0.3936 -0.1625 -1.0006
 3692SOL    HW222713   3.525   1.727  16.386 -0.2671  0.1964  0.4228
 3693SOL     OW22714   1.326   0.525   4.100 -0.3661 -1.1788  0.4310
 3693SOL    HW122715   1.331   0.604   4.153 -0.6763 -0.1343 -1.1019
 3693SOL    HW222716   1.301   0.563   4.016 -0.5941  0.0905  1.0726
 3694SOL     OW22717   3.513   0.792   6.975  0.0236  0.4002  0.0976
 3694SOL    HW122718   3.478   0.871   7.016  1.5533  2.1391 -1.9089
 3694SOL    HW222719   3.432   0.744   6.957  0.3151  0.2355 -0.8132
 3695SOL     OW22720   2.836   3.615  13.916 -0.8798 -0.8007 -0.4429
 3695SOL    HW122721   2.872   3.528  13.934 -0.4965 -0.6838 -0.6593
 3695SOL    HW222722   2.757   3.592  13.867 -0.2834  0.4415 -1.9909
 3696SOL     OW22723   3.886   0.151   6.501 -0.1782  0.4966 -0.0497
 3696SOL    HW122724   3.841   0.169   6.419  1.6071 -0.5430 -1.2522
 3696SOL    HW222725   3.899   0.239   6.535 -2.1116  0.7408  0.0658
 3697SOL     OW22726   1.454   4.729   9.052  0.1298 -0.3838 -0.0486
 3697SOL    HW122727   1.432   0.013   9.144 -0.2061 -0.2846 -0.1526
 3697SOL    HW222728   1.536   0.045   9.045  0.7533 -1.3040  0.5460
 3698SOL     OW22729   4.181   1.357   2.775 -0.2891  0.1679  0.1984
 3698SOL    HW122730   4.165   1.312   2.692  1.6817  0.6308 -0.4117
 3698SOL    HW222731   4.106   1.317   2.821 -0.5433  1.0674  0.5760
 3699SOL     OW22732   0.862   2.655  11.032  0.2082  0.1108  0.4702
 3699SOL    HW122733   0.799   2.586  11.014 -0.0725  0.3946  0.3744
 3699SOL    HW222734   0.808   2.704  11.094  0.5101 -0.0893  0.8920
 3700SOL     OW22735   4.336   3.519  10.448 -0.1013 -0.1820  0.2498
 3700SOL    HW122736   4.250   3.507  10.488  0.2730  0.4812  1.2590
 3700SOL    HW222737   4.319   3.500  10.356 -0.8711 -1.0614  0.5748
 3701SOL     OW22738   4.152   2.653   7.365 -0.2322  0.4324  0.4095
 3701SOL    HW122739   4.168   2.722   7.429  0.2375 -0.3920  1.1814
 3701SOL    HW222740   4.235   2.610   7.346 -0.9140 -1.5281  1.7313
 3702SOL     OW22741   1.932   4.718   2.884  0.6179 -0.1104  0.2086
 3702SOL    HW122742   1.890   0.037   2.951 -1.9540  1.4164 -2.6206
 3702SOL    HW222743   1.987   0.042   2.831  0.9119 -0.7597 -0.2038
 3703SOL     OW22744   1.123   0.740   2.386  0.0577 -0.1909 -0.0022
 3703SOL    HW122745   1.089   0.678   2.451  0.2959 -0.8578 -0.5049
 3703SOL    HW222746   1.089   0.689   2.312  1.4098  0.2281 -0.9071
 3704SOL     OW22747   4.316   3.821   8.376  0.0731 -0.3118 -0.1816
 3704SOL    HW122748   4.286   3.772   8.453  0.4701 -1.6001 -0.8403
 3704SOL    HW222749   4.384   3.882   8.403  0.0988 -0.9034  1.1018
 3705SOL     OW22750   3.544   2.549   6.723 -0.0222  0.4164 -0.4420
 3705SOL    HW122751   3.545   2.641   6.699 -0.7110  0.2683 -1.0379
 3705SOL    HW222752   3.458   2.525   6.689  0.4538 -2.2565  0.2136
 3706SOL     OW22753   4.409   1.803   8.550  0.1487 -0.5999  0.4181
 3706SOL    HW122754   4.464   1.730   8.578  0.4778 -0.3250  0.4924
 3706SOL    HW222755   4.480   1.865   8.535  1.2481 -1.9169  0.2082
 3707SOL     OW22756   1.602   1.542   4.653 -0.3741 -0.4630  0.0574
 3707SOL    HW122757   1.609   1.457   4.697 -2.4573 -0.1366  1.0436
 3707SOL    HW222758   1.685   1.547   4.607  0.7970  0.9143  2.3452
 3708SOL     OW22759   3.803   0.229  17.736 -0.8451 -0.2977  0.4429
 3708SOL    HW122760   3.826   0.276  17.656 -0.0597 -1.7605 -0.1944
 3708SOL    HW222761   3.873   0.250   0.061 -0.8350  1.9027 -0.3312
 3709SOL     OW22762   4.307   1.764   7.333  0.4671  0.5332 -0.2839
 3709SOL    HW122763   4.263   1.707   7.395  0.9385 -0.0172 -0.4462
 3709SOL    HW222764   4.399   1.778   7.357  0.5493  1.2716 -0.9921
 3710SOL     OW22765   2.857   4.572  17.709 -0.0181 -0.1131  0.2448
 3710SOL    HW122766   2.762   4.570  17.721 -0.3574  1.2795 -2.2802
 3710SOL    HW222767   2.852   4.537  17.620  1.4273 -1.3454  0.6324
 3711SOL     OW22768   4.370   0.706  17.244 -0.5718  0.7347  0.1793
 3711SOL    HW122769   4.426   0.689  17.168 -0.0761  1.2323  0.4375
 3711SOL    HW222770   4.439   0.709  17.310 -0.9212 -1.2899  0.6676
 3712SOL     OW22771   2.453   1.449   7.526  0.4735 -0.3436 -0.1167
 3712SOL    HW122772   2.516   1.480   7.591 -0.5925  2.4133 -0.4004
 3712SOL    HW222773   2.493   1.477   7.444  0.3766  1.5811  0.4954
 3713SOL     OW22774   0.553   3.210   5.439 -0.4427  0.1073 -0.5993
 3713SOL    HW122775   0.520   3.269   5.506 -0.1673  0.6961 -0.9779
 3713SOL    HW222776   0.504   3.128   5.441  2.2408 -1.4791  0.2310
 3714SOL     OW22777   0.017   2.045   7.850 -0.2084 -0.4087  0.3722
 3714SOL    HW122778   4.664   2.022   7.883 -1.2032 -2.1928 -3.5087
 3714SOL    HW222779   0.054   1.957   7.855  1.1927  0.1666 -0.1341
 3715SOL     OW22780   1.185   3.078   2.262 -0.3643 -0.4722  0.1271
 3715SOL    HW122781   1.182   3.138   2.336 -0.5764 -1.7922  1.1835
 3715SOL    HW222782   1.180   3.143   2.192  0.0231 -1.3993 -0.7569
 3716SOL     OW22783   2.058   2.405   6.609 -0.5140 -0.0576  0.0236
 3716SOL    HW122784   2.089   2.477   6.554 -1.2345  0.5142  0.3723
 3716SOL    HW222785   2.122   2.421   6.679 -1.5595  0.1618  0.9343
 3717SOL     OW22786   0.720   3.630   4.392 -0.7042 -0.3330 -0.6583
 3717SOL    HW122787   0.779   3.668   4.326 -0.0689 -0.0702  0.0705
 3717SOL    HW222788   0.742   3.537   4.382 -0.7369 -0.5243  1.1379
 3718SOL     OW22789   0.909   3.412   8.518 -0.2765  0.0762 -0.4123
 3718SOL    HW122790   0.929   3.379   8.430  0.9089  0.7774 -0.4027
 3718SOL    HW222791   0.916   3.336   8.576  0.2648 -0.0496 -0.6433
 3719SOL     OW22792   0.192   2.116   8.605 -0.0619 -0.3663  0.3036
 3719SOL    HW122793   0.181   2.189   8.544  0.5425 -1.1878 -0.7876
 3719SOL    HW222794   0.101   2.111   8.633 -0.9801  1.3155 -2.3883
 3720SOL     OW22795   0.753   4.062   8.482  0.1654  0.1916 -0.2939
 3720SOL    HW122796   0.811   4.080   8.557 -1.8031 -1.7714  1.6970
 3720SOL    HW222797   0.729   4.150   8.454 -0.6237 -0.2616 -1.0105
 3721SOL     OW22798   4.625   4.329   9.264  0.4102 -0.4132 -0.1003
 3721SOL    HW122799   4.666   4.288   9.188  0.1959  0.3124 -0.6088
 3721SOL    HW222800   4.578   4.395   9.212  1.5115  1.3976  1.2066
 3722SOL     OW22801   2.765   1.130   4.865  0.2733 -0.4633  0.3658
 3722SOL    HW122802   2.780   1.179   4.946 -1.2560 -1.2829  1.1639
 3722SOL    HW222803   2.855   1.132   4.834 -0.6613 -0.9305 -2.3811
 3723SOL     OW22804   0.071   1.440   2.702  0.3410 -0.1642 -0.1486
 3723SOL    HW122805   0.131   1.508   2.674  2.1420 -1.0711  1.5409
 3723SOL    HW222806   4.729   1.492   2.729  0.1819 -1.5697  2.1289
 3724SOL     OW22807   1.023   0.818   0.943  0.1831  0.0110 -0.5584
 3724SOL    HW122808   1.026   0.723   0.932  5.2266 -0.1797  2.6957
 3724SOL    HW222809   0.928   0.833   0.944  0.2973  0.8026 -2.5807
 3725SOL     OW22810   2.123   1.459   6.815  0.3111 -0.1972  0.2777
 3725SOL    HW122811   2.133   1.473   6.721 -1.4601  2.8804  0.5385
 3725SOL    HW222812   2.035   1.495   6.830 -1.3595 -3.6448 -1.1322
 3726SOL     OW22813   1.724   1.844   5.989 -0.4078 -0.2984 -0.3710
 3726SOL    HW122814   1.789   1.781   6.018  0.8824  0.9680 -0.5109
 3726SOL    HW222815   1.703   1.891   6.070  1.1744  2.3345 -1.4790
 3727SOL     OW22816   2.407   4.728   9.379 -0.3367  0.2796  0.2706
 3727SOL    HW122817   2.393   0.083   9.412  1.9036  1.2952 -1.5263
 3727SOL    HW222818   2.316   4.709   9.355 -0.5283  2.1349 -0.4846
 3728SOL     OW22819   2.369   2.741   6.941  0.3341  0.3150 -0.0015
 3728SOL    HW122820   2.350   2.744   6.847  2.8239  1.5113 -0.4738
 3728SOL    HW222821   2.334   2.827   6.961  2.6862  0.9004  1.6856
 3729SOL     OW22822   2.118   4.328  11.434  0.2175 -0.3885  0.2098
 3729SOL    HW122823   2.155   4.406  11.392  0.0803 -0.3694  0.1239
 3729SOL    HW222824   2.196   4.278  11.458  0.3035 -0.4124 -0.1092
 3730SOL     OW22825   1.626   4.618  17.405 -0.3513 -0.1062 -0.2531
 3730SOL    HW122826   1.636   4.713  17.410 -0.0871 -0.3043  2.6556
 3730SOL    HW222827   1.687   4.592  17.473 -1.1373  2.1821  1.3117
 3731SOL     OW22828   0.223   4.128  17.568  0.0199 -0.1604  0.2814
 3731SOL    HW122829   0.277   4.092  17.498 -1.7451 -1.1298 -0.5868
 3731SOL    HW222830   0.173   4.194  17.519 -0.7996 -2.4939 -2.0124
 3732SOL     OW22831   3.729   3.681   7.297  0.6312  0.0597  0.6994
 3732SOL    HW122832   3.733   3.631   7.216  0.4633  0.3063  0.5398
 3732SOL    HW222833   3.815   3.663   7.336  1.4981  0.0028 -1.2341
 3733SOL     OW22834   4.157   1.274   4.513 -0.1796  0.6539 -0.1055
 3733SOL    HW122835   4.197   1.187   4.508 -1.4830  0.0616 -0.1681
 3733SOL    HW222836   4.227   1.330   4.549 -0.0107 -0.3828  1.1618
 3734SOL     OW22837   3.315   3.734   2.789  0.0565  0.5787  0.4887
 3734SOL    HW122838   3.408   3.712   2.774 -0.5007 -1.3604 -0.1585
 3734SOL    HW222839   3.311   3.774   2.702 -3.1498  0.9253  0.8200
 3735SOL     OW22840   2.931   1.410   8.566 -0.2123  0.0387 -0.0852
 3735SOL    HW122841   2.934   1.443   8.656  0.7599 -0.2796 -0.0007
 3735SOL    HW222842   2.880   1.331   8.585  1.7931 -1.2191  0.0163
 3736SOL     OW22843   3.671   3.821   8.877  0.2200 -0.2782  0.0780
 3736SOL    HW122844   3.680   3.817   8.973 -1.2235  0.2106  0.2324
 3736SOL    HW222845   3.746   3.877   8.858  1.0429 -2.1597 -2.1684
 3737SOL     OW22846   1.397   4.294  11.273  0.1203 -0.0423  0.0541
 3737SOL    HW122847   1.306   4.295  11.243  0.7040 -0.4785 -1.7001
 3737SOL    HW222848   1.440   4.304  11.188  0.8629  0.9673  0.5470
 3738SOL     OW22849   0.964   2.863   5.841 -0.4281 -0.0300 -0.8510
 3738SOL    HW122850   0.983   2.786   5.787 -2.3938  0.1205 -1.7491
 3738SOL    HW222851   1.010   2.933   5.795 -0.9146  1.9326  1.6117
 3739SOL     OW22852   3.761   2.247   5.488 -0.7040 -0.1367 -0.5572
 3739SOL    HW122853   3.730   2.307   5.556  1.4095  0.1705  0.1482
 3739SOL    HW222854   3.757   2.167   5.541 -2.2599  0.7449  0.6528
 3740SOL     OW22855   4.318   4.526   0.775  0.1337  0.2191 -0.2619
 3740SOL    HW122856   4.266   4.557   0.849  0.8350  0.7688  0.0044
 3740SOL    HW222857   4.351   4.608   0.738 -1.7345  0.6177 -1.0146
 3741SOL     OW22858   2.841   4.640   4.758 -0.2823  0.3330 -0.4239
 3741SOL    HW122859   2.801   4.698   4.823  1.5456  1.8421 -0.6482
 3741SOL    HW222860   2.775   4.574   4.737  0.0050  0.1767 -0.8493
 3742SOL     OW22861   1.773   4.495   6.912  0.5069  0.0668  0.1349
 3742SOL    HW122862   1.763   4.461   6.823 -0.4228  1.2007 -0.1987
 3742SOL    HW222863   1.774   4.590   6.900 -1.4800  0.1069  0.1741
 3743SOL     OW22864   2.282   0.943   8.520 -0.6956  0.0627 -0.2474
 3743SOL    HW122865   2.274   1.037   8.540 -0.3301 -0.2721  1.4926
 3743SOL    HW222866   2.253   0.944   8.429  2.2369  2.8765 -1.1481
 3744SOL     OW22867   2.233   4.035  14.637  0.0796 -0.7312 -0.1825
 3744SOL    HW122868   2.326   4.016  14.626 -0.0668 -1.3858 -0.3000
 3744SOL    HW222869   2.197   3.947  14.624  2.2020 -1.5428 -0.5211
 3745SOL     OW22870   1.797   2.462   8.636 -0.3810  0.2856 -0.2602
 3745SOL    HW122871   1.834   2.530   8.693 -0.5143  1.3288 -1.4100
 3745SOL    HW222872   1.879   2.413   8.624  0.5910  2.2193 -1.6333
 3746SOL     OW22873   0.531   2.847   9.263 -0.0163 -0.3065  0.0023
 3746SOL    HW122874   0.526   2.930   9.215 -1.6403 -0.6602 -0.4538
 3746SOL    HW222875   0.473   2.791   9.211 -0.0518  0.6873 -1.0337
 3747SOL     OW22876   0.804   0.689   0.280  0.0735 -0.1040 -0.3831
 3747SOL    HW122877   0.888   0.735   0.284  0.4678 -0.8445 -0.2539
 3747SOL    HW222878   0.806   0.618   0.343 -0.2851  0.5827  0.3981
 3748SOL     OW22879   3.291   1.225  10.695  0.3836 -0.0857 -0.1266
 3748SOL    HW122880   3.232   1.225  10.619 -0.8972  0.8591  0.8789
 3748SOL    HW222881   3.256   1.287  10.758 -2.0357 -2.5744  1.0088
 3749SOL     OW22882   0.274   0.241   9.986 -0.2874 -0.0814 -0.8110
 3749SOL    HW122883   0.288   0.148  10.004 -0.1122  0.6003  2.5432
 3749SOL    HW222884   0.285   0.249   9.892  0.9899  0.7790 -0.5818
 3750SOL     OW22885   1.934   1.056   4.585 -0.8315 -0.1455  0.3173
 3750SOL    HW122886   1.965   1.143   4.612 -1.0859 -0.4470  1.5773
 3750SOL    HW222887   1.839   1.067   4.583 -0.8980 -0.4112  2.3748
 3751SOL     OW22888   1.875   1.952   8.917  0.3641  0.1550 -0.4578
 3751SOL    HW122889   1.827   1.870   8.926  0.3730  0.5704  3.5817
 3751SOL    HW222890   1.961   1.927   8.949  0.5999  0.5000 -0.8258
 3752SOL     OW22891   3.133   3.676  13.552  0.5735  0.0622 -0.0794
 3752SOL    HW122892   3.092   3.753  13.514  1.1135 -1.5545 -3.9988
 3752SOL    HW222893   3.061   3.643  13.605  2.1489 -0.6529  1.6216
 3753SOL     OW22894   3.035   0.782   5.335  0.3743 -0.1888  0.4728
 3753SOL    HW122895   3.106   0.724   5.362  1.5794  0.5070 -1.1870
 3753SOL    HW222896   2.963   0.723   5.357  1.3423 -1.3199  0.6096
 3754SOL     OW22897   4.234   0.164   7.475 -0.1311  0.4313  0.0167
 3754SOL    HW122898   4.283   0.118   7.406 -1.4067 -1.3585  0.3032
 3754SOL    HW222899   4.204   0.092   7.530  0.4259  1.7209  1.9922
 3755SOL     OW22900   0.725   3.901   8.766  0.1829  0.3766  0.1761
 3755SOL    HW122901   0.721   3.825   8.709 -1.8132 -0.3312  1.2622
 3755SOL    HW222902   0.819   3.892   8.782  0.1507  0.9488  0.6977
 3756SOL     OW22903   0.325   2.970  15.227 -0.2105  0.3436 -0.3341
 3756SOL    HW122904   0.418   2.956  15.207 -0.3458 -1.7685  0.5660
 3756SOL    HW222905   0.295   2.888  15.189 -0.8579  0.1425  0.6101
 3757SOL     OW22906   0.373   4.034   4.321  0.2703  0.1985  0.0205
 3757SOL    HW122907   0.372   3.940   4.334  1.8021  0.0739 -0.8796
 3757SOL    HW222908   0.467   4.050   4.319  0.5302 -0.8537  3.3263
 3758SOL     OW22909   4.707   4.376  13.225  0.4349  1.2307 -0.0514
 3758SOL    HW122910   4.653   4.338  13.294  0.7053 -1.1642 -1.1804
 3758SOL    HW222911   4.680   4.466  13.246  0.5969  0.6991  2.3314
 3759SOL     OW22912   4.336   4.227   9.097 -0.1220  0.3652 -0.5431
 3759SOL    HW122913   4.305   4.186   9.016  1.6951 -0.4227 -0.8270
 3759SOL    HW222914   4.364   4.154   9.151  0.1930  0.8759 -0.0159
 3760SOL     OW22915   4.340   2.556  17.639 -0.1023  0.0966 -0.5210
 3760SOL    HW122916   4.303   2.629  17.689  2.1683 -0.4295  1.8898
 3760SOL    HW222917   4.433   2.573  17.651 -0.8741  3.4993  0.6122
 3761SOL     OW22918   1.166   0.638   9.439  0.7207  0.5110  0.3818
 3761SOL    HW122919   1.143   0.550   9.409  1.2980  1.2628 -2.3402
 3761SOL    HW222920   1.085   0.669   9.479 -0.1331 -1.6179  0.3244
 3762SOL     OW22921   2.009   3.647   2.424 -0.1274  0.2174 -0.4784
 3762SOL    HW122922   1.966   3.563   2.440  1.1566 -0.4268 -0.4296
 3762SOL    HW222923   1.975   3.659   2.335  0.8890 -0.4022 -0.9424
 3763SOL     OW22924   0.090   4.447   7.950  0.2046 -0.8639 -1.2660
 3763SOL    HW122925   0.022   4.506   7.919  0.1336 -0.5787 -0.5694
 3763SOL    HW222926   0.038   4.392   8.010  0.0761 -0.9897 -1.4939
 3764SOL     OW22927   0.234   2.440   6.876 -0.2799  0.5123 -0.4362
 3764SOL    HW122928   0.321   2.404   6.895  0.6581  1.8643 -2.0977
 3764SOL    HW222929   0.224   2.404   6.788 -1.3973  0.9040 -0.4635
 3765SOL     OW22930   4.019   0.091   0.342  0.0129 -1.0055 -0.7612
 3765SOL    HW122931   4.031   0.108   0.248 -3.1339 -0.3691 -1.0660
 3765SOL    HW222932   3.947   0.153   0.351  0.2375 -1.0099  1.0730
 3766SOL     OW22933   2.297   2.216   5.548 -0.7336  0.2160  0.0965
 3766SOL    HW122934   2.248   2.134   5.544 -1.8263  0.7929  1.8426
 3766SOL    HW222935   2.236   2.270   5.498  1.1289  1.6692 -0.6281
 3767SOL     OW22936   2.195   0.727   2.700 -0.0434 -0.1008 -0.3032
 3767SOL    HW122937   2.211   0.790   2.770 -2.7466  1.8340 -1.4113
 3767SOL    HW222938   2.100   0.740   2.702  0.3875  2.7557  1.4281
 3768SOL     OW22939   3.193   1.774   3.897  0.8507 -0.6815 -0.1771
 3768SOL    HW122940   3.219   1.864   3.917  1.2042 -0.6045 -0.9981
 3768SOL    HW222941   3.139   1.786   3.819 -0.6101 -0.3910  0.8610
 3769SOL     OW22942   4.558   2.409   8.799 -0.5697 -0.3661  0.0987
 3769SOL    HW122943   4.493   2.368   8.742 -1.2329  1.1637 -0.2399
 3769SOL    HW222944   4.524   2.497   8.813 -1.1924 -0.6702  0.5204
 3770SOL     OW22945   0.170   4.216  14.756  0.4598 -0.5041 -0.2670
 3770SOL    HW122946   0.186   4.174  14.672  1.1132 -0.1284 -0.3319
 3770SOL    HW222947   0.166   4.304  14.719 -0.2782 -0.1156  0.7277
 3771SOL     OW22948   1.695   0.271  16.908 -0.0909  0.0035 -0.1444
 3771SOL    HW122949   1.664   0.181  16.912 -0.0032 -0.1324 -2.2988
 3771SOL    HW222950   1.720   0.286  16.999  0.5866 -0.7959 -0.1957
 3772SOL     OW22951   2.863   1.379   7.685 -0.4714  0.5949 -0.0601
 3772SOL    HW122952   2.836   1.402   7.596 -0.3802 -1.2564 -0.5615
 3772SOL    HW222953   2.929   1.444   7.710 -1.6237  2.2781 -1.3856
 3773SOL     OW22954   1.027   1.795   7.927 -0.5884  0.1300 -0.1112
 3773SOL    HW122955   1.057   1.733   7.994 -2.2067  1.7805  2.1794
 3773SOL    HW222956   0.949   1.833   7.969 -0.9564  0.3493 -1.0078
 3774SOL     OW22957   4.336   4.332   6.667 -1.1333  0.4164  0.1453
 3774SOL    HW122958   4.293   4.306   6.585  1.4400  0.0430 -1.0671
 3774SOL    HW222959   4.318   4.425   6.680  0.0939  0.8078 -1.0032
 3775SOL     OW22960   3.873   3.389   4.450  0.8275  0.2165 -0.1727
 3775SOL    HW122961   3.947   3.352   4.498  1.2906  1.1284 -0.1801
 3775SOL    HW222962   3.862   3.481   4.476 -0.5127 -0.0219  0.0957
 3776SOL     OW22963   0.066   3.415  12.705 -0.1580  0.8017  0.3255
 3776SOL    HW122964   0.147   3.455  12.672  1.0957 -1.1102  1.1005
 3776SOL    HW222965   0.082   3.417  12.799  0.1907  1.0953  0.2594
 3777SOL     OW22966   0.069   4.686  14.193 -0.6335 -0.3926  0.3879
 3777SOL    HW122967   0.096   0.036  14.158  0.6518 -1.7208 -1.8360
 3777SOL    HW222968   0.000   4.678  14.127  0.3035 -0.1639 -0.6318
 3778SOL     OW22969   1.881   0.671   3.106  0.0462 -0.1752  0.9993
 3778SOL    HW122970   1.976   0.682   3.105  0.0922 -0.6527 -0.4785
 3778SOL    HW222971   1.844   0.755   3.133  3.2435  0.9966  1.6521
 3779SOL     OW22972   3.185   1.056  14.805 -0.1130  0.0088  0.1493
 3779SOL    HW122973   3.092   1.074  14.819 -0.1226  0.9080 -1.0784
 3779SOL    HW222974   3.185   1.016  14.718  2.1477 -1.0946  0.6766
 3780SOL     OW22975   0.465   3.499  13.764 -0.2549 -0.0604  0.6886
 3780SOL    HW122976   0.528   3.519  13.834 -0.2452 -2.0979  1.2713
 3780SOL    HW222977   0.509   3.420  13.733  1.2988  1.5302 -1.1379
 3781SOL     OW22978   3.229   1.993   8.329  0.5492  0.3613 -0.0607
 3781SOL    HW122979   3.220   2.060   8.261  1.8040 -0.4911 -1.0814
 3781SOL    HW222980   3.322   1.991   8.348  0.1739 -1.2014  1.6044
 3782SOL     OW22981   2.689   2.887   2.419  0.1622  0.7913  0.4325
 3782SOL    HW122982   2.754   2.887   2.349 -0.4855 -0.2738 -0.1657
 3782SOL    HW222983   2.662   2.796   2.427  0.8017  0.6630  1.1435
 3783SOL     OW22984   4.308   2.515  17.198  0.4194  0.2654 -0.9289
 3783SOL    HW122985   4.229   2.568  17.185 -0.1699 -0.0242  1.3073
 3783SOL    HW222986   4.300   2.492  17.291 -3.9078  2.1827 -0.8352
 3784SOL     OW22987   4.213   3.670   5.372  0.3858 -0.5688 -0.4888
 3784SOL    HW122988   4.253   3.633   5.293  0.0306 -1.4069 -0.2846
 3784SOL    HW222989   4.209   3.765   5.360  0.4971 -0.3985  0.8084
 3785SOL     OW22990   3.994   2.096   1.683 -0.4070  0.5391  0.1708
 3785SOL    HW122991   4.053   2.134   1.618  1.9382  0.0788  2.0289
 3785SOL    HW222992   4.028   2.145   1.758 -0.3673  0.9970 -0.1469
 3786SOL     OW22993   4.279   3.709   4.616 -0.3541  0.1380 -0.1080
 3786SOL    HW122994   4.246   3.752   4.537  2.6128  0.3865 -1.2078
 3786SOL    HW222995   4.334   3.638   4.584  0.1658  1.0304 -1.1805
 3787SOL     OW22996   2.123   2.720  16.123 -0.0912 -0.2511 -0.2631
 3787SOL    HW122997   2.076   2.698  16.043 -3.6801  0.4559  1.6351
 3787SOL    HW222998   2.178   2.644  16.142 -0.8957 -0.8754 -0.3925
 3788SOL     OW22999   3.048   1.136   2.924 -0.3266 -0.1594 -0.7008
 3788SOL    HW123000   3.134   1.177   2.915 -0.5891  0.2178 -1.5617
 3788SOL    HW223001   3.062   1.063   2.863 -0.9432  0.8808 -2.0920
 3789SOL     OW23002   1.636   3.251   6.409 -0.2425 -0.1289  0.4305
 3789SOL    HW123003   1.544   3.252   6.383  0.0139  2.0088 -0.4459
 3789SOL    HW223004   1.652   3.169   6.456 -1.1516  0.7716  2.3084
 3790SOL     OW23005   2.403   2.635   8.834 -0.5298 -0.1163  0.2385
 3790SOL    HW123006   2.392   2.572   8.763 -1.1621  2.8647 -2.3193
 3790SOL    HW223007   2.468   2.595   8.891 -1.3063 -0.1103  1.1382
 3791SOL     OW23008   2.619   0.758   7.971  0.0967 -0.6227 -0.0976
 3791SOL    HW123009   2.565   0.767   8.049  0.1642 -2.2546  0.1188
 3791SOL    HW223010   2.546   0.757   7.909 -0.3895  2.2396  0.4241
 3792SOL     OW23011   1.158   1.288   6.874 -0.2574  0.3215 -0.0102
 3792SOL    HW123012   1.201   1.301   6.789 -1.3720  3.2892 -0.1062
 3792SOL    HW223013   1.094   1.359   6.873 -0.3685  0.2198 -0.0767
 3793SOL     OW23014   4.055   0.752   9.641 -0.7744 -0.0436  0.4097
 3793SOL    HW123015   4.035   0.807   9.565 -1.4249  1.8314  1.9367
 3793SOL    HW223016   4.130   0.795   9.682  0.6575 -2.8033  0.6948
 3794SOL     OW23017   0.437   2.717   2.866 -0.6883 -0.1453  0.8374
 3794SOL    HW123018   0.464   2.683   2.781 -0.2386  1.7643  0.2431
 3794SOL    HW223019   0.434   2.636   2.917 -0.5883 -0.5076  0.2707
 3795SOL     OW23020   1.023   1.954   2.991 -0.4210  0.1714 -0.0565
 3795SOL    HW123021   0.979   2.039   2.996 -1.6351 -0.6211  3.2363
 3795SOL    HW223022   1.112   1.988   2.996 -2.0314  4.3412 -0.1133
 3796SOL     OW23023   3.298   2.608   8.725  0.0422  0.4130 -0.3925
 3796SOL    HW123024   3.258   2.539   8.672 -0.7656  0.6635 -0.1187
 3796SOL    HW223025   3.305   2.568   8.812 -1.1841 -0.9549 -0.9182
 3797SOL     OW23026   3.958   3.295  11.672  0.1582 -0.1414 -0.0099
 3797SOL    HW123027   4.031   3.272  11.614  2.6010  3.9561  1.4679
 3797SOL    HW223028   3.975   3.232  11.742  0.0290  2.0686  2.0018
 3798SOL     OW23029   4.044   3.098   2.089 -0.1707  0.9088  0.3889
 3798SOL    HW123030   4.114   3.070   2.148 -0.1885 -2.9069 -1.4276
 3798SOL    HW223031   3.984   3.128   2.158 -0.9814 -0.0504  0.1032
 3799SOL     OW23032   3.990   1.901   3.154 -0.8665 -0.5622  0.5933
 3799SOL    HW123033   3.982   1.861   3.240  0.5169  2.7382  2.2493
 3799SOL    HW223034   4.073   1.947   3.166 -0.7561 -0.6401  0.1293
 3800SOL     OW23035   2.585   4.217   8.841 -0.6573  0.1977  0.3740
 3800SOL    HW123036   2.605   4.149   8.775 -0.4744 -0.9839  1.6461
 3800SOL    HW223037   2.498   4.250   8.819 -0.7050 -0.7306 -0.8835
 3801SOL     OW23038   4.535   1.343   1.538 -0.1775  0.0285 -0.1162
 3801SOL    HW123039   4.582   1.289   1.601 -1.2321  0.7753  1.3002
 3801SOL    HW223040   4.525   1.281   1.466  0.7269 -0.5233  0.2276
 3802SOL     OW23041   0.208   2.868   2.877 -0.0541  0.0253 -0.1920
 3802SOL    HW123042   0.217   2.901   2.787  1.7340  2.5654  0.8896
 3802SOL    HW223043   0.273   2.798   2.871 -1.1069 -1.0239  0.8172
 3803SOL     OW23044   4.131   1.082   7.080  0.1393 -0.3854  0.4339
 3803SOL    HW123045   4.084   1.102   6.999 -0.2067  0.6350  0.8913
 3803SOL    HW223046   4.131   1.166   7.125 -1.3130 -0.4638  0.5693
 3804SOL     OW23047   4.592   3.168   6.206  0.3177  0.9454  0.2431
 3804SOL    HW123048   4.497   3.168   6.194  0.1206 -0.6239  1.7970
 3804SOL    HW223049   4.616   3.235   6.142  1.9441 -0.0737 -0.2056
 3805SOL     OW23050   4.043   3.139   1.635  0.5056 -0.1691  0.1100
 3805SOL    HW123051   4.066   3.056   1.678  0.9891 -0.0230  0.1414
 3805SOL    HW223052   3.986   3.186   1.696  1.8789 -0.1505  1.3889
 3806SOL     OW23053   3.123   3.501  11.771  0.3751  0.1709 -0.1290
 3806SOL    HW123054   3.128   3.590  11.736  0.7729  0.1429 -0.1407
 3806SOL    HW223055   3.214   3.480  11.789  0.5262  0.2276 -0.8046
 3807SOL     OW23056   3.090   1.651   2.221  0.6383 -0.7160 -0.4072
 3807SOL    HW123057   3.129   1.571   2.257  2.2415  1.1586  2.0825
 3807SOL    HW223058   3.158   1.683   2.162 -0.1212  0.6011 -0.5714
 3808SOL     OW23059   3.333   2.754   4.996 -0.9353  0.0128 -0.0109
 3808SOL    HW123060   3.354   2.810   5.071 -1.8322  2.4120 -1.5438
 3808SOL    HW223061   3.411   2.700   4.991  0.2588  1.8154 -0.9406
 3809SOL     OW23062   2.719   3.276   8.942  0.1592  0.3119  0.0216
 3809SOL    HW123063   2.644   3.261   8.999  2.3802 -1.5676  2.4106
 3809SOL    HW223064   2.726   3.371   8.954 -0.5212  0.3597  0.0702
 3810SOL     OW23065   4.088   1.615   4.624  0.3662  0.1550  0.0074
 3810SOL    HW123066   4.014   1.616   4.686 -0.5976 -0.7179 -1.1301
 3810SOL    HW223067   4.163   1.644   4.676  1.5013 -0.5833 -1.2475
 3811SOL     OW23068   2.517   1.582   6.575  0.5148  0.2485 -0.3708
 3811SOL    HW123069   2.519   1.623   6.488  0.0716  1.1102  0.0269
 3811SOL    HW223070   2.579   1.510   6.565  2.4148  1.6793  1.1335
 3812SOL     OW23071   2.961   3.923   8.622 -0.3022  0.2576 -0.0064
 3812SOL    HW123072   3.040   3.973   8.644  0.8472 -1.7050  0.2686
 3812SOL    HW223073   3.002   3.869   8.554 -1.1710  0.4283 -0.6685
 3813SOL     OW23074   2.662   3.192  14.515  0.5921 -0.4478 -0.6589
 3813SOL    HW123075   2.629   3.130  14.580 -1.3453  0.4302 -0.7896
 3813SOL    HW223076   2.676   3.130  14.444  1.3212  0.5417 -1.3666
 3814SOL     OW23077   0.964   2.730   7.164  0.0001 -0.6772 -0.5083
 3814SOL    HW123078   1.042   2.711   7.111  1.2066  2.8842 -0.0492
 3814SOL    HW223079   1.002   2.708   7.249 -3.4310  2.0105  1.6929
 3815SOL     OW23080   3.188   1.627  12.163  0.4298  0.1124  0.1505
 3815SOL    HW123081   3.181   1.597  12.254 -0.3678  0.7628  0.3048
 3815SOL    HW223082   3.263   1.580  12.129 -0.5813 -1.0600 -0.4646
 3816SOL     OW23083   4.332   2.298   7.362  0.5494  0.1656 -0.4799
 3816SOL    HW123084   4.410   2.343   7.394  1.5277 -0.6050 -1.7609
 3816SOL    HW223085   4.338   2.213   7.404  3.0555  0.6626  0.1630
 3817SOL     OW23086   1.157   2.322  15.264 -0.0720  0.1933  0.0397
 3817SOL    HW123087   1.228   2.289  15.319  0.5413  1.7485  0.1685
 3817SOL    HW223088   1.138   2.254  15.199  0.1477  0.4409 -0.2843
 3818SOL     OW23089   0.903   3.341   8.262  0.2261  0.2030 -0.0352
 3818SOL    HW123090   0.972   3.275   8.262  0.7455  0.7528 -0.4808
 3818SOL    HW223091   0.907   3.376   8.173 -1.1419 -3.2319 -1.4791
 3819SOL     OW23092   2.643   0.915   8.291 -0.2359  0.1525  0.1980
 3819SOL    HW123093   2.548   0.912   8.279 -0.0673 -2.0215 -0.5619
 3819SOL    HW223094   2.660   1.006   8.267  1.8465 -0.2190  0.2927
 3820SOL     OW23095   1.732   0.915   0.582  0.1354 -1.0951 -0.3720
 3820SOL    HW123096   1.646   0.874   0.587 -1.2827  2.1732  1.9549
 3820SOL    HW223097   1.713   1.004   0.614  0.9664 -0.9968 -0.1444
 3821SOL     OW23098   4.210   2.196   5.387 -0.7766  0.3148 -0.0781
 3821SOL    HW123099   4.178   2.127   5.444 -3.8035 -0.0821 -2.2588
 3821SOL    HW223100   4.130   2.225   5.344 -0.8637 -2.8258 -2.0423
 3822SOL     OW23101   1.628   4.125   6.759  0.7182  0.1142  0.5139
 3822SOL    HW123102   1.705   4.179   6.741  1.4422 -1.3099 -0.7359
 3822SOL    HW223103   1.575   4.170   6.825 -0.3889 -1.3815  0.6526
 3823SOL     OW23104   1.409   0.090   9.302  0.0986  0.5635  0.0882
 3823SOL    HW123105   1.332   0.035   9.288  1.0506 -0.3145 -1.7870
 3823SOL    HW223106   1.370   0.176   9.322  0.0842  0.4608  0.4949
 3824SOL     OW23107   2.306   2.572   5.140  0.0461  0.4265 -0.2361
 3824SOL    HW123108   2.317   2.480   5.114  0.0662  0.1184  0.8588
 3824SOL    HW223109   2.213   2.577   5.118 -0.0528  2.6924  0.7395
 3825SOL     OW23110   1.685   0.453   0.809  0.0945  0.1390 -0.1165
 3825SOL    HW123111   1.763   0.469   0.863  0.2671 -1.3827  0.0943
 3825SOL    HW223112   1.726   0.430   0.726  1.1552  2.7010 -0.2885
 3826SOL     OW23113   2.727   2.986  14.350  0.1384 -0.9269 -0.3139
 3826SOL    HW123114   2.777   2.942  14.419 -0.4349  0.1056  0.7624
 3826SOL    HW223115   2.650   2.930  14.350 -0.7106  0.2482 -0.0219
 3827SOL     OW23116   0.878   3.718   3.563  0.0666  0.3142  0.0904
 3827SOL    HW123117   0.785   3.703   3.577  0.4277 -2.4259 -0.4958
 3827SOL    HW223118   0.919   3.681   3.641 -1.9326 -0.8510  0.5611
 3828SOL     OW23119   1.952   3.787   2.980 -0.2312 -0.3849  0.3217
 3828SOL    HW123120   1.882   3.760   2.920  0.7113  2.1997 -1.9294
 3828SOL    HW223121   1.934   3.881   2.979 -0.7869 -0.4951 -0.0502
 3829SOL     OW23122   0.071   3.024   3.053 -0.0797  0.5343  0.0228
 3829SOL    HW123123   0.156   3.041   3.093  0.3003 -1.2299 -0.0719
 3829SOL    HW223124   0.086   2.974   2.973 -1.3349 -1.6158  1.1240
 3830SOL     OW23125   0.545   2.592   4.532 -0.5274  0.3297  0.5375
 3830SOL    HW123126   0.593   2.609   4.612 -0.7572  1.3359  0.4597
 3830SOL    HW223127   0.482   2.664   4.535 -0.8076  0.1218 -0.1865
 3831SOL     OW23128   4.362   3.795   7.452  0.5384 -0.2162  0.3717
 3831SOL    HW123129   4.369   3.815   7.359  0.6788 -0.4898  0.3222
 3831SOL    HW223130   4.440   3.740   7.457 -1.1222 -2.4992  1.1790
 3832SOL     OW23131   2.102   4.507   6.755  0.4578  0.4463 -0.0001
 3832SOL    HW123132   2.027   4.564   6.740  1.2455  1.0463 -1.5939
 3832SOL    HW223133   2.067   4.421   6.780 -1.9049  1.1973 -0.7070
 3833SOL     OW23134   2.058   2.247   8.949  0.6321 -0.4170 -0.0415
 3833SOL    HW123135   2.101   2.255   9.034  1.2661  0.3151 -0.4292
 3833SOL    HW223136   2.076   2.155   8.928  0.3300 -0.3553 -0.5654
 3834SOL     OW23137   3.880   3.970   8.830 -0.1647  0.3370 -0.4025
 3834SOL    HW123138   3.838   4.036   8.774  1.2649  1.0046 -0.6917
 3834SOL    HW223139   3.905   3.902   8.767  1.1856  1.5870 -1.2247
 3835SOL     OW23140   2.676   4.066   8.616  0.4856  0.1451  0.4124
 3835SOL    HW123141   2.596   4.024   8.586  0.0255  0.1487  1.6436
 3835SOL    HW223142   2.745   4.000   8.608  0.7893  0.4272  0.6885
 3836SOL     OW23143   3.894   3.056  10.761  0.1318  0.0675 -0.3908
 3836SOL    HW123144   3.870   3.099  10.843  0.6743 -0.0671 -0.1610
 3836SOL    HW223145   3.832   2.985  10.749  1.9752 -1.6935  0.5462
 3837SOL     OW23146   2.920   3.476   5.503  0.5492  0.3876  0.6826
 3837SOL    HW123147   2.957   3.394   5.471 -2.7092 -1.2017  0.9902
 3837SOL    HW223148   2.895   3.443   5.589  0.0040 -0.0534  0.3516
 3838SOL     OW23149   2.176   0.699   7.402  0.4552 -0.6773  0.3478
 3838SOL    HW123150   2.197   0.611   7.371 -0.7730 -1.2491  1.1570
 3838SOL    HW223151   2.109   0.724   7.338 -0.5553  0.1328  1.7272
 3839SOL     OW23152   2.390   4.336   2.196  0.4256 -0.0001 -0.3689
 3839SOL    HW123153   2.451   4.269   2.228  0.1660  0.4738  1.1371
 3839SOL    HW223154   2.364   4.296   2.114 -1.0201  0.2912 -0.0505
 3840SOL     OW23155   1.974   4.240   6.596 -0.2110 -0.7714  0.2860
 3840SOL    HW123156   1.962   4.145   6.591 -2.8096 -0.5998  2.8660
 3840SOL    HW223157   1.946   4.254   6.687 -1.1279 -0.7457  0.0047
 3841SOL     OW23158   1.515   3.064   9.049 -0.0206  0.1130  0.2161
 3841SOL    HW123159   1.576   3.000   9.084  2.1203  1.4025 -1.1500
 3841SOL    HW223160   1.442   3.062   9.111  1.9170 -1.2739  2.4610
 3842SOL     OW23161   2.370   2.511   1.647  0.3201 -0.1036  0.1979
 3842SOL    HW123162   2.311   2.497   1.722  1.2594  2.4153  1.4161
 3842SOL    HW223163   2.407   2.423   1.642 -0.4601 -0.5774  2.6574
 3843SOL     OW23164   1.211   3.508   8.343 -0.3095  0.3686  0.2138
 3843SOL    HW123165   1.185   3.485   8.254  0.3912 -0.5773  0.2551
 3843SOL    HW223166   1.291   3.560   8.328  0.9836 -1.6392  0.1653
 3844SOL     OW23167   4.408   1.618   5.107  0.1341  0.0646  0.0354
 3844SOL    HW123168   4.330   1.663   5.074 -0.7468 -1.3851  0.1109
 3844SOL    HW223169   4.465   1.612   5.030 -1.1397 -0.4504 -0.8884
 3845SOL     OW23170   3.641   3.503   6.741 -0.1326  0.0797 -0.5031
 3845SOL    HW123171   3.682   3.531   6.659 -1.8796  0.9419 -1.0887
 3845SOL    HW223172   3.586   3.573   6.775  1.4101  0.2767  1.5534
 3846SOL     OW23173   3.022   3.921   5.426  0.2813 -0.3501 -0.5663
 3846SOL    HW123174   2.930   3.945   5.427  0.8560  1.8482  1.3781
 3846SOL    HW223175   3.023   3.833   5.462 -2.0520 -0.0484  0.2301
 3847SOL     OW23176   3.816   4.296   7.401  0.3329 -0.3430 -0.2374
 3847SOL    HW123177   3.837   4.286   7.494 -1.7665 -0.5935  0.2044
 3847SOL    HW223178   3.894   4.256   7.363 -0.0634 -1.9014  0.6151
 3848SOL     OW23179   2.434   3.253   3.267  0.3148 -0.3514  0.5853
 3848SOL    HW123180   2.369   3.187   3.242  0.1494 -0.2490  0.7469
 3848SOL    HW223181   2.438   3.304   3.187 -1.3514  0.3858  0.9755
 3849SOL     OW23182   4.322   3.445   7.311 -0.6505 -0.7062 -0.2440
 3849SOL    HW123183   4.285   3.511   7.252  1.0944  0.6393  0.1697
 3849SOL    HW223184   4.290   3.363   7.274 -3.2941 -0.8614  2.3579
 3850SOL     OW23185   1.806   0.725   4.489  0.7397  1.2129 -0.0508
 3850SOL    HW123186   1.815   0.757   4.579  0.3905  1.4662 -0.1053
 3850SOL    HW223187   1.845   0.639   4.498 -0.5928  0.4843 -1.2214
 3851SOL     OW23188   3.708   3.168   3.103  0.3545  0.3882 -0.5690
 3851SOL    HW123189   3.664   3.120   3.174 -1.8408  2.1727 -0.7412
 3851SOL    HW223190   3.729   3.255   3.138  1.3163 -0.2911  0.5814
 3852SOL     OW23191   0.357   1.437   2.060 -0.5249 -0.0618 -0.6166
 3852SOL    HW123192   0.376   1.361   2.006  0.9523 -0.2941  0.2162
 3852SOL    HW223193   0.431   1.435   2.121 -0.6806  1.1745 -0.3939
 3853SOL     OW23194   0.554   3.078   6.970  0.2209 -0.1954 -0.0258
 3853SOL    HW123195   0.645   3.070   6.998 -0.3066 -0.4733  1.6015
 3853SOL    HW223196   0.558   3.131   6.890 -1.6307 -1.7294 -1.1480
 3854SOL     OW23197   3.534   3.487   4.284  0.1027 -0.3981  0.0343
 3854SOL    HW123198   3.550   3.489   4.378  0.8182 -0.6592 -0.0892
 3854SOL    HW223199   3.469   3.418   4.273  3.1161 -3.6902  3.1405
 3855SOL     OW23200   1.967   2.836  12.788 -0.2092  0.5779 -0.0535
 3855SOL    HW123201   2.011   2.792  12.716  3.2712  2.3392  1.0112
 3855SOL    HW223202   1.967   2.765  12.852  0.3153  0.9756  0.3871
 3856SOL     OW23203   4.065   3.284  13.377  0.0072 -0.2358  0.4579
 3856SOL    HW123204   4.022   3.295  13.292  1.2651 -0.4158 -0.2026
 3856SOL    HW223205   4.062   3.375  13.404  1.1676  0.0316 -0.3489
 3857SOL     OW23206   4.407   0.640   4.004 -0.3508 -0.0646 -0.3809
 3857SOL    HW123207   4.394   0.729   3.969 -1.8414 -1.5054 -3.5299
 3857SOL    HW223208   4.383   0.666   4.093  1.8411 -0.9639  0.4795
 3858SOL     OW23209   3.327   3.555   2.425  0.3002  0.0043 -0.6198
 3858SOL    HW123210   3.355   3.558   2.334 -2.4744 -0.9482 -1.5025
 3858SOL    HW223211   3.382   3.620   2.468 -0.2341 -0.1424  0.2886
 3859SOL     OW23212   2.314   0.267   3.034 -0.1959  0.2745  0.1183
 3859SOL    HW123213   2.248   0.201   3.056  0.4007 -0.3514  0.0362
 3859SOL    HW223214   2.396   0.217   3.039 -0.7474 -0.2122  4.3941
 3860SOL     OW23215   1.843   1.364   6.512 -0.0694 -0.2526  0.1786
 3860SOL    HW123216   1.800   1.442   6.547 -2.0989 -1.5615  0.5956
 3860SOL    HW223217   1.871   1.385   6.423  1.6215 -1.0576  0.5252
 3861SOL     OW23218   2.541   1.088   4.700 -0.0451 -0.5206  0.0154
 3861SOL    HW123219   2.607   1.116   4.763 -1.9344 -0.2898  1.8617
 3861SOL    HW223220   2.474   1.048   4.755 -1.1570 -0.5566 -1.3795
 3862SOL     OW23221   2.174   4.326   1.179  0.1286 -0.1170  0.0914
 3862SOL    HW123222   2.204   4.328   1.269 -1.6366  2.9499  0.6323
 3862SOL    HW223223   2.089   4.284   1.193 -0.5916  1.4615  0.5295
 3863SOL     OW23224   3.230   3.710   4.048 -0.3404 -0.5101 -0.2799
 3863SOL    HW123225   3.212   3.714   4.142 -1.5475 -1.0531 -0.4866
 3863SOL    HW223226   3.190   3.624   4.034 -1.1055 -0.4740  1.7464
 3864SOL     OW23227   3.387   3.165   2.810  0.3536 -0.2728 -0.0169
 3864SOL    HW123228   3.357   3.252   2.837  0.8502 -0.7859  2.1810
 3864SOL    HW223229   3.482   3.172   2.821  0.2096  1.4945  0.1281
 3865SOL     OW23230   3.410   4.622  17.580  0.9900  0.2462 -0.0306
 3865SOL    HW123231   3.376   4.692  17.525  0.0705  1.0125  1.5003
 3865SOL    HW223232   3.433   4.552  17.519 -1.2534  0.1557 -0.7534
 3866SOL     OW23233   0.481   3.841   8.864  0.1937  0.3080 -0.7810
 3866SOL    HW123234   0.566   3.860   8.824  1.4903  0.0959  1.8319
 3866SOL    HW223235   0.473   3.921   8.916 -0.5311  0.0243 -0.4601
 3867SOL     OW23236   4.224   0.194  15.927 -0.3113 -0.0404  0.3980
 3867SOL    HW123237   4.138   0.217  15.892 -0.2353  1.0901  0.9563
 3867SOL    HW223238   4.211   0.100  15.942 -0.0425 -0.2217 -0.5417
 3868SOL     OW23239   2.593   4.193   2.292  0.3687 -0.7291  0.1215
 3868SOL    HW123240   2.626   4.114   2.249  0.3814 -1.2296  1.0400
 3868SOL    HW223241   2.641   4.190   2.375 -0.6782  0.5013  0.7805
 3869SOL     OW23242   4.192   4.580  12.049  0.8176  0.3185 -0.2683
 3869SOL    HW123243   4.117   4.565  11.991  1.4640 -0.3798 -0.9332
 3869SOL    HW223244   4.156   4.614  12.131  1.5116 -0.2485  0.2659
 3870SOL     OW23245   4.037   2.304  14.165 -0.0647  0.2715 -0.7249
 3870SOL    HW123246   4.062   2.390  14.133  0.7741 -0.3339 -1.6941
 3870SOL    HW223247   3.963   2.289  14.106  0.6792 -0.1340 -1.5427
 3871SOL     OW23248   2.241   3.647   7.542 -0.0926 -0.0505  0.3497
 3871SOL    HW123249   2.282   3.731   7.521 -0.3656 -0.4099 -1.6691
 3871SOL    HW223250   2.181   3.638   7.468  1.0404 -0.1504 -0.5521
 3872SOL     OW23251   2.569   3.912   8.952 -0.2429  0.1715 -0.2929
 3872SOL    HW123252   2.642   3.880   8.899 -0.9517 -1.9059 -0.0442
 3872SOL    HW223253   2.592   4.003   8.968  1.3790  0.2014 -2.7966
 3873SOL     OW23254   0.263   4.688   2.006 -0.3595  0.1132 -0.0431
 3873SOL    HW123255   0.183   0.008   2.010  0.8120  1.8770 -0.5048
 3873SOL    HW223256   0.241   4.645   2.089 -2.5166 -0.2055 -0.7830
 3874SOL     OW23257   1.219   2.963   6.768 -0.9344  0.8457 -0.2665
 3874SOL    HW123258   1.314   2.957   6.773 -0.8045  1.3236 -2.1618
 3874SOL    HW223259   1.195   3.040   6.820  1.1491  0.9752  0.5101
 3875SOL     OW23260   4.516   2.487   4.031  0.1213 -0.5700  0.2256
 3875SOL    HW123261   4.441   2.446   4.075 -0.3964 -1.2425 -1.2764
 3875SOL    HW223262   4.571   2.414   4.002  0.6098  0.6498 -1.8768
 3876SOL     OW23263   2.763   3.115   8.722  0.0594  0.1724 -0.3012
 3876SOL    HW123264   2.693   3.052   8.708 -0.2479  0.3939  0.2289
 3876SOL    HW223265   2.741   3.150   8.808  0.6136 -0.2173 -0.0071
 3877SOL     OW23266   1.992   2.195   0.268 -0.0244 -0.4174 -0.1358
 3877SOL    HW123267   2.016   2.285   0.290  0.3301 -0.9567  1.6759
 3877SOL    HW223268   1.899   2.198   0.247  0.1116  0.6370 -0.5814
 3878SOL     OW23269   3.424   1.834   3.635  0.2407 -0.4123  0.5462
 3878SOL    HW123270   3.363   1.766   3.608 -0.4416  1.0080 -1.4515
 3878SOL    HW223271   3.377   1.876   3.707 -0.9509  1.7696 -1.5164
 3879SOL     OW23272   3.381   1.453  16.602  0.0138 -0.0040 -0.2042
 3879SOL    HW123273   3.348   1.427  16.516 -1.3861  1.5495 -0.1504
 3879SOL    HW223274   3.299   1.442  16.651 -1.1162  0.0383 -2.0636
 3880SOL     OW23275   3.148   0.152   8.427 -0.1081  0.3249  0.4109
 3880SOL    HW123276   3.223   0.141   8.369  0.4398 -0.3196  1.2332
 3880SOL    HW223277   3.194   0.199   8.497 -0.7354 -1.3670  1.9510
 3881SOL     OW23278   2.122   1.265   2.991  0.1737 -0.1690 -0.1419
 3881SOL    HW123279   2.130   1.170   2.997 -0.5392 -0.0873  1.9666
 3881SOL    HW223280   2.027   1.277   3.000  0.5885  1.5878  1.8382
 3882SOL     OW23281   0.676   1.699   6.563 -0.0150 -0.2922 -0.3839
 3882SOL    HW123282   0.652   1.670   6.652 -1.7667 -0.7308 -0.9875
 3882SOL    HW223283   0.593   1.737   6.533 -0.8291 -1.4267  0.4266
 3883SOL     OW23284   0.828   1.677   4.088  0.6286  0.0815  0.1600
 3883SOL    HW123285   0.816   1.590   4.049  0.3189 -0.7840  2.2020
 3883SOL    HW223286   0.793   1.730   4.016  1.1829 -0.7018 -0.6786
 3884SOL     OW23287   0.162   2.298   8.121  0.3540  0.2137 -0.7114
 3884SOL    HW123288   0.103   2.365   8.087 -0.1890  0.6750  1.1462
 3884SOL    HW223289   0.189   2.250   8.043  1.4966  0.4681 -0.4749
 3885SOL     OW23290   1.658   1.729   8.384  0.4317  0.4444  0.0168
 3885SOL    HW123291   1.699   1.718   8.470  0.2258 -1.4893 -0.1357
 3885SOL    HW223292   1.731   1.726   8.322  1.0992 -1.1035  0.8598
 3886SOL     OW23293   3.584   2.095   4.521  0.1270 -0.3927 -0.1662
 3886SOL    HW123294   3.669   2.118   4.558 -0.7782  2.7476 -0.0474
 3886SOL    HW223295   3.558   2.179   4.482 -0.0292 -0.7267 -0.7932
 3887SOL     OW23296   4.183   4.655  17.334  0.0108 -0.4436 -0.4163
 3887SOL    HW123297   4.189   4.607  17.417  1.2061  0.8152  0.2181
 3887SOL    HW223298   4.099   4.617  17.307  0.3499 -0.6654 -1.1689
 3888SOL     OW23299   2.474   0.495   4.687  0.5388  0.1451  0.4459
 3888SOL    HW123300   2.548   0.437   4.705  3.3564  3.3997 -0.4342
 3888SOL    HW223301   2.439   0.509   4.775 -0.8460 -3.4374  0.4530
 3889SOL     OW23302   3.509   1.183   2.530 -0.1424  0.2406  0.0488
 3889SOL    HW123303   3.534   1.271   2.559 -1.7710  0.8819 -0.5203
 3889SOL    HW223304   3.417   1.196   2.508 -0.3272  0.3066  0.8454
 3890SOL     OW23305   2.287   0.338   2.078  0.8304 -0.3287  0.4478
 3890SOL    HW123306   2.373   0.379   2.075  0.0641  1.3560  1.2354
 3890SOL    HW223307   2.281   0.294   1.993  2.3424 -1.5189  0.9633
 3891SOL     OW23308   0.261   2.030   3.418 -0.1013  0.1428 -0.3734
 3891SOL    HW123309   0.234   1.975   3.492 -0.8524  0.1137 -0.6598
 3891SOL    HW223310   0.291   1.966   3.354 -2.3016  0.6293 -1.8991
 3892SOL     OW23311   3.321   1.208   8.614 -0.1123  0.3975 -0.4803
 3892SOL    HW123312   3.250   1.144   8.608 -0.4012  0.7022 -0.3151
 3892SOL    HW223313   3.271   1.280   8.651 -0.2994 -0.5143  1.0287
 3893SOL     OW23314   1.123   4.525  15.843  0.2166 -0.4348 -0.2779
 3893SOL    HW123315   1.160   4.456  15.898  1.7593  0.7514  0.1862
 3893SOL    HW223316   1.197   4.537  15.783 -0.3383  0.1426 -0.8517
 3894SOL     OW23317   3.984   3.080  11.865  0.4508  0.6572  0.0795
 3894SOL    HW123318   4.043   3.017  11.824  0.2111  0.8895 -0.6277
 3894SOL    HW223319   3.944   3.031  11.937 -2.4203  1.4590 -0.9540
 3895SOL     OW23320   0.703   2.568   3.483  0.6356 -0.2554 -0.1513
 3895SOL    HW123321   0.755   2.643   3.512  0.6480 -0.7424  1.0787
 3895SOL    HW223322   0.674   2.606   3.400  0.5478  0.9171  0.4118
 3896SOL     OW23323   4.035   0.914   4.752 -0.1847  0.0064 -0.1518
 3896SOL    HW123324   4.125   0.885   4.736 -0.2313  0.7984 -1.9749
 3896SOL    HW223325   3.997   0.888   4.668  1.4738 -0.7014 -0.6794
 3897SOL     OW23326   4.168   3.425   4.933 -0.1738 -0.6145 -0.5586
 3897SOL    HW123327   4.156   3.513   4.968 -0.1282 -0.3159 -1.3029
 3897SOL    HW223328   4.156   3.368   5.009  1.3998 -1.0142 -0.6026
 3898SOL     OW23329   1.403   4.669   6.933  1.1794 -0.0310  0.1019
 3898SOL    HW123330   1.427   4.611   7.005  2.4072  0.7882  0.3480
 3898SOL    HW223331   1.312   4.645   6.914  0.1455  1.6049  2.9973
 3899SOL     OW23332   2.660   0.827   2.597 -0.3856  0.6790 -0.2792
 3899SOL    HW123333   2.592   0.772   2.558  0.5934 -1.3998  0.9554
 3899SOL    HW223334   2.626   0.829   2.686  0.9788  2.4556  0.1959
 3900SOL     OW23335   0.816   0.375   1.841  0.0382  0.4047  0.0724
 3900SOL    HW123336   0.723   0.390   1.856 -0.3955 -2.7644  0.5664
 3900SOL    HW223337   0.842   0.351   1.930  1.9584  0.7723 -0.3767
 3901SOL     OW23338   2.432   0.726   9.594 -0.2054  0.1096 -0.0649
 3901SOL    HW123339   2.356   0.746   9.540 -2.0360 -0.6675  2.2057
 3901SOL    HW223340   2.471   0.814   9.600 -1.0223  0.5651 -1.7625
 3902SOL     OW23341   0.524   1.664   4.136  0.1221 -0.3906 -0.3706
 3902SOL    HW123342   0.557   1.604   4.069 -0.1698 -0.5897 -0.3326
 3902SOL    HW223343   0.502   1.607   4.208  0.7485 -1.2464 -0.8543
 3903SOL     OW23344   4.083   2.342  12.739 -0.4430  0.5688 -0.0156
 3903SOL    HW123345   4.110   2.268  12.684 -1.6703  1.0625 -1.2868
 3903SOL    HW223346   4.060   2.307  12.825  0.3694  0.6512  0.2349
 3904SOL     OW23347   3.424   3.108   7.785  0.3051  0.4158  0.6535
 3904SOL    HW123348   3.335   3.102   7.820  0.5316 -1.5096  0.8635
 3904SOL    HW223349   3.426   3.204   7.782 -1.9820  0.4785  0.8075
 3905SOL     OW23350   4.099   4.515   3.456  0.0397  0.3398 -0.6621
 3905SOL    HW123351   4.095   4.580   3.526 -0.6813 -1.3156  0.8343
 3905SOL    HW223352   4.190   4.487   3.466 -0.1315 -0.0009 -0.0514
 3906SOL     OW23353   4.394   0.476   5.380 -0.2590  0.1172 -0.8217
 3906SOL    HW123354   4.364   0.422   5.307 -0.2372 -2.6851  1.2603
 3906SOL    HW223355   4.463   0.525   5.335  0.9715  0.5986  1.5915
 3907SOL     OW23356   4.484   0.038   6.575  0.1296 -0.5457  0.0948
 3907SOL    HW123357   4.410   4.713   6.592 -0.3477  0.0317  0.0171
 3907SOL    HW223358   4.535   4.730   6.644  1.6524  0.2724 -0.5349
 3908SOL     OW23359   3.587   1.301   5.384 -0.1720 -0.5453 -0.8811
 3908SOL    HW123360   3.531   1.379   5.378  0.3266 -0.1592 -0.5641
 3908SOL    HW223361   3.583   1.289   5.479 -1.6483 -0.9315 -0.9947
 3909SOL     OW23362   3.133   2.347   6.512  0.4184  0.0814 -0.1345
 3909SOL    HW123363   3.148   2.257   6.542 -2.8457 -0.5816 -0.5275
 3909SOL    HW223364   3.170   2.336   6.425 -0.2063 -0.9430 -0.2706
 3910SOL     OW23365   2.150   4.328   7.694 -0.0210  0.2742 -0.6573
 3910SOL    HW123366   2.081   4.271   7.729 -0.0458  2.4274  2.7505
 3910SOL    HW223367   2.092   4.403   7.685  1.3594  1.0610 -3.0269
 3911SOL     OW23368   0.200   0.682   0.497 -0.8091  0.2799 -0.0091
 3911SOL    HW123369   0.218   0.648   0.585  0.4677  1.6487  0.2575
 3911SOL    HW223370   0.192   0.776   0.513 -0.7425  0.2055  0.4741
 3912SOL     OW23371   3.774   2.518   3.175  0.2824  0.4550  0.2378
 3912SOL    HW123372   3.710   2.474   3.119  0.4647  0.5401 -0.0348
 3912SOL    HW223373   3.838   2.447   3.170  0.6166  0.8192 -0.7051
 3913SOL     OW23374   3.314   4.577   2.427  0.1693  0.3925 -0.1298
 3913SOL    HW123375   3.363   4.578   2.345  2.4470  0.1145  1.2459
 3913SOL    HW223376   3.224   4.568   2.395  0.0705 -0.1536  0.2922
 3914SOL     OW23377   0.440   0.325   8.891 -0.4348  0.6664 -0.4642
 3914SOL    HW123378   0.396   0.409   8.877  1.4087  1.5514 -0.9223
 3914SOL    HW223379   0.456   0.292   8.803 -1.2545 -1.1389  0.0602
 3915SOL     OW23380   4.311   0.235   2.214  0.7090  0.0282  0.5688
 3915SOL    HW123381   4.313   0.159   2.272 -0.5122 -0.2907  0.1917
 3915SOL    HW223382   4.324   0.199   2.126  2.0431 -0.5735  1.0237
 3916SOL     OW23383   3.038   2.958   8.533 -0.6829  0.0871  0.3639
 3916SOL    HW123384   3.039   3.050   8.560 -0.3253 -0.3992  1.9625
 3916SOL    HW223385   2.965   2.922   8.583 -2.6050  2.2313 -0.8664
 3917SOL     OW23386   1.516   2.186   3.247 -0.0218  0.1128 -0.4719
 3917SOL    HW123387   1.503   2.280   3.262 -0.4362  0.3549 -2.2859
 3917SOL    HW223388   1.435   2.148   3.281 -0.3752  0.1256 -1.2971
 3918SOL     OW23389   3.074   2.192   4.278  0.3612  0.1267 -0.2073
 3918SOL    HW123390   3.005   2.175   4.213  0.5670 -0.9684 -0.1334
 3918SOL    HW223391   3.109   2.103   4.278 -2.3664 -0.9446  0.7353
 3919SOL     OW23392   3.715   1.560   3.565 -0.2355  0.8284 -0.6639
 3919SOL    HW123393   3.716   1.483   3.621 -0.3032  1.3787  0.0960
 3919SOL    HW223394   3.649   1.617   3.605 -0.2009  3.0247 -3.7647
 3920SOL     OW23395   1.051   1.268  17.662 -0.5692  0.0200 -0.7013
 3920SOL    HW123396   1.011   1.189  17.626 -2.7330  0.2497  1.2283
 3920SOL    HW223397   0.989   1.300  17.727  1.0950  1.2405  0.2840
 3921SOL     OW23398   1.233   3.991   6.752  1.3522 -1.1113  0.7447
 3921SOL    HW123399   1.230   4.005   6.657 -0.2359  0.7875  1.0795
 3921SOL    HW223400   1.280   4.073   6.768  1.6208 -1.0700 -0.2326
 3922SOL     OW23401   2.373   0.640  10.711  0.5919  0.0007  0.2295
 3922SOL    HW123402   2.300   0.662  10.769  0.2492 -1.1485  0.2246
 3922SOL    HW223403   2.328   0.584  10.648 -0.1318 -1.4687  2.0676
 3923SOL     OW23404   0.196   1.114   8.086 -0.4748  0.3314  0.0405
 3923SOL    HW123405   0.109   1.102   8.049 -1.1353  0.7003  1.4813
 3923SOL    HW223406   0.189   1.199   8.129  0.7925  0.1978  0.5214
 3924SOL     OW23407   0.769   2.917   8.314  0.3559 -0.0906 -0.3788
 3924SOL    HW123408   0.827   2.913   8.390 -2.5836 -2.0905  1.8015
 3924SOL    HW223409   0.695   2.864   8.344  0.8887 -0.6268  0.0030
 3925SOL     OW23410   0.483   4.644   9.006 -0.0006  0.3112 -0.7204
 3925SOL    HW123411   0.461   4.585   9.078  1.2596  0.7418  0.0371
 3925SOL    HW223412   0.477   4.721   9.063 -0.6186 -0.3575  0.1108
 3926SOL     OW23413   0.758   1.411   6.555  0.7046  0.1834  0.2931
 3926SOL    HW123414   0.762   1.506   6.548  0.9779 -0.0285 -2.3722
 3926SOL    HW223415   0.668   1.382   6.570  1.8851 -2.0100  3.1497
 3927SOL     OW23416   2.144   0.905   1.480 -0.0128 -0.3090  0.1316
 3927SOL    HW123417   2.114   0.894   1.570 -0.2894 -0.2172  0.0486
 3927SOL    HW223418   2.228   0.859   1.483  0.5947  0.7472 -0.7389
 3928SOL     OW23419   3.665   0.765   5.144 -0.5720  0.2778  0.4759
 3928SOL    HW123420   3.676   0.670   5.141 -0.2059  0.3916 -1.9729
 3928SOL    HW223421   3.643   0.789   5.054 -0.1841  0.9729  0.5643
 3929SOL     OW23422   0.785   2.338   1.735 -0.0976  0.2232  0.5014
 3929SOL    HW123423   0.707   2.303   1.691  0.6045 -2.5782  1.4642
 3929SOL    HW223424   0.745   2.373   1.814  1.2371  1.7208  0.5132
 3930SOL     OW23425   4.486   4.590   9.375 -0.2520 -0.1369  0.0835
 3930SOL    HW123426   4.542   4.663   9.402  0.0716  0.1999 -1.5421
 3930SOL    HW223427   4.515   4.512   9.423 -1.7786  0.0478  1.3317
 3931SOL     OW23428   2.923   1.776   1.693  0.2517 -0.2215  0.3258
 3931SOL    HW123429   2.870   1.853   1.671 -0.8050 -0.6612  1.3500
 3931SOL    HW223430   2.863   1.743   1.759  0.9312  1.0402  1.5979
 3932SOL     OW23431   4.070   1.128  12.466  0.1672 -0.4308 -0.3189
 3932SOL    HW123432   4.013   1.178  12.522 -1.4767 -1.2539 -1.2581
 3932SOL    HW223433   4.156   1.128  12.508 -0.3426  2.1536  0.6990
 3933SOL     OW23434   4.410   2.979   7.959 -0.2732  0.3450 -0.3588
 3933SOL    HW123435   4.323   3.018   7.960  0.0589  1.0957 -0.6720
 3933SOL    HW223436   4.433   2.983   7.866  0.1451 -1.8578 -0.3564
 3934SOL     OW23437   0.470   1.757   3.833  0.2182  0.0237  0.4567
 3934SOL    HW123438   0.462   1.844   3.795  0.2105 -1.2640 -2.5747
 3934SOL    HW223439   0.505   1.704   3.761  0.8064  2.2657 -0.9163
 3935SOL     OW23440   0.553   0.683   8.051  0.0588  0.7932  0.1214
 3935SOL    HW123441   0.631   0.656   8.099  0.4325 -2.2791 -2.2090
 3935SOL    HW223442   0.560   0.778   8.051  2.6212  0.5932 -1.5094
 3936SOL     OW23443   0.101   0.190  11.088  0.3127 -0.6257  0.2681
 3936SOL    HW123444   0.123   0.282  11.103 -0.3653 -0.2918 -0.7736
 3936SOL    HW223445   0.021   0.179  11.140  1.0838  0.4019  1.6989
 3937SOL     OW23446   2.711   3.941  15.180 -0.4407  0.1301  0.4181
 3937SOL    HW123447   2.701   4.006  15.250 -1.4437 -1.5640  1.8613
 3937SOL    HW223448   2.627   3.944  15.134 -0.6412  0.8861  0.8339
 3938SOL     OW23449   4.488   1.488  14.384  0.0639 -0.0704 -0.7567
 3938SOL    HW123450   4.498   1.524  14.472 -1.1604 -0.1123 -0.6053
 3938SOL    HW223451   4.548   1.540  14.329 -1.1506  0.7574 -1.3141
 3939SOL     OW23452   4.012   3.773   4.702 -0.0792 -0.6375  0.5433
 3939SOL    HW123453   4.016   3.850   4.758 -0.1043  0.3921 -0.8785
 3939SOL    HW223454   4.100   3.770   4.666 -0.5668 -1.9814 -0.5638
 3940SOL     OW23455   4.141   0.090   4.357  0.0901 -0.0285  0.2062
 3940SOL    HW123456   4.222   0.045   4.335 -0.6861 -0.0467 -2.7294
 3940SOL    HW223457   4.104   0.108   4.270 -2.7215  2.2479  1.8776
 3941SOL     OW23458   2.439   3.875   7.086 -0.5811 -0.1033 -0.2305
 3941SOL    HW123459   2.447   3.779   7.083  0.8057 -0.0438  1.2312
 3941SOL    HW223460   2.495   3.887   7.164 -0.7626 -0.9458  0.0367
 3942SOL     OW23461   0.120   3.508   4.280  0.7483  0.1375 -0.1322
 3942SOL    HW123462   0.043   3.565   4.285  2.1003  1.8129  1.6508
 3942SOL    HW223463   0.081   3.430   4.242 -0.8907  0.8860 -0.0253
 3943SOL     OW23464   2.239   0.773   2.105  0.0807  0.1311 -0.0493
 3943SOL    HW123465   2.205   0.849   2.153  2.1609 -0.5757  2.5753
 3943SOL    HW223466   2.265   0.707   2.170 -0.3876 -0.0377 -0.0380
 3944SOL     OW23467   2.418   1.866   3.312 -0.1103 -0.4009 -0.1245
 3944SOL    HW123468   2.406   1.775   3.285  2.4170  0.0809 -2.8610
 3944SOL    HW223469   2.503   1.867   3.357 -0.4507  1.1057  0.4832
 3945SOL     OW23470   1.434   2.019  13.241  0.1671 -0.2979  0.1967
 3945SOL    HW123471   1.356   1.962  13.240  2.0476 -2.9489  2.5005
 3945SOL    HW223472   1.496   1.969  13.189 -0.1427 -1.3267  0.8095
 3946SOL     OW23473   3.565   4.255   3.424 -0.1293  0.0865  0.2922
 3946SOL    HW123474   3.600   4.173   3.390 -1.3077  0.6690 -2.3739
 3946SOL    HW223475   3.606   4.265   3.510 -1.0264 -0.2311  0.7653
 3947SOL     OW23476   0.433   4.595   7.949  0.7453  0.4857 -0.2426
 3947SOL    HW123477   0.502   4.658   7.925  0.9960 -0.0411 -0.9157
 3947SOL    HW223478   0.480   4.512   7.940  1.3723  0.7076  1.0147
 3948SOL     OW23479   1.532   2.942  15.474 -0.3706 -0.3529 -0.6000
 3948SOL    HW123480   1.561   2.864  15.426 -1.0742  0.2327 -1.9742
 3948SOL    HW223481   1.591   2.997  15.422  0.3342 -0.6097 -0.0741
 3949SOL     OW23482   1.134   0.926   5.328 -0.1481  0.1687 -0.0460
 3949SOL    HW123483   1.090   0.970   5.255  0.4278  0.2014 -0.3754
 3949SOL    HW223484   1.082   0.971   5.394 -1.1526 -1.8033  0.5270
 3950SOL     OW23485   3.972   0.045  16.237  0.9645 -0.4802 -0.1645
 3950SOL    HW123486   3.930   0.125  16.204  0.2159 -1.3609 -1.3229
 3950SOL    HW223487   4.047   0.084  16.283  0.6094 -0.1204  0.1135
 3951SOL     OW23488   2.154   3.695   6.528 -0.2401  0.1527  0.1232
 3951SOL    HW123489   2.118   3.689   6.616 -0.1733  0.1514  0.1505
 3951SOL    HW223490   2.248   3.707   6.543 -0.1275  1.4461 -1.6229
 3952SOL     OW23491   4.696   2.934   2.463 -0.6505  0.4165  1.2492
 3952SOL    HW123492   4.730   2.987   2.391 -0.0494 -1.7970 -0.0904
 3952SOL    HW223493   4.607   2.919   2.431 -0.4533 -0.3475  1.0648
 3953SOL     OW23494   2.880   1.030   9.129  0.7476  0.0047 -0.6097
 3953SOL    HW123495   2.836   0.993   9.052 -0.0806 -0.9427  0.3309
 3953SOL    HW223496   2.892   0.951   9.182 -0.2272  1.5186  1.8653
 3954SOL     OW23497   0.852   1.110   6.990 -0.8380 -0.2641  0.2968
 3954SOL    HW123498   0.853   1.085   6.898 -0.2733  0.1224  0.1982
 3954SOL    HW223499   0.851   1.025   7.034  0.6984  0.6994  2.2610
 3955SOL     OW23500   2.532   0.390   7.848  0.2218 -0.2877  0.3392
 3955SOL    HW123501   2.541   0.374   7.943  1.4526 -0.5395  0.1917
 3955SOL    HW223502   2.622   0.383   7.816  0.5188  2.2174  0.6590
 3956SOL     OW23503   0.071   1.404   3.588 -0.0133 -0.1052 -0.2863
 3956SOL    HW123504   0.003   1.378   3.650 -0.5677  0.8057 -0.5143
 3956SOL    HW223505   0.033   1.486   3.557 -0.6145 -0.1876  0.2259
 3957SOL     OW23506   4.156   2.111   7.598  0.0996 -0.2971 -0.0929
 3957SOL    HW123507   4.069   2.081   7.623 -0.0103  0.4729  0.4725
 3957SOL    HW223508   4.144   2.089   7.506  2.3658 -2.0337  0.0229
 3958SOL     OW23509   0.119   2.297   6.424 -0.4576 -0.5668 -0.1058
 3958SOL    HW123510   0.129   2.217   6.373 -0.0448 -0.6769  0.1466
 3958SOL    HW223511   0.076   2.351   6.358  0.2624 -0.0788 -0.1695
 3959SOL     OW23512   1.286   0.874  16.653  0.3538 -0.1329  0.0273
 3959SOL    HW123513   1.297   0.783  16.625  2.2144  0.4565 -1.1318
 3959SOL    HW223514   1.231   0.904  16.581  0.3893  2.0910  0.9380
 3960SOL     OW23515   1.401   0.077   8.507 -0.0205 -0.1407  0.2150
 3960SOL    HW123516   1.407   0.080   8.602  2.2097 -3.3219  0.1783
 3960SOL    HW223517   1.412   4.717   8.491  0.4594 -0.4937  2.7099
 3961SOL     OW23518   2.213   3.495   5.816  0.1856  0.4910  0.1432
 3961SOL    HW123519   2.302   3.498   5.850 -0.8242  1.8708  2.6222
 3961SOL    HW223520   2.164   3.545   5.881 -1.2996  0.5086 -0.9836
 3962SOL     OW23521   3.553   0.510   3.232 -0.0836  0.8418  0.6483
 3962SOL    HW123522   3.553   0.605   3.227 -1.8310  0.8375  0.6527
 3962SOL    HW223523   3.645   0.500   3.255  0.4515  0.5603 -1.5949
 3963SOL     OW23524   4.226   2.773   5.379  0.0630 -0.1979  0.2593
 3963SOL    HW123525   4.208   2.692   5.428  0.2867 -1.2961 -1.4845
 3963SOL    HW223526   4.182   2.840   5.431  1.6819  0.6184  0.5625
 3964SOL     OW23527   4.145   4.443   2.124  0.0127 -0.1928 -0.0475
 3964SOL    HW123528   4.090   4.402   2.057  2.2769  1.1557 -2.6984
 3964SOL    HW223529   4.190   4.515   2.081  2.9526 -1.9135  0.1733
 3965SOL     OW23530   2.402   4.582   5.789 -0.0269 -0.5535  0.5559
 3965SOL    HW123531   2.356   4.498   5.784  2.0333 -1.6906  0.6764
 3965SOL    HW223532   2.410   4.588   5.884  0.6827 -0.4656  0.4921
 3966SOL     OW23533   0.869   0.039   2.142  0.2802  0.1218 -0.1823
 3966SOL    HW123534   0.890   0.105   2.208 -1.7252  0.8393 -0.2811
 3966SOL    HW223535   0.942   0.068   2.086  1.1076 -0.3740  0.6323
 3967SOL     OW23536   0.550   2.202   6.127  0.0843  0.2607  0.3293
 3967SOL    HW123537   0.497   2.280   6.144  0.0706 -0.0466  1.6621
 3967SOL    HW223538   0.548   2.150   6.207  1.2522 -2.1167 -1.1856
 3968SOL     OW23539   2.983   3.934  12.140 -0.1263  0.2766 -0.0958
 3968SOL    HW123540   3.033   3.881  12.078  0.5869 -3.9221  4.0281
 3968SOL    HW223541   3.053   3.954  12.203 -0.5447 -1.3533  0.8852
 3969SOL     OW23542   3.155   2.890   4.439  0.1902 -0.1752 -0.5068
 3969SOL    HW123543   3.070   2.890   4.484  0.0980 -1.2445 -0.6806
 3969SOL    HW223544   3.175   2.983   4.454  1.1073 -0.4525 -0.0678
 3970SOL     OW23545   4.722   3.645   4.931  0.2482 -0.3851  0.2484
 3970SOL    HW123546   0.023   3.559   4.956  0.3869  0.0069  1.4149
 3970SOL    HW223547   4.653   3.654   4.997 -0.3915  1.2452 -0.6609
 3971SOL     OW23548   0.821   2.639   9.146  0.1531 -0.2430 -0.2577
 3971SOL    HW123549   0.827   2.602   9.058 -0.1069 -1.8152  0.3906
 3971SOL    HW223550   0.878   2.584   9.199 -0.2534  0.5751  1.0197
 3972SOL     OW23551   3.451   2.128   9.359  0.1040  0.5910 -0.2354
 3972SOL    HW123552   3.498   2.165   9.434  0.7484 -1.9503  0.6371
 3972SOL    HW223553   3.366   2.112   9.399  0.5871 -0.3004  0.4279
 3973SOL     OW23554   1.822   3.605   7.803  0.6037  0.6103  0.2585
 3973SOL    HW123555   1.823   3.664   7.879 -0.5103  1.7231 -0.5947
 3973SOL    HW223556   1.916   3.594   7.790  0.3614 -0.6716 -0.3373
 3974SOL     OW23557   0.314   4.553   4.889  0.0564  0.3984 -0.3013
 3974SOL    HW123558   0.231   4.524   4.928  0.2156 -0.5758 -0.7087
 3974SOL    HW223559   0.364   4.472   4.893 -0.5819 -0.1157 -2.5673
 3975SOL     OW23560   3.287   4.678   7.250 -0.0847 -0.1138 -0.0017
 3975SOL    HW123561   3.210   4.725   7.218 -0.0283  0.6307  0.9563
 3975SOL    HW223562   3.262   4.658   7.340 -0.4074 -1.6248 -0.4365
 3976SOL     OW23563   2.139   1.839  12.733  0.2009  0.4744 -0.0543
 3976SOL    HW123564   2.166   1.798  12.651  2.1145  0.6662  0.4943
 3976SOL    HW223565   2.162   1.931  12.725  2.3749 -0.1007 -0.3890
 3977SOL     OW23566   1.039   0.252   0.962  0.3984  0.4082  0.6342
 3977SOL    HW123567   1.118   0.225   0.915  0.2335  1.8103 -0.4307
 3977SOL    HW223568   0.985   0.174   0.952 -0.4892  1.2952 -1.2730
 3978SOL     OW23569   4.018   0.386   6.258  0.8378 -0.1452 -0.5842
 3978SOL    HW123570   3.926   0.412   6.266  0.2355 -2.5531  0.5688
 3978SOL    HW223571   4.022   0.340   6.174 -1.2516 -0.9642 -0.2432
 3979SOL     OW23572   0.788   0.705   7.543 -0.0074 -0.0168  0.0922
 3979SOL    HW123573   0.789   0.647   7.619  1.0360 -0.5741 -0.3380
 3979SOL    HW223574   0.707   0.695   7.493  0.4650  1.1141 -0.9188
 3980SOL     OW23575   3.682   3.962  10.924  0.1422 -0.1432 -0.6895
 3980SOL    HW123576   3.768   3.956  10.882  0.1306  0.4137 -0.7870
 3980SOL    HW223577   3.651   4.021  10.855 -0.5663  1.5614  1.0960
 3981SOL     OW23578   0.812   2.429   6.933 -0.2240  0.7989  0.6047
 3981SOL    HW123579   0.785   2.446   7.023 -0.2616 -0.0221  0.7487
 3981SOL    HW223580   0.777   2.505   6.888 -3.6718 -1.0061  0.2306
 3982SOL     OW23581   4.164   2.947   9.114  0.2122  0.4104  0.4780
 3982SOL    HW123582   4.135   2.925   9.025 -1.0689  0.9571  0.7596
 3982SOL    HW223583   4.253   2.968   9.085 -0.2368  0.9063 -0.5422
 3983SOL     OW23584   2.083   4.194   5.469 -0.3737 -0.2001 -0.0413
 3983SOL    HW123585   2.144   4.264   5.447 -1.1550  0.5096  0.0680
 3983SOL    HW223586   2.021   4.186   5.396 -0.5451  1.8866 -0.1182
 3984SOL     OW23587   0.115   2.162  11.088 -0.0268  0.3217  0.0037
 3984SOL    HW123588   0.207   2.185  11.081  0.6361 -2.3280 -0.1401
 3984SOL    HW223589   0.062   2.214  11.027  0.8983  2.6046  1.1728
 3985SOL     OW23590   4.305   1.492   1.528 -0.0560  0.3676  0.2879
 3985SOL    HW123591   4.381   1.445   1.562  1.2578  1.8242 -0.6554
 3985SOL    HW223592   4.350   1.547   1.464 -1.4236  0.2505 -0.7746
 3986SOL     OW23593   4.639   3.155   8.439  0.4956 -0.2982  0.4097
 3986SOL    HW123594   4.639   3.075   8.385 -0.8225 -0.9655  1.3944
 3986SOL    HW223595   4.647   3.227   8.377  0.8249 -1.6581 -1.1509
 3987SOL     OW23596   1.919   1.784  14.203 -0.5399 -0.3388 -0.0997
 3987SOL    HW123597   1.891   1.752  14.117  1.0179 -0.0970 -0.7112
 3987SOL    HW223598   1.965   1.866  14.181 -0.3246 -0.2994  0.5043
 3988SOL     OW23599   2.547   3.310  17.659 -0.2588 -0.8456  0.7181
 3988SOL    HW123600   2.591   3.393  17.642 -0.1237 -1.4612 -1.9257
 3988SOL    HW223601   2.587   3.253  17.593  0.4236 -1.6519  1.8293
 3989SOL     OW23602   2.686   0.033   8.495  0.5946 -0.4283  0.1975
 3989SOL    HW123603   2.748   0.066   8.559  0.5645  0.1809 -0.0845
 3989SOL    HW223604   2.726   4.684   8.469  0.0915 -0.9997  1.2409
 3990SOL     OW23605   1.998   0.248   8.193 -0.3870 -0.3342 -0.4398
 3990SOL    HW123606   1.986   0.153   8.203  0.1450 -0.4844 -1.2493
 3990SOL    HW223607   1.912   0.281   8.216 -1.4685 -2.3811 -1.4948
 3991SOL     OW23608   2.884   0.339  15.670 -0.8201 -0.0668  0.3577
 3991SOL    HW123609   2.931   0.410  15.714 -0.8078  1.2732 -1.8091
 3991SOL    HW223610   2.796   0.342  15.708 -1.6574 -0.1738 -1.6115
 3992SOL     OW23611   0.475   3.028   1.844 -0.2853 -0.2640 -0.8938
 3992SOL    HW123612   0.431   2.944   1.833  0.9411 -0.4426 -4.5076
 3992SOL    HW223613   0.565   3.005   1.821 -0.0057 -1.0672  0.9983
 3993SOL     OW23614   4.487   0.086   9.714 -0.1309 -0.0614 -0.1253
 3993SOL    HW123615   4.546   0.078   9.789 -0.1683 -1.3082 -0.2262
 3993SOL    HW223616   4.462   0.178   9.723 -1.5310 -0.5125  0.6683
 3994SOL     OW23617   0.380   4.637   0.443  0.3260 -0.0540 -0.1125
 3994SOL    HW123618   0.388   4.732   0.449 -2.0547  0.0292  1.5458
 3994SOL    HW223619   0.396   4.612   0.352  1.8244 -2.8233  0.9135
 3995SOL     OW23620   0.632   1.822   0.334 -0.4298  0.1176  0.5745
 3995SOL    HW123621   0.541   1.828   0.308 -0.2916 -0.7896 -0.1343
 3995SOL    HW223622   0.635   1.817   0.430 -0.1004  0.1693  0.5690
 3996SOL     OW23623   3.570   4.708   9.838  0.2724 -0.1840 -0.0058
 3996SOL    HW123624   3.628   4.645   9.881  0.0058  0.0955  0.7649
 3996SOL    HW223625   3.633   0.030   9.793 -0.7945  3.2051  2.6938
 3997SOL     OW23626   3.390   0.027   1.268 -0.2194 -0.2459 -0.3077
 3997SOL    HW123627   3.313   0.013   1.322  0.0271 -0.5628 -0.0372
 3997SOL    HW223628   3.441   4.684   1.293  1.1415  0.8200  0.2447
 3998SOL     OW23629   4.240   0.335   6.452 -0.2121 -0.6760  0.0873
 3998SOL    HW123630   4.185   0.385   6.393  0.7638  0.1261 -0.1475
 3998SOL    HW223631   4.181   0.311   6.523 -0.1510 -1.7163 -0.2177
 3999SOL     OW23632   3.202   0.344   6.779  0.4605 -0.1986  0.2360
 3999SOL    HW123633   3.196   0.293   6.860 -2.8068  0.0872  0.1785
 3999SOL    HW223634   3.139   0.412   6.800  2.2804  1.2600  0.9547
 4000SOL     OW23635   1.433   1.648  10.766  0.5897 -0.0467 -0.0937
 4000SOL    HW123636   1.506   1.601  10.726 -0.1231 -1.8038  0.6566
 4000SOL    HW223637   1.428   1.618  10.857  0.4148  1.2546  0.3183
 4001SOL     OW23638   0.660   3.227   7.722  0.7611 -0.1056 -0.3843
 4001SOL    HW123639   0.704   3.194   7.801 -1.7242  0.1717  1.1200
 4001SOL    HW223640   0.679   3.156   7.662  1.1261 -0.0413 -0.3491
 4002SOL     OW23641   2.764   3.003  14.070 -0.3919  0.0213 -0.0898
 4002SOL    HW123642   2.745   2.989  14.163  1.1586 -0.5355  0.1429
 4002SOL    HW223643   2.700   2.941  14.034  0.3259 -0.5981 -0.2948
 4003SOL     OW23644   1.474   3.265   0.864  0.4693  0.7132 -0.4277
 4003SOL    HW123645   1.534   3.321   0.816  1.9752  0.4701  1.1785
 4003SOL    HW223646   1.466   3.189   0.806 -0.7014  0.5090 -0.0081
 4004SOL     OW23647   2.949   0.843   0.586  0.0940  0.2445  0.2300
 4004SOL    HW123648   3.003   0.808   0.515 -0.6650 -2.2259  0.8467
 4004SOL    HW223649   3.012   0.884   0.646  0.4072  1.3392 -0.8677
 4005SOL     OW23650   1.685   0.577   6.086 -0.9664 -0.0513  0.4274
 4005SOL    HW123651   1.612   0.535   6.134 -1.3159 -0.9121 -0.8648
 4005SOL    HW223652   1.629   0.618   6.020  1.0390  0.2100 -1.1037
 4006SOL     OW23653   1.113   2.263  10.130 -0.2256 -0.5833  0.3343
 4006SOL    HW123654   1.186   2.244  10.188  0.3196  2.0406  0.4997
 4006SOL    HW223655   1.068   2.179  10.132 -0.0149 -0.7436 -1.3443
 4007SOL     OW23656   0.643   4.629  10.987  0.1231 -0.2035  0.1267
 4007SOL    HW123657   0.571   4.632  11.049  0.4714  0.3231  0.5010
 4007SOL    HW223658   0.717   4.648  11.045  0.7040 -0.1849 -0.6090
 4008SOL     OW23659   0.370   0.954   1.788 -0.3976 -0.2235 -0.6491
 4008SOL    HW123660   0.278   0.935   1.807  0.3323 -1.5257  1.6009
 4008SOL    HW223661   0.408   0.875   1.825  0.7196  1.2849  1.4326
 4009SOL     OW23662   3.694   0.809  17.189 -0.8305 -0.0442 -0.3776
 4009SOL    HW123663   3.628   0.741  17.180 -2.4636  1.8673 -2.8816
 4009SOL    HW223664   3.666   0.864  17.262  1.4941 -1.5723  1.6398
 4010SOL     OW23665   3.785   1.411   4.516  0.0686 -0.2942  0.9480
 4010SOL    HW123666   3.830   1.390   4.598 -0.0376  3.8225  2.0213
 4010SOL    HW223667   3.830   1.347   4.460  0.6236 -0.7059  1.8791
 4011SOL     OW23668   3.344   0.297   2.200 -0.0748  0.0718  0.5853
 4011SOL    HW123669   3.290   0.273   2.276 -0.5457 -0.1821  0.1702
 4011SOL    HW223670   3.289   0.364   2.159  0.1082  0.2293  0.5987
 4012SOL     OW23671   4.216   0.931   1.296 -0.2902 -0.9611  0.3772
 4012SOL    HW123672   4.262   1.008   1.263  1.7836 -2.1639  0.4265
 4012SOL    HW223673   4.270   0.859   1.263  1.9479 -0.1540  2.3006
 4013SOL     OW23674   2.037   4.171   9.438  0.1877 -0.2192  0.1279
 4013SOL    HW123675   2.070   4.082   9.429  1.4605  0.0331  2.3650
 4013SOL    HW223676   1.964   4.155   9.379  1.4070  0.0179 -1.4264
 4014SOL     OW23677   1.381   0.078  15.889 -0.1602  0.6806  0.3008
 4014SOL    HW123678   1.379   0.062  15.795  1.0175 -0.4712  0.4729
 4014SOL    HW223679   1.293   0.113  15.900 -0.3181 -0.0577  1.4276
 4015SOL     OW23680   2.719   2.256   3.421 -0.2611 -0.1205 -0.1840
 4015SOL    HW123681   2.723   2.338   3.470  1.0289 -0.0632 -0.3744
 4015SOL    HW223682   2.807   2.254   3.384 -0.1243  1.4345  0.0489
 4016SOL     OW23683   0.677   2.930   8.657  0.0104 -0.3453 -0.2477
 4016SOL    HW123684   0.712   2.848   8.693 -1.2242  0.5438  2.9654
 4016SOL    HW223685   0.583   2.913   8.657  0.2522 -1.7355  1.8332
 4017SOL     OW23686   1.099   3.232   2.059  0.3470  0.0790  0.2324
 4017SOL    HW123687   1.011   3.239   2.021 -0.4423  2.3944  2.4789
 4017SOL    HW223688   1.143   3.292   1.999 -1.5149 -0.9171 -2.1103
 4018SOL     OW23689   1.008   2.761   0.838 -0.4279  0.4201 -0.2944
 4018SOL    HW123690   1.036   2.751   0.930  0.4868  0.7604 -0.5363
 4018SOL    HW223691   0.914   2.779   0.844 -0.4323 -0.1504  1.3927
 4019SOL     OW23692   1.106   3.216  15.838  0.5082 -0.7407 -0.4960
 4019SOL    HW123693   1.146   3.194  15.922 -1.8752  1.0612  1.1050
 4019SOL    HW223694   1.166   3.286  15.813 -0.9797  1.3316  1.6640
 4020SOL     OW23695   3.918   4.690   4.485  0.4904 -0.0355 -0.0827
 4020SOL    HW123696   3.999   0.007   4.480  0.6269 -0.4241 -1.8629
 4020SOL    HW223697   3.877   4.720   4.566  0.2443 -1.2858  0.2494
 4021SOL     OW23698   3.699   2.053  14.155 -0.4210  0.3024 -0.0109
 4021SOL    HW123699   3.767   2.054  14.222 -0.7580  1.4532  0.3122
 4021SOL    HW223700   3.734   2.097  14.077  0.4695  1.3357  0.9737
 4022SOL     OW23701   4.449   2.499   8.397 -0.1008 -0.5173  0.0530
 4022SOL    HW123702   4.404   2.546   8.467  0.0743 -2.2329  1.3213
 4022SOL    HW223703   4.371   2.456   8.363 -1.6018  0.9212  1.6623
 4023SOL     OW23704   4.584   2.909   3.852  0.4031  0.2720 -0.5902
 4023SOL    HW123705   4.569   2.925   3.758 -2.0057 -0.1022 -0.2465
 4023SOL    HW223706   4.614   2.819   3.844  0.4753  0.1699  0.9359
 4024SOL     OW23707   1.140   1.333   4.555  0.0402  0.4829 -0.1740
 4024SOL    HW123708   1.222   1.373   4.586  0.1000  1.0544 -1.0724
 4024SOL    HW223709   1.185   1.275   4.493 -0.7057 -1.2477  0.8793
 4025SOL     OW23710   1.491   0.275   8.370  0.1382 -0.1791  0.1075
 4025SOL    HW123711   1.559   0.299   8.433  0.9083 -1.3422 -0.2828
 4025SOL    HW223712   1.467   0.187   8.402  0.4352 -0.3054 -0.0220
 4026SOL     OW23713   0.175   3.344   7.271 -0.4346  0.0873  0.6445
 4026SOL    HW123714   0.250   3.308   7.222 -3.0118 -2.8996 -1.0906
 4026SOL    HW223715   0.123   3.382   7.200  0.2316  1.8873  1.1155
 4027SOL     OW23716   0.643   1.650   4.837 -0.1277  0.7364  0.0856
 4027SOL    HW123717   0.584   1.702   4.891 -0.2350  0.5437  0.1547
 4027SOL    HW223718   0.645   1.573   4.894  0.1376 -1.4440 -2.8422
 4028SOL     OW23719   3.469   0.186  11.296 -0.1520 -0.2348  0.1487
 4028SOL    HW123720   3.435   0.099  11.317 -0.9925  0.3686  1.3055
 4028SOL    HW223721   3.519   0.212  11.373  1.1213  1.2309 -1.1683
 4029SOL     OW23722   1.622   1.613   3.080 -0.7868 -0.7305 -0.0957
 4029SOL    HW123723   1.531   1.626   3.054 -1.2261  2.0388  2.8164
 4029SOL    HW223724   1.621   1.585   3.172  2.2243  1.0245  0.4860
 4030SOL     OW23725   4.221   2.133  12.601  0.6831 -0.4358 -0.1742
 4030SOL    HW123726   4.316   2.141  12.608  0.5248  2.4379 -0.9680
 4030SOL    HW223727   4.221   2.101  12.511 -0.9714  0.9375 -0.6674
 4031SOL     OW23728   0.370   2.203  14.298  0.0700  0.1062 -0.5662
 4031SOL    HW123729   0.376   2.174  14.389  0.9504  0.8762 -0.3867
 4031SOL    HW223730   0.327   2.285  14.324 -0.2371 -0.2892  0.1737
 4032SOL     OW23731   2.388   4.164   9.135  0.3184  0.2660 -0.6743
 4032SOL    HW123732   2.372   4.234   9.197  0.4427 -0.2083 -0.1026
 4032SOL    HW223733   2.433   4.218   9.071  1.3739 -0.0439 -0.1959
 4033SOL     OW23734   3.269   1.454   4.542  0.6570 -0.4565 -0.1778
 4033SOL    HW123735   3.284   1.547   4.522 -2.3674  0.0106 -0.2888
 4033SOL    HW223736   3.361   1.428   4.553  1.0671  0.5760 -1.0705
 4034SOL     OW23737   3.964   3.797  16.681  0.5679  0.5470 -0.4280
 4034SOL    HW123738   4.010   3.797  16.764  2.6481 -1.2914 -1.5967
 4034SOL    HW223739   4.011   3.729  16.633  2.4302  1.2606  0.4110
 4035SOL     OW23740   1.480   2.593  10.996  0.2302  0.3663  0.4926
 4035SOL    HW123741   1.448   2.538  11.068 -0.9286  1.2183  0.6337
 4035SOL    HW223742   1.469   2.675  11.044 -2.8165 -0.3411  1.0313
 4036SOL     OW23743   4.261   2.350   3.793 -0.4659 -0.2363  0.5346
 4036SOL    HW123744   4.167   2.343   3.776 -0.3118 -0.4485 -0.2866
 4036SOL    HW223745   4.271   2.421   3.856 -0.4813  1.4727 -1.3865
 4037SOL     OW23746   4.422   1.723   2.561 -0.3513  0.0180  0.0733
 4037SOL    HW123747   4.331   1.718   2.588 -0.3237 -2.5027 -0.3418
 4037SOL    HW223748   4.423   1.796   2.499 -1.2171  0.3557  0.4595
 4038SOL     OW23749   3.192   2.748  13.707  0.2618 -0.3884  0.6495
 4038SOL    HW123750   3.215   2.705  13.790  0.4776 -2.0871 -0.2792
 4038SOL    HW223751   3.277   2.771  13.670  1.2935 -2.0440  2.0104
 4039SOL     OW23752   0.738   1.825   3.889  0.1470  0.1750 -0.0679
 4039SOL    HW123753   0.707   1.861   3.805  2.5540 -0.6855 -1.3358
 4039SOL    HW223754   0.653   1.784   3.905 -0.7789  2.2802  0.4364
 4040SOL     OW23755   0.467   1.313   5.223  0.2873  0.0857 -0.0951
 4040SOL    HW123756   0.480   1.225   5.257 -1.1578  0.0374  0.3480
 4040SOL    HW223757   0.371   1.319   5.221  0.3004 -0.4278 -1.8266
 4041SOL     OW23758   0.245   1.849   8.553  0.0806 -0.5516  0.7609
 4041SOL    HW123759   0.310   1.828   8.621  0.7927 -0.8956 -0.0237
 4041SOL    HW223760   0.250   1.943   8.570  1.1828 -0.5924  0.6980
 4042SOL     OW23761   2.314   2.191   4.403  0.9170 -0.2968  0.5471
 4042SOL    HW123762   2.348   2.242   4.330  0.5429 -0.3087  0.3636
 4042SOL    HW223763   2.225   2.226   4.407  1.3975  0.9392  0.4425
 4043SOL     OW23764   0.070   1.449   0.913 -0.2394  0.7368  0.0251
 4043SOL    HW123765   0.083   1.540   0.938 -2.5724  0.9680  0.4260
 4043SOL    HW223766   0.161   1.422   0.897 -1.1246 -1.8608 -0.6725
 4044SOL     OW23767   0.536   0.135   7.600  0.1027  0.0434  0.0609
 4044SOL    HW123768   0.569   0.128   7.689 -0.2514  0.3164  0.2177
 4044SOL    HW223769   0.452   0.174   7.623  1.5010  2.3841  1.1364
 4045SOL     OW23770   3.270   2.893   7.167 -0.0201  0.1594 -0.1417
 4045SOL    HW123771   3.342   2.837   7.195 -1.5507 -2.2211 -0.9037
 4045SOL    HW223772   3.228   2.838   7.101 -0.4748 -0.3153  0.5350
 4046SOL     OW23773   0.261   1.066   5.086  0.0150  0.2288  0.5478
 4046SOL    HW123774   0.178   1.113   5.100 -1.2964 -1.7701 -0.4729
 4046SOL    HW223775   0.315   1.076   5.163 -1.6267  0.5090  1.6651
 4047SOL     OW23776   3.115   0.498   2.621  0.3106 -0.1687 -0.4839
 4047SOL    HW123777   3.170   0.467   2.549 -1.3191 -0.0729 -1.7692
 4047SOL    HW223778   3.169   0.469   2.694 -0.2259 -2.7950 -1.1536
 4048SOL     OW23779   0.592   4.006   2.012  0.1245 -0.0132 -0.3965
 4048SOL    HW123780   0.613   3.929   2.065 -0.2864  0.0797 -0.0959
 4048SOL    HW223781   0.631   3.982   1.928 -0.6289  0.2180 -0.8090
 4049SOL     OW23782   2.072   1.075   7.078  0.1469  0.3493 -0.3215
 4049SOL    HW123783   2.038   1.008   7.137 -0.5756  0.2869 -0.8178
 4049SOL    HW223784   2.160   1.087   7.116 -0.5412  2.4621  0.6217
 4050SOL     OW23785   0.989   2.633   8.895  0.8258 -0.2092  0.4351
 4050SOL    HW123786   1.071   2.677   8.874  0.2492  1.0271  0.7807
 4050SOL    HW223787   1.019   2.587   8.973  1.0059 -2.5262 -0.9948
 4051SOL     OW23788   4.453   3.060  11.260 -0.4188  0.3479 -0.0836
 4051SOL    HW123789   4.422   2.994  11.322 -0.4222 -1.4438 -1.9981
 4051SOL    HW223790   4.415   3.144  11.284  0.5199  0.6085  0.5226
 4052SOL     OW23791   1.995   3.805   5.245  0.5118 -0.6023 -0.0884
 4052SOL    HW123792   2.090   3.812   5.245  0.4329  0.4959  0.8424
 4052SOL    HW223793   1.974   3.715   5.268  0.0771 -0.3608  0.4846
 4053SOL     OW23794   0.272   1.696  13.677  0.0374  0.1722 -0.0016
 4053SOL    HW123795   0.221   1.671  13.754 -1.4977  0.8868 -0.7688
 4053SOL    HW223796   0.335   1.625  13.665 -1.4852 -1.4679  1.7418
 4054SOL     OW23797   3.338   2.848   6.190  0.7533  0.3275 -0.5842
 4054SOL    HW123798   3.248   2.818   6.201  0.8527 -0.1810 -1.1745
 4054SOL    HW223799   3.346   2.860   6.095  2.1526  1.6122 -0.3221
 4055SOL     OW23800   4.423   4.646   2.680  0.3920 -0.4337  0.3974
 4055SOL    HW123801   4.494   4.634   2.743  0.1474  2.1058  1.1349
 4055SOL    HW223802   4.458   4.714   2.624 -2.4030  1.1452  0.5325
 4056SOL     OW23803   1.821   1.214   3.075  0.1252 -0.1576 -0.9980
 4056SOL    HW123804   1.863   1.269   3.141  0.8717  1.1215 -2.5333
 4056SOL    HW223805   1.741   1.186   3.120  0.9925  1.9513  1.8045
 4057SOL     OW23806   2.145   0.625   2.342 -0.1412  0.3682  0.4541
 4057SOL    HW123807   2.080   0.695   2.329 -1.3864 -0.5719  1.5522
 4057SOL    HW223808   2.132   0.630   2.437  2.7149  2.5142  0.7302
 4058SOL     OW23809   2.899   1.233   5.406  0.7450 -0.0572  0.0385
 4058SOL    HW123810   2.972   1.172   5.417 -0.3554 -1.4251 -0.2013
 4058SOL    HW223811   2.826   1.174   5.388  0.0140  0.5930  0.8348
 4059SOL     OW23812   3.970   3.937   5.103 -0.7147  0.0880  0.0680
 4059SOL    HW123813   3.996   3.848   5.080  1.1448  0.3556  1.0737
 4059SOL    HW223814   3.942   3.972   5.018 -0.0248  1.4749  0.3996
 4060SOL     OW23815   3.979   1.425  17.083  0.2629  0.2323 -0.2822
 4060SOL    HW123816   3.919   1.442  17.011 -1.1786 -1.0250  0.6220
 4060SOL    HW223817   3.921   1.433  17.158 -2.3066 -0.7399 -2.1808
 4061SOL     OW23818   1.662   2.295   4.690 -0.2961 -0.0237  0.5087
 4061SOL    HW123819   1.741   2.335   4.726  1.0694 -1.3528 -1.0218
 4061SOL    HW223820   1.613   2.256   4.762 -1.5461 -0.5824 -0.6687
 4062SOL     OW23821   0.857   1.605   2.661 -0.7609  0.3823 -0.0827
 4062SOL    HW123822   0.909   1.661   2.718  2.7018 -2.2373 -0.7305
 4062SOL    HW223823   0.830   1.529   2.712 -0.1336 -0.4236 -0.9546
 4063SOL     OW23824   0.037   4.062  15.412  0.3920 -0.2372 -0.6019
 4063SOL    HW123825   0.036   3.966  15.415 -0.2107 -0.2460 -1.0841
 4063SOL    HW223826   0.027   4.071  15.317  2.2399  2.4141 -0.5377
 4064SOL     OW23827   0.911   0.470   3.449  0.1834  0.3674 -0.0641
 4064SOL    HW123828   0.918   0.520   3.530  1.5878  2.1092 -1.2526
 4064SOL    HW223829   0.880   0.529   3.380 -0.9424  0.3750  0.4459
 4065SOL     OW23830   0.935   1.836   0.685  0.1667 -0.2431  0.3795
 4065SOL    HW123831   0.893   1.751   0.704  1.1188 -0.4111  1.6938
 4065SOL    HW223832   0.876   1.906   0.712 -1.2870  0.4007 -4.5887
 4066SOL     OW23833   4.059   0.664   2.143  0.2772 -0.1282 -0.0671
 4066SOL    HW123834   3.966   0.649   2.159  0.5961 -1.1741  0.8158
 4066SOL    HW223835   4.102   0.649   2.228  0.8932 -0.8087 -0.5063
 4067SOL     OW23836   4.316   2.277   4.857 -0.4057 -0.5344  0.4360
 4067SOL    HW123837   4.272   2.349   4.902 -1.3963 -1.7688  1.4242
 4067SOL    HW223838   4.387   2.329   4.820 -2.7086  0.2833 -2.8206
 4068SOL     OW23839   0.344   2.046  11.247 -0.4378  0.1655 -0.3471
 4068SOL    HW123840   0.335   1.998  11.165 -0.7236 -0.4721  0.0615
 4068SOL    HW223841   0.252   2.046  11.272 -0.5497 -1.8551 -0.8175
 4069SOL     OW23842   1.960   3.992   4.020  0.1619 -0.5317  0.2406
 4069SOL    HW123843   1.972   4.036   4.104 -1.8429 -0.8841  0.7034
 4069SOL    HW223844   2.011   3.916   4.048 -1.0443 -0.8843  1.4490
 4070SOL     OW23845   4.012   1.836   1.782  0.3708  0.4692  0.5850
 4070SOL    HW123846   4.034   1.925   1.756  0.3147  0.5009  0.6470
 4070SOL    HW223847   4.074   1.779   1.735  0.0234  0.1193  0.5478
 4071SOL     OW23848   2.464   1.880  11.822 -0.1464  0.4071 -0.9005
 4071SOL    HW123849   2.421   1.950  11.871 -0.1404  0.2660 -0.6929
 4071SOL    HW223850   2.546   1.881  11.872 -0.6733 -0.3152 -0.0042
 4072SOL     OW23851   2.292   3.794   2.994  0.2417  0.0127 -0.2107
 4072SOL    HW123852   2.272   3.875   2.947  2.1216 -0.4320 -1.7585
 4072SOL    HW223853   2.382   3.814   3.020  1.5218 -4.0785 -1.5321
 4073SOL     OW23854   1.899   1.312   7.607  0.5816  0.3455  0.0162
 4073SOL    HW123855   1.984   1.336   7.570  1.4355 -1.5864  0.7136
 4073SOL    HW223856   1.835   1.338   7.541  1.1489 -1.5604 -1.2755
 4074SOL     OW23857   1.650   4.323  11.528 -0.4527 -0.0136 -0.0746
 4074SOL    HW123858   1.555   4.312  11.527 -0.4204  0.0735 -3.1974
 4074SOL    HW223859   1.675   4.255  11.590 -3.4004 -0.3348  0.7793
 4075SOL     OW23860   3.641   2.156   2.580 -0.1792  0.3342  0.2861
 4075SOL    HW123861   3.609   2.236   2.538 -0.1679  0.4107  0.4233
 4075SOL    HW223862   3.631   2.189   2.670 -0.3366  0.2406  0.3029
 4076SOL     OW23863   0.672   0.356   7.415 -0.1384 -0.2545  0.1270
 4076SOL    HW123864   0.652   0.314   7.499  0.2159 -1.0117 -0.1658
 4076SOL    HW223865   0.627   0.440   7.414  0.5247  0.0866 -1.2608
 4077SOL     OW23866   0.337   3.594   7.131  0.0445 -0.1332 -0.0544
 4077SOL    HW123867   0.249   3.567   7.157 -0.1688  0.7680  0.1919
 4077SOL    HW223868   0.318   3.576   7.039 -1.7901  1.1648  0.0719
 4078SOL     OW23869   3.437   3.906  17.008  0.6119  0.5626 -0.2114
 4078SOL    HW123870   3.524   3.874  16.986 -0.5805 -3.3689  0.7816
 4078SOL    HW223871   3.384   3.866  16.939 -0.3333  0.5445  0.5328
 4079SOL     OW23872   0.250   2.221   1.453 -0.6077 -0.0808 -1.0598
 4079SOL    HW123873   0.176   2.186   1.405  1.6008 -0.5297 -4.0753
 4079SOL    HW223874   0.310   2.147   1.459  0.2846  0.7370  0.1032
 4080SOL     OW23875   0.466   0.663   8.771  0.6513  0.2914 -0.8534
 4080SOL    HW123876   0.474   0.710   8.854 -1.0610 -0.7123 -0.1255
 4080SOL    HW223877   0.531   0.708   8.716  2.0455  1.0927  1.4634
 4081SOL     OW23878   2.271   1.689   7.716 -0.1059 -0.3842 -0.0389
 4081SOL    HW123879   2.184   1.652   7.731 -1.0454  1.5938 -0.6741
 4081SOL    HW223880   2.317   1.620   7.668  1.7973  1.1012 -0.3679
 4082SOL     OW23881   4.091   4.447  17.030 -0.1421  0.5280 -0.6113
 4082SOL    HW123882   4.063   4.515  17.091 -0.8790 -0.4791  0.1582
 4082SOL    HW223883   4.091   4.493  16.946  0.4060 -0.2703 -1.0470
 4083SOL     OW23884   3.539   1.910   4.991 -0.4392  0.5569 -0.7850
 4083SOL    HW123885   3.451   1.882   5.019 -0.6035  0.2721 -1.5771
 4083SOL    HW223886   3.570   1.833   4.943 -1.4873  0.1389 -0.7901
 4084SOL     OW23887   3.450   2.734   3.205 -0.1197  0.2987 -0.4773
 4084SOL    HW123888   3.368   2.767   3.167  0.1451  0.4042 -0.9607
 4084SOL    HW223889   3.457   2.654   3.153  1.6615 -0.7035  1.2866
 4085SOL     OW23890   0.522   3.945   4.980 -0.5749 -0.4586 -0.7976
 4085SOL    HW123891   0.532   3.927   4.886  1.3191 -0.7701 -0.5350
 4085SOL    HW223892   0.490   4.035   4.969 -0.9186 -0.5560 -0.5530
 4086SOL     OW23893   2.669   0.296   4.222 -0.1543  0.4502  0.6931
 4086SOL    HW123894   2.654   0.240   4.146  1.7023  0.2495  0.4712
 4086SOL    HW223895   2.617   0.241   4.280  0.4418  0.7670  1.5162
 4087SOL     OW23896   4.016   3.473   5.531  0.0788 -0.1954  0.1957
 4087SOL    HW123897   4.078   3.546   5.525 -0.9122  0.5425 -1.0260
 4087SOL    HW223898   3.930   3.516   5.531 -0.0105 -0.3722  0.3199
 4088SOL     OW23899   0.943   4.475  13.570  0.5340 -0.6454 -0.2491
 4088SOL    HW123900   0.905   4.532  13.503 -0.9055 -1.4097 -0.0964
 4088SOL    HW223901   0.872   4.412  13.584  0.5215 -0.1682  1.8173
 4089SOL     OW23902   3.326   4.664   7.994  0.2015  0.0510 -1.0591
 4089SOL    HW123903   3.420   4.683   7.987  0.5088 -0.8793  0.3327
 4089SOL    HW223904   3.317   4.572   7.967  0.0902  0.0273 -0.9416
 4090SOL     OW23905   3.099   2.143   3.593 -0.5143  0.1813 -0.0085
 4090SOL    HW123906   3.105   2.061   3.641  2.1320  0.1840 -0.3038
 4090SOL    HW223907   3.096   2.204   3.667 -1.9710 -2.3513  2.0102
 4091SOL     OW23908   2.117   2.950   4.286  0.0205 -0.7553  0.1818
 4091SOL    HW123909   2.178   2.913   4.349  0.9045 -0.8137 -0.7061
 4091SOL    HW223910   2.050   2.881   4.286  0.5707 -1.3018  1.8545
 4092SOL     OW23911   3.598   1.558  13.007  0.1422  0.3343  0.1361
 4092SOL    HW123912   3.610   1.470  13.044 -0.0814  0.8377  1.4154
 4092SOL    HW223913   3.630   1.605  13.084  1.2047 -1.3454  0.7327
 4093SOL     OW23914   1.676   4.003   6.336  0.5751 -0.1143  0.2876
 4093SOL    HW123915   1.595   4.052   6.349  1.3030  1.3689 -0.7397
 4093SOL    HW223916   1.695   3.961   6.420  1.1766 -0.5600 -0.0682
 4094SOL     OW23917   3.010   0.634   8.785  0.2244 -0.0348  0.2037
 4094SOL    HW123918   3.080   0.636   8.720 -0.7446  0.7211 -0.8002
 4094SOL    HW223919   2.937   0.661   8.730  1.4635  0.9678 -0.9541
 4095SOL     OW23920   2.261   3.347   2.380  0.2334  0.3159 -0.0678
 4095SOL    HW123921   2.299   3.359   2.466  0.9898 -1.0642 -0.2072
 4095SOL    HW223922   2.195   3.279   2.398 -0.3363  0.5921 -1.0969
 4096SOL     OW23923   3.690   1.165   7.878  0.9452 -0.2695  0.0049
 4096SOL    HW123924   3.744   1.166   7.799  1.0120  0.2447  0.0564
 4096SOL    HW223925   3.627   1.235   7.859 -0.0854 -1.1229  0.2809
 4097SOL     OW23926   4.627   0.889   6.483  0.6334 -0.1015  0.2380
 4097SOL    HW123927   4.678   0.943   6.424 -0.4247 -1.2257 -1.7164
 4097SOL    HW223928   4.658   0.809   6.439  0.7168 -0.3088  0.6733
 4098SOL     OW23929   1.869   2.806   2.920 -0.0014  0.9900  0.3856
 4098SOL    HW123930   1.959   2.814   2.949  0.6533 -0.9169 -1.1335
 4098SOL    HW223931   1.874   2.888   2.872  1.1404 -0.0526 -1.2796
 4099SOL     OW23932   1.689   0.498   9.052 -0.6015 -0.4484  0.3572
 4099SOL    HW123933   1.622   0.534   8.994  0.0650 -1.1364 -0.8346
 4099SOL    HW223934   1.647   0.498   9.139  1.4094  1.6511  1.3115
 4100SOL     OW23935   2.109   3.598   4.626 -0.4179 -0.5504  0.4425
 4100SOL    HW123936   2.140   3.519   4.671  0.1343  0.1533  1.3163
 4100SOL    HW223937   2.035   3.602   4.686  0.6275 -1.3879  1.7995
 4101SOL     OW23938   0.255   0.552  11.733 -0.3944 -0.8950  0.5594
 4101SOL    HW123939   0.325   0.546  11.798  2.7029  0.9020 -2.6311
 4101SOL    HW223940   0.299   0.582  11.653 -3.4246  2.8729  0.3245
 4102SOL     OW23941   3.828   2.894  14.397 -0.3817 -0.5975  0.2444
 4102SOL    HW123942   3.780   2.812  14.384 -1.1532 -0.3671  1.6476
 4102SOL    HW223943   3.807   2.913  14.488 -1.2995  0.1249 -0.1125
 4103SOL     OW23944   0.124   4.316  17.388 -0.3254  0.1627 -0.0378
 4103SOL    HW123945   0.094   4.264  17.313  0.4682  0.4841 -0.5754
 4103SOL    HW223946   0.219   4.324  17.384 -0.1542 -2.3656 -1.2146
 4104SOL     OW23947   3.038   4.606   4.332  0.0155  0.1102 -0.3434
 4104SOL    HW123948   2.976   4.668   4.292 -0.0205 -0.4184 -1.1001
 4104SOL    HW223949   3.057   4.629   4.423  1.9136 -0.4610 -0.6172
 4105SOL     OW23950   0.575   3.079  12.403  0.4647 -0.0733  0.6241
 4105SOL    HW123951   0.581   3.035  12.488  0.5349  0.6848  1.0144
 4105SOL    HW223952   0.669   3.090  12.388 -0.0797  1.7444 -1.4849
 4106SOL     OW23953   2.713   4.551   5.733  0.0456  0.3489 -0.2189
 4106SOL    HW123954   2.752   4.464   5.725 -1.8405 -0.4376 -0.8549
 4106SOL    HW223955   2.659   4.533   5.810  0.0840  1.3462  0.0365
 4107SOL     OW23956   1.353   2.249   0.681 -0.4810  0.5007  0.4534
 4107SOL    HW123957   1.447   2.259   0.698  0.2901 -2.4258 -2.2469
 4107SOL    HW223958   1.328   2.158   0.696 -1.6753  0.7352 -0.0534
 4108SOL     OW23959   0.951   2.564   0.393  0.3401  0.2309 -0.1370
 4108SOL    HW123960   0.948   2.624   0.318  1.5100  0.1011 -0.2864
 4108SOL    HW223961   0.977   2.631   0.457 -0.5424  0.4299  0.0152
 4109SOL     OW23962   1.316   0.570  16.456 -0.7750  0.2673  0.3758
 4109SOL    HW123963   1.223   0.596  16.455 -0.8930 -0.1550  0.3714
 4109SOL    HW223964   1.322   0.483  16.496 -0.0625 -0.3084 -0.9948
 4110SOL     OW23965   3.175   0.330   6.485  0.1403  0.7956 -0.5501
 4110SOL    HW123966   3.179   0.331   6.581 -0.7625 -0.6154 -0.5093
 4110SOL    HW223967   3.081   0.332   6.468  0.1807  0.2023 -0.8442
 4111SOL     OW23968   3.522   1.909   2.559 -0.3262  0.7385  0.0631
 4111SOL    HW123969   3.489   1.925   2.471 -0.0544 -1.2197 -0.3858
 4111SOL    HW223970   3.578   1.987   2.568  0.1579  0.2854  0.9620
 4112SOL     OW23971   0.076   1.896   4.500 -0.0754  0.1356  0.3658
 4112SOL    HW123972   0.128   1.897   4.420  0.3791  0.5376  0.6656
 4112SOL    HW223973   0.033   1.981   4.507  0.6330  0.5970 -0.8338
 4113SOL     OW23974   1.790   1.930   0.842  0.6187  0.0776 -0.2553
 4113SOL    HW123975   1.828   1.949   0.928 -1.6620 -0.6882  0.9261
 4113SOL    HW223976   1.837   2.001   0.798 -1.0707  0.7460 -0.9812
 4114SOL     OW23977   2.091   3.163  12.581 -0.0674  0.4711  0.4011
 4114SOL    HW123978   2.134   3.138  12.499 -1.5502  2.0512 -0.8243
 4114SOL    HW223979   2.149   3.233  12.610 -0.1276 -0.7356  3.4970
 4115SOL     OW23980   3.029   0.179  12.217 -0.7045 -0.6269  0.1960
 4115SOL    HW123981   3.050   0.226  12.298  0.9968 -0.9732 -0.0376
 4115SOL    HW223982   2.937   0.160  12.231 -0.5766 -0.0660  1.7943
 4116SOL     OW23983   4.612   1.815   5.928  0.1150  0.3022 -0.2330
 4116SOL    HW123984   4.522   1.784   5.935  0.3400 -0.1723  0.6100
 4116SOL    HW223985   4.655   1.791   6.010 -1.0885 -0.2362  0.2373
 4117SOL     OW23986   2.785   3.739   9.211 -0.1974 -0.0398  0.0357
 4117SOL    HW123987   2.864   3.755   9.262 -0.2780  1.7983 -0.4076
 4117SOL    HW223988   2.715   3.765   9.271 -2.2263 -0.1433 -2.2637
 4118SOL     OW23989   1.090   2.571   8.441  0.2189 -0.5350  0.3989
 4118SOL    HW123990   1.146   2.504   8.480 -0.5934 -2.4546 -1.7654
 4118SOL    HW223991   1.152   2.634   8.404  0.4180 -0.1904  1.3221
 4119SOL     OW23992   1.315   2.996   1.330  0.0599  0.0160 -0.3420
 4119SOL    HW123993   1.380   2.926   1.336 -0.3558 -0.3112  0.4717
 4119SOL    HW223994   1.357   3.068   1.283  0.1925  0.4996  0.5229
 4120SOL     OW23995   2.905   1.496   7.433  0.2688  0.2425 -0.3113
 4120SOL    HW123996   2.955   1.576   7.416  0.9803 -0.4066 -1.2456
 4120SOL    HW223997   2.911   1.454   7.347 -1.7161 -1.4523  0.3885
 4121SOL     OW23998   3.197   0.502  10.166  0.0611  0.1522  0.2036
 4121SOL    HW123999   3.195   0.501  10.070 -0.5537 -1.3292  0.2289
 4121SOL    HW224000   3.251   0.427  10.194 -1.9265 -0.8980  1.2053
 4122SOL     OW24001   4.635   1.158  17.623  0.4095 -0.0086 -0.2103
 4122SOL    HW124002   4.677   1.099  17.560 -1.2291 -0.9652 -0.4167
 4122SOL    HW224003   4.580   1.091  17.663 -2.3000  3.2671  1.5403
 4123SOL     OW24004   1.092   3.201   5.443 -0.5514 -0.4045  0.6983
 4123SOL    HW124005   1.020   3.260   5.469 -0.2596  0.1556  0.2417
 4123SOL    HW224006   1.147   3.191   5.520 -0.9797 -0.7183  0.9636
 4124SOL     OW24007   2.100   3.925   9.275  0.2233  0.6703  0.1544
 4124SOL    HW124008   2.100   3.846   9.222  0.3615 -0.3674  1.6929
 4124SOL    HW224009   2.035   3.977   9.227  2.6743  1.4113 -2.3159
 4125SOL     OW24010   1.968   2.446  14.711 -0.1565 -0.3036 -0.1861
 4125SOL    HW124011   1.961   2.350  14.712  0.4198 -0.3399  0.0240
 4125SOL    HW224012   1.956   2.455  14.617  0.9127  0.3720 -0.2472
 4126SOL     OW24013   0.371   4.273   3.764  0.7879  0.0174  0.3033
 4126SOL    HW124014   0.321   4.192   3.764 -0.2409  0.6455  0.6157
 4126SOL    HW224015   0.378   4.273   3.668  0.5577  3.4720  0.2712
 4127SOL     OW24016   2.816   2.074   6.518 -0.0909 -0.1515  0.0808
 4127SOL    HW124017   2.789   1.994   6.474 -1.3428  0.1864  0.2156
 4127SOL    HW224018   2.753   2.127   6.469  1.2676  2.9353  1.6951
 4128SOL     OW24019   3.874   4.526  10.263 -0.5278  0.7277  0.2429
 4128SOL    HW124020   3.832   4.523  10.349 -0.4227 -0.0421  0.2650
 4128SOL    HW224021   3.955   4.476  10.271  0.9755  3.1649  0.3746
 4129SOL     OW24022   4.152   4.314   6.464 -0.4295  0.3623 -0.2334
 4129SOL    HW124023   4.211   4.306   6.389  0.9092  1.2968  0.7322
 4129SOL    HW224024   4.067   4.294   6.423 -1.1664 -0.7612  1.8267
 4130SOL     OW24025   1.656   4.224   7.809 -0.1268 -0.3098  0.7730
 4130SOL    HW124026   1.596   4.263   7.745  1.2403 -0.1938 -0.4132
 4130SOL    HW224027   1.589   4.165   7.844  1.2393 -2.3238 -0.0246
 4131SOL     OW24028   3.692   4.157   9.109 -0.8828  0.4049 -0.2724
 4131SOL    HW124029   3.764   4.205   9.068  0.0518 -0.1977  0.6630
 4131SOL    HW224030   3.712   4.069   9.076  3.1753  1.3928 -0.4026
 4132SOL     OW24031   1.438   1.359   3.306 -0.3494  0.3858  0.0627
 4132SOL    HW124032   1.487   1.384   3.384  0.3762  1.5317 -0.7573
 4132SOL    HW224033   1.379   1.433   3.317  0.6186  1.3607 -1.3674
 4133SOL     OW24034   0.383   1.646  15.724  0.4205  0.0427  0.3312
 4133SOL    HW124035   0.434   1.723  15.699  0.3029  0.5381  1.6586
 4133SOL    HW224036   0.339   1.672  15.804  1.4263  2.7069  0.0229
 4134SOL     OW24037   0.772   0.026   5.099  0.0579  0.9905  0.0020
 4134SOL    HW124038   0.698   4.714   5.139  0.0500 -0.2884 -1.4817
 4134SOL    HW224039   0.834   0.040   5.170 -0.3565 -0.3348  0.6395
 4135SOL     OW24040   4.665   3.498   1.364 -0.5561 -0.5152  0.2378
 4135SOL    HW124041   4.659   3.412   1.406  1.0168 -1.8572 -2.2748
 4135SOL    HW224042   4.572   3.517   1.347  0.3239  1.3051 -2.5377
 4136SOL     OW24043   0.255   1.330   7.190  0.1815 -0.6787  0.5278
 4136SOL    HW124044   0.267   1.322   7.096  2.1255  1.9179  0.5661
 4136SOL    HW224045   0.334   1.374   7.221  1.6123 -0.9043 -2.8839
 4137SOL     OW24046   0.649   1.639   2.489  0.2373  0.0759 -0.0762
 4137SOL    HW124047   0.721   1.638   2.553  1.6188  0.9901 -1.6260
 4137SOL    HW224048   0.698   1.685   2.421  1.8746 -0.9170  0.4320
 4138SOL     OW24049   1.974   0.188   4.971 -0.1875  0.2125  0.2008
 4138SOL    HW124050   1.884   0.175   4.940 -0.4636  3.1574 -0.2954
 4138SOL    HW224051   1.976   0.279   5.000  2.8550 -0.3856  1.8071
 4139SOL     OW24052   4.182   0.510   4.841  0.0345  0.3579 -0.2902
 4139SOL    HW124053   4.227   0.584   4.881  1.0388 -1.9936  2.9129
 4139SOL    HW224054   4.247   0.489   4.773 -1.1189 -0.1466 -1.2252
 4140SOL     OW24055   0.813   0.066   1.669  0.0960  0.8650  0.2812
 4140SOL    HW124056   0.826   0.004   1.741  1.6949 -0.1934 -0.9205
 4140SOL    HW224057   0.718   0.066   1.682  0.1302 -1.7227  0.6063
 4141SOL     OW24058   3.291   4.051   9.640 -0.1294 -0.1805  0.3329
 4141SOL    HW124059   3.317   3.959   9.642  1.6883  0.3082 -2.0823
 4141SOL    HW224060   3.201   4.040   9.672 -0.8228 -2.6021 -2.5179
 4142SOL     OW24061   1.466   3.143   3.987  0.1317 -0.1843 -0.3568
 4142SOL    HW124062   1.555   3.146   4.024 -0.3090  2.0083  0.5079
 4142SOL    HW224063   1.420   3.136   4.071 -0.0855 -0.6869 -0.5132
 4143SOL     OW24064   0.176   3.960   8.665  0.3308 -0.0419 -0.5821
 4143SOL    HW124065   0.155   3.921   8.580 -1.4026  1.4474 -0.8347
 4143SOL    HW224066   0.201   3.885   8.719 -0.3794 -0.5389 -0.9529
 4144SOL     OW24067   3.568   0.185   8.190 -0.2750  0.2939 -0.5330
 4144SOL    HW124068   3.584   0.279   8.181 -1.8958  0.4314 -1.9974
 4144SOL    HW224069   3.626   0.169   8.264  0.6150 -0.4490 -1.3991
 4145SOL     OW24070   3.808   4.054   8.302 -0.0983  0.0126  0.2008
 4145SOL    HW124071   3.900   4.055   8.275 -1.1161 -0.7337 -3.3222
 4145SOL    HW224072   3.804   4.137   8.349  0.1381  0.6132 -0.8304
 4146SOL     OW24073   4.494   2.606   2.329 -0.1586 -0.0933  0.2267
 4146SOL    HW124074   4.445   2.664   2.270  2.1973  0.1327 -1.4909
 4146SOL    HW224075   4.444   2.614   2.410 -0.7437 -3.0775  0.1280
 4147SOL     OW24076   3.668   2.384  13.589 -0.4326 -0.0015  1.1655
 4147SOL    HW124077   3.728   2.411  13.519 -0.3430 -1.8682  0.5046
 4147SOL    HW224078   3.626   2.466  13.613  0.2770  1.2500 -1.9000
 4148SOL     OW24079   1.886   4.707   5.297  0.2137 -0.1882  0.0208
 4148SOL    HW124080   1.980   4.724   5.299  0.1064  0.2941  1.2718
 4148SOL    HW224081   1.876   4.706   5.393  0.1191  0.7799  0.0238
 4149SOL     OW24082   1.186   4.527   7.636 -0.2988 -0.1392  0.1338
 4149SOL    HW124083   1.220   4.555   7.721 -0.8224  0.5207  0.1257
 4149SOL    HW224084   1.131   4.451   7.659 -1.8509  0.5928 -1.2059
 4150SOL     OW24085   0.340   4.605  17.282 -0.0297  0.2200  0.2281
 4150SOL    HW124086   0.255   4.627  17.243  0.6289  0.1988 -1.1984
 4150SOL    HW224087   0.355   4.666  17.354 -3.0389  1.9950 -0.6461
 4151SOL     OW24088   3.116   1.067   0.976  0.4090 -0.1463  0.8398
 4151SOL    HW124089   3.049   1.125   0.940 -0.0587 -1.6311 -0.7148
 4151SOL    HW224090   3.140   1.028   0.891  1.7352  0.6061  0.8539
 4152SOL     OW24091   4.449   2.744   5.224 -0.1517  0.1035 -0.2107
 4152SOL    HW124092   4.452   2.664   5.172  1.4495 -1.1984  1.9124
 4152SOL    HW224093   4.363   2.740   5.268 -0.8420  0.7362 -1.5027
 4153SOL     OW24094   0.622   0.842   2.738  0.2234  0.0413  0.8517
 4153SOL    HW124095   0.603   0.776   2.804  0.1677 -1.5292 -0.7517
 4153SOL    HW224096   0.580   0.827   2.653 -1.1964  1.3665  1.3061
 4154SOL     OW24097   1.768   3.503   1.331  0.5819 -0.0206 -0.2054
 4154SOL    HW124098   1.676   3.483   1.348  0.6829 -1.3974 -1.3040
 4154SOL    HW224099   1.784   3.457   1.248  1.7643  0.7287 -0.3928
 4155SOL     OW24100   1.882   0.058  12.788 -0.2518 -0.3977 -0.1917
 4155SOL    HW124101   1.799   0.070  12.741  0.4715 -0.8428 -1.5611
 4155SOL    HW224102   1.900   0.142  12.831  1.3707 -1.7705  1.7778
 4156SOL     OW24103   3.106   2.138   5.589 -0.2691  0.0578 -0.0979
 4156SOL    HW124104   3.125   2.044   5.582  0.4073  0.2045 -0.2160
 4156SOL    HW224105   3.150   2.163   5.508 -1.8870 -1.4689 -1.4630
 4157SOL     OW24106   1.214   0.053   8.104 -0.4926 -0.0656 -0.1357
 4157SOL    HW124107   1.306   0.038   8.126  0.0752  3.4583 -0.2161
 4157SOL    HW224108   1.178   4.702   8.128  1.0340 -1.0416 -1.3240
 4158SOL     OW24109   3.763   1.647   4.340  0.3422  0.3278  0.3865
 4158SOL    HW124110   3.739   1.555   4.341  2.4197 -0.2399 -1.6396
 4158SOL    HW224111   3.683   1.688   4.372  0.2170 -1.3590  2.3003
 4159SOL     OW24112   1.121   3.780   8.610 -0.9623 -0.0103 -0.6347
 4159SOL    HW124113   1.086   3.711   8.554  0.9674 -1.6585  0.2116
 4159SOL    HW224114   1.139   3.851   8.548  1.0463  1.3789  1.5460
 4160SOL     OW24115   4.597   1.550   0.759  0.2651  0.1191 -0.5526
 4160SOL    HW124116   4.530   1.482   0.763  0.0137  0.4480  0.6678
 4160SOL    HW224117   4.674   1.514   0.802 -1.0364  2.1820  3.5222
 4161SOL     OW24118   2.895   2.257   5.260 -0.0344 -0.1221  0.1622
 4161SOL    HW124119   2.902   2.181   5.203 -2.2418  1.1448 -1.8000
 4161SOL    HW224120   2.844   2.221   5.333  1.2335 -2.9089 -0.3481
 4162SOL     OW24121   4.627   2.066   2.064 -0.3203  0.2237  0.8120
 4162SOL    HW124122   4.700   2.016   2.028 -0.5431  0.1644  0.4368
 4162SOL    HW224123   4.605   2.003   2.132  0.1805 -2.1958 -1.2498
 4163SOL     OW24124   1.635   4.126   4.548  0.7581  0.5653  0.5279
 4163SOL    HW124125   1.587   4.199   4.509  0.4782 -0.8570 -1.7784
 4163SOL    HW224126   1.611   4.127   4.640  1.1613 -1.6797  0.6447
 4164SOL     OW24127   0.065   0.112   1.210 -0.2837  0.0297  0.2782
 4164SOL    HW124128   0.061   0.026   1.252 -0.1182 -0.6618 -1.1090
 4164SOL    HW224129   0.001   0.159   1.263 -1.4553 -0.4035 -0.7543
 4165SOL     OW24130   4.577   1.639  14.873 -0.2016  0.0001  0.3307
 4165SOL    HW124131   4.652   1.675  14.826 -1.3365 -0.3203 -1.7191
 4165SOL    HW224132   4.609   1.668  14.958  0.5206 -0.8742  0.3602
 4166SOL     OW24133   1.785   3.371  10.393 -0.0563  0.3276 -0.2040
 4166SOL    HW124134   1.849   3.304  10.415 -0.8047 -0.1281  0.5772
 4166SOL    HW224135   1.706   3.317  10.400  0.9798 -1.1122  0.2341
 4167SOL     OW24136   3.481   3.443   8.508  0.4697 -0.1188  0.3561
 4167SOL    HW124137   3.386   3.435   8.507  0.3012  1.8903 -1.5738
 4167SOL    HW224138   3.496   3.515   8.569  0.5217  0.0758  0.1177
 4168SOL     OW24139   3.125   0.583   3.129 -0.1315 -0.0028  0.1573
 4168SOL    HW124140   3.141   0.651   3.063  2.8686 -1.6618 -0.8338
 4168SOL    HW224141   3.156   0.630   3.207 -3.2786  0.2821  1.2385
 4169SOL     OW24142   0.309   3.638  17.107 -0.3713  0.0109 -0.0269
 4169SOL    HW124143   0.298   3.723  17.065  1.0239 -0.5898 -1.6037
 4169SOL    HW224144   0.224   3.599  17.083  0.1714 -0.7642 -0.6912
 4170SOL     OW24145   4.615   1.599   1.548  0.1912  0.3823  0.4108
 4170SOL    HW124146   4.597   1.505   1.541 -2.5310  0.8403  1.3613
 4170SOL    HW224147   4.681   1.607   1.479 -0.7047 -1.8752 -0.6927
 4171SOL     OW24148   1.419   3.788   6.136 -0.5257 -0.0643 -0.6018
 4171SOL    HW124149   1.420   3.840   6.055  1.6598  2.3968  0.9829
 4171SOL    HW224150   1.352   3.828   6.191 -1.5295 -1.7348 -0.6330
 4172SOL     OW24151   0.147   4.238   7.060 -0.4993  0.5812  0.3352
 4172SOL    HW124152   0.098   4.248   7.142  1.7688  1.1587  1.6145
 4172SOL    HW224153   0.226   4.189   7.081 -1.0053 -0.0902  0.6571
 4173SOL     OW24154   0.246   0.070   4.940  0.5230 -0.1850  0.7060
 4173SOL    HW124155   0.305   0.076   5.015  1.1862  1.1670  0.0770
 4173SOL    HW224156   0.254   4.710   4.925 -0.2538 -0.0936 -0.2881
 4174SOL     OW24157   1.937   1.680   8.223  0.1206 -0.3053 -0.2643
 4174SOL    HW124158   1.905   1.602   8.178 -0.1569 -0.3925  0.0835
 4174SOL    HW224159   1.945   1.731   8.143 -1.8377  0.3335 -0.0440
 4175SOL     OW24160   2.223   3.740  14.005  0.4820  0.3067 -0.1180
 4175SOL    HW124161   2.283   3.700  13.943 -1.4237 -1.3834 -0.8643
 4175SOL    HW224162   2.135   3.705  13.989  1.0965 -1.1554 -0.2309
 4176SOL     OW24163   3.995   4.243   3.040 -0.1595 -0.5162 -0.0814
 4176SOL    HW124164   3.924   4.285   2.992 -1.0245 -0.0458  1.6128
 4176SOL    HW224165   3.957   4.159   3.068 -0.3205  0.2592  2.0557
 4177SOL     OW24166   4.131   2.199   1.447 -0.2122 -0.5261  0.0547
 4177SOL    HW124167   4.089   2.285   1.446 -0.6421 -0.7456 -0.6480
 4177SOL    HW224168   4.076   2.153   1.384 -0.3488 -3.8581  2.5836
 4178SOL     OW24169   2.690   3.344   5.735  0.0781 -0.6967  0.4738
 4178SOL    HW124170   2.631   3.342   5.811 -1.3804  1.9934 -0.5924
 4178SOL    HW224171   2.629   3.358   5.663  0.7666 -0.7228 -0.1113
 4179SOL     OW24172   1.343   2.805   5.500 -0.2884  0.1497  0.2446
 4179SOL    HW124173   1.278   2.869   5.471  0.2276  0.0455 -1.1381
 4179SOL    HW224174   1.417   2.807   5.439 -2.3527  1.3221 -2.2289
 4180SOL     OW24175   1.724   1.942   3.391 -0.2773 -0.6039 -0.1262
 4180SOL    HW124176   1.716   1.878   3.461  1.0046 -1.4683 -0.7728
 4180SOL    HW224177   1.684   2.016   3.436  0.9873 -0.0910  0.1605
 4181SOL     OW24178   3.089   2.842   0.726 -0.2468 -0.5705  0.0057
 4181SOL    HW124179   3.137   2.787   0.665  1.7628 -0.1811  1.2491
 4181SOL    HW224180   3.003   2.816   0.694  0.1505  0.8713 -2.2240
 4182SOL     OW24181   3.728   4.015   0.013  0.2125  0.1314 -0.1892
 4182SOL    HW124182   3.701   3.996   0.103 -0.6120  0.9331 -0.2664
 4182SOL    HW224183   3.805   4.061   0.047  0.4770 -0.7443  0.3738
 4183SOL     OW24184   0.783   2.629   4.075 -0.1885 -0.7245 -0.3876
 4183SOL    HW124185   0.844   2.631   4.150  0.9837  0.5546 -1.3727
 4183SOL    HW224186   0.711   2.578   4.111  0.5571 -0.5306  1.4299
 4184SOL     OW24187   4.644   2.138   8.659 -0.3905 -0.3185 -0.2738
 4184SOL    HW124188   4.620   2.150   8.751  1.3537  1.1543 -0.0066
 4184SOL    HW224189   4.561   2.134   8.611 -0.2693 -1.1050 -0.4109
 4185SOL     OW24190   2.444   2.571   4.555 -0.0400 -0.2160 -0.3553
 4185SOL    HW124191   2.508   2.507   4.524  0.2028 -0.6156  0.9759
 4185SOL    HW224192   2.406   2.529   4.632 -0.4680  1.1640  0.1972
 4186SOL     OW24193   1.141   2.885  10.931  0.2023 -0.4653 -0.2067
 4186SOL    HW124194   1.134   2.801  10.885 -2.7036  0.1721 -0.9252
 4186SOL    HW224195   1.220   2.872  10.984 -0.4350  1.1049  1.1097
 4187SOL     OW24196   0.033   1.785   6.469 -0.1021  0.1734  0.4020
 4187SOL    HW124197   0.074   1.739   6.396 -1.3484  2.0155 -1.4910
 4187SOL    HW224198   0.013   1.718   6.534  0.2692 -2.0685 -1.7885
 4188SOL     OW24199   1.181   3.270  10.943  0.1363  0.2978  0.1210
 4188SOL    HW124200   1.153   3.361  10.934 -2.9922 -0.5504  1.2146
 4188SOL    HW224201   1.238   3.252  10.868  1.2231 -0.3304  1.0810
 4189SOL     OW24202   3.481   3.342   3.314  0.1182  0.1879 -0.3486
 4189SOL    HW124203   3.556   3.383   3.272  0.5200  0.7363  0.9009
 4189SOL    HW224204   3.509   3.341   3.406  0.1867  2.9366 -0.3498
 4190SOL     OW24205   3.517   3.792  17.473 -0.0048 -0.2129 -0.4512
 4190SOL    HW124206   3.593   3.846  17.498 -0.1056 -0.2829 -0.0032
 4190SOL    HW224207   3.471   3.776  17.555 -0.0553  1.1881 -0.1999
 4191SOL     OW24208   1.747   3.268   4.996 -0.0835  0.6046 -0.0124
 4191SOL    HW124209   1.734   3.346   5.051 -0.2642  1.3769 -1.1568
 4191SOL    HW224210   1.761   3.313   4.913  1.5120  0.0703 -0.0445
 4192SOL     OW24211   2.023   1.240   0.583  0.4446  0.1744  0.0163
 4192SOL    HW124212   2.105   1.278   0.551  1.1291 -1.4849 -0.1618
 4192SOL    HW224213   1.977   1.253   0.500 -0.1943  0.5395  0.4308
 4193SOL     OW24214   1.041   0.581   4.731 -0.3371 -0.2653  0.0091
 4193SOL    HW124215   1.015   0.489   4.742  0.3131 -0.3804  0.5744
 4193SOL    HW224216   1.029   0.626   4.815  1.0194  0.0318  0.0492
 4194SOL     OW24217   3.017   1.411   4.660  0.1212  0.1072  0.1069
 4194SOL    HW124218   3.014   1.321   4.695 -0.0316  1.0528  2.5076
 4194SOL    HW224219   3.104   1.419   4.621  0.2736 -1.0521  0.2070
 4195SOL     OW24220   3.063   4.561   6.785 -0.2258  0.2007 -0.3170
 4195SOL    HW124221   2.970   4.541   6.788 -0.0448 -0.8529 -1.4591
 4195SOL    HW224222   3.104   4.478   6.808 -1.3888  0.0138  1.0253
 4196SOL     OW24223   3.965   2.694   0.114  0.1336  0.0733  0.1017
 4196SOL    HW124224   3.969   2.773   0.169  2.9588  0.6463 -0.9351
 4196SOL    HW224225   3.964   2.623   0.178  2.0764  0.5619  0.6967
 4197SOL     OW24226   1.027   2.457   0.972 -0.4863  0.3794 -0.8264
 4197SOL    HW124227   1.104   2.497   1.013 -0.5796  0.6121 -0.8788
 4197SOL    HW224228   1.065   2.406   0.899  0.5818 -0.0904  0.0536
 4198SOL     OW24229   4.284   0.375   5.995  0.4788 -0.1538 -0.3517
 4198SOL    HW124230   4.194   0.401   5.975  0.5438  0.5210  0.2165
 4198SOL    HW224231   4.303   0.316   5.923  1.3760 -0.8664  0.4729
 4199SOL     OW24232   3.560   0.054  10.263 -0.4719 -0.2998  1.1023
 4199SOL    HW124233   3.624   0.111  10.220 -0.9592 -0.3594  0.3046
 4199SOL    HW224234   3.605   0.021  10.341 -0.0598 -0.5343  0.7627
 4200SOL     OW24235   3.637   0.619  11.901  0.2449  0.0729 -0.2156
 4200SOL    HW124236   3.684   0.538  11.880 -1.4663 -1.2332  0.9462
 4200SOL    HW224237   3.687   0.656  11.974  0.7816 -0.8271 -0.1265
 4201SOL     OW24238   3.034   4.352   7.159  0.2578  0.4354  0.1123
 4201SOL    HW124239   3.115   4.375   7.113 -0.4926 -0.5071 -1.6845
 4201SOL    HW224240   3.065   4.284   7.218 -0.9025  0.2981  0.5652
 4202SOL     OW24241   1.119   0.036   1.698 -0.4848  0.1454 -0.0007
 4202SOL    HW124242   1.033   0.068   1.672 -0.1773  0.6959 -0.3479
 4202SOL    HW224243   1.177   0.065   1.628 -0.2606  1.3370  0.6803
 4203SOL     OW24244   1.756   1.693   8.629  1.0733 -0.0002  0.1833
 4203SOL    HW124245   1.848   1.713   8.646  1.1883  0.3351 -0.8512
 4203SOL    HW224246   1.750   1.622   8.694  0.4372  0.7082  0.8941
 4204SOL     OW24247   3.472   2.996   2.100  0.0842  0.0137 -0.5347
 4204SOL    HW124248   3.492   3.061   2.034 -1.7094  1.5520  0.4435
 4204SOL    HW224249   3.378   3.015   2.104 -0.4892 -2.0749 -3.8652
 4205SOL     OW24250   3.730   0.152   7.168 -0.0134  0.2165 -0.7030
 4205SOL    HW124251   3.668   0.086   7.200 -0.6410  1.2256  0.1625
 4205SOL    HW224252   3.787   0.150   7.245 -0.1119 -2.0589 -0.6884
 4206SOL     OW24253   2.171   1.016   8.880 -0.5922 -0.3100 -0.5589
 4206SOL    HW124254   2.226   0.939   8.896  0.2934  0.4743  0.1922
 4206SOL    HW224255   2.215   1.062   8.808 -0.3042 -0.6441 -0.6000
 4207SOL     OW24256   3.777   0.106   6.748  0.2457 -0.2899 -0.0388
 4207SOL    HW124257   3.806   0.121   6.659 -0.2999  2.1409  0.1811
 4207SOL    HW224258   3.690   0.147   6.751  0.9496  1.2121 -0.5188
 4208SOL     OW24259   2.360   0.098   6.072 -0.1037  0.0299  0.4939
 4208SOL    HW124260   2.294   0.154   6.113 -1.5428 -0.6955 -0.8245
 4208SOL    HW224261   2.362   0.137   5.984  0.6562  1.2195  1.0373
 4209SOL     OW24262   4.186   3.078  17.001  0.0266  0.0347 -0.1969
 4209SOL    HW124263   4.258   3.057  16.941  1.8470  1.5259  1.4823
 4209SOL    HW224264   4.217   3.165  17.027  2.5257 -0.7299 -0.6065
 4210SOL     OW24265   2.311   1.475   7.022  0.2218 -0.3016  0.6234
 4210SOL    HW124266   2.228   1.452   6.979  0.4738 -0.0808  0.0211
 4210SOL    HW224267   2.367   1.516   6.957 -0.8285  0.6046  0.2932
 4211SOL     OW24268   3.660   4.198   8.068 -0.0229  0.2342  0.2841
 4211SOL    HW124269   3.692   4.108   8.071  1.9544  1.0775  3.8611
 4211SOL    HW224270   3.743   4.244   8.082 -0.1062  1.2007 -2.3964
 4212SOL     OW24271   1.472   2.167   4.207  0.1161  0.2695 -0.2562
 4212SOL    HW124272   1.547   2.206   4.253  0.3021 -0.6484  0.2148
 4212SOL    HW224273   1.405   2.187   4.273 -1.7314 -0.5789 -1.8812
 4213SOL     OW24274   2.081   1.477  15.463 -0.0700 -0.0157  0.2461
 4213SOL    HW124275   2.032   1.550  15.500  0.0206  1.5883 -2.8501
 4213SOL    HW224276   2.058   1.414  15.532  2.3987  0.1413  1.2111
 4214SOL     OW24277   2.173   2.064   2.356  0.1451 -0.1148  0.5150
 4214SOL    HW124278   2.105   2.130   2.364 -1.3097 -1.5722  0.2227
 4214SOL    HW224279   2.129   1.989   2.315 -1.9146  1.4378 -0.1189
 4215SOL     OW24280   2.987   0.016   1.663 -0.0325  0.1020 -0.5164
 4215SOL    HW124281   2.932   4.692   1.715 -0.9231  0.6807 -0.8239
 4215SOL    HW224282   2.963   0.097   1.709  0.4494  0.6075 -1.1493
 4216SOL     OW24283   1.720   0.508  14.857 -0.3497 -0.3483  0.4126
 4216SOL    HW124284   1.625   0.511  14.859 -0.4514 -1.9404 -2.8514
 4216SOL    HW224285   1.739   0.421  14.823  0.7562  0.2192 -0.4100
 4217SOL     OW24286   1.813   4.163   7.556  0.5161  0.3854 -0.2103
 4217SOL    HW124287   1.827   4.239   7.500 -0.0875  1.7551  1.5076
 4217SOL    HW224288   1.840   4.203   7.638  1.3972  1.0906 -0.8382
 4218SOL     OW24289   0.398   2.423   3.470 -0.5275  0.2291  0.1125
 4218SOL    HW124290   0.398   2.371   3.390 -0.2182 -1.5156  1.2385
 4218SOL    HW224291   0.492   2.441   3.469 -0.3352 -0.7200  1.1387
 4219SOL     OW24292   1.274   1.965  15.238  0.1541  0.3955  0.7240
 4219SOL    HW124293   1.293   2.001  15.324 -1.2967  1.3797  0.6274
 4219SOL    HW224294   1.275   1.873  15.265  1.9146  0.2661  0.2316
 4220SOL     OW24295   3.012   1.084   1.406  0.6605 -0.2954 -0.7221
 4220SOL    HW124296   2.958   1.045   1.338  0.5065  0.0211 -0.7830
 4220SOL    HW224297   2.951   1.144   1.449  0.6202 -0.7998 -0.0841
 4221SOL     OW24298   1.095   0.800  13.396 -0.6333 -0.2742 -0.5927
 4221SOL    HW124299   1.008   0.760  13.392 -0.3347 -0.9578 -0.3048
 4221SOL    HW224300   1.112   0.807  13.302 -2.7110 -0.2013 -0.9509
 4222SOL     OW24301   4.023   1.530   4.349 -0.4269 -0.1264 -0.5744
 4222SOL    HW124302   3.933   1.557   4.367 -0.5440 -2.2481  1.9506
 4222SOL    HW224303   4.061   1.548   4.435  0.3724  0.7357 -1.0902
 4223SOL     OW24304   0.920   2.009   8.763  0.1252  0.3815  0.0718
 4223SOL    HW124305   0.984   1.952   8.722  0.3893 -0.6314  1.8622
 4223SOL    HW224306   0.936   2.101   8.743  2.0001  0.2954  1.2021
 4224SOL     OW24307   2.297   0.959   5.584  0.1386  0.5713  0.0634
 4224SOL    HW124308   2.371   1.020   5.586 -0.5313  1.4282 -1.3280
 4224SOL    HW224309   2.284   0.946   5.678 -0.9590  1.2161  0.0010
 4225SOL     OW24310   1.791   2.142   8.467 -0.0909 -0.3126 -0.2783
 4225SOL    HW124311   1.786   2.170   8.558  0.7539 -3.9781  0.8932
 4225SOL    HW224312   1.846   2.063   8.463 -0.9090 -0.8734 -0.4325
 4226SOL     OW24313   3.734   0.495   5.704  0.2550  0.2545  0.6030
 4226SOL    HW124314   3.781   0.566   5.660 -1.7502  2.1518  1.5180
 4226SOL    HW224315   3.653   0.515   5.657  0.7428  1.0015  0.0726
 4227SOL     OW24316   4.521   0.832   1.524  0.1480 -0.6430 -0.3121
 4227SOL    HW124317   4.577   0.797   1.454  1.5101  0.6935  0.0899
 4227SOL    HW224318   4.491   0.757   1.575  0.4178 -2.1482 -2.3827
 4228SOL     OW24319   4.338   0.302   8.863  0.1230 -0.4705 -0.1518
 4228SOL    HW124320   4.294   0.367   8.808  0.6817 -0.0906 -0.1450
 4228SOL    HW224321   4.266   0.263   8.913  1.7745 -0.4858  2.1528
 4229SOL     OW24322   4.200   4.009   2.479  0.2289 -0.6647 -0.4845
 4229SOL    HW124323   4.285   4.052   2.479  0.1755 -0.5760  3.0288
 4229SOL    HW224324   4.214   3.930   2.532  0.0535 -0.4752 -0.1562
 4230SOL     OW24325   4.028   0.867   7.264 -0.2487  0.5910 -0.2168
 4230SOL    HW124326   4.079   0.924   7.206 -0.7729  1.2437 -0.0350
 4230SOL    HW224327   3.940   0.888   7.233  0.6258  1.7830 -1.9053
 4231SOL     OW24328   2.532   3.989  11.693  0.1351  0.0141 -0.3720
 4231SOL    HW124329   2.616   3.948  11.673  0.6362 -0.1901  2.2203
 4231SOL    HW224330   2.474   3.930  11.645  1.4562 -2.4691  1.0742
 4232SOL     OW24331   1.306   3.004  11.295  0.1415 -0.5463  0.1710
 4232SOL    HW124332   1.276   3.016  11.385  1.2499  1.3139  0.2963
 4232SOL    HW224333   1.232   3.039  11.246 -0.0439 -1.7746 -0.4309
 4233SOL     OW24334   1.552   1.988  13.477  0.4961  0.3166  0.0869
 4233SOL    HW124335   1.497   1.911  13.471  2.6341 -0.9886 -2.6820
 4233SOL    HW224336   1.509   2.037  13.407 -2.6363  0.4404  2.0984
 4234SOL     OW24337   1.764   4.618   4.679  0.2947  0.0514 -0.1629
 4234SOL    HW124338   1.851   4.590   4.707 -0.4481 -0.3337  1.7469
 4234SOL    HW224339   1.777   4.599   4.586 -1.3896 -2.9758  0.2019
 4235SOL     OW24340   1.787   3.366  15.367 -0.0324  0.9080  0.0301
 4235SOL    HW124341   1.754   3.396  15.282  2.6375  2.1231 -0.5856
 4235SOL    HW224342   1.880   3.359  15.345 -0.8827 -2.3267 -2.4883
 4236SOL     OW24343   1.315   0.602   4.569  0.1552  0.4085 -0.2573
 4236SOL    HW124344   1.339   0.525   4.621 -1.2806 -1.2281 -1.9664
 4236SOL    HW224345   1.393   0.657   4.565  0.9454 -0.5689  1.9679
 4237SOL     OW24346   2.699   1.457   2.835 -0.1181 -0.4136 -0.0079
 4237SOL    HW124347   2.790   1.428   2.842  0.3335  1.6371  2.6804
 4237SOL    HW224348   2.665   1.368   2.837  2.4659 -1.4705 -3.2386
 4238SOL     OW24349   3.517   3.966   7.816  0.7769 -0.0915 -0.3057
 4238SOL    HW124350   3.504   3.901   7.748 -0.2307 -1.3988  1.1240
 4238SOL    HW224351   3.490   3.921   7.897 -2.3183 -0.2584 -1.4177
 4239SOL     OW24352   3.267   2.037   3.925  0.0385  0.2500  0.4728
 4239SOL    HW124353   3.283   2.094   4.001 -0.1853 -0.8337  1.3363
 4239SOL    HW224354   3.326   2.077   3.861 -0.4022 -0.2734 -0.2583
 4240SOL     OW24355   0.173   1.817   8.961 -0.3071 -0.3993 -0.0924
 4240SOL    HW124356   0.088   1.811   8.917 -0.7047  0.8136  0.5016
 4240SOL    HW224357   0.230   1.824   8.885 -0.6572 -0.5721 -0.3714
 4241SOL     OW24358   0.407   2.142   8.287  0.0981  0.2011  0.2225
 4241SOL    HW124359   0.344   2.207   8.256  0.1829 -0.9347 -2.3210
 4241SOL    HW224360   0.476   2.149   8.221 -1.2512  1.8038 -1.0316
 4242SOL     OW24361   3.561   1.524   6.042  0.0526 -0.2159 -0.3613
 4242SOL    HW124362   3.498   1.482   6.100 -0.5123 -0.5036 -1.1768
 4242SOL    HW224363   3.635   1.464   6.038 -0.6939 -1.1664  0.2646
 4243SOL     OW24364   2.192   2.012  10.320 -0.1325  0.5593  0.0528
 4243SOL    HW124365   2.164   2.100  10.342 -2.4489 -1.0646  3.5739
 4243SOL    HW224366   2.181   1.961  10.400 -1.3235  0.0369 -0.4470
 4244SOL     OW24367   1.146   2.115   5.589 -0.0808  0.6006  0.8589
 4244SOL    HW124368   1.155   2.031   5.634  2.3636  0.8348  0.7775
 4244SOL    HW224369   1.233   2.143   5.562  0.9085 -2.0004  1.4071
 4245SOL     OW24370   3.817   3.258   1.769  0.1432 -0.1628 -0.1006
 4245SOL    HW124371   3.807   3.301   1.854  0.3270 -1.8430  0.7857
 4245SOL    HW224372   3.843   3.329   1.711  0.1015 -0.5902 -0.6391
 4246SOL     OW24373   3.056   0.798   2.300 -0.3954 -0.5010 -0.1639
 4246SOL    HW124374   3.143   0.825   2.330 -0.3031  0.2866 -1.1813
 4246SOL    HW224375   2.993   0.801   2.372  0.3669 -1.0215  0.5265
 4247SOL     OW24376   4.578   2.596   2.972 -0.4734  0.5178 -0.6640
 4247SOL    HW124377   4.607   2.524   3.028  0.5460  1.4874  0.0563
 4247SOL    HW224378   4.639   2.583   2.899 -1.0158 -0.0002 -1.0172
 4248SOL     OW24379   4.489   0.096   7.145 -0.1517  1.2023  0.0938
 4248SOL    HW124380   4.424   0.153   7.186  1.5327  1.5946  2.1664
 4248SOL    HW224381   4.522   0.159   7.081 -0.5931 -0.2592 -1.5942
 4249SOL     OW24382   1.867   1.349   9.982 -0.3301 -0.1303  0.0603
 4249SOL    HW124383   1.812   1.412   9.936 -2.0328  0.0518  2.3439
 4249SOL    HW224384   1.801   1.288  10.016  0.4398  0.1802  2.0965
 4250SOL     OW24385   3.339   2.078   0.928 -0.0180  0.2117  0.0158
 4250SOL    HW124386   3.269   2.062   0.992  1.3800 -2.7277  0.8115
 4250SOL    HW224387   3.405   2.130   0.973 -0.5753  2.6729 -2.0475
 4251SOL     OW24388   2.563   2.907   5.462 -0.0475 -0.1227 -0.3257
 4251SOL    HW124389   2.575   2.812   5.464  2.8187  0.2426 -1.3360
 4251SOL    HW224390   2.560   2.931   5.370  1.7416  0.8070 -0.1418
 4252SOL     OW24391   2.367   0.154   3.716  0.4668 -0.0368 -0.3494
 4252SOL    HW124392   2.295   0.207   3.750 -0.4022 -0.3550 -1.7056
 4252SOL    HW224393   2.317   0.110   3.648 -0.4285 -0.2348  0.4468
 4253SOL     OW24394   1.091   0.246   8.783  0.0597  0.2228 -0.2244
 4253SOL    HW124395   1.134   0.264   8.866  0.1640  0.1833 -0.2690
 4253SOL    HW224396   0.997   0.253   8.799 -0.0932  0.3025 -1.1319
 4254SOL     OW24397   3.902   1.283  12.592 -0.3064 -0.4748 -0.3208
 4254SOL    HW124398   3.825   1.242  12.632 -1.8886  2.6486 -0.1223
 4254SOL    HW224399   3.951   1.329  12.661 -1.7359 -1.2376  1.2032
 4255SOL     OW24400   2.555   0.194   5.748 -0.0411 -0.2704  0.9147
 4255SOL    HW124401   2.606   0.168   5.825  2.6279  0.4887 -0.6010
 4255SOL    HW224402   2.580   0.123   5.689 -0.5205 -0.2708  0.7082
 4256SOL     OW24403   2.162   4.600  11.198  0.5490 -0.0105 -0.7329
 4256SOL    HW124404   2.189   4.508  11.196  1.9086  0.4180 -1.8707
 4256SOL    HW224405   2.224   4.629  11.266 -1.8150  0.7943  1.0742
 4257SOL     OW24406   0.174   3.471   7.978  0.1549 -0.0942 -0.2533
 4257SOL    HW124407   0.148   3.386   8.011  2.2289 -0.8483 -0.5745
 4257SOL    HW224408   0.194   3.523   8.055  1.2107 -1.4403  0.3820
 4258SOL     OW24409   3.175   4.543   2.781 -0.1582 -0.6168 -0.3193
 4258SOL    HW124410   3.137   4.592   2.708  2.4362  1.0736 -0.5059
 4258SOL    HW224411   3.116   4.468   2.792 -1.7156  0.8376  1.3774
 4259SOL     OW24412   0.551   3.507   6.610  0.3615  0.5199 -0.0235
 4259SOL    HW124413   0.494   3.432   6.590 -1.2523  0.9880  2.8532
 4259SOL    HW224414   0.555   3.518   6.705 -2.3512  0.6609  0.0834
 4260SOL     OW24415   2.548   2.849   4.665  0.6950  0.0942  0.3981
 4260SOL    HW124416   2.608   2.831   4.592  2.1722  2.1248  1.1070
 4260SOL    HW224417   2.562   2.944   4.671 -1.4720  0.4370  0.0342
 4261SOL     OW24418   0.218   2.849  17.109 -0.5479 -0.3131  0.0029
 4261SOL    HW124419   0.178   2.838  17.023  1.0934 -0.6983 -0.7225
 4261SOL    HW224420   0.308   2.868  17.083 -0.9277  0.5691 -0.6533
 4262SOL     OW24421   3.221   3.439   2.079  0.5245  0.2657 -0.1563
 4262SOL    HW124422   3.216   3.516   2.024 -1.9735  1.3204  1.5341
 4262SOL    HW224423   3.310   3.452   2.110  0.8460 -1.0029 -0.5630
 4263SOL     OW24424   3.345   4.429  12.838  0.4347  0.3631 -0.4105
 4263SOL    HW124425   3.418   4.380  12.876  1.7095  0.1210 -3.1835
 4263SOL    HW224426   3.342   4.389  12.752 -0.6892  1.3799 -0.8423
 4264SOL     OW24427   2.739   0.849   5.400  0.3656  0.4776 -0.2694
 4264SOL    HW124428   2.725   0.942   5.381  3.6027  1.3171  1.4726
 4264SOL    HW224429   2.671   0.815   5.343  0.9275  1.2455 -1.4157
 4265SOL     OW24430   0.879   2.090   2.235  0.6091  0.2860  0.2685
 4265SOL    HW124431   0.885   2.115   2.143 -0.7449  0.9019  0.3464
 4265SOL    HW224432   0.962   2.133   2.255 -0.8556  3.7037 -0.8400
 4266SOL     OW24433   4.181   2.771   8.252 -0.4687 -0.4548 -0.2292
 4266SOL    HW124434   4.142   2.809   8.173  1.6308 -1.3130 -1.6958
 4266SOL    HW224435   4.259   2.825   8.257 -0.9604  0.1689  0.6849
 4267SOL     OW24436   4.706   0.916   4.648  0.5660  0.2188  0.1910
 4267SOL    HW124437   4.709   0.925   4.552  1.2573 -1.5192  0.0607
 4267SOL    HW224438   0.032   0.842   4.659  0.1475  0.2732  2.8238
 4268SOL     OW24439   0.860   1.032   5.736 -0.2256 -0.1268 -0.3160
 4268SOL    HW124440   0.845   1.066   5.825 -3.2525 -2.6766  0.1314
 4268SOL    HW224441   0.810   0.951   5.742 -0.3620 -0.0839 -0.9223
 4269SOL     OW24442   3.078   3.298   7.218 -0.4738  0.2606 -0.1755
 4269SOL    HW124443   3.083   3.204   7.236  0.3493  0.2611 -0.4197
 4269SOL    HW224444   3.133   3.295   7.139 -1.3917 -0.5595 -0.7857
 4270SOL     OW24445   0.348   3.214   4.992 -0.2011  0.3745 -0.2493
 4270SOL    HW124446   0.360   3.305   4.963 -1.1872 -0.0226 -1.9324
 4270SOL    HW224447   0.428   3.198   5.041 -0.0722 -1.1828 -0.9810
 4271SOL     OW24448   1.577   3.543  13.162 -0.4163 -0.1281  0.1212
 4271SOL    HW124449   1.641   3.556  13.091  2.4053 -1.5261  2.3957
 4271SOL    HW224450   1.630   3.511  13.235 -2.5046  4.1482  3.4219
 4272SOL     OW24451   1.980   1.209  14.022  0.1490  0.0613  1.0034
 4272SOL    HW124452   2.064   1.164  14.027  1.3265  1.8024 -3.0062
 4272SOL    HW224453   1.990   1.284  14.081  0.3668 -0.3961  1.5469
 4273SOL     OW24454   3.176   0.697   7.799  0.2174  0.1710 -0.8646
 4273SOL    HW124455   3.119   0.755   7.849  0.6870  0.7924 -1.0422
 4273SOL    HW224456   3.196   0.742   7.717  2.3091  0.7054 -0.0624
 4274SOL     OW24457   4.423   1.036  12.272  0.5711  0.1486 -0.4228
 4274SOL    HW124458   4.516   1.017  12.266 -0.0214 -3.1236  0.9737
 4274SOL    HW224459   4.418   1.089  12.192  0.0182  2.0767  0.8714
 4275SOL     OW24460   2.271   2.115   7.935  0.1329 -0.3447  0.0797
 4275SOL    HW124461   2.298   2.144   7.848 -2.3854  0.4577 -0.4296
 4275SOL    HW224462   2.311   2.028   7.930  1.3344  0.0342  3.0225
 4276SOL     OW24463   0.998   3.140  10.728 -0.4181 -0.0644 -0.4984
 4276SOL    HW124464   1.087   3.147  10.692  0.2570  1.4487  1.4829
 4276SOL    HW224465   1.004   3.212  10.790 -0.3947 -2.0173  1.7809
 4277SOL     OW24466   2.673   2.988   5.713 -0.0635 -0.3716 -0.4695
 4277SOL    HW124467   2.637   2.940   5.639  1.8079 -0.1430 -1.5419
 4277SOL    HW224468   2.748   2.934   5.741 -0.1659 -0.8285 -1.0844
 4278SOL     OW24469   0.580   2.735   8.429 -0.0822  0.1553  0.2412
 4278SOL    HW124470   0.605   2.673   8.361 -0.9232  1.5721 -1.3665
 4278SOL    HW224471   0.586   2.680   8.508  3.1858 -1.0438 -0.8502
 4279SOL     OW24472   4.309   1.555   2.917 -0.7491  0.3801  0.3492
 4279SOL    HW124473   4.268   1.508   2.845 -1.9007  0.6433  0.8276
 4279SOL    HW224474   4.249   1.530   2.988 -0.9311  0.2317  0.1448
 4280SOL     OW24475   0.109   2.943   9.637  0.6985 -0.5091  0.5248
 4280SOL    HW124476   0.183   2.912   9.584 -0.9272 -2.8094 -0.4068
 4280SOL    HW224477   0.136   2.922   9.727  2.9116  1.3854  0.3237
 4281SOL     OW24478   0.111   1.049  12.828  0.2487 -0.0472  0.1627
 4281SOL    HW124479   0.193   1.049  12.877  1.4345 -1.2338 -1.8280
 4281SOL    HW224480   0.076   0.963  12.854  0.2435 -0.3698 -0.9410
 4282SOL     OW24481   2.908   4.262  11.296  0.1665  0.0487 -0.5720
 4282SOL    HW124482   2.888   4.353  11.274  0.5420  0.3082  0.1261
 4282SOL    HW224483   2.907   4.215  11.213  2.7520 -1.5666  0.3002
 4283SOL     OW24484   0.395   3.862  11.354  0.0809 -0.1548  0.0617
 4283SOL    HW124485   0.470   3.874  11.411  1.7278 -0.9210 -1.9455
 4283SOL    HW224486   0.313   3.886  11.397 -0.1263 -1.7685  0.5862
 4284SOL     OW24487   0.481   0.399  12.219 -0.3379 -0.2263  0.2633
 4284SOL    HW124488   0.464   0.313  12.259 -2.2948 -0.3336 -0.7727
 4284SOL    HW224489   0.394   0.432  12.197 -0.1893 -0.0138  0.0008
 4285SOL     OW24490   3.354   4.276   3.235 -0.1963 -0.3485 -0.6628
 4285SOL    HW124491   3.302   4.200   3.260  0.3991 -0.6649 -0.3720
 4285SOL    HW224492   3.420   4.268   3.304 -0.0126 -0.5646 -0.8648
 4286SOL     OW24493   0.218   4.235   1.932 -0.0471  0.0780 -0.1850
 4286SOL    HW124494   0.250   4.325   1.935  1.5310 -0.4654 -1.1896
 4286SOL    HW224495   0.125   4.243   1.955 -0.0564 -0.0492 -0.1787
 4287SOL     OW24496   3.393   1.353   3.422 -0.0245 -0.1218 -0.0158
 4287SOL    HW124497   3.391   1.371   3.328  0.3162  1.3155  0.2546
 4287SOL    HW224498   3.308   1.324   3.455  0.2823 -2.5453 -1.3868
 4288SOL     OW24499   2.047   2.663   4.539  0.1826  0.1122  0.4317
 4288SOL    HW124500   2.125   2.712   4.512  0.8796 -0.3737  1.5379
 4288SOL    HW224501   2.038   2.595   4.472 -0.4797  0.0291  0.6055
 4289SOL     OW24502   3.732   3.367   2.058 -0.6120  0.0244 -0.0163
 4289SOL    HW124503   3.745   3.459   2.084 -1.2583 -0.3234  1.5298
 4289SOL    HW224504   3.673   3.342   2.129  0.9939 -1.2595  0.8469
 4290SOL     OW24505   2.273   3.650   8.757 -0.0069 -0.3792  0.1442
 4290SOL    HW124506   2.290   3.590   8.684  0.1048  1.4143 -1.2809
 4290SOL    HW224507   2.318   3.615   8.834 -0.1253  0.9219  0.7985
 4291SOL     OW24508   2.447   0.625   2.748 -0.1193  0.4210  0.0123
 4291SOL    HW124509   2.371   0.678   2.725 -0.0149  0.0363 -1.1856
 4291SOL    HW224510   2.417   0.579   2.826 -3.0134 -3.4134 -3.3788
 4292SOL     OW24511   2.857   2.275  17.671  0.1234 -0.1084 -0.6928
 4292SOL    HW124512   2.888   2.191  17.636 -1.5464 -1.1604  0.3423
 4292SOL    HW224513   2.833   2.252   0.024  2.3871  2.2636  0.5185
 4293SOL     OW24514   2.577   0.980  15.487  0.8372  0.2502 -0.0835
 4293SOL    HW124515   2.607   0.895  15.520  1.1989  0.3099 -0.2472
 4293SOL    HW224516   2.515   0.949  15.421 -0.4106  0.0316  1.2221
 4294SOL     OW24517   1.086   2.220   6.371  0.0300  0.2992 -0.6409
 4294SOL    HW124518   0.997   2.225   6.336  0.0391  1.6560 -0.4454
 4294SOL    HW224519   1.072   2.165   6.448  0.0814  0.1448 -0.7429
 4295SOL     OW24520   0.784   3.936   7.708  0.3045 -0.0044 -0.2887
 4295SOL    HW124521   0.871   3.966   7.681  0.9120  0.7914  2.5691
 4295SOL    HW224522   0.732   3.985   7.645  0.8335 -0.3079 -0.9534
 4296SOL     OW24523   2.530   3.913  11.300  0.2155  0.1687  0.2897
 4296SOL    HW124524   2.599   3.892  11.363  0.9605  0.3371 -0.4635
 4296SOL    HW224525   2.458   3.930  11.360 -1.3163 -2.2307 -0.8718
 4297SOL     OW24526   2.770   0.370   2.881  0.4615 -0.5588  0.0584
 4297SOL    HW124527   2.789   0.397   2.971 -1.4010  1.6420 -0.2264
 4297SOL    HW224528   2.804   0.281   2.874  2.5584  0.3318 -1.2293
 4298SOL     OW24529   4.066   0.901   7.536  0.0850  0.5599  0.1006
 4298SOL    HW124530   4.055   0.890   7.442  1.6359  0.3390 -0.0620
 4298SOL    HW224531   4.152   0.942   7.549  0.3934  0.2241 -0.8643
 4299SOL     OW24532   3.294   1.490   7.557  0.2249  0.5666  0.7428
 4299SOL    HW124533   3.314   1.405   7.518 -4.1534 -0.7752  1.4992
 4299SOL    HW224534   3.371   1.515   7.609  0.4832 -1.0878  1.1481
 4300SOL     OW24535   2.957   3.715   6.604  0.1310  0.1000 -0.6481
 4300SOL    HW124536   3.033   3.756   6.646  0.6959 -1.1375 -0.4635
 4300SOL    HW224537   2.968   3.748   6.515 -1.6403  2.3219 -0.0227
 4301SOL     OW24538   2.958   0.959  12.342 -0.1883  0.9251 -0.0648
 4301SOL    HW124539   2.945   0.911  12.424 -5.6277  0.0235 -1.4788
 4301SOL    HW224540   2.975   0.889  12.279  0.5323  1.2206 -0.1988
 4302SOL     OW24541   3.126   3.643   7.163 -0.2073  0.6602 -0.5242
 4302SOL    HW124542   3.030   3.647   7.160 -0.2011  1.8252  0.8069
 4302SOL    HW224543   3.139   3.647   7.258  0.6213  1.2766 -0.6632
 4303SOL     OW24544   0.086   4.421   4.978  0.2260 -0.1667 -0.1127
 4303SOL    HW124545   0.138   4.355   4.933 -0.6287 -0.7325 -0.2684
 4303SOL    HW224546   0.078   4.366   5.055 -1.2128  0.4206  0.1499
 4304SOL     OW24547   0.335   4.105   7.183 -0.2961 -0.3110 -0.2115
 4304SOL    HW124548   0.345   4.084   7.275 -1.5198  0.1219  0.0235
 4304SOL    HW224549   0.391   4.041   7.138 -1.7163 -0.9071 -1.1278
 4305SOL     OW24550   1.814   2.080   6.697  0.6668  0.4834  0.1960
 4305SOL    HW124551   1.798   2.174   6.706  1.8434  0.7680 -0.7920
 4305SOL    HW224552   1.907   2.083   6.674 -0.0098  0.7531 -2.4925
 4306SOL     OW24553   1.395   3.418   4.011  0.5452 -0.1556  0.1741
 4306SOL    HW124554   1.404   3.322   4.012  0.5658 -0.1349  1.7878
 4306SOL    HW224555   1.336   3.421   3.936  0.9862 -0.8612 -0.2039
 4307SOL     OW24556   0.554   1.490   6.213  0.2248  0.2974 -0.4390
 4307SOL    HW124557   0.527   1.439   6.290  1.3380 -0.0331 -0.2762
 4307SOL    HW224558   0.611   1.560   6.245 -1.5348  2.1941 -1.4455
 4308SOL     OW24559   1.479   1.030   5.067 -0.2187 -0.3922 -0.4444
 4308SOL    HW124560   1.388   1.012   5.041 -0.8066  1.6049  0.2624
 4308SOL    HW224561   1.522   0.957   5.023 -1.7845 -1.7177  0.2053
 4309SOL     OW24562   4.343   2.721   3.832  0.2060  0.4511  0.1051
 4309SOL    HW124563   4.320   2.725   3.925 -1.8467 -2.4816 -0.2677
 4309SOL    HW224564   4.433   2.689   3.824  0.2887  0.5055  0.8377
 4310SOL     OW24565   0.247   2.584   9.351 -0.2918  0.0578 -0.1211
 4310SOL    HW124566   0.288   2.601   9.266 -0.5727 -2.1355 -0.6941
 4310SOL    HW224567   0.162   2.626   9.340 -1.2032 -1.3542  1.6469
 4311SOL     OW24568   2.972   1.602   2.480  0.4091  0.0419  0.3030
 4311SOL    HW124569   2.895   1.584   2.427  0.5258 -0.3258  0.2575
 4311SOL    HW224570   3.034   1.622   2.409  0.8775 -1.3350  0.3322
 4312SOL     OW24571   1.680   3.170  17.357  0.4046 -0.2525  0.5000
 4312SOL    HW124572   1.678   3.074  17.358  2.8849 -0.3126 -2.3552
 4312SOL    HW224573   1.619   3.176  17.284  0.6717 -2.0396  0.1118
 4313SOL     OW24574   1.113   4.199  17.346 -0.5229  0.1012 -0.0869
 4313SOL    HW124575   1.077   4.117  17.312 -1.1334  0.4928 -0.3813
 4313SOL    HW224576   1.205   4.178  17.363 -0.2101  0.9946 -0.7205
 4314SOL     OW24577   3.846   1.745   2.597  0.3656  0.1462  0.2286
 4314SOL    HW124578   3.810   1.787   2.518 -1.2136  1.2101  1.4942
 4314SOL    HW224579   3.909   1.690   2.551 -0.9092 -0.3041 -0.9841
 4315SOL     OW24580   0.928   2.144  12.042 -0.0291 -0.2075 -0.2344
 4315SOL    HW124581   0.972   2.228  12.053 -1.0240  0.2972 -0.0984
 4315SOL    HW224582   0.859   2.172  11.982 -0.2104 -1.8504 -0.7952
 4316SOL     OW24583   4.442   1.953   2.361  0.1704 -0.1391  0.0324
 4316SOL    HW124584   4.499   2.009   2.413  0.7300 -1.6339  1.0563
 4316SOL    HW224585   4.373   2.014   2.336 -0.0849 -0.7484 -0.7748
 4317SOL     OW24586   0.027   2.906   8.612 -0.1452 -0.5388 -0.0452
 4317SOL    HW124587   0.061   2.889   8.700  0.5520  0.3179 -0.1452
 4317SOL    HW224588   0.009   3.000   8.622 -1.1283 -0.3466 -3.6249
 4318SOL     OW24589   2.305   2.355   8.579 -0.7555  0.2313  0.1156
 4318SOL    HW124590   2.305   2.262   8.603 -3.1463  0.5833  1.5162
 4318SOL    HW224591   2.214   2.383   8.570 -0.5056  0.8227 -0.6007
 4319SOL     OW24592   2.285   3.660   3.704 -0.4217 -0.2006 -0.2008
 4319SOL    HW124593   2.295   3.610   3.623  1.0219 -0.6588  0.2700
 4319SOL    HW224594   2.316   3.747   3.680  0.0469 -0.5100 -0.7041
 4320SOL     OW24595   0.105   1.765   4.740  0.2364 -0.1838  0.4719
 4320SOL    HW124596   0.111   1.800   4.651  2.1000 -0.8535  0.3202
 4320SOL    HW224597   0.161   1.827   4.787  1.7973 -0.0365 -1.5812
 4321SOL     OW24598   4.292   0.882   2.392  0.1552  0.3648 -0.9226
 4321SOL    HW124599   4.281   0.926   2.308 -2.3826  1.4878 -0.0093
 4321SOL    HW224600   4.201   0.854   2.402  0.0810  1.0653  0.3246
 4322SOL     OW24601   3.144   1.388   8.399  0.0184  0.5985  0.0005
 4322SOL    HW124602   3.192   1.306   8.413 -0.5839  0.7109  2.7487
 4322SOL    HW224603   3.084   1.388   8.474 -1.0759 -1.1489 -0.8679
 4323SOL     OW24604   1.780   2.785  14.661  0.2773 -0.0613  0.1847
 4323SOL    HW124605   1.688   2.812  14.654  0.5640  0.8621  0.0638
 4323SOL    HW224606   1.778   2.711  14.722  0.1333 -0.8587 -0.7794
 4324SOL     OW24607   4.501   3.705   0.538 -0.4665  0.1375 -0.1283
 4324SOL    HW124608   4.577   3.692   0.482 -0.0867 -1.0662  0.6654
 4324SOL    HW224609   4.523   3.786   0.584  0.7878 -0.1461 -0.2310
 4325SOL     OW24610   2.253   1.794   2.555 -0.0869 -0.0926 -0.4433
 4325SOL    HW124611   2.321   1.862   2.551 -0.2067  0.0898  0.4948
 4325SOL    HW224612   2.288   1.730   2.494 -1.7343 -0.8463 -0.5813
 4326SOL     OW24613   3.747   4.508   2.531 -0.6431  0.2730  0.4051
 4326SOL    HW124614   3.670   4.468   2.572 -2.9470  2.3834 -1.8802
 4326SOL    HW224615   3.813   4.474   2.591 -0.3664  0.5092  0.2365
 4327SOL     OW24616   2.997   4.051   7.885  0.7902  0.0703  0.0661
 4327SOL    HW124617   3.085   4.030   7.917 -0.2283 -2.2476  1.3615
 4327SOL    HW224618   2.965   3.966   7.854 -0.1321 -0.0926  1.4738
 4328SOL     OW24619   1.061   2.535   2.755 -0.2416  0.6884  0.2205
 4328SOL    HW124620   1.048   2.575   2.669  0.2422  0.8086  0.2057
 4328SOL    HW224621   1.043   2.443   2.737 -0.1666  0.6540  0.3248
 4329SOL     OW24622   1.018   4.447   5.575 -0.3022 -0.9376  0.1816
 4329SOL    HW124623   0.991   4.433   5.484  1.0646  1.9939 -0.6646
 4329SOL    HW224624   1.076   4.372   5.589  1.2321  0.1804 -0.2088
 4330SOL     OW24625   3.703   0.239   3.872 -0.6858  0.0523 -0.1353
 4330SOL    HW124626   3.672   0.292   3.799  0.2104 -0.9532 -1.2425
 4330SOL    HW224627   3.777   0.204   3.823  0.7301  0.8703  1.3985
 4331SOL     OW24628   1.516   0.344  10.263  0.2610 -0.1745  0.7271
 4331SOL    HW124629   1.518   0.254  10.230 -0.8873 -0.6746  2.0172
 4331SOL    HW224630   1.582   0.389  10.210 -0.1735 -0.1059  0.2438
 4332SOL     OW24631   0.322   3.408   4.660  0.2501  0.1897  0.1403
 4332SOL    HW124632   0.400   3.354   4.653  0.7467  0.9724 -0.3326
 4332SOL    HW224633   0.344   3.455   4.741 -0.6062  3.0451 -1.2799
 4333SOL     OW24634   2.224   0.585   6.340  0.0923 -0.9280  0.4726
 4333SOL    HW124635   2.135   0.580   6.306  0.5565 -2.4180 -0.5015
 4333SOL    HW224636   2.236   0.678   6.359 -1.1040 -0.4840 -0.9626
 4334SOL     OW24637   4.014   4.005   0.935  0.0281 -0.3086  0.1464
 4334SOL    HW124638   4.046   4.054   0.859 -0.4176  1.1160  0.8786
 4334SOL    HW224639   3.977   3.927   0.894  1.1382 -1.0244  0.4876
 4335SOL     OW24640   4.130   3.257   3.594  0.1490  0.0675 -0.1321
 4335SOL    HW124641   4.140   3.181   3.651 -0.9697  0.3902  0.5041
 4335SOL    HW224642   4.105   3.215   3.512 -0.8380  1.3116 -0.4697
 4336SOL     OW24643   4.414   3.424   2.709  0.3395  0.3051  0.2342
 4336SOL    HW124644   4.472   3.353   2.735 -1.5976 -1.2088  0.3749
 4336SOL    HW224645   4.467   3.472   2.645  1.1994 -0.7377  0.1671
 4337SOL     OW24646   3.107   0.635  11.379  0.1998  0.0100  0.8022
 4337SOL    HW124647   3.066   0.709  11.423  1.2535  1.3515 -0.4707
 4337SOL    HW224648   3.177   0.602  11.434  0.3925 -1.5894 -0.3896
 4338SOL     OW24649   0.023   3.527   0.632 -0.0961 -0.2004 -0.1088
 4338SOL    HW124650   4.675   3.490   0.661  0.2308 -2.3216 -1.9205
 4338SOL    HW224651   0.021   3.609   0.681  1.6269 -0.9795  1.2654
 4339SOL     OW24652   1.192   0.351   1.881  0.1523 -0.1380  0.0198
 4339SOL    HW124653   1.282   0.320   1.889  0.3041 -0.1484 -1.6859
 4339SOL    HW224654   1.180   0.430   1.934 -1.1635 -0.2367 -0.1224
 4340SOL     OW24655   1.283   3.454   2.378 -0.1278 -0.0024  0.4834
 4340SOL    HW124656   1.308   3.546   2.382  0.9580 -0.1996 -1.7909
 4340SOL    HW224657   1.332   3.431   2.299 -0.4041  1.1092 -0.0076
 4341SOL     OW24658   2.557   1.007  14.085 -0.1086 -0.4589  0.1177
 4341SOL    HW124659   2.629   0.950  14.111 -0.3448 -1.0555 -0.5188
 4341SOL    HW224660   2.587   1.093  14.116  0.4738 -0.4943 -0.3608
 4342SOL     OW24661   1.967   2.575   5.505  0.5426 -0.0054 -0.3824
 4342SOL    HW124662   1.875   2.591   5.525  0.5802 -0.9674  0.6137
 4342SOL    HW224663   2.000   2.664   5.515 -2.3882  0.8074  2.0337
 4343SOL     OW24664   1.915   3.505   3.930 -0.1177 -0.0366 -0.1266
 4343SOL    HW124665   2.005   3.530   3.953  0.3019 -3.1785  1.6870
 4343SOL    HW224666   1.865   3.580   3.960  0.4958 -0.0869  1.0352
 4344SOL     OW24667   4.286   2.485  15.216  0.0430  0.3927  0.4066
 4344SOL    HW124668   4.266   2.444  15.300 -0.8567 -1.8770 -0.9257
 4344SOL    HW224669   4.319   2.416  15.159 -0.6530 -0.9126  1.5973
 4345SOL     OW24670   3.405   2.274   3.363  0.5029  0.3682 -0.2025
 4345SOL    HW124671   3.356   2.194   3.347  1.6210 -0.5493  0.8912
 4345SOL    HW224672   3.473   2.238   3.422  0.1468  0.2525  0.1374
 4346SOL     OW24673   4.360   0.261   5.175 -0.3629  0.2731  0.5763
 4346SOL    HW124674   4.433   0.292   5.122 -0.5618  0.1928  0.2547
 4346SOL    HW224675   4.292   0.265   5.108  0.9420 -0.8315 -0.8228
 4347SOL     OW24676   2.878   4.219   3.815 -0.9718  0.0559 -0.6231
 4347SOL    HW124677   2.833   4.303   3.807 -0.9708  0.3396  2.2326
 4347SOL    HW224678   2.891   4.222   3.910 -2.0223 -0.8112 -0.4426
 4348SOL     OW24679   0.073   4.258  16.472  0.2129  0.1944  0.3105
 4348SOL    HW124680   0.099   4.287  16.385  2.5176 -2.3847  0.1297
 4348SOL    HW224681   0.161   4.233  16.501 -0.1086 -0.2224  0.9228
 4349SOL     OW24682   0.656   4.387   2.349  0.2167 -0.3057 -0.3206
 4349SOL    HW124683   0.563   4.375   2.330 -0.0057  0.2196  0.4324
 4349SOL    HW224684   0.673   4.474   2.314 -0.8346  0.5178  1.2359
 4350SOL     OW24685   3.899   3.514   2.228  0.6154  0.3454 -0.3276
 4350SOL    HW124686   3.901   3.421   2.250 -1.2209  0.5391  0.6046
 4350SOL    HW224687   3.985   3.527   2.187  1.0164 -0.7329  0.1983
 4351SOL     OW24688   3.644   4.102  14.016 -0.1237  0.0090  0.8523
 4351SOL    HW124689   3.669   4.036  14.081 -0.1544 -1.1686 -0.3286
 4351SOL    HW224690   3.555   4.123  14.045  0.5751  2.6666  1.0494
 4352SOL     OW24691   4.484   1.057   2.140 -0.5819  0.0018  0.3694
 4352SOL    HW124692   4.477   1.123   2.071 -3.9783  1.6308  2.2739
 4352SOL    HW224693   4.538   1.104   2.203  0.9827 -1.7272  0.3227
 4353SOL     OW24694   0.873   3.858   2.740  0.3805  0.0656  0.0285
 4353SOL    HW124695   0.838   3.785   2.689  1.3090 -1.2719  1.2719
 4353SOL    HW224696   0.876   3.815   2.826  0.3533  3.5101  1.7449
 4354SOL     OW24697   0.522   2.028   8.524 -0.3873 -0.3902  0.2263
 4354SOL    HW124698   0.539   1.937   8.499 -0.0072  0.4430 -2.4886
 4354SOL    HW224699   0.470   2.057   8.450 -0.1094 -2.2924 -0.7100
 4355SOL     OW24700   3.485   3.190   1.659 -0.1057 -0.2731 -0.0690
 4355SOL    HW124701   3.479   3.278   1.696  3.2511 -0.0461 -0.1109
 4355SOL    HW224702   3.518   3.155   1.742 -0.4087  0.5515  0.4026
 4356SOL     OW24703   3.374   1.229   2.175  0.7129 -0.0136  0.1179
 4356SOL    HW124704   3.380   1.267   2.088 -0.6224  2.3207  1.0365
 4356SOL    HW224705   3.302   1.166   2.165 -0.6020  1.3890  0.5946
 4357SOL     OW24706   0.609   4.664   5.495  0.2721 -0.2518 -0.2362
 4357SOL    HW124707   0.617   0.025   5.496  0.1534 -0.2765  1.5612
 4357SOL    HW224708   0.700   4.645   5.520  0.2371  0.2837  0.2790
 4358SOL     OW24709   2.458   3.893  10.647 -0.0968  0.5444 -0.4841
 4358SOL    HW124710   2.379   3.871  10.698 -0.1966 -1.2228 -1.4108
 4358SOL    HW224711   2.432   3.851  10.565 -0.7331 -1.8090  0.9274
 4359SOL     OW24712   0.192   2.748   7.316 -0.3654  0.1508  0.4282
 4359SOL    HW124713   0.149   2.663   7.305 -2.4743  1.2352  0.3117
 4359SOL    HW224714   0.158   2.796   7.392  0.0217  2.3154 -0.7767
 4360SOL     OW24715   1.110   1.397   6.484 -0.0277  0.0139 -0.1378
 4360SOL    HW124716   1.094   1.475   6.537  2.5183  0.8965 -0.6799
 4360SOL    HW224717   1.162   1.345   6.546  0.3278  2.0333  1.2771
 4361SOL     OW24718   1.888   3.108   3.668  0.3391  0.1709  0.0276
 4361SOL    HW124719   1.846   3.163   3.734 -0.6565  0.5666 -0.9262
 4361SOL    HW224720   1.810   3.053   3.665 -0.1025  0.7841  0.2024
 4362SOL     OW24721   4.542   4.375   4.131 -0.0291  0.3261 -0.5655
 4362SOL    HW124722   4.625   4.413   4.104  1.2598 -3.0250 -1.3530
 4362SOL    HW224723   4.569   4.347   4.218  1.4730  1.9308 -0.5233
 4363SOL     OW24724   4.047   3.680   5.089 -0.5031 -0.6912  0.1954
 4363SOL    HW124725   4.139   3.667   5.113  0.9572  0.2925 -4.8399
 4363SOL    HW224726   4.010   3.620   5.154  0.4949 -0.0816  1.3332
 4364SOL     OW24727   2.388   3.033   4.470 -0.0239  0.5873 -0.1555
 4364SOL    HW124728   2.307   3.025   4.520 -1.4148  1.7083 -2.2107
 4364SOL    HW224729   2.447   3.082   4.527  0.0391  0.5762 -0.2105
 4365SOL     OW24730   2.678   1.712   4.926  0.0769 -0.4520 -0.0351
 4365SOL    HW124731   2.758   1.753   4.958  0.1130  1.3908 -2.4736
 4365SOL    HW224732   2.719   1.638   4.881 -0.8470 -0.7623 -0.3714
 4366SOL     OW24733   2.122   1.198  12.164  0.0575  0.0973  0.2776
 4366SOL    HW124734   2.169   1.118  12.184  0.3052 -0.0624 -0.9090
 4366SOL    HW224735   2.060   1.173  12.095 -0.2355  2.1549 -0.2156
 4367SOL     OW24736   3.529   2.510   8.607  0.6450  0.1227  0.1861
 4367SOL    HW124737   3.452   2.545   8.652  0.9465  1.1034 -0.0638
 4367SOL    HW224738   3.514   2.421   8.640 -1.7356  1.4270  2.5937
 4368SOL     OW24739   2.122   1.966  14.130 -0.1987  0.6156 -0.6518
 4368SOL    HW124740   2.175   1.890  14.107  0.8463  0.8046  1.1161
 4368SOL    HW224741   2.192   2.031  14.137 -1.0781  1.4249  0.5457
 4369SOL     OW24742   3.343   4.651   9.720 -0.0584 -0.4932 -0.1950
 4369SOL    HW124743   3.429   4.676   9.753 -0.6970 -0.6601  1.5612
 4369SOL    HW224744   3.359   4.565   9.682 -0.0412 -0.6844  0.2508
 4370SOL     OW24745   2.593   1.111  10.937 -0.0296  0.2500  0.1845
 4370SOL    HW124746   2.583   1.203  10.962 -0.6177  0.0410  0.7181
 4370SOL    HW224747   2.589   1.073  11.025  0.4014 -0.9223 -0.2914
 4371SOL     OW24748   0.754   2.258   3.456 -0.1031 -0.3120 -0.2543
 4371SOL    HW124749   0.758   2.343   3.413  1.9052 -0.3471 -0.1293
 4371SOL    HW224750   0.812   2.278   3.529 -0.9108 -1.3556  0.6784
 4372SOL     OW24751   1.849   3.931   4.492 -0.0381 -0.5644  0.0834
 4372SOL    HW124752   1.943   3.938   4.480 -0.1217  1.0424  0.4183
 4372SOL    HW224753   1.815   4.019   4.476  2.8869  0.0086 -3.0135
 4373SOL     OW24754   4.203   3.143   8.026 -0.6239  0.1657  0.1596
 4373SOL    HW124755   4.132   3.187   7.979 -0.9215 -0.7890 -0.2712
 4373SOL    HW224756   4.158   3.061   8.048  2.6917 -1.6023  0.2671
 4374SOL     OW24757   3.802   3.132   3.875  0.0334 -0.7876 -0.3193
 4374SOL    HW124758   3.750   3.203   3.913  0.2103 -1.0580  0.4179
 4374SOL    HW224759   3.822   3.167   3.788 -1.0245  1.3457  0.2926
 4375SOL     OW24760   4.262   1.654   6.702  0.4389  0.6915  0.4547
 4375SOL    HW124761   4.198   1.722   6.724 -0.4478 -0.8513  2.5632
 4375SOL    HW224762   4.260   1.650   6.606  1.0229 -0.9139  0.5183
 4376SOL     OW24763   2.849   0.461   4.145  0.2591  0.4123 -0.2278
 4376SOL    HW124764   2.842   0.420   4.059 -2.0810 -1.5369  0.9076
 4376SOL    HW224765   2.792   0.397   4.187 -1.3094  2.6713  1.0649
 4377SOL     OW24766   2.195   2.476   4.021 -0.5035 -0.3634 -0.1721
 4377SOL    HW124767   2.121   2.536   4.014  0.0806  0.2544 -1.0709
 4377SOL    HW224768   2.209   2.447   3.930  2.4558  1.1357 -0.1996
 4378SOL     OW24769   4.458   3.838   7.183 -0.5574  0.1596  0.3185
 4378SOL    HW124770   4.506   3.916   7.158  1.6255 -2.0118 -2.2952
 4378SOL    HW224771   4.431   3.805   7.098  0.8783 -1.3420  0.4429
 4379SOL     OW24772   1.133   3.348  14.902 -0.6768 -0.0842  0.5054
 4379SOL    HW124773   1.188   3.391  14.836 -1.0112 -0.8691 -0.2919
 4379SOL    HW224774   1.140   3.255  14.880 -0.9217 -0.0210  0.1561
 4380SOL     OW24775   2.844   3.634   7.252  0.1763  0.0208  0.1492
 4380SOL    HW124776   2.827   3.540   7.247  0.7833 -0.1702  1.9798
 4380SOL    HW224777   2.807   3.648   7.339 -1.6697 -2.2373 -0.2381
 4381SOL     OW24778   0.724   1.300   7.533 -0.2741  0.2256  0.3502
 4381SOL    HW124779   0.657   1.303   7.464  0.7010  2.7049 -0.4471
 4381SOL    HW224780   0.703   1.226   7.591 -0.6717 -0.1356 -0.2409
 4382SOL     OW24781   3.401   0.748   5.830  0.1381 -0.6789  0.4688
 4382SOL    HW124782   3.324   0.746   5.888  1.2931 -2.5722  1.9617
 4382SOL    HW224783   3.464   0.805   5.874 -1.6779  0.5485  1.5172
 4383SOL     OW24784   3.949   1.193   5.177  0.2590  0.1976  0.5520
 4383SOL    HW124785   3.919   1.102   5.183  0.6554  0.1114  1.2781
 4383SOL    HW224786   3.977   1.203   5.086 -0.4045  1.8681  0.5236
 4384SOL     OW24787   1.444   0.411   9.760  0.1373  0.3606 -0.7045
 4384SOL    HW124788   1.498   0.369   9.827 -0.1182  0.6811 -0.2950
 4384SOL    HW224789   1.398   0.473   9.817  0.0318  0.6029 -1.0545
 4385SOL     OW24790   2.501   1.927   2.588  0.8474  0.5115  0.3799
 4385SOL    HW124791   2.565   1.881   2.641  1.2309  2.0935  1.2969
 4385SOL    HW224792   2.528   1.916   2.496 -1.0937  3.1593 -0.5053
 4386SOL     OW24793   3.954   0.673   4.932 -0.0090 -0.1067 -0.5627
 4386SOL    HW124794   3.964   0.756   4.885 -3.1469  0.8296  0.4451
 4386SOL    HW224795   4.038   0.628   4.923  1.7165  3.0395 -0.3152
 4387SOL     OW24796   1.968   0.954  17.089  0.7966 -0.5106  0.3301
 4387SOL    HW124797   2.056   0.962  17.126  1.2799  1.0134 -1.1410
 4387SOL    HW224798   1.961   1.046  17.065 -0.2493 -1.3958 -2.7014
 4388SOL     OW24799   1.935   0.827   2.330  0.0118  0.2033  0.5336
 4388SOL    HW124800   1.910   0.892   2.265 -0.5034  0.6149  1.1441
 4388SOL    HW224801   1.848   0.790   2.348 -0.8689  1.4156 -1.2415
 4389SOL     OW24802   3.091   3.027   5.520  0.0679 -0.1100  1.4655
 4389SOL    HW124803   3.107   3.010   5.612  1.5797 -1.4491  0.9567
 4389SOL    HW224804   3.057   2.943   5.486 -0.8954  1.1629 -0.7314
 4390SOL     OW24805   3.407   3.476   6.495  1.3490  0.1236  0.0365
 4390SOL    HW124806   3.402   3.571   6.507  1.4286  0.6172 -3.9203
 4390SOL    HW224807   3.502   3.470   6.492  1.4144  1.3086 -0.5014
 4391SOL     OW24808   1.051   0.076  15.622  0.5073 -0.2757  0.1355
 4391SOL    HW124809   1.043   0.102  15.714 -0.3054  0.5429 -0.1756
 4391SOL    HW224810   0.977   0.017  15.608  1.9416 -1.4767 -2.2749
 4392SOL     OW24811   1.320   0.792  14.510  0.1190  0.2668  0.3143
 4392SOL    HW124812   1.238   0.747  14.488 -0.2690 -0.2665  2.8472
 4392SOL    HW224813   1.325   0.875  14.461 -0.4910  0.0446 -0.1198
 4393SOL     OW24814   1.543   1.630   8.804 -0.2686 -0.1598 -0.2607
 4393SOL    HW124815   1.520   1.724   8.805  0.9251  0.1313 -0.6861
 4393SOL    HW224816   1.545   1.627   8.708  2.1757 -2.0168 -0.1290
 4394SOL     OW24817   3.657   1.244  13.167  0.0859  0.7163  0.4571
 4394SOL    HW124818   3.572   1.213  13.136 -0.1849  2.2005 -0.3203
 4394SOL    HW224819   3.637   1.324  13.215  0.6196  2.7291 -2.6097
 4395SOL     OW24820   1.441   2.959   2.854  0.4449 -0.1890 -0.0394
 4395SOL    HW124821   1.359   3.007   2.859  1.5831  1.4311  2.9987
 4395SOL    HW224822   1.481   2.977   2.769  0.6638  0.7070  0.2498
 4396SOL     OW24823   1.927   4.235   1.263  0.1204 -0.0213  0.2251
 4396SOL    HW124824   1.898   4.221   1.353 -1.8575  1.7788 -0.1371
 4396SOL    HW224825   1.960   4.150   1.235  1.9178  0.9529 -0.5963
 4397SOL     OW24826   1.120   3.038   4.074  0.4138 -0.1806 -0.0563
 4397SOL    HW124827   1.136   3.009   3.984 -0.7837  0.5962 -0.5281
 4397SOL    HW224828   1.210   3.036   4.106 -0.3543  1.5783  2.2003
 4398SOL     OW24829   0.579   0.087   6.305 -0.3631 -0.2167  0.1141
 4398SOL    HW124830   0.511   0.112   6.367 -0.4606  2.3070 -1.0377
 4398SOL    HW224831   0.613   0.006   6.344  0.1985 -0.4358 -0.8223
 4399SOL     OW24832   2.332   4.327   8.780 -0.2715 -0.1571  0.0598
 4399SOL    HW124833   2.315   4.421   8.784 -0.1398 -0.2072  1.6949
 4399SOL    HW224834   2.245   4.290   8.793 -0.3012 -0.5159 -1.1359
 4400SOL     OW24835   0.797   0.200   4.582  0.1074  0.1813  0.0945
 4400SOL    HW124836   0.874   0.230   4.533 -0.3557  2.4612  0.7748
 4400SOL    HW224837   0.802   0.106   4.562 -0.6842  0.3534 -0.9620
 4401SOL     OW24838   4.678   4.072  13.300 -0.2440  0.2024 -0.2758
 4401SOL    HW124839   4.710   3.995  13.253 -1.4945 -1.3781  1.4653
 4401SOL    HW224840   4.582   4.068  13.294 -0.3169  1.6234  0.0173
 4402SOL     OW24841   0.721   3.151  14.794  0.1908  0.3630 -0.7966
 4402SOL    HW124842   0.672   3.087  14.743 -2.7789  1.6507  0.4217
 4402SOL    HW224843   0.795   3.105  14.833 -0.2819  1.3031  1.2239
 4403SOL     OW24844   0.317   0.858   3.809 -0.7639 -0.4244 -0.2168
 4403SOL    HW124845   0.326   0.789   3.744  1.1220  0.4895 -0.9475
 4403SOL    HW224846   0.307   0.806   3.888  0.5656 -0.9760 -0.4153
 4404SOL     OW24847   0.986   4.724   0.969 -0.2244  0.3502 -0.3465
 4404SOL    HW124848   0.910   4.666   0.968 -0.7785  1.0733  0.2693
 4404SOL    HW224849   0.974   0.027   1.056 -3.0931 -1.4668  0.0414
 4405SOL     OW24850   1.075   3.175   1.061 -0.3140 -0.4617 -0.0155
 4405SOL    HW124851   1.009   3.121   1.104  0.0986  1.5038  3.0759
 4405SOL    HW224852   1.130   3.112   1.015 -0.9507 -0.0018 -1.4189
 4406SOL     OW24853   0.577   3.223  12.720 -0.3042  0.0852  0.0232
 4406SOL    HW124854   0.610   3.135  12.700  0.1260  0.1444  0.4849
 4406SOL    HW224855   0.489   3.212  12.685 -0.3717 -1.2852  0.6186
 4407SOL     OW24856   2.757   2.065  13.365 -0.3915  0.0486  0.0355
 4407SOL    HW124857   2.835   2.013  13.347  1.0804  2.1998  0.2112
 4407SOL    HW224858   2.738   2.023  13.449  0.0699  2.4473  1.3335
 4408SOL     OW24859   2.421   2.699   6.368 -0.2055  0.4201 -0.3605
 4408SOL    HW124860   2.513   2.687   6.343  0.0594  2.9244 -0.5240
 4408SOL    HW224861   2.411   2.790   6.341  0.3209  0.5576 -0.0965
 4409SOL     OW24862   3.489   0.449  13.336 -0.4202  0.2642  0.2136
 4409SOL    HW124863   3.579   0.458  13.304 -0.6839 -0.1615 -0.6540
 4409SOL    HW224864   3.494   0.505  13.413  0.7053  0.6845 -0.1572
 4410SOL     OW24865   2.152   2.184  17.595  0.1538  0.4073 -0.0715
 4410SOL    HW124866   2.119   2.272  17.578 -2.7496 -1.0160 -1.8785
 4410SOL    HW224867   2.149   2.139  17.511 -0.7106 -0.9030  0.6497
 4411SOL     OW24868   3.950   4.370   3.290  0.2648  0.7843 -0.1798
 4411SOL    HW124869   3.983   4.334   3.207  1.0612  0.8469  0.1054
 4411SOL    HW224870   4.029   4.416   3.321 -2.4790  5.0935  0.3995
 4412SOL     OW24871   2.580   2.437   6.553  0.1808 -1.1578  0.6545
 4412SOL    HW124872   2.578   2.359   6.609 -0.7944 -0.8405  1.0693
 4412SOL    HW224873   2.672   2.457   6.569  0.4275 -0.5181 -1.6252
 4413SOL     OW24874   1.271   1.054   9.021 -0.1762 -0.2407 -0.2273
 4413SOL    HW124875   1.346   1.108   9.045 -2.1975  2.3393  0.2013
 4413SOL    HW224876   1.285   0.982   9.083 -1.0813 -1.3182 -1.2856
 4414SOL     OW24877   3.891   1.122   7.648 -0.5239  0.9818 -0.0133
 4414SOL    HW124878   3.882   1.187   7.578 -1.0921  1.1921  0.2565
 4414SOL    HW224879   3.986   1.115   7.634 -0.4721 -1.5504  1.4996
 4415SOL     OW24880   0.182   3.453  12.931  0.5397 -0.4595  0.9612
 4415SOL    HW124881   0.185   3.548  12.938 -1.4340 -0.3289  0.0617
 4415SOL    HW224882   0.277   3.444  12.935  0.6126 -1.2146 -2.3422
 4416SOL     OW24883   3.721   0.123  11.979 -0.1752 -0.0485  0.3231
 4416SOL    HW124884   3.641   0.129  11.928 -1.3868 -0.7649  2.1620
 4416SOL    HW224885   3.761   0.207  11.957  1.8984 -0.4009  2.7328
 4417SOL     OW24886   1.380   3.973   7.356  0.2306 -0.4386  0.1625
 4417SOL    HW124887   1.285   3.969   7.350  0.5029 -4.5315 -1.2747
 4417SOL    HW224888   1.394   4.066   7.378 -1.8504 -0.5533  1.9373
 4418SOL     OW24889   4.079   4.025   8.252  0.4940 -0.2533 -0.9587
 4418SOL    HW124890   4.105   4.112   8.280 -0.9010  0.2814 -1.3549
 4418SOL    HW224891   4.126   3.965   8.310 -0.6382  1.5986  1.8227
 4419SOL     OW24892   4.259   2.592   5.655  0.0583 -0.3540  0.5416
 4419SOL    HW124893   4.193   2.571   5.590  0.5059  0.1097 -0.0603
 4419SOL    HW224894   4.313   2.513   5.659  0.0826 -0.2859  1.6423
 4420SOL     OW24895   0.576   4.631   5.918 -0.3728  0.2041  0.6498
 4420SOL    HW124896   0.490   4.589   5.911 -0.1578 -0.2223  0.5665
 4420SOL    HW224897   0.631   4.554   5.906 -1.2496 -0.3590  0.2280
 4421SOL     OW24898   0.736   1.076   3.327  0.3399 -0.3640  0.4064
 4421SOL    HW124899   0.662   1.018   3.312  1.2887 -1.0960 -1.4573
 4421SOL    HW224900   0.693   1.147   3.375  1.3356  0.1305  0.5696
 4422SOL     OW24901   1.253   0.264   7.351  0.2065 -0.2619  0.4621
 4422SOL    HW124902   1.294   0.198   7.296 -0.9859 -1.4254  0.9670
 4422SOL    HW224903   1.222   0.211   7.425 -1.2022  0.0311  0.0757
 4423SOL     OW24904   3.856   2.418  12.589  0.0363 -0.6134 -0.4628
 4423SOL    HW124905   3.857   2.377  12.675 -0.0512 -0.4041 -0.3615
 4423SOL    HW224906   3.944   2.456  12.579  0.2136 -0.8263  0.3131
 4424SOL     OW24907   3.972   0.844  12.152  0.0722  0.3777  0.5736
 4424SOL    HW124908   4.039   0.841  12.220  0.4753 -0.2692  0.1487
 4424SOL    HW224909   4.015   0.902  12.089 -0.0963 -0.5288 -0.3659
 4425SOL     OW24910   4.044   1.838  13.548  0.6699 -0.0678  0.0222
 4425SOL    HW124911   3.964   1.888  13.532  0.4681 -0.4973 -0.3069
 4425SOL    HW224912   4.025   1.755  13.503 -0.1774  1.7865 -3.0391
 4426SOL     OW24913   1.085   1.465   9.832 -0.0239  0.5168 -0.2771
 4426SOL    HW124914   1.018   1.466   9.900 -0.1122  1.7288 -0.3885
 4426SOL    HW224915   1.034   1.493   9.756  0.1293  0.7816 -0.2848
 4427SOL     OW24916   0.241   3.486   8.614  0.3085 -0.8269  1.1626
 4427SOL    HW124917   0.169   3.550   8.613  2.1778  1.2736 -1.1867
 4427SOL    HW224918   0.320   3.541   8.614 -0.9105  0.9324  1.2941
 4428SOL     OW24919   2.152   1.459  12.108  0.8037 -0.3626 -0.3567
 4428SOL    HW124920   2.145   1.365  12.124 -0.2205 -0.5196 -1.6934
 4428SOL    HW224921   2.132   1.461  12.014 -2.1170  0.0680  0.2810
 4429SOL     OW24922   4.258   2.721   4.108 -0.7318  0.0032 -0.0789
 4429SOL    HW124923   4.323   2.726   4.179  0.5341 -0.4809 -1.2172
 4429SOL    HW224924   4.194   2.663   4.150 -0.4804  0.3106  0.7332
 4430SOL     OW24925   3.756   0.511   2.989 -0.3275  0.7359 -0.2177
 4430SOL    HW124926   3.666   0.496   3.020 -0.7697  0.9917 -1.3829
 4430SOL    HW224927   3.796   0.549   3.067 -3.1669  1.3380  0.9647
 4431SOL     OW24928   2.762   1.405   8.301 -0.3419 -0.6734 -0.3542
 4431SOL    HW124929   2.810   1.478   8.260  0.8919 -0.8198  0.8040
 4431SOL    HW224930   2.819   1.389   8.377  0.5179  0.3286 -0.7734
 4432SOL     OW24931   0.053   1.089  10.482  0.2364  0.3229 -0.1569
 4432SOL    HW124932   0.022   1.179  10.495  2.0160  0.6899  1.6051
 4432SOL    HW224933   0.023   1.076  10.392  0.0870 -2.0156  0.2436
 4433SOL     OW24934   3.744   4.209   3.933 -0.6768  0.1078  0.3247
 4433SOL    HW124935   3.795   4.211   3.852  2.1726 -0.7164  2.0924
 4433SOL    HW224936   3.809   4.200   4.003 -1.0908  1.9635  0.9489
 4434SOL     OW24937   1.949   0.535   7.572 -0.4117  0.5398 -0.3347
 4434SOL    HW124938   1.872   0.575   7.531 -1.4502  0.6550  1.7084
 4434SOL    HW224939   2.007   0.611   7.570 -2.0074  1.8477  3.4402
 4435SOL     OW24940   2.754   1.601  11.232 -0.0646  0.1023  0.2063
 4435SOL    HW124941   2.750   1.506  11.226  0.6678 -0.0206  1.6716
 4435SOL    HW224942   2.661   1.620  11.223  0.3763  1.9958 -0.2496
 4436SOL     OW24943   1.673   0.821   2.001  0.2225 -0.6525  0.2849
 4436SOL    HW124944   1.675   0.744   1.945  2.5199 -0.6161  0.3366
 4436SOL    HW224945   1.616   0.885   1.958 -0.8955 -1.3744  0.6993
 4437SOL     OW24946   3.666   0.246   5.356  0.2894 -0.0055  0.0115
 4437SOL    HW124947   3.751   0.291   5.361  1.0723 -1.5290  0.2417
 4437SOL    HW224948   3.685   0.193   5.279 -1.1750  2.9052 -2.3818
 4438SOL     OW24949   1.331   3.811   2.948 -0.1985  0.2798 -0.2355
 4438SOL    HW124950   1.388   3.867   3.001 -0.6147  1.2081 -0.7725
 4438SOL    HW224951   1.350   3.726   2.988  0.6512  0.2849 -0.6282
 4439SOL     OW24952   1.788   2.713   5.892  0.5733  0.3950 -0.3620
 4439SOL    HW124953   1.802   2.807   5.881 -1.2328  0.7248  0.0540
 4439SOL    HW224954   1.694   2.704   5.908  0.5012  0.0063 -1.0254
 4440SOL     OW24955   2.853   1.146   8.608 -0.2048 -0.1867  0.1899
 4440SOL    HW124956   2.933   1.103   8.638 -0.0383  0.2460  0.3751
 4440SOL    HW224957   2.781   1.136   8.670 -1.7437 -0.8583 -1.7182
 4441SOL     OW24958   3.776   3.008   4.683  0.2379 -0.5649  0.5871
 4441SOL    HW124959   3.841   3.066   4.722 -0.3535  0.3173  0.2611
 4441SOL    HW224960   3.830   2.994   4.605 -1.0592 -0.1241 -0.3888
 4442SOL     OW24961   4.356   2.081   1.559  0.1529  0.5888  0.0509
 4442SOL    HW124962   4.411   2.158   1.546 -0.7744  1.1752 -0.3756
 4442SOL    HW224963   4.266   2.111   1.546  0.2179  0.9927  0.5431
 4443SOL     OW24964   2.363   0.589   8.246 -0.1284 -0.0167  0.4057
 4443SOL    HW124965   2.303   0.588   8.321 -0.1682 -0.9764  0.3645
 4443SOL    HW224966   2.312   0.537   8.185 -1.4719  2.0019 -0.1851
 4444SOL     OW24967   2.834   2.186  14.305  0.2443  0.2230  0.7238
 4444SOL    HW124968   2.775   2.146  14.242 -0.4351 -0.1776  1.6105
 4444SOL    HW224969   2.850   2.109  14.360 -0.1906 -0.7348 -0.4833
 4445SOL     OW24970   3.400   4.658  11.397 -0.5093 -0.0769  0.7958
 4445SOL    HW124971   3.361   4.576  11.426 -2.6197 -0.4030 -2.9508
 4445SOL    HW224972   3.403   4.695  11.485 -1.0756 -0.5056  0.9891
 4446SOL     OW24973   3.622   1.047   6.520 -0.2261 -0.4870 -0.1891
 4446SOL    HW124974   3.560   1.010   6.457  2.2272  3.0911 -4.7123
 4446SOL    HW224975   3.610   0.980   6.587 -0.9145 -1.5096 -1.3446
 4447SOL     OW24976   1.282   0.876   9.853  0.6376  0.6196 -0.2408
 4447SOL    HW124977   1.310   0.786   9.869 -0.1639  0.3510 -0.3721
 4447SOL    HW224978   1.230   0.893   9.931  0.0046 -1.1876 -0.2667
 4448SOL     OW24979   1.975   0.238  15.037 -0.3307 -0.0267 -0.5945
 4448SOL    HW124980   2.005   0.306  14.977  0.9379 -0.9412 -1.0193
 4448SOL    HW224981   1.995   0.158  14.987  1.2856 -0.3625  0.5627
 4449SOL     OW24982   2.918   4.608   5.998 -0.5923  0.6368 -0.4297
 4449SOL    HW124983   2.989   4.562   5.954 -0.7722 -0.1539  0.1130
 4449SOL    HW224984   2.945   4.594   6.089 -0.7558  0.4363 -0.4117
 4450SOL     OW24985   2.709   0.133   0.287 -0.6304 -0.2500 -0.1673
 4450SOL    HW124986   2.661   0.214   0.266 -0.6286 -0.2876 -0.3182
 4450SOL    HW224987   2.796   0.154   0.254 -0.8206 -0.3754 -0.7512
 4451SOL     OW24988   4.046   0.113   8.742  0.2558 -0.2111  0.4251
 4451SOL    HW124989   4.039   0.019   8.758  0.0987 -0.3951 -0.7889
 4451SOL    HW224990   4.083   0.143   8.826  3.1241 -2.1236 -0.1399
 4452SOL     OW24991   2.401   2.117  17.711 -0.1144  0.1443 -0.2937
 4452SOL    HW124992   2.326   2.170  17.684 -2.3325 -2.0261  1.5914
 4452SOL    HW224993   2.461   2.189  17.731 -0.4156  0.2343  0.2945
 4453SOL     OW24994   2.048   3.064   6.911 -0.0036 -0.5943  0.3066
 4453SOL    HW124995   2.114   3.033   6.973 -0.1646  1.2059  1.3809
 4453SOL    HW224996   2.109   3.086   6.840  1.1678  0.5172  1.6657
 4454SOL     OW24997   2.976   0.687   6.168 -0.3806 -0.4839  0.0051
 4454SOL    HW124998   3.044   0.620   6.167 -0.8833 -0.9674 -1.3956
 4454SOL    HW224999   2.909   0.650   6.226 -1.1301  0.2464 -0.3820
 4455SOL     OW25000   3.138   4.273  15.523 -0.0669 -0.0884 -0.2098
 4455SOL    HW125001   3.159   4.361  15.492 -1.3044 -0.7274 -2.8461
 4455SOL    HW225002   3.143   4.302  15.614  0.2030  0.7817 -0.5067
 4456SOL     OW25003   1.794   1.296  14.930 -0.3841 -0.3241  0.3379
 4456SOL    HW125004   1.779   1.385  14.898 -0.6821 -1.0674 -1.6195
 4456SOL    HW225005   1.886   1.273  14.915 -0.5072 -0.3199 -0.4410
 4457SOL     OW25006   1.711   0.597   7.913  0.3440 -0.6257 -0.7702
 4457SOL    HW125007   1.705   0.610   8.008  2.3310  3.0391 -1.1620
 4457SOL    HW225008   1.795   0.554   7.895  1.0696  0.0314  1.0521
 4458SOL     OW25009   1.313   3.247  16.420 -0.5267 -0.3330  0.1775
 4458SOL    HW125010   1.247   3.289  16.475 -0.4626 -1.1533  0.8773
 4458SOL    HW225011   1.278   3.253  16.331 -1.0982 -0.6799  0.3791
 4459SOL     OW25012   2.585   3.532   7.628  0.1785  0.0510 -0.5086
 4459SOL    HW125013   2.650   3.467   7.655  0.4771 -1.1108 -4.0324
 4459SOL    HW225014   2.510   3.474   7.627 -0.0783  0.3409  1.7350
 4460SOL     OW25015   1.317   2.940   7.573 -0.8864  0.2779 -0.4553
 4460SOL    HW125016   1.334   2.892   7.492  0.5807 -0.8443  0.5147
 4460SOL    HW225017   1.388   2.898   7.621 -1.7381  0.9915  1.4448
 4461SOL     OW25018   1.706   1.701   7.100  0.0380 -0.3321  0.4707
 4461SOL    HW125019   1.610   1.698   7.093  0.2066 -1.1943 -1.2566
 4461SOL    HW225020   1.721   1.744   7.016 -3.3873  0.5477  0.2897
 4462SOL     OW25021   4.612   2.001   4.221  0.2265 -0.5773  0.3545
 4462SOL    HW125022   4.628   1.928   4.162  3.0780 -0.3728  0.8537
 4462SOL    HW225023   4.543   1.968   4.278  2.2700 -1.5953  2.2566
 4463SOL     OW25024   1.820   1.907  16.272  0.4630  0.1903  0.2463
 4463SOL    HW125025   1.792   1.816  16.287 -1.6230  0.9408  0.8777
 4463SOL    HW225026   1.858   1.907  16.185  1.0153 -1.4724  0.4889
 4464SOL     OW25027   1.078   3.284  10.455  0.6953  0.2469 -0.4872
 4464SOL    HW125028   1.018   3.213  10.433 -0.6379  1.7925 -1.7754
 4464SOL    HW225029   1.031   3.362  10.426  0.7479  0.6187  0.4340
 4465SOL     OW25030   4.202   4.335   6.984 -0.5588  0.3512  0.1568
 4465SOL    HW125031   4.118   4.322   7.027 -0.3138 -1.6800  0.0099
 4465SOL    HW225032   4.194   4.430   6.971 -2.8992 -0.2303 -2.7241
 4466SOL     OW25033   2.627   0.436  15.850  0.3496 -0.1637 -0.1188
 4466SOL    HW125034   2.611   0.502  15.918  1.5737 -2.1151  2.0812
 4466SOL    HW225035   2.708   0.480  15.825 -0.3112  0.8223 -0.5143
 4467SOL     OW25036   0.397   1.188   3.405 -0.4549  0.2027 -0.2247
 4467SOL    HW125037   0.350   1.197   3.488  0.6713  0.3668  0.4058
 4467SOL    HW225038   0.480   1.231   3.425  0.1109 -2.1296  2.4068
 4468SOL     OW25039   2.322   2.487   7.011  0.0856  0.4618 -0.1097
 4468SOL    HW125040   2.310   2.578   6.986 -1.2450  0.5530  0.8706
 4468SOL    HW225041   2.330   2.492   7.106  2.5407 -0.8817 -0.2208
 4469SOL     OW25042   1.100   0.123   7.874  0.2585 -0.2817  0.8066
 4469SOL    HW125043   1.122   0.214   7.895 -3.0720  0.3328  1.6348
 4469SOL    HW225044   1.138   0.076   7.949 -1.1751 -1.4685  0.7811
 4470SOL     OW25045   1.978   3.149   8.410 -0.0810  0.3962  0.0227
 4470SOL    HW125046   1.938   3.102   8.336 -0.0805 -0.0654  0.3169
 4470SOL    HW225047   2.042   3.083   8.434 -0.5232 -1.3152 -3.5199
 4471SOL     OW25048   3.333   4.315   4.476 -0.5692 -0.3112  0.5314
 4471SOL    HW125049   3.355   4.408   4.480  2.0610 -0.9938  2.0077
 4471SOL    HW225050   3.312   4.298   4.384  0.0330  0.5747  0.2243
 4472SOL     OW25051   2.885   1.993  12.607  0.3331 -0.1106 -0.5748
 4472SOL    HW125052   2.929   2.029  12.684  0.2229 -0.1989 -0.4712
 4472SOL    HW225053   2.822   1.936  12.651 -0.3518  1.3797  0.3666
 4473SOL     OW25054   4.331   0.780   7.851 -0.0537  0.9303  0.2207
 4473SOL    HW125055   4.318   0.840   7.778 -1.6160 -0.1706 -0.3992
 4473SOL    HW225056   4.424   0.790   7.868  0.0483 -0.1493  0.3049
 4474SOL     OW25057   2.441   0.079   8.898 -0.2992 -0.7281 -0.3521
 4474SOL    HW125058   2.464   0.019   8.828 -0.3229  0.6186 -1.5135
 4474SOL    HW225059   2.481   0.038   8.975 -0.6974 -0.3064  0.0891
 4475SOL     OW25060   2.319   1.138   4.380 -0.6280  0.1282 -0.1915
 4475SOL    HW125061   2.227   1.121   4.396 -0.9488  1.5661 -0.4853
 4475SOL    HW225062   2.349   1.049   4.399 -1.2726  0.0351  0.3767
 4476SOL     OW25063   1.255   0.405   2.299 -0.9156 -0.1115 -0.4904
 4476SOL    HW125064   1.176   0.435   2.252 -1.7203  1.4949  1.8793
 4476SOL    HW225065   1.239   0.311   2.291 -0.5100 -0.1741 -0.5257
 4477SOL     OW25066   0.291   2.233  10.810  0.4667 -0.1356 -0.1968
 4477SOL    HW125067   0.317   2.324  10.796  0.9089 -0.0567  1.1858
 4477SOL    HW225068   0.339   2.222  10.891  0.5539  0.3594 -0.1815
 4478SOL     OW25069   3.180   2.469  11.821  0.2525  0.3670  0.8664
 4478SOL    HW125070   3.189   2.563  11.806 -1.6325  0.6579  1.5453
 4478SOL    HW225071   3.223   2.428  11.745 -0.3969  1.0013  0.1515
 4479SOL     OW25072   4.202   3.011   4.731 -0.1304 -0.0594  0.5158
 4479SOL    HW125073   4.123   3.061   4.713  1.3395  2.0988  0.0916
 4479SOL    HW225074   4.254   3.085   4.761  0.0798  0.0591 -0.1510
 4480SOL     OW25075   3.737   3.699  10.865 -0.1440  0.2437  0.0516
 4480SOL    HW125076   3.660   3.662  10.822 -0.2835  0.2612  0.2874
 4480SOL    HW225077   3.689   3.780  10.883 -2.0374 -1.2118  1.5133
 4481SOL     OW25078   4.235   3.029   2.639  0.7106  0.2792  0.0369
 4481SOL    HW125079   4.249   3.110   2.591 -1.5743 -0.3997 -1.7845
 4481SOL    HW225080   4.269   3.049   2.726 -2.3061 -2.4429  1.8139
 4482SOL     OW25081   2.845   3.096   7.636 -0.1740  0.1506 -0.5781
 4482SOL    HW125082   2.849   3.052   7.721 -2.6044  0.4648 -0.3130
 4482SOL    HW225083   2.936   3.090   7.608  0.2474 -0.0582  0.7999
 4483SOL     OW25084   3.977   4.611   8.866 -0.4184 -0.5618  0.1432
 4483SOL    HW125085   4.023   4.568   8.938  0.2274  1.1319  0.7482
 4483SOL    HW225086   3.939   4.681   8.919 -0.1958 -0.6860  0.4691
 4484SOL     OW25087   1.980   3.368   8.116 -0.5040 -0.1171 -0.2547
 4484SOL    HW125088   2.057   3.425   8.123 -1.3658  0.9417  0.6627
 4484SOL    HW225089   1.911   3.417   8.161  0.4169  1.5679 -0.6860
 4485SOL     OW25090   3.615   3.728   6.877 -0.1448  0.5448 -1.1026
 4485SOL    HW125091   3.692   3.694   6.920 -0.4889  2.1919  0.8017
 4485SOL    HW225092   3.555   3.738   6.951 -1.7943  0.2775 -2.3744
 4486SOL     OW25093   1.755   0.353   5.492 -0.0839  0.1964  0.1977
 4486SOL    HW125094   1.775   0.279   5.549  1.3029 -0.2549 -0.8674
 4486SOL    HW225095   1.834   0.358   5.437 -0.8017 -0.3319 -0.8716
 4487SOL     OW25096   0.124   2.067   3.164 -0.1494 -0.3611 -0.4684
 4487SOL    HW125097   0.083   2.054   3.249 -0.4271  0.9679 -0.3931
 4487SOL    HW225098   0.052   2.041   3.108  2.1291 -1.5725 -2.8262
 4488SOL     OW25099   3.557   4.576   0.716  0.0004 -0.2842 -0.1199
 4488SOL    HW125100   3.617   4.627   0.660 -0.3726 -1.2415 -1.4032
 4488SOL    HW225101   3.590   4.583   0.805  1.7070 -0.5001 -0.7229
 4489SOL     OW25102   2.126   1.871   2.922 -0.8067  0.2420 -0.4955
 4489SOL    HW125103   2.219   1.864   2.901 -0.7138  0.1244 -0.0339
 4489SOL    HW225104   2.076   1.865   2.841 -2.3823 -0.4804  0.5457
 4490SOL     OW25105   2.725   1.366   6.711 -0.1441  0.5908  0.3319
 4490SOL    HW125106   2.804   1.384   6.660 -0.3779  2.0191  0.4672
 4490SOL    HW225107   2.726   1.429   6.783 -0.1021  2.0799 -0.9821
 4491SOL     OW25108   3.083   1.409   6.861 -0.0696  0.1126 -0.1366
 4491SOL    HW125109   3.066   1.328   6.813  3.5465 -1.5459  1.3443
 4491SOL    HW225110   3.010   1.463   6.830 -0.1986  0.6973  1.1682
 4492SOL     OW25111   2.247   4.163   1.646 -0.0785 -0.0573 -0.3215
 4492SOL    HW125112   2.234   4.242   1.700  0.9139  0.6335 -1.0944
 4492SOL    HW225113   2.289   4.203   1.569  0.0052 -0.1657 -0.3318
 4493SOL     OW25114   3.436   2.705  12.226  0.5579  0.1330 -0.2451
 4493SOL    HW125115   3.451   2.641  12.295  0.2242 -0.6850 -0.9342
 4493SOL    HW225116   3.344   2.727  12.243  0.4891 -0.2843 -0.0665
 4494SOL     OW25117   4.722   2.038   6.788  0.1955 -0.0703  0.5628
 4494SOL    HW125118   4.712   2.129   6.817  2.7415  0.5673 -0.5553
 4494SOL    HW225119   4.656   2.030   6.720 -0.5042 -1.1550  1.3710
 4495SOL     OW25120   3.806   4.126   1.062 -0.0486  0.2079 -0.4523
 4495SOL    HW125121   3.871   4.072   1.015  1.7823  0.2623  2.0033
 4495SOL    HW225122   3.729   4.096   1.015  0.0596  1.2762 -1.3073
 4496SOL     OW25123   1.736   0.470   7.090  0.6458 -0.0878  0.4726
 4496SOL    HW125124   1.706   0.382   7.069 -2.3254  1.1074 -0.2758
 4496SOL    HW225125   1.684   0.488   7.168  0.9102 -2.3512  1.1644
 4497SOL     OW25126   1.053   2.124  13.198 -0.7079  0.0622  0.3173
 4497SOL    HW125127   1.072   2.213  13.228 -1.5048  0.3365  0.0137
 4497SOL    HW225128   1.002   2.100  13.275 -0.7385  1.7368  0.8170
 4498SOL     OW25129   3.215   0.133   2.693  0.7765  0.0859 -0.4506
 4498SOL    HW125130   3.193   0.125   2.786 -0.9067 -2.0005 -1.0392
 4498SOL    HW225131   3.151   0.074   2.654  0.3317 -0.7918  1.5915
 4499SOL     OW25132   4.262   1.118   8.259 -0.2236 -0.4580 -0.1596
 4499SOL    HW125133   4.228   1.159   8.179  0.9015 -1.6890 -1.2823
 4499SOL    HW225134   4.206   1.142   8.332 -0.5278 -1.1155 -0.1773
 4500SOL     OW25135   0.234   3.044   7.133 -0.3668  0.1074  0.5487
 4500SOL    HW125136   0.165   3.054   7.199 -1.3677 -0.0880 -0.4844
 4500SOL    HW225137   0.182   3.017   7.057 -0.8859  2.6932 -0.0235
 4501SOL     OW25138   3.060   0.200   1.007  0.1408  0.7019  0.1854
 4501SOL    HW125139   3.001   0.247   1.066 -0.5386  1.4366 -1.0779
 4501SOL    HW225140   3.030   0.115   1.038 -3.1842  1.8916  0.1684
 4502SOL     OW25141   3.181   2.328   7.848 -0.1727  0.2687 -0.0032
 4502SOL    HW125142   3.121   2.374   7.906 -0.4316 -0.4347  0.2868
 4502SOL    HW225143   3.262   2.368   7.880 -0.1204 -1.1027  1.5490
 4503SOL     OW25144   3.849   3.907   2.058 -0.0147 -0.1241 -0.2180
 4503SOL    HW125145   3.814   3.995   2.073  0.5533 -0.2754  2.0816
 4503SOL    HW225146   3.908   3.896   2.133 -2.8573 -2.3695  1.7155
 4504SOL     OW25147   1.128   0.658  14.369  0.0343 -0.1245  0.3325
 4504SOL    HW125148   1.114   0.566  14.348 -0.2205 -0.2245  0.9411
 4504SOL    HW225149   1.076   0.690  14.296 -0.2545  0.7197  0.9027
 4505SOL     OW25150   4.350   3.750   9.360 -0.2439 -0.2870 -0.1459
 4505SOL    HW125151   4.332   3.657   9.354 -2.2409  0.2007 -1.5917
 4505SOL    HW225152   4.268   3.781   9.322  0.3570  2.9608  1.1327
 4506SOL     OW25153   0.025   4.635   4.217  0.0603 -0.3181 -0.0033
 4506SOL    HW125154   0.049   4.565   4.157  0.7379  0.3898 -0.5613
 4506SOL    HW225155   0.096   4.648   4.280  1.8737  0.6435 -2.2302
 4507SOL     OW25156   1.551   4.314   9.178 -0.5988 -0.6497  0.3620
 4507SOL    HW125157   1.552   4.391   9.235 -1.8911  1.2657 -2.1900
 4507SOL    HW225158   1.532   4.239   9.235  0.2552 -1.3830 -0.3235
 4508SOL     OW25159   1.985   0.255   4.149  0.1646 -0.0431  0.0598
 4508SOL    HW125160   1.914   0.310   4.182  1.5053  0.8723  1.4472
 4508SOL    HW225161   1.981   0.251   4.054  1.4468  0.7881 -0.0248
 4509SOL     OW25162   2.842   4.479   2.445 -0.0420  0.2706 -0.5371
 4509SOL    HW125163   2.859   4.480   2.351 -1.8427 -1.8607 -0.8692
 4509SOL    HW225164   2.842   4.385   2.464  0.5521  0.4580  0.4150
 4510SOL     OW25165   2.163   4.552   2.242  0.1829  0.4706 -0.4474
 4510SOL    HW125166   2.223   4.522   2.173  0.0184 -0.7970 -0.0386
 4510SOL    HW225167   2.180   4.646   2.244  0.2870  0.4720 -1.9993
 4511SOL     OW25168   3.328   3.841  15.412 -0.3149 -0.3566 -0.2179
 4511SOL    HW125169   3.272   3.885  15.349  1.8133  1.8388 -0.5504
 4511SOL    HW225170   3.372   3.772  15.362  0.5480 -0.2910  0.4519
 4512SOL     OW25171   0.902   2.983  10.979  0.4905  0.2608  0.0302
 4512SOL    HW125172   0.960   2.916  10.945 -0.4607 -0.3010 -0.4933
 4512SOL    HW225173   0.923   3.057  10.922  2.1663 -1.3561 -1.4057
 4513SOL     OW25174   3.452   1.602  11.916  0.2668 -0.0548  0.5272
 4513SOL    HW125175   3.530   1.621  11.970  0.7742  0.0460 -0.2353
 4513SOL    HW225176   3.412   1.538  11.975 -1.3128  0.1591 -0.3213
 4514SOL     OW25177   1.758   4.491   0.796  0.3383  0.4266  0.3302
 4514SOL    HW125178   1.794   4.446   0.873  2.4926 -0.8772 -1.4282
 4514SOL    HW225179   1.821   4.474   0.726 -0.2206  1.5887 -0.4579
 4515SOL     OW25180   4.527   2.451   3.266 -0.6107  0.2930 -0.0404
 4515SOL    HW125181   4.579   2.501   3.328 -0.3844 -0.6651  0.5422
 4515SOL    HW225182   4.458   2.514   3.246 -0.7481  0.0934 -0.2055
 4516SOL     OW25183   2.254   0.070  13.906  0.4111 -0.4160  0.0374
 4516SOL    HW125184   2.346   0.068  13.935  0.3809  1.8459  0.2842
 4516SOL    HW225185   2.218   0.003  13.963  2.4577  0.3961  2.3080
 4517SOL     OW25186   3.165   4.243   0.528 -0.3889  0.1561  0.4559
 4517SOL    HW125187   3.165   4.334   0.556  1.4548  0.9297 -2.0628
 4517SOL    HW225188   3.187   4.258   0.437  0.6552 -1.3290  0.4557
 4518SOL     OW25189   3.610   0.813  12.272 -0.8244  0.3032 -0.4849
 4518SOL    HW125190   3.592   0.890  12.326 -0.4504  1.1592 -1.5791
 4518SOL    HW225191   3.680   0.853  12.220 -0.9327  1.1571  0.0266
 4519SOL     OW25192   3.263   3.548   5.859  0.1690  0.1049  0.1498
 4519SOL    HW125193   3.280   3.641   5.877 -0.2518  0.0903  0.6252
 4519SOL    HW225194   3.302   3.505   5.935 -0.4688 -0.6663  0.0360
 4520SOL     OW25195   1.094   1.934   1.870  0.8383  0.3526 -0.1509
 4520SOL    HW125196   1.158   1.972   1.810  2.9379 -2.0877  0.5596
 4520SOL    HW225197   1.031   2.006   1.876  0.2210 -0.0799 -1.6412
 4521SOL     OW25198   1.083   2.644   3.022  0.3414  0.1133  0.2246
 4521SOL    HW125199   1.088   2.603   2.935 -0.0399  0.4091  0.0600
 4521SOL    HW225200   1.004   2.699   3.018  0.0859 -0.1415  1.6723
 4522SOL     OW25201   1.337   2.997  15.651 -0.4972  0.0586  0.0424
 4522SOL    HW125202   1.344   3.087  15.619 -0.3614  0.0563  0.0648
 4522SOL    HW225203   1.381   2.954  15.578  2.1845 -0.5396  1.9841
 4523SOL     OW25204   2.144   4.404  12.200  0.3370 -0.2032  0.2650
 4523SOL    HW125205   2.164   4.398  12.294  0.0685  0.1451  0.3471
 4523SOL    HW225206   2.075   4.471  12.199 -1.6612 -2.2471  1.7329
 4524SOL     OW25207   2.069   2.231   8.376  0.6486  0.5503 -0.4815
 4524SOL    HW125208   2.132   2.191   8.436  1.0069  1.8468 -0.0022
 4524SOL    HW225209   2.027   2.151   8.343  0.4505  0.0762  0.9324
 4525SOL     OW25210   0.573   3.694   5.113 -0.2533  0.3122  0.0863
 4525SOL    HW125211   0.488   3.653   5.100 -0.7672  1.1505  0.8068
 4525SOL    HW225212   0.554   3.787   5.099 -0.8026  0.3225  0.9444
 4526SOL     OW25213   3.217   1.735  14.706 -0.8223 -0.2085  0.0799
 4526SOL    HW125214   3.145   1.674  14.688  0.0364 -1.5711  1.2431
 4526SOL    HW225215   3.296   1.686  14.682 -2.0348 -1.8824 -0.4923
 4527SOL     OW25216   0.547   4.223  13.102  0.7509  0.1121 -0.0933
 4527SOL    HW125217   0.547   4.135  13.064 -1.0468 -0.4773  1.2860
 4527SOL    HW225218   0.633   4.216  13.145 -0.5461 -1.5845  2.2245
 4528SOL     OW25219   1.808   3.901   7.892 -0.5764  0.0891 -0.4285
 4528SOL    HW125220   1.862   3.896   7.813  1.7897 -3.0494  1.3823
 4528SOL    HW225221   1.723   3.916   7.851 -0.1956  2.0157 -0.5376
 4529SOL     OW25222   3.810   4.452   5.204  0.1242 -0.5331  0.0819
 4529SOL    HW125223   3.790   4.363   5.231  0.3414  0.1389  2.4516
 4529SOL    HW225224   3.855   4.438   5.120  0.6767  1.2766  0.0596
 4530SOL     OW25225   0.501   2.371   6.864  0.7722  0.0409  0.0838
 4530SOL    HW125226   0.575   2.407   6.914 -0.5858  1.6620  0.9411
 4530SOL    HW225227   0.545   2.336   6.787  1.5139  0.0013  0.5255
 4531SOL     OW25228   3.196   1.085   8.230 -0.3123 -0.2441  0.2401
 4531SOL    HW125229   3.218   0.995   8.253  1.0894 -0.1651 -0.8291
 4531SOL    HW225230   3.276   1.108   8.183  0.2676  0.6587  1.6939
 4532SOL     OW25231   3.044   0.930   3.132  0.1822 -0.2719  0.5345
 4532SOL    HW125232   3.033   1.019   3.099  2.4189 -1.1713 -2.7202
 4532SOL    HW225233   3.106   0.872   3.086 -0.7954 -2.5246  2.0546
 4533SOL     OW25234   4.683   2.952   8.253  0.2525  0.1539 -0.4627
 4533SOL    HW125235   4.688   2.937   8.158 -2.7528 -0.9894 -0.4646
 4533SOL    HW225236   4.675   2.862   8.286  1.6655 -0.0043 -0.5471
 4534SOL     OW25237   4.029   0.282   5.957  0.2517 -0.1339  0.1108
 4534SOL    HW125238   3.952   0.233   5.985  0.1507  0.3598  0.6998
 4534SOL    HW225239   4.003   0.301   5.867 -0.7185  2.9189  1.0552
 4535SOL     OW25240   4.693   0.420   5.249  0.3707  0.5125 -0.7443
 4535SOL    HW125241   4.653   0.387   5.169 -1.1667  0.8435 -0.0964
 4535SOL    HW225242   0.005   0.341   5.279 -1.5973 -0.3628 -0.0700
 4536SOL     OW25243   1.087   3.389   6.359 -0.2022  0.0758  0.0524
 4536SOL    HW125244   1.047   3.451   6.420 -0.5508 -0.3907  0.2986
 4536SOL    HW225245   1.070   3.311   6.412 -0.5286  0.4265  0.4667
 4537SOL     OW25246   2.580   4.554  10.008  0.2292 -0.4793  0.3550
 4537SOL    HW125247   2.567   4.646  10.029 -0.5980 -0.2633 -1.1463
 4537SOL    HW225248   2.667   4.550   9.967 -0.2509  0.1182 -0.7037
 4538SOL     OW25249   0.440   3.675   8.636 -0.5176 -0.1589 -0.1116
 4538SOL    HW125250   0.450   3.723   8.719 -2.0740 -0.2640  0.1231
 4538SOL    HW225251   0.455   3.744   8.571  1.2692  0.0725  0.5254
 4539SOL     OW25252   1.897   1.704  13.898  0.2125 -0.5101 -0.4830
 4539SOL    HW125253   1.855   1.620  13.881  1.0281 -0.8641 -0.7764
 4539SOL    HW225254   1.980   1.672  13.934  1.3565  1.7568 -1.1135
 4540SOL     OW25255   1.446   1.866   2.888 -0.4879 -0.1897 -0.0670
 4540SOL    HW125256   1.519   1.903   2.937 -0.0917 -0.9477 -0.0880
 4540SOL    HW225257   1.483   1.869   2.800 -1.3633 -0.2838 -0.4446
 4541SOL     OW25258   3.698   3.790   1.422 -0.3355  0.5099 -0.4027
 4541SOL    HW125259   3.699   3.795   1.518 -1.0450  0.8798 -0.4114
 4541SOL    HW225260   3.746   3.864   1.387 -2.4103  1.8414 -0.4596
 4542SOL     OW25261   4.516   3.454   0.845  0.4139  0.0299  0.3241
 4542SOL    HW125262   4.480   3.367   0.859  3.1758 -1.3309 -1.1028
 4542SOL    HW225263   4.597   3.454   0.896  0.1520  0.7878  0.7496
 4543SOL     OW25264   1.097   3.100  11.145 -0.1849 -0.3176 -0.4762
 4543SOL    HW125265   1.032   3.049  11.098  1.0871 -0.9248 -1.6009
 4543SOL    HW225266   1.141   3.153  11.078 -0.8313  0.3669 -0.3539
 4544SOL     OW25267   1.230   1.133   4.163 -0.2809  0.5064 -0.3145
 4544SOL    HW125268   1.147   1.099   4.196  0.0802  1.4301  1.5357
 4544SOL    HW225269   1.207   1.218   4.127 -1.4203  0.0664 -0.6191
 4545SOL     OW25270   1.897   3.184   1.808  0.0158  0.0357  0.0227
 4545SOL    HW125271   1.899   3.215   1.718 -0.0761 -0.1227 -0.0335
 4545SOL    HW225272   1.805   3.193   1.833 -0.3901 -1.6692 -0.9108
 4546SOL     OW25273   3.286   1.848   2.673 -0.0183  0.2259  0.3120
 4546SOL    HW125274   3.260   1.913   2.608  0.4417  0.0142 -0.0898
 4546SOL    HW225275   3.378   1.840   2.645 -0.1633  1.5858 -0.5404
 4547SOL     OW25276   3.010   0.933   4.581  0.1555  0.5525 -0.0090
 4547SOL    HW125277   3.044   0.961   4.496  0.0799  1.8088  0.3873
 4547SOL    HW225278   2.931   0.883   4.564  2.3454 -2.8670 -0.2550
 4548SOL     OW25279   2.534   4.344  15.874  0.1618  0.2698 -0.0207
 4548SOL    HW125280   2.599   4.344  15.945 -0.3420  0.7720  0.4373
 4548SOL    HW225281   2.587   4.338  15.794 -0.6424 -1.9444 -0.3723
 4549SOL     OW25282   1.565   2.313  12.226  0.4134 -0.4443  0.4025
 4549SOL    HW125283   1.470   2.302  12.224  0.6215 -2.1890 -0.8948
 4549SOL    HW225284   1.597   2.233  12.268  1.0675 -1.0286 -1.2078
 4550SOL     OW25285   0.830   4.038  16.030 -0.5989 -0.4487 -0.0705
 4550SOL    HW125286   0.768   4.016  16.099  0.4912  1.4653  1.5388
 4550SOL    HW225287   0.780   4.029  15.949  1.2060  1.5634 -1.4090
 4551SOL     OW25288   3.598   1.028   4.576  0.1599  0.1278 -0.2833
 4551SOL    HW125289   3.660   1.090   4.613  1.4442 -0.6314 -1.1820
 4551SOL    HW225290   3.531   1.085   4.537 -1.7791  0.2442  3.2181
 4552SOL     OW25291   3.543   4.476   4.319  0.0693 -0.5501  0.1001
 4552SOL    HW125292   3.600   4.545   4.286 -0.4665  0.8349  2.1004
 4552SOL    HW225293   3.479   4.522   4.373  2.0294  1.5508  0.5940
 4553SOL     OW25294   4.483   3.949   2.126 -0.1273  0.7363 -0.0534
 4553SOL    HW125295   4.510   3.862   2.097  2.5069  0.7526  2.4290
 4553SOL    HW225296   4.536   3.967   2.204  1.1689  0.5071 -0.8812
 4554SOL     OW25297   2.686   2.531  10.997 -0.0596 -0.2531  0.6240
 4554SOL    HW125298   2.659   2.482  10.919  0.2276 -1.4915  1.3069
 4554SOL    HW225299   2.716   2.613  10.957 -0.5441  0.3990  1.5863
 4555SOL     OW25300   0.164   1.532   8.824  0.2224 -0.3506 -0.3471
 4555SOL    HW125301   0.153   1.438   8.807 -0.0360 -0.2941 -0.5032
 4555SOL    HW225302   0.078   1.557   8.857  1.3183  2.9521 -0.0184
 4556SOL     OW25303   3.403   3.560   8.147 -0.4552  0.3583 -0.1242
 4556SOL    HW125304   3.428   3.476   8.109 -1.8797  0.2517 -0.8249
 4556SOL    HW225305   3.416   3.537   8.239  0.8966 -2.3141 -0.9828
 4557SOL     OW25306   4.568   4.491   4.837 -0.7946 -0.5651  0.4938
 4557SOL    HW125307   4.594   4.559   4.774 -0.3075  0.0060  1.3003
 4557SOL    HW225308   4.644   4.461   4.887 -0.3098  0.0458  0.1273
 4558SOL     OW25309   1.827   4.282  12.634 -0.0899  0.3997 -0.2539
 4558SOL    HW125310   1.839   4.200  12.682 -1.4251  0.9844  1.0736
 4558SOL    HW225311   1.754   4.265  12.576 -0.5668  1.6913 -0.0268
 4559SOL     OW25312   3.482   4.292  12.631  0.0270 -0.0092  0.1740
 4559SOL    HW125313   3.496   4.382  12.602 -1.7149 -0.0053 -0.6577
 4559SOL    HW225314   3.566   4.247  12.617 -1.1934 -2.6070  1.1189
 4560SOL     OW25315   1.131   4.196   4.251 -0.1139 -0.0253 -0.3635
 4560SOL    HW125316   1.108   4.166   4.339 -1.5711  1.4234 -0.2590
 4560SOL    HW225317   1.205   4.252   4.276 -0.7764  0.6483  0.0841
 4561SOL     OW25318   2.642   1.087   1.928 -0.0120  0.3497  0.1042
 4561SOL    HW125319   2.716   1.035   1.959 -0.6960  0.0808  1.3163
 4561SOL    HW225320   2.568   1.051   1.978  0.3599  0.0318  0.4273
 4562SOL     OW25321   1.262   1.831   3.116  0.4705 -0.3483  0.1830
 4562SOL    HW125322   1.298   1.868   3.197 -1.1116 -0.2159  0.8197
 4562SOL    HW225323   1.282   1.898   3.051  0.4657 -1.2856 -0.8015
 4563SOL     OW25324   2.721   0.616   5.787 -0.0162 -0.0073 -0.1200
 4563SOL    HW125325   2.653   0.621   5.854 -1.2831 -0.4144 -1.3565
 4563SOL    HW225326   2.671   0.579   5.714 -0.6457 -0.6539  0.6390
 4564SOL     OW25327   2.780   0.807  13.146  0.4670  0.5200 -0.4172
 4564SOL    HW125328   2.794   0.723  13.102  1.0761  0.4995 -0.1864
 4564SOL    HW225329   2.705   0.778  13.198  1.4487 -0.1129  0.6306
 4565SOL     OW25330   2.952   2.516   3.085 -0.6281  0.4053 -0.4709
 4565SOL    HW125331   2.973   2.601   3.123 -0.2075  0.0179  0.1653
 4565SOL    HW225332   3.042   2.485   3.077 -0.1790  1.8997 -1.1070
 4566SOL     OW25333   3.218   1.891  14.944 -0.1273 -0.1327 -0.2309
 4566SOL    HW125334   3.252   1.835  15.014 -2.6014 -0.7649  0.4309
 4566SOL    HW225335   3.231   1.846  14.861 -1.9743 -2.5034  0.7803
 4567SOL     OW25336   2.147   0.210   3.861 -0.2320 -0.0034  0.1431
 4567SOL    HW125337   2.212   0.259   3.910 -0.7529 -1.1867  1.9892
 4567SOL    HW225338   2.110   0.289   3.820  1.0417  0.9446  0.8396
 4568SOL     OW25339   3.920   2.074   7.256 -0.2618 -0.1954 -0.4406
 4568SOL    HW125340   4.015   2.082   7.248 -0.2843 -0.6751 -1.2082
 4568SOL    HW225341   3.907   1.989   7.297  0.5792  0.2654  0.7674
 4569SOL     OW25342   4.682   1.377  12.966 -0.1194 -0.3075  0.0795
 4569SOL    HW125343   4.646   1.465  12.956  1.5030  0.4459  0.9514
 4569SOL    HW225344   0.036   1.386  12.929 -1.0670  1.4933 -1.7648
 4570SOL     OW25345   2.876   4.210   3.216  0.7465 -0.0469  0.0702
 4570SOL    HW125346   2.949   4.271   3.228  0.1920  0.7571 -0.6970
 4570SOL    HW225347   2.890   4.178   3.127 -3.7743 -2.0309  0.0967
 4571SOL     OW25348   0.091   3.065  14.436 -0.3184 -0.5938 -0.2640
 4571SOL    HW125349   0.090   3.017  14.519 -1.4096  0.0167  0.0737
 4571SOL    HW225350   0.001   3.057  14.403 -1.1009  0.6482  1.6034
 4572SOL     OW25351   2.331   2.326   5.023 -0.0798  0.5539  0.1766
 4572SOL    HW125352   2.259   2.271   5.055 -1.3888  1.5924 -1.0125
 4572SOL    HW225353   2.408   2.280   5.057 -0.6673  1.4907  2.7972
 4573SOL     OW25354   0.766   2.487  11.698  0.0617  0.1111  0.2076
 4573SOL    HW125355   0.842   2.545  11.708  0.0193  0.2443 -0.2770
 4573SOL    HW225356   0.695   2.542  11.667 -0.6175  0.2876  2.0587
 4574SOL     OW25357   0.373   0.021   5.731  0.0033  0.1650 -0.3010
 4574SOL    HW125358   0.450   0.042   5.784 -0.2358 -0.4751  0.3016
 4574SOL    HW225359   0.382   4.665   5.703 -0.0890  0.1895 -0.4103
 4575SOL     OW25360   2.549   4.501   0.410 -0.1698  0.2024  0.5992
 4575SOL    HW125361   2.510   4.425   0.366 -0.6287  0.6141  0.2943
 4575SOL    HW225362   2.633   4.516   0.367 -1.0451  1.6583 -0.5913
 4576SOL     OW25363   0.230   2.279   6.660 -0.1548 -0.0101  0.6987
 4576SOL    HW125364   0.160   2.287   6.595  2.7399  1.3149 -2.2711
 4576SOL    HW225365   0.307   2.286   6.604  1.0770 -2.1287  2.1425
 4577SOL     OW25366   0.868   1.463   5.186  0.1636  0.2924 -0.1462
 4577SOL    HW125367   0.916   1.505   5.258 -0.7191 -1.6727  1.5744
 4577SOL    HW225368   0.780   1.500   5.191  0.4187  0.6757  1.7727
 4578SOL     OW25369   0.532   3.254  13.688  0.3107  0.4157 -0.1537
 4578SOL    HW125370   0.492   3.244  13.602 -0.6406  2.2885  0.0723
 4578SOL    HW225371   0.521   3.163  13.715  3.2034 -0.5083 -2.0359
 4579SOL     OW25372   3.646   3.039   9.035  0.8484 -0.5340  0.3615
 4579SOL    HW125373   3.604   2.985   8.969 -1.9094  1.3226  0.6057
 4579SOL    HW225374   3.570   3.095   9.046  0.9503 -0.6286  1.5821
 4580SOL     OW25375   4.571   4.366   2.715  0.4147  0.0739 -0.4077
 4580SOL    HW125376   4.524   4.405   2.642 -1.4561  0.0031  0.7400
 4580SOL    HW225377   4.663   4.381   2.695  0.4095  2.2267  1.1597
 4581SOL     OW25378   1.925   1.351   3.276  0.6531  0.0548 -0.2676
 4581SOL    HW125379   1.912   1.281   3.340 -0.1904  0.6755  0.2299
 4581SOL    HW225380   1.899   1.429   3.324 -1.8643  0.1889 -1.8559
 4582SOL     OW25381   1.078   1.751  10.521  0.5257 -0.4971  0.3134
 4582SOL    HW125382   1.014   1.811  10.559  0.2992  0.1099 -1.0590
 4582SOL    HW225383   1.009   1.696  10.484  1.6105 -0.9959 -0.9506
 4583SOL     OW25384   0.708   0.371   4.348  0.3415  0.1863 -0.1331
 4583SOL    HW125385   0.719   0.311   4.422  2.1931  1.1491  0.3872
 4583SOL    HW225386   0.755   0.446   4.384 -1.3746  0.6915  1.0539
 4584SOL     OW25387   1.680   2.739  11.295  0.0205  0.0522 -0.4293
 4584SOL    HW125388   1.753   2.712  11.239 -0.8994 -0.8258 -1.2006
 4584SOL    HW225389   1.708   2.831  11.302  1.8670 -0.6505  1.4546
 4585SOL     OW25390   2.772   4.719   7.094 -0.3866 -0.3990  0.0993
 4585SOL    HW125391   2.721   4.652   7.139 -1.7452 -1.2716 -2.7591
 4585SOL    HW225392   2.704   0.012   7.032 -0.9498 -1.6761  0.1644
 4586SOL     OW25393   0.533   0.944   5.585 -0.3153 -0.0222  0.5806
 4586SOL    HW125394   0.597   0.947   5.657 -0.2267  1.6740  0.4291
 4586SOL    HW225395   0.534   0.856   5.549 -1.4243  1.1830 -2.4198
 4587SOL     OW25396   2.303   0.051  14.710 -0.6807  0.5147 -0.6527
 4587SOL    HW125397   2.236   0.048  14.779 -0.4290  0.5351 -0.4085
 4587SOL    HW225398   2.376   0.103  14.743 -0.6934  0.9605 -1.3401
 4588SOL     OW25399   0.832   0.946   8.572  0.3145  0.2471 -0.0182
 4588SOL    HW125400   0.822   0.932   8.478  1.4071  1.4475 -0.3130
 4588SOL    HW225401   0.759   1.007   8.585  0.4897  0.5439 -0.4107
 4589SOL     OW25402   3.242   4.046   7.993  0.0731 -0.4449  0.2820
 4589SOL    HW125403   3.283   4.122   8.034  1.1216  0.0881 -1.7796
 4589SOL    HW225404   3.275   3.975   8.048 -1.6404 -0.1012  1.7872
 4590SOL     OW25405   3.072   1.417   1.151 -0.0909 -0.1197 -0.3104
 4590SOL    HW125406   2.993   1.381   1.192 -0.1242  0.4690  0.1437
 4590SOL    HW225407   3.132   1.342   1.158 -1.1716 -0.8603  1.2792
 4591SOL     OW25408   3.558   2.273   5.053 -0.0546  0.5963 -0.4281
 4591SOL    HW125409   3.523   2.272   5.142  1.8901  0.8957  0.3263
 4591SOL    HW225410   3.622   2.340   5.076 -1.1820  1.8540 -0.9975
 4592SOL     OW25411   0.237   0.486   5.659  0.8259  0.3116  0.0085
 4592SOL    HW125412   0.264   0.394   5.658  2.8790  0.9137 -0.7597
 4592SOL    HW225413   0.152   0.478   5.703  0.7015  2.0904  0.0960
 4593SOL     OW25414   2.460   0.164  10.416 -0.5337 -0.7048 -0.4596
 4593SOL    HW125415   2.414   0.117  10.346 -0.5051 -0.7886 -0.4218
 4593SOL    HW225416   2.422   0.251  10.426  0.4187 -0.2208 -1.1059
 4594SOL     OW25417   0.859   1.465   2.050  0.1381 -0.2943 -0.2834
 4594SOL    HW125418   0.809   1.401   1.998  0.3935  0.2414 -1.1838
 4594SOL    HW225419   0.939   1.485   2.001 -0.0836  1.1368 -0.0469
 4595SOL     OW25420   0.459   2.828   0.867 -0.2051 -0.1633 -0.0920
 4595SOL    HW125421   0.438   2.762   0.802 -0.6153  0.6308 -0.7652
 4595SOL    HW225422   0.448   2.905   0.811 -0.2055  0.8007  1.2369
 4596SOL     OW25423   4.252   0.595   9.062 -0.3739  0.5904  0.1125
 4596SOL    HW125424   4.179   0.550   9.105  1.3205 -0.7484  1.5664
 4596SOL    HW225425   4.317   0.577   9.129 -1.4628 -1.8167  0.5303
 4597SOL     OW25426   0.799   4.678   0.540  0.4324  0.1160 -0.5315
 4597SOL    HW125427   0.769   4.596   0.579 -0.3331  0.5633 -0.1769
 4597SOL    HW225428   0.885   4.685   0.581 -0.2923 -2.7458  1.5620
 4598SOL     OW25429   4.057   0.475   2.398  0.1701 -0.0682 -0.1548
 4598SOL    HW125430   3.970   0.435   2.407  0.2406 -0.2382 -0.2316
 4598SOL    HW225431   4.057   0.534   2.472  1.3541  0.1901 -0.3686
 4599SOL     OW25432   1.408   2.832   3.277 -0.2238 -0.1856  0.0239
 4599SOL    HW125433   1.323   2.875   3.284 -0.6992 -1.1712  0.3647
 4599SOL    HW225434   1.397   2.766   3.208  1.9673  1.1337 -1.5620
 4600SOL     OW25435   3.694   1.698  13.762 -0.3938  0.3296 -0.2191
 4600SOL    HW125436   3.759   1.675  13.828  1.2648 -0.9912 -2.3254
 4600SOL    HW225437   3.623   1.710  13.826  0.6968 -0.2029  1.1056
 4601SOL     OW25438   2.843   4.039   4.693  0.5192  0.0765  0.1212
 4601SOL    HW125439   2.809   3.956   4.661 -0.4000  0.0335  1.2001
 4601SOL    HW225440   2.868   4.013   4.782 -0.4394 -1.9145 -0.2050
 4602SOL     OW25441   2.241   1.305   3.662 -0.7388  0.0618 -0.2382
 4602SOL    HW125442   2.324   1.297   3.709 -0.4374 -0.7822 -0.8980
 4602SOL    HW225443   2.271   1.368   3.596 -2.4553  0.3376 -0.7576
 4603SOL     OW25444   0.102   1.691  14.796  0.2102 -0.4113  0.4490
 4603SOL    HW125445   0.173   1.748  14.828  1.0772 -1.4558  0.3710
 4603SOL    HW225446   0.138   1.605  14.817  2.1396  0.1469 -0.5530
 4604SOL     OW25447   2.057   1.193  14.845  0.4459  0.0930  0.2910
 4604SOL    HW125448   2.073   1.171  14.753  0.8288 -0.2255  0.4369
 4604SOL    HW225449   2.143   1.206  14.885  0.5240 -1.3969  0.5915
 4605SOL     OW25450   0.915   3.538  17.341 -0.0652  0.4913  0.0910
 4605SOL    HW125451   0.996   3.589  17.345  0.0091  0.3350  0.6266
 4605SOL    HW225452   0.913   3.509  17.433  1.9897 -0.1711 -0.0697
 4606SOL     OW25453   4.079   1.637   6.171  0.2145 -0.8085  0.1725
 4606SOL    HW125454   4.125   1.575   6.113  1.1803  0.0603  0.0008
 4606SOL    HW225455   3.990   1.646   6.137  1.1528  2.9522 -1.2338
 4607SOL     OW25456   3.366   3.822  13.307 -0.1467  0.3338 -0.6702
 4607SOL    HW125457   3.304   3.815  13.235 -2.7019 -0.9748  1.6585
 4607SOL    HW225458   3.437   3.874  13.268  1.0443 -1.4420 -0.8614
 4608SOL     OW25459   2.265   0.300   7.850  0.0806  0.1928 -0.4208
 4608SOL    HW125460   2.236   0.323   7.761  0.8087  1.2489 -0.3900
 4608SOL    HW225461   2.353   0.336   7.839  0.0727  1.4301  3.8312
 4609SOL     OW25462   3.709   0.508   4.442  0.2661  0.1353 -0.3463
 4609SOL    HW125463   3.800   0.484   4.421  0.2885  0.6755 -0.8541
 4609SOL    HW225464   3.725   0.600   4.464  1.6761  0.6860 -3.7075
 4610SOL     OW25465   2.760   4.231   2.810  0.4006  0.2236  0.1196
 4610SOL    HW125466   2.754   4.310   2.864 -2.4087 -0.1641  0.3713
 4610SOL    HW225467   2.668   4.206   2.821  0.7657 -0.8947  0.6029
 4611SOL     OW25468   2.870   4.179  11.052  0.4296 -0.1065 -0.1493
 4611SOL    HW125469   2.874   4.224  10.967 -0.1995 -0.2694 -0.2670
 4611SOL    HW225470   2.881   4.088  11.023  2.6035 -0.4080  1.6759
 4612SOL     OW25471   0.874   4.195   2.850 -0.1458 -0.5813 -0.1468
 4612SOL    HW125472   0.936   4.123   2.863  0.6558  0.3966  1.3933
 4612SOL    HW225473   0.928   4.265   2.886 -0.3413 -0.4555 -0.0972
 4613SOL     OW25474   0.583   4.327   7.920  0.4832 -0.1072 -0.3075
 4613SOL    HW125475   0.514   4.266   7.895  0.3519 -0.8396  1.8530
 4613SOL    HW225476   0.625   4.268   7.984  2.5872  0.2218 -1.3842
 4614SOL     OW25477   2.825   0.515   6.322 -0.1858 -0.6478 -0.1336
 4614SOL    HW125478   2.732   0.497   6.307 -0.3002 -2.2441  2.5419
 4614SOL    HW225479   2.875   0.444   6.282 -0.1586 -2.9332  3.9438
 4615SOL     OW25480   3.685   0.337   2.748  0.2447 -0.2008 -0.9071
 4615SOL    HW125481   3.623   0.400   2.712  1.7963  1.1089 -1.3088
 4615SOL    HW225482   3.722   0.380   2.825 -2.9040  0.4183  0.2706
 4616SOL     OW25483   1.669   0.095   5.205  0.7523 -0.8072  0.2042
 4616SOL    HW125484   1.614   0.016   5.201  1.0948 -1.1110  1.3996
 4616SOL    HW225485   1.749   0.057   5.242  0.5038  0.8478  2.4513
 4617SOL     OW25486   4.692   0.362   8.352 -0.1344 -0.6057 -0.0824
 4617SOL    HW125487   4.732   0.443   8.321 -0.3931 -0.4253  0.0616
 4617SOL    HW225488   4.607   0.368   8.309 -0.4665  1.5511  0.8954
 4618SOL     OW25489   3.996   1.635   5.886  0.3355 -0.5167  0.1439
 4618SOL    HW125490   4.089   1.622   5.907  0.3146  0.6633  0.9556
 4618SOL    HW225491   3.963   1.548   5.867  0.6712 -0.8390  1.0654
 4619SOL     OW25492   1.733   4.095  11.712  0.1205 -0.4688 -0.2566
 4619SOL    HW125493   1.638   4.095  11.695 -0.5715  1.9876  3.5987
 4619SOL    HW225494   1.735   4.028  11.780 -0.6578  1.2641  1.4815
 4620SOL     OW25495   2.891   0.334   6.904  0.5396  0.2367 -0.4097
 4620SOL    HW125496   2.826   0.365   6.841  0.9558  1.7555 -0.0893
 4620SOL    HW225497   2.887   0.242   6.880 -0.1099 -0.1686  1.2551
 4621SOL     OW25498   4.712   2.152   5.348  0.0316  0.3323 -0.0967
 4621SOL    HW125499   0.005   2.097   5.421 -2.6274 -1.8258 -0.7328
 4621SOL    HW225500   4.625   2.113   5.338  0.4675 -0.8016  0.5280
 4622SOL     OW25501   0.090   3.819   3.221  0.3202 -0.5308  0.1304
 4622SOL    HW125502   0.006   3.795   3.260  0.9978 -0.4348  1.6351
 4622SOL    HW225503   0.111   3.728   3.199 -1.5994 -1.2228  1.2118
 4623SOL     OW25504   3.431   0.700   4.171 -0.5851 -0.1099 -0.0248
 4623SOL    HW125505   3.461   0.729   4.258 -1.7507 -1.8170  0.9431
 4623SOL    HW225506   3.427   0.778   4.115 -0.4899  0.1536  0.3352
 4624SOL     OW25507   1.660   0.696   5.359 -0.2821  0.1955 -0.9367
 4624SOL    HW125508   1.638   0.784   5.391 -1.3177  0.0410 -1.2054
 4624SOL    HW225509   1.700   0.673   5.443 -0.2810  2.9786 -0.1753
 4625SOL     OW25510   4.722   4.346   3.488  0.2253 -0.5215 -0.0332
 4625SOL    HW125511   0.027   4.325   3.404  0.6668 -1.7601  0.4924
 4625SOL    HW225512   4.633   4.351   3.454  0.2264 -0.8740 -0.0833
 4626SOL     OW25513   2.513   0.389   0.325  0.3959 -0.0141 -0.9325
 4626SOL    HW125514   2.451   0.451   0.285  0.5624  0.1962 -0.8646
 4626SOL    HW225515   2.465   0.335   0.388 -1.1730  0.3835 -1.7723
 4627SOL     OW25516   1.250   2.419   7.890  0.3109  1.0500 -0.0811
 4627SOL    HW125517   1.189   2.482   7.930 -0.2257 -1.2633  2.6907
 4627SOL    HW225518   1.178   2.369   7.852  0.4086  0.3943  0.5931
 4628SOL     OW25519   2.752   4.493  15.190 -0.1416 -0.5146  0.4487
 4628SOL    HW125520   2.816   4.545  15.239 -0.6481 -1.3648  2.0415
 4628SOL    HW225521   2.672   4.511  15.240  0.0942  1.7254 -0.0072
 4629SOL     OW25522   3.575   3.415   5.198  0.1169 -0.6584 -1.3116
 4629SOL    HW125523   3.529   3.498   5.210 -0.3747 -1.0850 -0.3115
 4629SOL    HW225524   3.601   3.412   5.105  1.0648 -1.7336 -1.0240
 4630SOL     OW25525   2.027   1.044   5.744 -0.5202 -0.3090 -0.3778
 4630SOL    HW125526   2.012   0.969   5.686 -3.2787 -0.4417  0.4606
 4630SOL    HW225527   2.071   0.997   5.815  0.4731  0.1768 -0.6843
 4631SOL     OW25528   2.522   0.210   8.395  0.3586 -0.3657 -0.1820
 4631SOL    HW125529   2.521   0.248   8.483  0.3783  1.0498 -0.7902
 4631SOL    HW225530   2.595   0.149   8.401  1.4419  1.0101  0.4381
 4632SOL     OW25531   4.689   1.379   1.226 -0.1168  0.4451 -0.0062
 4632SOL    HW125532   4.711   1.292   1.261 -0.3817  0.0511 -0.8075
 4632SOL    HW225533   0.007   1.445   1.270 -0.7329  1.2950 -0.5454
 4633SOL     OW25534   3.185   4.497   0.638 -0.1149  0.5144  0.5046
 4633SOL    HW125535   3.216   4.554   0.709  0.1469 -0.2979  1.0340
 4633SOL    HW225536   3.090   4.491   0.647 -0.1629  1.2909  0.5366
 4634SOL     OW25537   2.605   3.127   4.620 -0.3966  0.4208  0.0748
 4634SOL    HW125538   2.586   3.213   4.583  0.7682  0.4442 -0.4543
 4634SOL    HW225539   2.684   3.157   4.665 -0.4301  0.0271  0.4007
 4635SOL     OW25540   4.126   2.286   0.304  0.5197  0.1116  0.3416
 4635SOL    HW125541   4.163   2.292   0.216 -0.0389 -2.1028 -0.0361
 4635SOL    HW225542   4.204   2.264   0.355 -0.4396 -0.8462  1.4081
 4636SOL     OW25543   4.389   1.688   5.364  0.1703 -0.3245  0.5464
 4636SOL    HW125544   4.302   1.728   5.359  0.4353  0.1001 -0.6790
 4636SOL    HW225545   4.401   1.649   5.277  2.2852 -0.2393  0.8028
 4637SOL     OW25546   1.445   2.347   9.891 -0.1328 -0.0762 -0.3449
 4637SOL    HW125547   1.499   2.376   9.964 -1.8990  1.5003  0.3349
 4637SOL    HW225548   1.507   2.348   9.818 -0.3757  3.3164 -0.5072
 4638SOL     OW25549   4.002   0.416   5.606  0.1211 -0.7803 -0.0127
 4638SOL    HW125550   4.087   0.430   5.649 -0.0662  2.5539 -0.7426
 4638SOL    HW225551   3.973   0.504   5.580  0.6220 -0.7898 -0.6183
 4639SOL     OW25552   4.413   4.730   7.729  0.0509  0.3042  0.1371
 4639SOL    HW125553   4.469   0.004   7.652 -1.9705  1.9959 -1.1414
 4639SOL    HW225554   4.368   4.650   7.699 -0.0481  0.7980 -1.0238
 4640SOL     OW25555   2.801   1.210   2.871 -0.3254  0.1712 -0.0855
 4640SOL    HW125556   2.892   1.187   2.890  0.0080  1.0309 -0.6360
 4640SOL    HW225557   2.795   1.170   2.785  2.5237 -0.6429  0.0741
 4641SOL     OW25558   3.804   2.896   3.053 -0.0885  0.3981  0.2905
 4641SOL    HW125559   3.829   2.818   3.103  0.6699 -0.5079 -1.5423
 4641SOL    HW225560   3.727   2.923   3.105  0.4006 -2.7228  2.6438
 4642SOL     OW25561   4.364   4.044   4.883 -0.2487  0.5562 -0.1720
 4642SOL    HW125562   4.458   4.065   4.880  0.0705 -0.8792 -0.3389
 4642SOL    HW225563   4.324   4.062   4.798  1.0595 -2.7590 -1.4980
 4643SOL     OW25564   3.521   3.520   0.166  0.1209 -0.6896 -0.5306
 4643SOL    HW125565   3.592   3.522   0.101  0.4356 -0.6144 -0.1827
 4643SOL    HW225566   3.557   3.586   0.225 -1.3798 -0.9559  0.6688
 4644SOL     OW25567   2.554   0.245  12.160  0.1006  0.3553 -0.1294
 4644SOL    HW125568   2.521   0.308  12.095 -0.7051  0.3613  0.2879
 4644SOL    HW225569   2.481   0.216  12.214  0.5175 -0.1355  0.1603
 4645SOL     OW25570   0.503   4.467   2.807  0.4412  0.0907 -0.1579
 4645SOL    HW125571   0.510   4.445   2.714  1.7942 -0.3691  0.0437
 4645SOL    HW225572   0.597   4.467   2.828  0.3240  1.8474  0.3028
 4646SOL     OW25573   4.424   4.424   2.923  0.0848 -0.2098  0.4769
 4646SOL    HW125574   4.494   4.418   2.858 -1.7233 -0.9276 -1.4186
 4646SOL    HW225575   4.462   4.493   2.978  0.6530 -0.6419  0.6164
 4647SOL     OW25576   0.950   2.924   1.325  0.3570 -0.0737  0.2986
 4647SOL    HW125577   0.950   2.924   1.420  1.3596  0.5594  0.2932
 4647SOL    HW225578   0.945   3.018   1.309  2.0497 -0.2355 -1.2851
 4648SOL     OW25579   1.870   1.951   4.062 -0.1663 -0.8286  0.2399
 4648SOL    HW125580   1.866   1.986   4.151  1.3036 -0.7662  0.2819
 4648SOL    HW225581   1.954   1.906   4.063 -0.2253 -0.9458  0.0695
 4649SOL     OW25582   3.990   2.482  15.650  0.1637 -0.1541 -0.3244
 4649SOL    HW125583   4.045   2.489  15.572 -0.7501  1.7249 -0.7998
 4649SOL    HW225584   3.936   2.405  15.630 -0.7495  0.7219 -1.2388
 4650SOL     OW25585   1.780   1.137   1.210 -0.3615  0.0652  0.1642
 4650SOL    HW125586   1.727   1.065   1.243 -1.8880  2.1408  2.2047
 4650SOL    HW225587   1.834   1.159   1.286 -0.3954 -1.0174  0.4895
 4651SOL     OW25588   0.326   0.638   3.655 -0.0331 -0.1391  0.7832
 4651SOL    HW125589   0.342   0.553   3.697  0.1539 -0.4385  0.0931
 4651SOL    HW225590   0.379   0.628   3.576 -2.9582 -0.4393 -1.1329
 4652SOL     OW25591   2.187   4.037   7.057  0.3254  0.0427  0.1864
 4652SOL    HW125592   2.150   4.060   7.142 -1.8897 -1.2173 -0.4360
 4652SOL    HW225593   2.255   3.976   7.085 -0.5704  0.0619  2.4406
 4653SOL     OW25594   1.785   2.466   6.049 -0.3045 -0.3939  0.1123
 4653SOL    HW125595   1.754   2.411   6.122  0.0696  0.9057  1.2535
 4653SOL    HW225596   1.778   2.558   6.072  0.0908 -0.7587  1.7182
 4654SOL     OW25597   1.686   4.362   2.829  0.1459 -0.3376 -0.5039
 4654SOL    HW125598   1.775   4.328   2.835 -0.4961 -2.1113 -1.0979
 4654SOL    HW225599   1.674   4.411   2.910 -1.8313 -0.4193 -0.7372
 4655SOL     OW25600   0.232   4.730  11.244 -0.3946  0.0093 -0.9805
 4655SOL    HW125601   0.152   4.680  11.254 -0.2857 -0.0267 -0.2951
 4655SOL    HW225602   0.205   0.065  11.183 -0.8834  0.1710 -0.5697
 4656SOL     OW25603   3.058   2.889   2.624 -0.0676  0.1487  0.2066
 4656SOL    HW125604   3.092   2.910   2.710  2.1851  0.8304 -0.8585
 4656SOL    HW225605   3.143   2.903   2.582  1.2245 -4.6050  1.2232
 4657SOL     OW25606   1.358   1.487   0.928  0.5576 -0.0030 -0.5723
 4657SOL    HW125607   1.378   1.575   0.960 -1.2292  0.1400  0.1360
 4657SOL    HW225608   1.271   1.499   0.889 -0.0242 -1.0889  0.4063
 4658SOL     OW25609   4.579   2.137  13.954 -0.1233  0.1949  0.2643
 4658SOL    HW125610   4.527   2.089  13.889  0.4205 -0.1147  0.0496
 4658SOL    HW225611   4.522   2.188  14.012 -1.1017 -0.1359 -0.4040
 4659SOL     OW25612   1.415   3.225   6.052  0.2430 -0.1725  0.2579
 4659SOL    HW125613   1.343   3.287   6.066  0.5843 -0.3159  2.6159
 4659SOL    HW225614   1.388   3.143   6.092 -1.2643  0.2832  0.1940
 4660SOL     OW25615   4.121   2.758   4.587 -0.2466 -0.3138  0.1669
 4660SOL    HW125616   4.153   2.836   4.631  0.3267 -0.7110  0.4634
 4660SOL    HW225617   4.187   2.690   4.599 -0.5996 -0.5300  0.8753
 4661SOL     OW25618   0.081   4.414   4.031  0.1426  0.2976  0.5087
 4661SOL    HW125619   0.071   4.371   3.947  0.6178 -2.8772  2.0967
 4661SOL    HW225620   0.151   4.371   4.080 -0.1314 -0.5485  0.1472
 4662SOL     OW25621   1.133   3.039   5.718  0.3654 -0.5162 -0.2334
 4662SOL    HW125622   1.215   3.079   5.689  0.7068 -2.0479 -1.4051
 4662SOL    HW225623   1.096   3.108   5.772 -0.6842 -0.8285 -0.5572
 4663SOL     OW25624   2.300   1.277   8.382 -0.1189  0.7548 -0.3145
 4663SOL    HW125625   2.243   1.353   8.371  0.7674  1.3027 -1.1164
 4663SOL    HW225626   2.385   1.314   8.357  0.5487  0.2415  1.2026
 4664SOL     OW25627   0.218   1.672   2.713  0.1237  0.0441  0.1742
 4664SOL    HW125628   0.283   1.661   2.781  1.2040  0.5684 -0.7663
 4664SOL    HW225629   0.158   1.738   2.750  0.1236 -0.6598  1.4167
 4665SOL     OW25630   1.576   1.228   7.643 -0.3513  0.2513  0.5899
 4665SOL    HW125631   1.586   1.182   7.560  0.0721  3.1364 -0.9304
 4665SOL    HW225632   1.669   1.238   7.664 -0.8331  0.6841  2.4902
 4666SOL     OW25633   0.765   3.871   8.238 -0.6036 -0.1015  0.1378
 4666SOL    HW125634   0.774   3.917   8.321  0.5927 -0.9681  0.4864
 4666SOL    HW225635   0.811   3.791   8.261 -1.2542 -0.2307  0.9850
 4667SOL     OW25636   4.443   1.642  14.612 -0.4026 -0.1729 -0.3378
 4667SOL    HW125637   4.492   1.650  14.694  0.3026  2.4538 -1.0201
 4667SOL    HW225638   4.410   1.731  14.601 -0.7382 -0.2600 -0.0442
 4668SOL     OW25639   1.511   0.114  16.151  0.9250  0.4733  0.7865
 4668SOL    HW125640   1.505   0.139  16.059  0.9004  4.4542  1.8518
 4668SOL    HW225641   1.453   0.039  16.145 -1.2118  2.1352  0.7851
 4669SOL     OW25642   1.814   3.382   4.410 -0.3421 -0.1881 -0.2137
 4669SOL    HW125643   1.861   3.415   4.334  1.0674 -0.0807  0.7078
 4669SOL    HW225644   1.721   3.404   4.399 -1.1137 -2.8345  0.7547
 4670SOL     OW25645   3.437   0.213   2.501  0.2233 -0.6166  0.0700
 4670SOL    HW125646   3.348   0.246   2.489  0.2170 -0.0379  1.7116
 4670SOL    HW225647   3.437   0.203   2.596  0.4163 -0.8103  0.0494
 4671SOL     OW25648   1.813   1.705  13.510  0.3711 -0.0761  0.7981
 4671SOL    HW125649   1.883   1.728  13.449  0.0496 -0.6154  0.2298
 4671SOL    HW225650   1.847   1.767  13.574  0.4719 -0.5044  1.1575
 4672SOL     OW25651   4.412   2.130   6.222  0.1984 -0.1860 -0.0200
 4672SOL    HW125652   4.347   2.075   6.177  0.7003 -2.3490  1.9195
 4672SOL    HW225653   4.490   2.075   6.221  0.9973  0.9579 -0.1507
 4673SOL     OW25654   3.846   3.348   9.565 -0.2729  0.7743 -0.2111
 4673SOL    HW125655   3.840   3.289   9.640 -0.8091  1.8200  0.5629
 4673SOL    HW225656   3.915   3.319   9.505 -1.3862 -0.3267 -0.9717
 4674SOL     OW25657   1.090   0.880   3.965  0.1974 -0.2430 -0.8887
 4674SOL    HW125658   1.115   0.970   3.987 -1.1455 -0.3285  0.9694
 4674SOL    HW225659   1.008   0.884   3.916 -0.7288 -1.4233  0.5802
 4675SOL     OW25660   0.009   1.023   3.584  0.2179 -0.1409  0.4800
 4675SOL    HW125661   4.666   1.047   3.533  1.1390 -2.4101 -1.9603
 4675SOL    HW225662   4.728   0.929   3.578  0.1457 -0.2216  2.0305
 4676SOL     OW25663   0.484   2.842  14.865 -0.4788 -0.3886  0.5413
 4676SOL    HW125664   0.478   2.879  14.777  1.3267 -1.2885  0.0270
 4676SOL    HW225665   0.552   2.894  14.909 -0.0206 -0.9012  0.4477
 4677SOL     OW25666   0.050   3.545  16.176 -0.0051 -0.2054 -0.5086
 4677SOL    HW125667   0.047   3.554  16.080  0.7072  0.4210 -0.4691
 4677SOL    HW225668   0.005   3.465  16.205 -0.4590  0.5021  0.7128
 4678SOL     OW25669   4.200   3.279   5.189 -0.5210  0.0475 -0.4272
 4678SOL    HW125670   4.272   3.330   5.226  3.0601 -4.0790 -1.8017
 4678SOL    HW225671   4.252   3.209   5.151  0.0647  0.6942 -0.8197
 4679SOL     OW25672   0.685   1.822   9.038  1.1363 -0.4535  0.9955
 4679SOL    HW125673   0.740   1.851   9.112 -0.1689  0.2288  1.6963
 4679SOL    HW225674   0.644   1.904   9.010  1.2494 -0.2635  1.3715
 4680SOL     OW25675   2.077   0.375   9.125  0.2702  0.4186 -0.3205
 4680SOL    HW125676   2.148   0.312   9.130 -0.4154 -0.4658 -1.8411
 4680SOL    HW225677   2.075   0.417   9.211 -0.3982  3.6482 -1.9028
 4681SOL     OW25678   0.832   3.311   2.003 -0.0562  0.1657  0.9244
 4681SOL    HW125679   0.751   3.270   2.031  0.2283 -2.4027 -2.0579
 4681SOL    HW225680   0.809   3.404   2.006 -1.7609 -0.1735 -1.4556
 4682SOL     OW25681   0.038   2.848   8.891  0.1085 -0.2345  0.0636
 4682SOL    HW125682   0.106   2.896   8.939 -1.3633  1.3853  0.5214
 4682SOL    HW225683   0.003   2.789   8.957 -3.2948 -0.7257 -2.2153
 4683SOL     OW25684   1.513   0.850   8.274  0.3686  0.7330 -0.4939
 4683SOL    HW125685   1.484   0.764   8.244  0.6506 -0.7369  3.3658
 4683SOL    HW225686   1.607   0.847   8.257  0.5064  0.7022  0.2575
 4684SOL     OW25687   2.817   0.074   6.304 -0.2244  0.8195 -0.1632
 4684SOL    HW125688   2.849   0.153   6.259  1.9797  0.6167  1.0423
 4684SOL    HW225689   2.722   0.081   6.294 -0.3344 -2.0980 -0.9665
 4685SOL     OW25690   2.293   1.263   1.345 -0.4607 -0.3383 -0.7703
 4685SOL    HW125691   2.348   1.340   1.333 -0.9347 -0.0631 -1.2125
 4685SOL    HW225692   2.347   1.194   1.307  3.4489  0.7879  2.8080
 4686SOL     OW25693   1.334   3.547  11.594 -0.0901  0.6186  0.0758
 4686SOL    HW125694   1.353   3.530  11.502 -2.1768 -0.7700 -0.0750
 4686SOL    HW225695   1.400   3.489  11.633 -0.7688 -0.3042 -0.1492
 4687SOL     OW25696   0.263   2.951  11.973 -0.2761 -0.1648 -0.3973
 4687SOL    HW125697   0.181   2.966  12.020  0.5319 -0.7168  1.2004
 4687SOL    HW225698   0.278   3.034  11.927 -2.3749 -0.9248 -2.4813
 4688SOL     OW25699   2.968   2.937   9.805 -0.0569  0.4161 -0.0030
 4688SOL    HW125700   2.989   3.018   9.853  0.7674 -0.3496  0.9152
 4688SOL    HW225701   2.925   2.973   9.727  0.0785  2.3949  0.8289
 4689SOL     OW25702   4.336   1.144   9.177  0.0418  0.2294 -0.2585
 4689SOL    HW125703   4.372   1.076   9.234  2.7728  0.6812 -1.4493
 4689SOL    HW225704   4.318   1.096   9.096  1.3290 -1.0791  0.2376
 4690SOL     OW25705   4.594   1.560   7.162  0.7805 -0.2521 -0.7379
 4690SOL    HW125706   4.558   1.613   7.233  1.5335 -1.4532  0.5687
 4690SOL    HW225707   4.539   1.587   7.089  1.3973  0.1510 -1.0522
 4691SOL     OW25708   2.907   2.471  15.800  0.6182 -0.0799  0.4054
 4691SOL    HW125709   2.908   2.549  15.855 -2.3541 -1.3141  2.1722
 4691SOL    HW225710   2.997   2.459  15.769 -0.4172 -2.4533 -1.7430
 4692SOL     OW25711   3.850   3.369  14.186 -0.1202 -0.3836  0.4433
 4692SOL    HW125712   3.837   3.289  14.136 -1.0786 -0.4240  0.7626
 4692SOL    HW225713   3.814   3.439  14.131 -2.8069 -0.9515  1.4819
 4693SOL     OW25714   2.132   3.141   3.547 -0.2926  0.3255 -0.2080
 4693SOL    HW125715   2.042   3.131   3.576 -1.4616 -2.1436 -4.6749
 4693SOL    HW225716   2.181   3.139   3.629 -1.1378 -0.4621  0.2719
 4694SOL     OW25717   0.548   3.458   7.831 -0.4647  0.2031  0.1817
 4694SOL    HW125718   0.585   3.370   7.823 -2.1488 -0.5758  0.8305
 4694SOL    HW225719   0.516   3.471   7.920 -0.6977  0.8178  0.0126
 4695SOL     OW25720   1.176   0.483   7.239 -0.8029  0.1436  0.2195
 4695SOL    HW125721   1.256   0.525   7.205 -0.5391 -1.0001 -0.5928
 4695SOL    HW225722   1.219   0.417   7.293 -4.7447 -0.8909  2.0538
 4696SOL     OW25723   2.973   2.508   5.583 -0.2300  0.3283  0.4470
 4696SOL    HW125724   2.940   2.427   5.622 -0.5123  0.3160  0.1772
 4696SOL    HW225725   3.002   2.473   5.499 -1.5309 -1.3058  0.6807
 4697SOL     OW25726   2.158   0.581   1.496 -0.4016  0.1370  0.4931
 4697SOL    HW125727   2.148   0.564   1.402  0.5603  1.0395  0.2185
 4697SOL    HW225728   2.066   0.582   1.522 -0.4438  0.6758  0.3147
 4698SOL     OW25729   4.417   2.161   4.424  0.7445 -0.1541 -0.2736
 4698SOL    HW125730   4.395   2.169   4.331  0.5523 -1.8486 -0.3720
 4698SOL    HW225731   4.336   2.118   4.453 -0.9801  2.9645 -0.4424
 4699SOL     OW25732   3.950   1.171   3.802  0.3686  0.6400  0.0454
 4699SOL    HW125733   3.858   1.186   3.781  0.9091  2.7189 -0.8470
 4699SOL    HW225734   3.977   1.248   3.852 -1.2209  0.9006  0.4921
 4700SOL     OW25735   0.354   4.076   2.160 -0.0456 -0.1722  0.0215
 4700SOL    HW125736   0.291   4.086   2.089  0.4404  0.4517 -0.3210
 4700SOL    HW225737   0.435   4.054   2.114 -0.5033 -0.4408 -0.6641
 4701SOL     OW25738   1.609   0.934   5.554  0.0391 -0.1683  0.4849
 4701SOL    HW125739   1.599   0.990   5.477 -1.4414 -2.0220 -0.6625
 4701SOL    HW225740   1.624   1.005   5.616  0.0259 -0.2749  0.6102
 4702SOL     OW25741   0.182   1.357   5.243 -0.5156  0.0037 -0.0998
 4702SOL    HW125742   0.101   1.402   5.219 -0.6424 -0.0485  0.2301
 4702SOL    HW225743   0.153   1.288   5.303  0.6679 -0.9577 -0.6445
 4703SOL     OW25744   2.959   1.344   3.119  0.0975  0.1982  0.1091
 4703SOL    HW125745   2.988   1.399   3.046  0.7283 -1.2888 -0.7840
 4703SOL    HW225746   2.909   1.282   3.065 -2.1696  0.9499  1.3433
 4704SOL     OW25747   4.422   3.325   5.850 -0.1871  0.3618 -0.1024
 4704SOL    HW125748   4.516   3.334   5.831 -0.2102 -0.4373 -0.5908
 4704SOL    HW225749   4.389   3.300   5.764  0.2206  1.3091 -0.5275
 4705SOL     OW25750   1.249   0.851   7.670  0.0214 -0.2258  0.1434
 4705SOL    HW125751   1.162   0.818   7.695  0.0431 -1.0939 -0.9400
 4705SOL    HW225752   1.271   0.780   7.609 -1.6694 -0.2221 -0.4823
 4706SOL     OW25753   0.241   3.781  16.904 -0.1336  0.0682  0.2713
 4706SOL    HW125754   0.185   3.837  16.851 -0.5654  1.2575  1.9951
 4706SOL    HW225755   0.234   3.695  16.862  1.5287  0.1893 -0.2570
 4707SOL     OW25756   3.468   4.617   2.189  0.2215 -0.3743 -0.2188
 4707SOL    HW125757   3.413   4.668   2.131  0.0649 -1.7658 -1.3117
 4707SOL    HW225758   3.501   4.683   2.251 -1.3830 -1.8934  2.2860
 4708SOL     OW25759   0.851   1.976   6.076 -0.1156  0.0694  0.1867
 4708SOL    HW125760   0.780   1.997   6.136 -2.2407 -1.5586 -1.7454
 4708SOL    HW225761   0.857   2.052   6.017  0.1691 -0.0640  0.0419
 4709SOL     OW25762   2.807   0.224  12.888 -0.2728 -0.2324  0.8023
 4709SOL    HW125763   2.876   0.252  12.949 -0.5139  1.3449  0.3461
 4709SOL    HW225764   2.733   0.281  12.904 -0.6820 -0.2385 -0.9959
 4710SOL     OW25765   2.349   1.261   5.794  0.1402 -0.1320  0.5607
 4710SOL    HW125766   2.374   1.231   5.881  0.8966 -0.5316  0.2097
 4710SOL    HW225767   2.259   1.233   5.806  0.2634 -0.2622  1.1514
 4711SOL     OW25768   4.596   3.417   6.081  0.5609  0.4553 -0.0606
 4711SOL    HW125769   4.508   3.435   6.047  0.2043 -3.1056 -1.0231
 4711SOL    HW225770   4.644   3.480   6.027  3.4678 -0.5549  1.3920
 4712SOL     OW25771   2.695   1.683   3.025  0.4425 -0.9476 -0.2399
 4712SOL    HW125772   2.668   1.600   2.985 -2.9546  0.2313 -0.4127
 4712SOL    HW225773   2.741   1.649   3.102 -0.7184  1.2172  1.4032
 4713SOL     OW25774   4.433   1.592   3.242  0.2563  0.0580  0.0340
 4713SOL    HW125775   4.468   1.521   3.188 -1.3892 -0.6942 -0.0294
 4713SOL    HW225776   4.354   1.549   3.275 -0.4495  1.3989  0.1097
 4714SOL     OW25777   4.384   0.503   1.287  0.0936  0.1395 -0.1798
 4714SOL    HW125778   4.375   0.580   1.231 -1.3338  0.0767 -0.0313
 4714SOL    HW225779   4.328   0.438   1.246 -0.2712  0.3661 -0.0452
 4715SOL     OW25780   1.218   2.361   4.691 -0.4515  0.0821 -0.3776
 4715SOL    HW125781   1.123   2.370   4.690 -0.3323  1.5796  1.1108
 4715SOL    HW225782   1.212   2.266   4.700 -0.5968  0.0431 -0.9068
 4716SOL     OW25783   2.254   4.545   8.573  0.0930 -0.6685  0.1283
 4716SOL    HW125784   2.262   4.637   8.595 -1.0536 -0.4629 -0.2958
 4716SOL    HW225785   2.339   4.511   8.601 -0.4888 -1.4192  1.0065
 4717SOL     OW25786   0.478   1.190   0.297  0.2657  0.3106  0.4565
 4717SOL    HW125787   0.574   1.187   0.293  0.2318  0.7013 -0.5000
 4717SOL    HW225788   0.466   1.104   0.257  1.1023  0.0780  0.7044
 4718SOL     OW25789   0.095   0.250   2.418 -0.7186  0.3761  0.1374
 4718SOL    HW125790   0.106   0.319   2.484 -1.0247  1.6174 -1.1230
 4718SOL    HW225791   0.179   0.256   2.372 -1.9747  1.8302 -1.9229
 4719SOL     OW25792   4.503   4.613   2.178  0.0932  0.0345  0.7367
 4719SOL    HW125793   4.440   4.657   2.236  0.6168 -0.5938  1.7705
 4719SOL    HW225794   4.487   4.520   2.190 -3.2900  0.4073 -0.8107
 4720SOL     OW25795   3.555   2.885   7.843 -0.1898 -0.0133 -0.2276
 4720SOL    HW125796   3.510   2.963   7.812 -0.1955 -0.3710 -1.1343
 4720SOL    HW225797   3.577   2.909   7.933 -2.6990 -0.5407  0.5248
 4721SOL     OW25798   2.548   0.210   7.055  0.1006  0.4591  0.4634
 4721SOL    HW125799   2.489   0.281   7.032 -0.6164 -0.1051  0.5540
 4721SOL    HW225800   2.553   0.160   6.973 -2.6287 -1.3684  1.4065
 4722SOL     OW25801   3.379   1.289   5.879  0.4314 -0.0369  0.1755
 4722SOL    HW125802   3.368   1.323   5.968 -2.5709  1.1605 -0.6329
 4722SOL    HW225803   3.473   1.271   5.879  0.4845  0.2577  1.4947
 4723SOL     OW25804   0.700   1.141   4.283 -0.4896 -0.2122 -0.0843
 4723SOL    HW125805   0.791   1.167   4.271 -0.7331  0.9961  0.7746
 4723SOL    HW225806   0.663   1.220   4.323  0.5447 -1.3037  3.0793
 4724SOL     OW25807   4.223   0.219  12.562 -0.4139  0.0562 -0.0433
 4724SOL    HW125808   4.257   0.166  12.490 -1.5012  1.6112 -1.7029
 4724SOL    HW225809   4.250   0.309  12.542  1.1006 -0.6593 -1.2108
 4725SOL     OW25810   0.461   2.953   7.779  0.1717  0.1010  0.6001
 4725SOL    HW125811   0.376   2.992   7.799  0.6520  1.6708 -0.4454
 4725SOL    HW225812   0.514   3.032   7.785  0.5294 -0.1204  0.3313
 4726SOL     OW25813   3.109   3.753   4.653  0.0261  0.6458  0.3968
 4726SOL    HW125814   3.165   3.676   4.654  2.3756  2.3553 -1.5104
 4726SOL    HW225815   3.095   3.769   4.747 -0.0517  0.7152  0.3732
 4727SOL     OW25816   1.736   1.243  10.252 -0.2453  0.4967  0.6014
 4727SOL    HW125817   1.646   1.243  10.218 -0.3438  0.1283  0.8689
 4727SOL    HW225818   1.774   1.184  10.187 -1.1972  0.8281 -0.2729
 4728SOL     OW25819   0.849   1.223  11.092 -0.4897 -0.6547 -0.0374
 4728SOL    HW125820   0.872   1.265  11.175  2.9020 -1.1533 -0.7045
 4728SOL    HW225821   0.831   1.299  11.037  0.6679 -0.9177 -0.7863
 4729SOL     OW25822   3.779   4.559   3.166  0.3196  0.5871  0.1139
 4729SOL    HW125823   3.812   4.489   3.222  3.1062  0.7944 -1.2419
 4729SOL    HW225824   3.707   4.515   3.122 -0.1988  2.1747 -0.6472
 4730SOL     OW25825   1.342   1.838   1.575  0.4552 -0.6725  0.1442
 4730SOL    HW125826   1.304   1.866   1.491  2.4243 -1.5769 -1.0502
 4730SOL    HW225827   1.323   1.917   1.626 -1.0234 -1.1586  0.3370
 4731SOL     OW25828   3.267   1.616   3.568 -0.4506  0.3562  0.3340
 4731SOL    HW125829   3.172   1.625   3.572 -0.4945  0.4490 -0.9133
 4731SOL    HW225830   3.276   1.617   3.473  0.2251  0.7634  0.4045
 4732SOL     OW25831   1.886   1.029  15.979  0.1114 -0.4142 -0.1776
 4732SOL    HW125832   1.883   0.956  16.041  0.0764  0.5580  0.9538
 4732SOL    HW225833   1.800   1.015  15.938  1.8193 -0.2851 -3.7558
 4733SOL     OW25834   1.211   1.277   9.689 -0.1658  0.3117 -0.2601
 4733SOL    HW125835   1.173   1.355   9.728 -0.0473  1.6320 -2.7745
 4733SOL    HW225836   1.154   1.216   9.735  0.2785  0.3700  0.3634
 4734SOL     OW25837   3.173   4.299   9.538  0.3844 -0.1768  0.3341
 4734SOL    HW125838   3.242   4.365   9.525  1.1951 -1.0338  0.2352
 4734SOL    HW225839   3.225   4.226   9.572  0.3994 -0.3625 -0.0847
 4735SOL     OW25840   3.104   4.327  10.908  0.9301  0.4022  0.2327
 4735SOL    HW125841   3.088   4.264  10.978  0.0712  0.2264 -0.1188
 4735SOL    HW225842   3.092   4.415  10.946  1.0217  0.4108  0.2415
 4736SOL     OW25843   0.171   1.598  15.930  0.1744  0.1829 -0.0974
 4736SOL    HW125844   0.106   1.572  15.864 -0.2474 -1.4101  0.9423
 4736SOL    HW225845   0.168   1.538  16.005 -1.2277  0.0573 -0.2485
 4737SOL     OW25846   0.469   4.651   8.690 -0.0099 -0.4459  0.5815
 4737SOL    HW125847   0.448   4.563   8.719 -0.0890 -0.0934  1.5938
 4737SOL    HW225848   0.499   4.690   8.772  0.8458 -0.0299  0.0663
 4738SOL     OW25849   4.012   1.766   2.893  0.1634  0.0779  0.0316
 4738SOL    HW125850   4.007   1.775   2.988  0.5861  0.0670  0.0552
 4738SOL    HW225851   4.064   1.843   2.867  0.2306 -0.4746 -1.4769
 4739SOL     OW25852   1.662   1.170   0.678 -0.1530 -0.0977 -0.1777
 4739SOL    HW125853   1.570   1.194   0.664 -0.8404 -0.1888  4.4051
 4739SOL    HW225854   1.697   1.257   0.663 -0.7406  0.2713  0.6143
 4740SOL     OW25855   4.484   4.679   1.907  0.2204 -0.3326  0.4385
 4740SOL    HW125856   4.474   4.638   1.993 -0.9827 -0.3276  0.2978
 4740SOL    HW225857   4.528   4.610   1.858 -0.6371  0.2853 -1.1958
 4741SOL     OW25858   3.617   4.053   6.305  0.2152  0.1200 -0.1595
 4741SOL    HW125859   3.685   4.059   6.372 -1.0190  1.3918  0.9810
 4741SOL    HW225860   3.553   3.998   6.351  0.6332  1.0026  1.4615
 4742SOL     OW25861   2.149   2.076   3.945 -0.3004 -0.2417 -0.7727
 4742SOL    HW125862   2.157   1.990   3.902 -1.0154 -0.1422 -1.1001
 4742SOL    HW225863   2.239   2.109   3.949 -0.4305 -0.1118  0.7908
 4743SOL     OW25864   4.188   0.564   3.877 -0.0534 -0.2741 -0.4536
 4743SOL    HW125865   4.197   0.496   3.810 -0.7757 -0.1552 -0.6623
 4743SOL    HW225866   4.270   0.575   3.926 -0.3300  0.3316 -0.1209
 4744SOL     OW25867   3.383   0.939   2.386 -0.0642  0.1653  0.4017
 4744SOL    HW125868   3.418   0.939   2.297 -2.1906 -3.0592 -0.4251
 4744SOL    HW225869   3.348   1.028   2.388  0.9939  0.5987 -0.3941
 4745SOL     OW25870   4.727   3.353   0.989  0.2199 -0.3162  0.1450
 4745SOL    HW125871   4.706   3.316   1.075 -0.7752  0.7807  0.3651
 4745SOL    HW225872   0.038   3.278   0.950 -0.4801 -0.8191  0.2883
 4746SOL     OW25873   2.186   0.128   8.983  0.0631 -0.0164 -0.5056
 4746SOL    HW125874   2.165   0.047   8.937  4.0167  0.0082 -2.3405
 4746SOL    HW225875   2.278   0.143   8.964 -0.3350  0.2059 -2.2489
 4747SOL     OW25876   2.932   2.329   4.503 -0.4521  0.4386  0.1259
 4747SOL    HW125877   2.966   2.258   4.448 -0.8015  0.5881 -0.2901
 4747SOL    HW225878   2.959   2.296   4.588  1.3264  0.4941 -0.4105
 4748SOL     OW25879   3.232   0.546   9.636 -0.0127 -0.1564  0.0471
 4748SOL    HW125880   3.315   0.505   9.615  1.1054  1.5748  1.0539
 4748SOL    HW225881   3.221   0.593   9.553 -0.0204  1.4964  0.9880
 4749SOL     OW25882   0.416   2.773  16.377  0.3064  0.2164 -0.2043
 4749SOL    HW125883   0.369   2.691  16.361 -1.4223  1.3458 -0.8380
 4749SOL    HW225884   0.464   2.758  16.459 -1.9535  1.3950  1.3274
 4750SOL     OW25885   0.163   4.589   2.260  0.0951 -0.9848  0.2361
 4750SOL    HW125886   0.076   4.627   2.277  1.8577  3.6716 -1.1465
 4750SOL    HW225887   0.217   4.634   2.325  2.2475 -0.0376 -2.1899
 4751SOL     OW25888   4.606   3.842   3.625  0.3360 -0.0466 -0.1396
 4751SOL    HW125889   4.561   3.763   3.653  0.8390 -1.5602 -3.5255
 4751SOL    HW225890   4.694   3.804   3.623  0.5890  0.5114  0.3691
 4752SOL     OW25891   2.012   4.198   8.656 -0.1225  0.4581 -0.2078
 4752SOL    HW125892   2.013   4.139   8.581  0.4446  1.4366 -0.9806
 4752SOL    HW225893   1.927   4.237   8.636 -0.1899  0.8938  0.9044
 4753SOL     OW25894   1.545   2.957   2.494 -0.3436 -0.8250 -0.1771
 4753SOL    HW125895   1.597   2.961   2.574 -1.1911 -1.9931  0.4381
 4753SOL    HW225896   1.468   2.993   2.539  0.7620  1.0685  0.2033
 4754SOL     OW25897   4.020   2.512  12.214 -0.2917 -0.2257  0.4524
 4754SOL    HW125898   3.997   2.500  12.121  0.5507 -0.7577  0.3096
 4754SOL    HW225899   3.934   2.515  12.255  0.5636  0.1198  2.2013
 4755SOL     OW25900   1.619   2.467   4.271  0.1326 -0.0329 -0.0183
 4755SOL    HW125901   1.535   2.488   4.311  0.3552  0.1100  0.3715
 4755SOL    HW225902   1.651   2.393   4.324 -0.4076  0.2840  0.7473
 4756SOL     OW25903   0.143   2.233   8.971 -0.3971  0.4315  0.1297
 4756SOL    HW125904   0.168   2.146   9.003 -0.5430  0.4890  0.4044
 4756SOL    HW225905   0.093   2.267   9.045 -0.5755  0.0504  0.1833
 4757SOL     OW25906   0.044   0.580   8.204 -0.1784 -0.0318  0.1394
 4757SOL    HW125907   4.706   0.639   8.179  1.0314  0.6143 -1.8556
 4757SOL    HW225908   0.107   0.598   8.134 -1.0012 -1.0082 -0.8588
 4758SOL     OW25909   1.620   4.355   4.397  0.3503  0.6817 -0.2235
 4758SOL    HW125910   1.622   4.415   4.323  0.2629 -1.3640 -1.8817
 4758SOL    HW225911   1.543   4.378   4.449  0.6993 -1.4810  1.2591
 4759SOL     OW25912   4.304   3.199   6.424  0.6804  0.5992  0.5707
 4759SOL    HW125913   4.376   3.237   6.474  0.5211 -1.2683  2.2443
 4759SOL    HW225914   4.229   3.205   6.484  0.9971 -1.4325  1.1696
 4760SOL     OW25915   4.316   3.510   1.184 -0.8513  0.1796  0.0046
 4760SOL    HW125916   4.351   3.459   1.111 -1.6599 -1.8223  1.0044
 4760SOL    HW225917   4.223   3.496   1.164 -1.6303 -0.7588  4.3498
 4761SOL     OW25918   2.902   2.022   6.961 -0.7156  0.3792  0.4354
 4761SOL    HW125919   2.875   1.938   6.925  0.7528  0.4489 -0.8280
 4761SOL    HW225920   2.900   2.075   6.881  1.3945  2.5785  1.8163
 4762SOL     OW25921   2.404   1.808  10.456 -0.1185 -0.1221  0.4898
 4762SOL    HW125922   2.444   1.873  10.514 -0.2674 -2.2509  3.0126
 4762SOL    HW225923   2.318   1.810  10.499 -0.9690  0.0701 -1.2454
 4763SOL     OW25924   1.659   4.203   8.826 -0.0598 -0.3067  0.2987
 4763SOL    HW125925   1.707   4.245   8.897 -2.0284  1.1185  0.7776
 4763SOL    HW225926   1.615   4.129   8.866 -3.4082  0.8449 -1.2737
 4764SOL     OW25927   0.508   1.105   8.457 -0.5869 -0.3142 -0.2795
 4764SOL    HW125928   0.547   1.142   8.536 -0.6163  0.3460 -0.5763
 4764SOL    HW225929   0.482   1.186   8.414  1.2900 -0.0859 -0.9633
 4765SOL     OW25930   1.226   3.295  11.517  0.1386  0.2866  0.6683
 4765SOL    HW125931   1.253   3.343  11.438  0.9337  0.3497  0.9714
 4765SOL    HW225932   1.310   3.274  11.558  0.4596 -0.3661 -0.3192
 4766SOL     OW25933   3.557   2.329   3.147 -0.7982 -0.7000  0.0648
 4766SOL    HW125934   3.496   2.333   3.220 -0.1978  0.3584  0.4996
 4766SOL    HW225935   3.600   2.250   3.180  2.3380  0.8238 -0.4098
 4767SOL     OW25936   1.404   1.196   6.244 -0.7020 -0.2184  0.0538
 4767SOL    HW125937   1.440   1.123   6.194  1.0761 -0.3534  1.5439
 4767SOL    HW225938   1.312   1.197   6.219 -0.8919 -0.7422  0.7565
 4768SOL     OW25939   2.321   1.124   7.458  0.0425  0.1761  0.1878
 4768SOL    HW125940   2.251   1.188   7.473 -0.5706 -0.1955 -1.1808
 4768SOL    HW225941   2.389   1.180   7.420  0.3928  1.2719  2.4222
 4769SOL     OW25942   2.107   3.464   9.069  0.3622  0.0432  0.3194
 4769SOL    HW125943   2.047   3.399   9.034  1.5386 -0.3088 -1.0885
 4769SOL    HW225944   2.185   3.437   9.019 -0.5719 -1.5869 -0.2342
 4770SOL     OW25945   4.242   4.624   1.144  0.1390  0.0051  0.2293
 4770SOL    HW125946   4.169   4.603   1.202 -1.3345 -0.1317 -1.6731
 4770SOL    HW225947   4.295   4.547   1.163 -2.5493 -2.1314 -1.0109
 4771SOL     OW25948   1.504   0.605   7.697  0.1849 -0.0708  0.1273
 4771SOL    HW125949   1.584   0.584   7.746  1.2370  1.8569 -0.7452
 4771SOL    HW225950   1.439   0.557   7.747 -2.4250  2.1426 -1.1773
 4772SOL     OW25951   3.175   2.456   4.282  0.0598 -0.0597  1.2625
 4772SOL    HW125952   3.157   2.362   4.270 -0.3556  0.3685 -1.3523
 4772SOL    HW225953   3.229   2.473   4.205  0.0115  0.9153  1.4497
 4773SOL     OW25954   0.190   2.566   3.166 -0.9436  0.2447  0.2726
 4773SOL    HW125955   0.257   2.503   3.140 -0.2553  1.2843 -0.5004
 4773SOL    HW225956   0.173   2.610   3.082 -0.0589 -1.9679 -1.0778
 4774SOL     OW25957   4.187   0.325   4.500  0.5858 -0.0598  0.2782
 4774SOL    HW125958   4.211   0.253   4.443 -2.4635  0.1014 -1.2300
 4774SOL    HW225959   4.098   0.303   4.530  1.1937 -1.9481  0.6878
 4775SOL     OW25960   2.886   3.606  13.659 -0.2342 -0.0613  0.1841
 4775SOL    HW125961   2.797   3.636  13.641 -0.1503  1.5869  2.5300
 4775SOL    HW225962   2.891   3.630  13.752 -1.2514 -0.6075  0.3886
 4776SOL     OW25963   1.351   2.504  16.603 -0.0991 -0.0971 -0.3969
 4776SOL    HW125964   1.434   2.470  16.635 -0.1968  0.1814  0.1496
 4776SOL    HW225965   1.359   2.592  16.640  0.7306 -0.4840  0.3491
 4777SOL     OW25966   2.097   4.279   5.070 -0.1702 -0.3484 -0.3771
 4777SOL    HW125967   2.181   4.293   5.113  0.1055 -4.4569  0.4466
 4777SOL    HW225968   2.046   4.351   5.106  0.1917 -0.0432 -0.4841
 4778SOL     OW25969   2.908   1.970  14.468  0.2990 -0.6741 -0.6930
 4778SOL    HW125970   2.999   1.950  14.491 -0.5181 -3.4935  0.1032
 4778SOL    HW225971   2.847   1.909  14.509  0.9197 -1.5660 -1.1089
 4779SOL     OW25972   3.932   3.352   5.762  0.0120 -0.0733 -0.1756
 4779SOL    HW125973   3.861   3.298   5.727  0.1454 -0.4631  0.1596
 4779SOL    HW225974   3.968   3.381   5.678  0.2353 -1.2423 -0.4829
 4780SOL     OW25975   2.975   1.745   1.395  0.2557 -0.0512  0.0858
 4780SOL    HW125976   2.934   1.661   1.415 -0.3602 -0.3012 -2.2307
 4780SOL    HW225977   2.963   1.785   1.480  1.1234  2.1291 -0.8309
 4781SOL     OW25978   3.055   2.040   7.574  0.0115  0.0884  0.0752
 4781SOL    HW125979   3.039   2.059   7.482 -1.1608 -0.2728  0.1981
 4781SOL    HW225980   3.148   2.020   7.578  0.4731  2.5242  1.1517
 4782SOL     OW25981   2.805   4.506   8.455 -0.4204 -0.5582 -0.0456
 4782SOL    HW125982   2.853   4.439   8.503  0.2425 -1.1680 -1.5544
 4782SOL    HW225983   2.860   4.525   8.379  0.3862  3.4534  1.5724
 4783SOL     OW25984   3.170   0.874  16.497  0.8815 -0.6779  0.6756
 4783SOL    HW125985   3.260   0.887  16.468  1.2259 -0.4893  1.8019
 4783SOL    HW225986   3.152   0.785  16.527  1.7009 -0.6003  1.3987
 4784SOL     OW25987   2.684   4.153  14.776 -0.2615  0.0656  1.3608
 4784SOL    HW125988   2.618   4.130  14.711  1.5326  0.8391 -0.7217
 4784SOL    HW225989   2.691   4.079  14.837  2.3354 -0.6227  0.2471
 4785SOL     OW25990   0.706   3.659   1.744 -0.0006  1.0045 -0.0820
 4785SOL    HW125991   0.628   3.714   1.739 -0.4460  0.4347  0.5842
 4785SOL    HW225992   0.766   3.723   1.782 -2.3988  2.9991  0.4084
 4786SOL     OW25993   1.614   2.263   5.928 -0.6728  0.4439 -0.2961
 4786SOL    HW125994   1.707   2.285   5.936 -0.6563  1.0313 -2.0286
 4786SOL    HW225995   1.576   2.321   5.993 -3.4233 -2.4955  0.7203
 4787SOL     OW25996   3.574   0.649   9.344 -0.3402 -0.0390 -1.2024
 4787SOL    HW125997   3.594   0.613   9.431 -0.4195  1.3223 -0.6276
 4787SOL    HW225998   3.610   0.736   9.358  1.1487 -0.6707 -1.0552
 4788SOL     OW25999   1.195   1.773  10.088  0.1377 -0.1869 -0.3012
 4788SOL    HW126000   1.129   1.833  10.052  0.6335  1.2514  1.1633
 4788SOL    HW226001   1.176   1.801  10.177 -0.0893 -1.7821  0.1399
 4789SOL     OW26002   1.019   3.254  11.369 -0.4752  0.0699 -0.2270
 4789SOL    HW126003   1.052   3.198  11.299  0.2214 -0.9943  0.9720
 4789SOL    HW226004   1.096   3.274  11.422  0.7326 -2.7706 -0.9375
 4790SOL     OW26005   3.965   0.775  15.034 -0.6918  0.2851  0.2827
 4790SOL    HW126006   3.871   0.786  15.020 -0.2524  0.2122 -2.7076
 4790SOL    HW226007   3.966   0.711  15.106 -0.7243  0.0546  0.0798
 4791SOL     OW26008   1.433   0.520   1.707  0.4014  0.5212 -0.0068
 4791SOL    HW126009   1.498   0.538   1.639 -0.0843  3.3337  0.2358
 4791SOL    HW226010   1.478   0.554   1.784 -0.0506  1.1042  0.0030
 4792SOL     OW26011   2.043   0.300  15.286 -0.4472  0.7811 -0.1303
 4792SOL    HW126012   1.962   0.305  15.337  0.6433 -0.6946  1.7145
 4792SOL    HW226013   2.014   0.265  15.201 -1.2785  1.2777 -0.0537
 4793SOL     OW26014   2.091   3.826   8.662 -0.4954  0.2318 -0.0706
 4793SOL    HW126015   2.160   3.763   8.685 -0.1073  0.3125 -0.9864
 4793SOL    HW226016   2.137   3.907   8.684 -0.5364  0.7406 -1.8569
 4794SOL     OW26017   4.261   0.006   8.198  0.3093  0.4954 -0.3344
 4794SOL    HW126018   4.259   0.100   8.179  0.3595  0.1667 -2.0032
 4794SOL    HW226019   4.355   4.723   8.195  0.3416  0.5000  0.7962
 4795SOL     OW26020   3.316   2.127   2.276 -0.2126 -0.4777  0.3986
 4795SOL    HW126021   3.367   2.202   2.304 -0.0987 -0.9826  1.5437
 4795SOL    HW226022   3.234   2.173   2.294  1.0630  1.1454  1.9697
 4796SOL     OW26023   1.762   1.916   1.864  0.2673 -0.0371 -0.0870
 4796SOL    HW126024   1.845   1.900   1.819  0.8411  1.2406  0.5227
 4796SOL    HW226025   1.699   1.881   1.801  0.4079  0.5158 -0.5408
 4797SOL     OW26026   0.788   0.045   2.962 -0.0539  0.0328 -0.2376
 4797SOL    HW126027   0.789   4.686   2.983 -0.7154  0.3980  1.4140
 4797SOL    HW226028   0.697   0.075   2.968 -0.9396 -2.4750 -1.3095
 4798SOL     OW26029   4.718   3.494  15.900 -0.5297 -0.0725  0.1072
 4798SOL    HW126030   4.691   3.407  15.873  2.5609 -0.0561 -2.9982
 4798SOL    HW226031   0.065   3.511  15.852  0.0861 -1.3926  0.6772
 4799SOL     OW26032   1.673   3.325  15.618 -0.0222 -0.0110 -0.4152
 4799SOL    HW126033   1.712   3.329  15.531  2.2913  1.7958  0.6750
 4799SOL    HW226034   1.654   3.418  15.634 -0.0262 -0.0344 -0.2789
 4800SOL     OW26035   3.125   1.772  10.449 -0.1404  0.3678 -0.0487
 4800SOL    HW126036   3.217   1.782  10.472 -0.7132  1.4249  1.8799
 4800SOL    HW226037   3.092   1.764  10.539 -0.9366 -0.9105 -0.4447
 4801SOL     OW26038   4.159   4.603   6.989  0.7093  0.2514 -0.0240
 4801SOL    HW126039   4.129   4.693   6.976  2.1065  0.5129 -1.4817
 4801SOL    HW226040   4.215   4.607   7.066 -0.7596 -1.5644  1.1211
 4802SOL     OW26041   0.167   1.458   0.063  0.0207 -0.2879 -0.1334
 4802SOL    HW126042   0.096   1.513   0.097  1.5983  0.6611  1.5981
 4802SOL    HW226043   0.138   1.368   0.080  0.9035 -0.9637 -2.2263
 4803SOL     OW26044   4.141   1.257   7.496 -0.5859 -0.2005  0.3581
 4803SOL    HW126045   4.214   1.305   7.458 -0.4261  1.0232  2.1987
 4803SOL    HW226046   4.065   1.260   7.437  0.7926  2.1355 -1.2833
 4804SOL     OW26047   0.300   1.469   4.565  0.3874  0.0945 -0.1370
 4804SOL    HW126048   0.233   1.487   4.630 -2.7703 -0.0604 -3.3207
 4804SOL    HW226049   0.347   1.395   4.603 -0.2344 -0.0471  0.3485
 4805SOL     OW26050   1.827   3.674   8.318  0.2073 -0.0120  0.5481
 4805SOL    HW126051   1.893   3.608   8.340 -1.1128 -1.6952 -0.5513
 4805SOL    HW226052   1.849   3.752   8.368  0.9329  0.0596  0.1224
 4806SOL     OW26053   4.401   2.415   4.282 -0.7045 -0.0912 -0.7023
 4806SOL    HW126054   4.474   2.356   4.299 -0.5810  0.5435  0.9224
 4806SOL    HW226055   4.439   2.501   4.300  0.8335 -0.9604  0.2142
 4807SOL     OW26056   0.038   3.790   0.720 -0.3493 -0.9240  0.6914
 4807SOL    HW126057   0.120   3.809   0.764 -0.1962 -0.3337  0.1534
 4807SOL    HW226058   4.713   3.845   0.771 -0.3875  0.9094 -1.3309
 4808SOL     OW26059   4.613   3.648  14.737 -0.0034 -0.9399 -0.0759
 4808SOL    HW126060   4.634   3.572  14.683 -0.6814 -1.7102  0.7591
 4808SOL    HW226061   4.518   3.642  14.733 -0.2051  0.1716  3.2221
 4809SOL     OW26062   1.265   1.032   5.555 -0.2876  0.1116  0.0254
 4809SOL    HW126063   1.180   1.020   5.511 -0.2529 -1.4892  0.3856
 4809SOL    HW226064   1.325   1.057   5.485 -0.3834  1.4620  0.4284
 4810SOL     OW26065   0.300   1.767  12.731 -0.3537  0.3502 -0.2206
 4810SOL    HW126066   0.378   1.811  12.765 -1.3834  2.7003 -0.9191
 4810SOL    HW226067   0.327   1.735  12.645 -0.0911 -0.9720  0.3500
 4811SOL     OW26068   4.640   2.330   0.046  0.6443  0.0983 -0.3906
 4811SOL    HW126069   4.733   2.343   0.028  0.7632 -0.9917 -0.5556
 4811SOL    HW226070   4.621   2.241   0.015 -0.3221 -0.2947  1.2478
 4812SOL     OW26071   3.419   4.720   5.245  0.0640 -0.5550 -0.3824
 4812SOL    HW126072   3.406   4.656   5.315 -0.5299  1.5077  1.4362
 4812SOL    HW226073   3.511   4.710   5.220  0.4730 -0.1169  0.8874
 4813SOL     OW26074   1.601   2.167   7.728 -0.9912  0.3245  0.3650
 4813SOL    HW126075   1.675   2.170   7.667 -1.3477  0.3644 -0.0608
 4813SOL    HW226076   1.623   2.091   7.782  2.0529  0.8978 -0.0457
 4814SOL     OW26077   3.655   3.930   5.256  0.0133  0.5174 -0.2368
 4814SOL    HW126078   3.656   3.861   5.189 -0.3859 -2.6675  3.0411
 4814SOL    HW226079   3.733   3.905   5.307 -1.0279 -0.9899  0.6204
 4815SOL     OW26080   2.961   1.702   7.065 -0.2923 -0.2143 -0.4073
 4815SOL    HW126081   2.910   1.751   7.129 -0.5084 -1.0245  0.0385
 4815SOL    HW226082   2.950   1.754   6.986  1.2388  0.9014  0.1281
 4816SOL     OW26083   0.395   0.935   0.174  0.3377 -0.3265 -0.0321
 4816SOL    HW126084   0.425   0.973   0.091 -0.4650 -0.8538 -0.5630
 4816SOL    HW226085   0.301   0.931   0.157  0.2969 -1.4507  0.4851
 4817SOL     OW26086   3.234   2.358   6.257  0.5636 -0.6577 -0.4400
 4817SOL    HW126087   3.324   2.377   6.284 -0.6615 -0.8401  3.7831
 4817SOL    HW226088   3.246   2.275   6.211 -0.4267 -0.0473 -1.7907
 4818SOL     OW26089   3.076   2.767   6.014 -0.0671 -0.6293  0.8174
 4818SOL    HW126090   2.987   2.761   5.979  0.2230  0.9872 -0.1719
 4818SOL    HW226091   3.122   2.721   5.944 -0.7350  1.4145 -0.9601
 4819SOL     OW26092   1.885   0.663   5.505 -0.4347  0.0932  0.6246
 4819SOL    HW126093   1.964   0.609   5.500  0.1802  0.8129  2.6910
 4819SOL    HW226094   1.925   0.747   5.527  0.5749 -0.2100 -0.0623
 4820SOL     OW26095   4.218   3.421   4.288  0.0205 -0.0738 -0.0293
 4820SOL    HW126096   4.272   3.412   4.210  0.1714  1.8240 -0.1362
 4820SOL    HW226097   4.187   3.330   4.292  1.1372 -0.5261 -1.4201
 4821SOL     OW26098   3.398   0.487   7.762 -0.0798 -0.1404  0.9837
 4821SOL    HW126099   3.319   0.527   7.800 -0.5582 -0.0213 -0.1287
 4821SOL    HW226100   3.418   0.557   7.701  0.3910 -0.8231  0.3616
 4822SOL     OW26101   4.654   2.259  10.462  0.4532 -0.1221  0.1652
 4822SOL    HW126102   4.720   2.287  10.525 -0.9319  0.7409  1.2364
 4822SOL    HW226103   4.676   2.319  10.390 -0.2611  0.6575  0.5897
 4823SOL     OW26104   4.186   1.135   3.664  0.1399  0.1401  0.0698
 4823SOL    HW126105   4.228   1.155   3.748 -1.5650  1.5505  0.5882
 4823SOL    HW226106   4.102   1.181   3.666  0.0581 -0.0459  0.9110
 4824SOL     OW26107   1.945   1.725   7.628  0.6028 -0.1224  0.5700
 4824SOL    HW126108   1.989   1.798   7.670  1.4013 -1.3559  1.8780
 4824SOL    HW226109   1.921   1.675   7.706  3.0842  0.0298  1.4063
 4825SOL     OW26110   3.471   0.400   6.157 -1.2906 -0.3349  0.0294
 4825SOL    HW126111   3.452   0.307   6.144 -1.8465 -0.0531 -1.1453
 4825SOL    HW226112   3.545   0.421   6.100  0.2209 -2.6845  1.1237
 4826SOL     OW26113   4.065   3.417  13.760  0.0907 -0.1124  0.0001
 4826SOL    HW126114   4.073   3.428  13.854 -1.0177  0.1962  0.0583
 4826SOL    HW226115   4.156   3.438  13.740  0.1930 -1.9545 -1.4536
 4827SOL     OW26116   3.192   3.854   3.585 -0.1659  0.4746  0.0054
 4827SOL    HW126117   3.137   3.798   3.530 -0.8399  1.0327  0.1088
 4827SOL    HW226118   3.134   3.922   3.618 -1.9811 -0.1138 -2.0076
 4828SOL     OW26119   4.227   2.241  14.330  0.3160 -0.5497 -0.0840
 4828SOL    HW126120   4.152   2.269  14.278 -0.6281 -0.5274  1.2976
 4828SOL    HW226121   4.241   2.316  14.387  0.6849 -1.0660  0.4987
 4829SOL     OW26122   1.876   2.222  10.546 -0.2342  0.0526 -0.0158
 4829SOL    HW126123   1.789   2.182  10.545  0.5832 -1.7159  0.5809
 4829SOL    HW226124   1.852   2.313  10.530 -0.8612 -0.2419 -0.7504
 4830SOL     OW26125   3.857   0.704   5.544 -0.6738  0.7535  0.3954
 4830SOL    HW126126   3.768   0.713   5.510 -0.3489 -0.5491 -0.8279
 4830SOL    HW226127   3.913   0.706   5.466 -0.3502  0.6896  0.6248
 4831SOL     OW26128   1.713   3.789   2.830  0.0575  1.0443 -0.1796
 4831SOL    HW126129   1.746   3.823   2.746 -0.2981  0.3555 -0.6001
 4831SOL    HW226130   1.620   3.810   2.824 -0.1529  0.4817  1.2938
 4832SOL     OW26131   3.904   2.154   4.984 -0.0115 -0.2129  0.3602
 4832SOL    HW126132   3.811   2.133   4.998  0.3198  0.0416  2.9263
 4832SOL    HW226133   3.904   2.189   4.895  1.2540 -2.5285 -0.5423
 4833SOL     OW26134   1.091   2.102  12.304 -0.0711 -0.0650  0.1916
 4833SOL    HW126135   1.064   2.052  12.226 -1.4014  0.9414 -0.0089
 4833SOL    HW226136   1.015   2.159  12.316 -1.2175 -1.4055 -0.5238
 4834SOL     OW26137   1.351   2.946  14.726 -0.1866  0.5582 -0.5293
 4834SOL    HW126138   1.291   3.014  14.756 -0.7346  0.5387 -1.6094
 4834SOL    HW226139   1.345   2.862  14.772  1.2824  1.2446  0.9190
 4835SOL     OW26140   4.375   2.705   3.362  0.3232  0.1555 -0.3451
 4835SOL    HW126141   4.349   2.780   3.309  0.9921 -0.1947 -1.1734
 4835SOL    HW226142   4.289   2.666   3.377  2.3866 -2.2472  5.6263
 4836SOL     OW26143   3.337   3.817   5.860 -0.8466 -0.3817 -0.1364
 4836SOL    HW126144   3.428   3.835   5.885 -1.0032 -0.8666  0.7561
 4836SOL    HW226145   3.300   3.898   5.895  0.1178  2.1490 -4.8816
 4837SOL     OW26146   0.817   3.060  11.233  0.1360  0.6840 -0.5871
 4837SOL    HW126147   0.899   3.080  11.277  0.0721  0.9802 -0.6028
 4837SOL    HW226148   0.828   3.102  11.148  1.6442 -2.4941 -1.9633
 4838SOL     OW26149   4.019   4.215  17.571 -0.2298  0.1032  0.4830
 4838SOL    HW126150   4.065   4.299  17.565 -0.3698  0.2636  1.5883
 4838SOL    HW226151   4.072   4.147  17.529  0.1084 -0.6779  2.1769
 4839SOL     OW26152   4.196   3.596   7.126  0.1791 -0.1188  0.1165
 4839SOL    HW126153   4.257   3.650   7.076  0.4112 -0.4748  0.0234
 4839SOL    HW226154   4.126   3.581   7.062  0.3213 -0.8957  0.1432
 4840SOL     OW26155   3.085   1.536   7.751  0.2097 -0.5173 -0.3135
 4840SOL    HW126156   3.159   1.507   7.805 -0.0529 -1.2860 -0.3732
 4840SOL    HW226157   3.120   1.532   7.662  0.9772  2.3155 -0.1579
 4841SOL     OW26158   3.074   2.092   7.325 -0.0080 -0.3099 -0.3406
 4841SOL    HW126159   3.142   2.112   7.260 -0.0179  1.8119  0.3255
 4841SOL    HW226160   3.001   2.118   7.269  0.1219 -1.5644 -1.1064
 4842SOL     OW26161   2.971   4.190   6.769  0.2573 -0.3535 -0.2812
 4842SOL    HW126162   2.912   4.245   6.821  0.0911 -0.0968 -0.7464
 4842SOL    HW226163   3.055   4.227   6.794  0.1907 -0.4535  0.0992
 4843SOL     OW26164   2.548   1.124  17.468  0.2134  0.1875 -0.3018
 4843SOL    HW126165   2.470   1.175  17.448  0.0191  0.3644  0.9188
 4843SOL    HW226166   2.573   1.110  17.377 -0.0873 -0.2957 -0.3102
 4844SOL     OW26167   1.845   0.388   2.169  0.2047 -0.8667 -0.5967
 4844SOL    HW126168   1.922   0.405   2.114 -0.2894  3.7111  0.1637
 4844SOL    HW226169   1.862   0.299   2.200  1.6967 -1.1143 -2.0895
 4845SOL     OW26170   0.164   4.701   5.935 -0.2055 -0.7194 -0.0446
 4845SOL    HW126171   0.216   0.018   5.873  0.6717 -2.1906 -0.5270
 4845SOL    HW226172   0.111   0.029   5.985 -0.3628 -0.5441 -0.4318
 4846SOL     OW26173   2.611   3.913   7.286 -0.0429 -0.2249 -1.0101
 4846SOL    HW126174   2.670   3.858   7.338 -1.1085  0.0141  0.4479
 4846SOL    HW226175   2.610   3.984   7.350 -1.0677 -1.8249  0.7240
 4847SOL     OW26176   3.164   3.262   5.759 -0.0821  0.2513 -0.2859
 4847SOL    HW126177   3.155   3.292   5.850 -0.4778  1.8514 -0.8472
 4847SOL    HW226178   3.111   3.182   5.760  0.5875 -0.2011 -1.1283
 4848SOL     OW26179   0.785   0.391   5.005  0.4223 -0.3217 -0.3903
 4848SOL    HW126180   0.871   0.384   4.963  1.2939  0.0520  1.3029
 4848SOL    HW226181   0.785   0.319   5.068 -0.0112  1.2342  1.4122
 4849SOL     OW26182   0.141   0.074   8.526 -0.8210 -0.3163  0.2339
 4849SOL    HW126183   0.233   0.065   8.501 -1.0085 -0.8798 -0.2554
 4849SOL    HW226184   0.146   0.163   8.560 -1.3404 -1.8060  4.2846
 4850SOL     OW26185   4.136   3.892  12.734  1.4463  0.6100 -0.0858
 4850SOL    HW126186   4.137   3.855  12.823 -1.3794 -0.6892 -0.6101
 4850SOL    HW226187   4.169   3.827  12.673 -2.5989 -1.5386  0.0029
 4851SOL     OW26188   4.679   0.616  17.683 -0.1067  0.4227 -0.0396
 4851SOL    HW126189   4.620   0.630   0.021 -1.5542 -0.2930 -1.0554
 4851SOL    HW226190   0.008   0.556  17.723  0.5116 -0.3223 -2.1295
 4852SOL     OW26191   4.655   4.671   2.863  0.6329  0.0628  0.0513
 4852SOL    HW126192   4.645   0.028   2.890 -0.2102  0.7326 -2.5450
 4852SOL    HW226193   0.002   4.680   2.815  0.5007 -0.0246 -0.1857
 4853SOL     OW26194   0.233   3.747   4.613 -0.1292 -0.2302  0.6659
 4853SOL    HW126195   0.325   3.747   4.585 -0.2346  1.6402  0.2818
 4853SOL    HW226196   0.192   3.808   4.552 -1.6394 -1.0600  0.8478
 4854SOL     OW26197   0.916   4.048  14.950 -0.5930  0.4132  0.8279
 4854SOL    HW126198   0.989   3.986  14.949  0.1291  1.2728 -0.1261
 4854SOL    HW226199   0.918   4.096  15.033 -0.6428 -0.7408  1.4902
 4855SOL     OW26200   2.031   1.885   1.730  0.4534 -0.1117  0.7811
 4855SOL    HW126201   2.095   1.824   1.767 -0.3144 -1.2138  0.2950
 4855SOL    HW226202   2.013   1.838   1.649  1.7197 -0.0625  0.4845
 4856SOL     OW26203   0.831   2.897   9.094 -0.6424  0.1474 -0.3920
 4856SOL    HW126204   0.756   2.928   9.144  0.3509  4.0165 -1.2998
 4856SOL    HW226205   0.824   2.803   9.110  0.0775  0.0594 -0.5859
 4857SOL     OW26206   4.183   0.749   2.765 -0.2946 -0.1485 -0.0610
 4857SOL    HW126207   4.141   0.834   2.758 -1.6926 -1.1300 -3.4581
 4857SOL    HW226208   4.140   0.703   2.694 -2.3861  0.7252  0.6444
 4858SOL     OW26209   1.082   1.305  11.721 -0.6979  0.0821 -0.2704
 4858SOL    HW126210   1.135   1.269  11.650 -2.3249 -2.1143 -0.3845
 4858SOL    HW226211   1.147   1.319  11.790  1.3277 -1.5925 -1.8103
 4859SOL     OW26212   0.628   3.123  17.302 -0.2385  0.1800 -0.3078
 4859SOL    HW126213   0.579   3.099  17.224  0.4272 -1.7661 -0.1291
 4859SOL    HW226214   0.648   3.036  17.338 -0.1917  0.8989  1.3907
 4860SOL     OW26215   4.292   2.708   1.798  0.0153  0.1140 -0.0879
 4860SOL    HW126216   4.255   2.735   1.715 -3.1689  0.4553  1.4439
 4860SOL    HW226217   4.298   2.613   1.790 -0.8642  0.3618 -3.4425
 4861SOL     OW26218   4.192   0.210   8.515 -0.1703  0.2801  0.7582
 4861SOL    HW126219   4.162   0.140   8.574 -0.1945 -0.6595 -0.3625
 4861SOL    HW226220   4.127   0.207   8.445 -1.2280  1.2690  1.6939
 4862SOL     OW26221   0.535   0.132   2.984 -0.3189 -0.0509 -0.0929
 4862SOL    HW126222   0.490   0.119   2.900 -0.1775  0.3480 -0.2312
 4862SOL    HW226223   0.457   0.109   3.035 -0.7009  0.6960 -0.3347
 4863SOL     OW26224   2.915   0.564   5.466  0.2515  0.1071  0.4951
 4863SOL    HW126225   2.831   0.528   5.495  0.2778 -0.8393 -0.6193
 4863SOL    HW226226   2.951   0.502   5.403 -1.4183 -1.2485  0.8742
 4864SOL     OW26227   0.410   1.788   8.794  0.3339 -0.7116  0.5111
 4864SOL    HW126228   0.431   1.697   8.775  0.8394 -0.4647 -0.0960
 4864SOL    HW226229   0.501   1.809   8.812  0.6308 -0.5604 -1.2243
 4865SOL     OW26230   2.454   1.159  12.105 -0.1178  1.1665 -0.1417
 4865SOL    HW126231   2.398   1.176  12.029  0.6766  2.2446 -0.4996
 4865SOL    HW226232   2.504   1.240  12.119  1.3036  0.5299 -1.4769
 4866SOL     OW26233   3.950   0.945   4.321  0.2194 -0.4773  0.4850
 4866SOL    HW126234   4.003   0.887   4.266  1.3432  0.6626  0.3814
 4866SOL    HW226235   3.939   0.895   4.401  3.9433  0.0030  1.2642
 4867SOL     OW26236   2.146   2.201   1.938 -0.9309 -0.1102  0.3139
 4867SOL    HW126237   2.223   2.154   1.971  0.3524  0.9720 -1.1449
 4867SOL    HW226238   2.186   2.288   1.932 -0.6788 -0.0204  3.4084
 4868SOL     OW26239   4.114   4.415  10.317 -0.4705 -0.0479  0.1723
 4868SOL    HW126240   4.113   4.324  10.289  0.6589  0.0555 -0.2271
 4868SOL    HW226241   4.122   4.418  10.412  0.7634  0.0388  0.0762
 4869SOL     OW26242   1.331   0.361   9.304 -0.3335  0.8208 -0.1490
 4869SOL    HW126243   1.411   0.414   9.312 -0.9741  1.8467 -0.6611
 4869SOL    HW226244   1.288   0.414   9.237  0.4222 -0.2999 -1.5220
 4870SOL     OW26245   0.906   4.480   3.712 -0.0297  0.6209 -0.0565
 4870SOL    HW126246   0.854   4.407   3.677  0.4849 -0.4858  1.5212
 4870SOL    HW226247   0.942   4.513   3.630 -0.0475  2.4861  0.6990
 4871SOL     OW26248   0.820   3.211   7.016 -0.0644 -0.0895  0.9162
 4871SOL    HW126249   0.871   3.137   7.050  0.0303 -0.2373  0.4483
 4871SOL    HW226250   0.853   3.272   7.082  0.1735  0.3094  0.4253
 4872SOL     OW26251   0.530   4.406  14.267  0.2184 -0.3468 -0.9725
 4872SOL    HW126252   0.539   4.436  14.177  0.9142  0.7115 -0.5479
 4872SOL    HW226253   0.474   4.478  14.297  1.3748 -0.2066  0.8042
 4873SOL     OW26254   3.945   3.491   5.246  0.4512  0.5815 -0.3264
 4873SOL    HW126255   3.974   3.452   5.329 -0.1275  1.1355  0.1303
 4873SOL    HW226256   3.908   3.409   5.212  1.1646 -0.5753  1.6319
 4874SOL     OW26257   4.720   0.864   8.118 -0.8742 -0.8972  0.0724
 4874SOL    HW126258   4.710   0.895   8.208 -0.0351  1.2936 -0.5902
 4874SOL    HW226259   4.702   0.944   8.069 -0.2355  0.3149  1.7890
 4875SOL     OW26260   0.438   2.310   2.737 -0.0151  0.2255 -0.2836
 4875SOL    HW126261   0.459   2.292   2.645  0.7474  0.8772 -0.2342
 4875SOL    HW226262   0.375   2.380   2.721  2.4519  2.6937  0.7451
 4876SOL     OW26263   0.998   1.788   3.771 -0.4824  0.0779 -0.1571
 4876SOL    HW126264   0.960   1.850   3.708 -0.8428  0.8435  0.8103
 4876SOL    HW226265   0.946   1.821   3.844  1.1991 -0.1585  1.1479
 4877SOL     OW26266   3.651   0.847  10.501 -0.0945 -0.5717  0.0702
 4877SOL    HW126267   3.655   0.760  10.539 -0.2812  0.4578  2.4926
 4877SOL    HW226268   3.574   0.889  10.539 -0.4922  0.1742 -1.5396
 4878SOL     OW26269   2.361   1.807   8.768  0.3798 -0.0328  0.0052
 4878SOL    HW126270   2.347   1.723   8.726  2.9562  0.9263 -2.7280
 4878SOL    HW226271   2.456   1.813   8.757  0.6110  0.7005  2.3607
 4879SOL     OW26272   2.364   2.698  16.812  0.1470 -0.7566 -0.0593
 4879SOL    HW126273   2.272   2.698  16.786  0.1678 -1.6608 -0.1363
 4879SOL    HW226274   2.378   2.612  16.853  0.8106 -0.5546  0.1393
 4880SOL     OW26275   1.218   0.158   4.567  0.6422  0.0267 -0.3585
 4880SOL    HW126276   1.132   0.176   4.530 -1.0482 -0.3304  3.4138
 4880SOL    HW226277   1.273   0.171   4.490 -0.5687 -0.4716 -1.2982
 4881SOL     OW26278   3.714   3.644   3.832 -0.1015  0.6061 -0.1061
 4881SOL    HW126279   3.646   3.661   3.898 -1.1675  0.1795 -1.0983
 4881SOL    HW226280   3.796   3.631   3.879  0.5743  0.6033 -1.2740
 4882SOL     OW26281   0.056   4.112   0.972  0.0036 -0.5950  0.0581
 4882SOL    HW126282   0.104   4.127   0.890 -2.1685  0.0651 -1.0936
 4882SOL    HW226283   0.100   4.035   1.008  0.5915 -1.2382 -2.0664
 4883SOL     OW26284   2.566   2.486   9.030  0.3455 -0.0816  0.2012
 4883SOL    HW126285   2.628   2.436   8.978  1.4036  3.0824 -1.5358
 4883SOL    HW226286   2.516   2.414   9.068 -0.6986  0.0840 -0.8670
 4884SOL     OW26287   0.673   0.558   5.674 -0.2618 -0.4138  0.2109
 4884SOL    HW126288   0.720   0.506   5.609 -0.4944 -1.5190  0.9314
 4884SOL    HW226289   0.580   0.546   5.654 -0.3403  1.0072 -0.2458
 4885SOL     OW26290   2.106   4.355   2.443  0.1476  0.2607 -0.5941
 4885SOL    HW126291   2.138   4.384   2.357  0.7221 -1.1078 -0.8444
 4885SOL    HW226292   2.129   4.262   2.442 -2.1279 -0.3014  0.0382
 4886SOL     OW26293   1.331   1.669   9.885 -0.5453 -0.7004 -0.2956
 4886SOL    HW126294   1.276   1.591   9.886 -1.5471 -0.0008 -0.6495
 4886SOL    HW226295   1.310   1.707   9.970 -0.9283  1.7353 -1.4600
 4887SOL     OW26296   0.933   0.360   5.623  0.4240  0.1102  0.5606
 4887SOL    HW126297   0.937   0.358   5.719 -0.1909  0.3049  0.5889
 4887SOL    HW226298   1.021   0.384   5.593 -0.6486  2.4428 -0.6829
 4888SOL     OW26299   3.437   1.908   4.172  0.2893 -0.3854 -0.1644
 4888SOL    HW126300   3.390   1.988   4.145  1.7165  1.0179  1.5402
 4888SOL    HW226301   3.512   1.912   4.113  0.0459  2.4531 -0.2917
 4889SOL     OW26302   1.461   2.541   3.562  0.2601  0.3310  0.4159
 4889SOL    HW126303   1.463   2.494   3.479 -0.1578  1.8378 -0.4424
 4889SOL    HW226304   1.532   2.500   3.611  0.4245  0.0115 -0.0880
 4890SOL     OW26305   3.964   0.901   3.719 -0.0535 -0.6370  0.8667
 4890SOL    HW126306   3.960   0.988   3.758  0.4504 -0.4573  0.5207
 4890SOL    HW226307   3.902   0.852   3.772  0.6892 -3.5370 -0.8992
 4891SOL     OW26308   4.427   2.016  16.456 -0.3308 -0.0131 -0.4094
 4891SOL    HW126309   4.375   2.027  16.536  1.4687  0.0647  0.7487
 4891SOL    HW226310   4.364   2.022  16.385 -0.2239 -0.5700 -0.5560
 4892SOL     OW26311   2.936   4.003  17.367 -0.4531 -0.2731 -0.3853
 4892SOL    HW126312   2.907   4.060  17.295 -0.9222  2.0491  1.6471
 4892SOL    HW226313   3.008   3.955  17.327  0.3009 -0.2498  0.9636
 4893SOL     OW26314   1.661   3.286   8.977  0.1527 -0.1804  0.4309
 4893SOL    HW126315   1.681   3.303   9.069  1.1357 -0.5671  0.2918
 4893SOL    HW226316   1.609   3.207   8.990 -2.1961  1.5617  1.5756
 4894SOL     OW26317   1.735   4.434  13.715  0.2944  0.0691 -0.2086
 4894SOL    HW126318   1.821   4.471  13.737  0.6828 -1.0221  0.1148
 4894SOL    HW226319   1.761   4.374  13.645 -1.4764 -1.3594  0.3719
 4895SOL     OW26320   4.123   2.901   7.039  0.3441  0.1710  0.1061
 4895SOL    HW126321   4.169   2.983   7.020  1.5460 -0.2961  0.9798
 4895SOL    HW226322   4.069   2.938   7.109 -0.9293 -0.0935 -0.7394
 4896SOL     OW26323   3.464   2.684   5.686 -0.0684  0.4878  0.3358
 4896SOL    HW126324   3.440   2.629   5.611  0.3672  0.1776  0.4202
 4896SOL    HW226325   3.494   2.760   5.636 -0.0586 -0.2155 -0.7364
 4897SOL     OW26326   0.477   0.551   6.232  0.3700  0.4979  0.1499
 4897SOL    HW126327   0.537   0.506   6.291  0.4096 -1.8416 -1.6921
 4897SOL    HW226328   0.507   0.505   6.153  1.1448  0.2009  0.6208
 4898SOL     OW26329   0.721   2.967   4.275 -0.7722  0.1623 -0.3843
 4898SOL    HW126330   0.709   2.976   4.370 -1.4472  4.2433 -0.8515
 4898SOL    HW226331   0.816   2.964   4.266 -0.9061 -2.0491 -1.1629
 4899SOL     OW26332   0.419   0.653   9.244  0.2269  0.0605 -0.2377
 4899SOL    HW126333   0.371   0.719   9.194  1.3842  0.0580 -1.3781
 4899SOL    HW226334   0.395   0.569   9.205  0.1657 -0.5811  1.1869
 4900SOL     OW26335   3.135   1.187   5.795  0.3158 -0.6696 -0.2519
 4900SOL    HW126336   3.214   1.226   5.833 -0.5274  1.3810 -0.6479
 4900SOL    HW226337   3.143   1.212   5.703  0.5043 -0.6377 -0.2272
 4901SOL     OW26338   2.711   3.777   3.268  0.2643  0.0759  0.7454
 4901SOL    HW126339   2.691   3.863   3.232 -2.8950 -1.3265 -0.8445
 4901SOL    HW226340   2.636   3.726   3.238  0.3102  0.5151 -0.1057
 4902SOL     OW26341   0.855   4.515  11.705  0.2945 -0.1853  0.2475
 4902SOL    HW126342   0.823   4.585  11.648  0.3902 -0.6644 -0.3975
 4902SOL    HW226343   0.779   4.458  11.705 -1.9036  2.7246  0.9951
 4903SOL     OW26344   2.999   2.743   3.679  0.0541 -0.2735 -0.0966
 4903SOL    HW126345   3.088   2.731   3.711 -0.6878 -1.9249  1.4041
 4903SOL    HW226346   2.997   2.695   3.596 -3.1386  0.4669 -0.4629
 4904SOL     OW26347   4.573   2.695   8.774  0.8371  0.3098 -0.2538
 4904SOL    HW126348   4.547   2.739   8.693 -0.4172 -1.4170 -0.8068
 4904SOL    HW226349   4.643   2.749   8.809  0.0331 -0.0375  1.9321
 4905SOL     OW26350   0.023   4.294   7.300  0.1311  0.1577  0.6346
 4905SOL    HW126351   4.683   4.248   7.263 -0.9167  0.6336  2.1392
 4905SOL    HW226352   4.716   4.359   7.358 -0.4974 -1.1008  1.5846
 4906SOL     OW26353   2.090   1.456   8.356  0.3506 -0.0218 -0.2126
 4906SOL    HW126354   2.050   1.452   8.443  0.0704 -1.5481 -0.4216
 4906SOL    HW226355   2.012   1.464   8.300 -1.2138  0.1129  1.9745
 4907SOL     OW26356   2.806   0.311   3.920 -0.4240 -0.1287 -0.6134
 4907SOL    HW126357   2.853   0.248   3.866  2.9583  2.3037 -0.4784
 4907SOL    HW226358   2.740   0.254   3.961  0.3770  0.6134  1.6772
 4908SOL     OW26359   3.888   4.380   1.152 -0.2533  0.1495 -0.3623
 4908SOL    HW126360   3.864   4.406   1.063  0.4935  0.9639 -0.3315
 4908SOL    HW226361   3.843   4.297   1.163  0.5754 -0.1776  0.5933
 4909SOL     OW26362   1.951   4.704   3.275 -0.2254  0.0776  0.3777
 4909SOL    HW126363   1.856   4.698   3.265 -0.3694  3.7019 -0.3524
 4909SOL    HW226364   1.968   4.673   3.364 -1.3762 -1.4819  0.0555
 4910SOL     OW26365   0.035   2.537   7.710 -0.3542  0.2216 -0.7348
 4910SOL    HW126366   0.127   2.560   7.711 -0.9398  2.4568  2.1181
 4910SOL    HW226367   0.007   2.626   7.688 -1.1514  0.0318 -0.5124
 4911SOL     OW26368   1.217   3.230  16.158 -0.3060  0.4746  0.1325
 4911SOL    HW126369   1.207   3.136  16.144  0.6118  0.1429  1.7810
 4911SOL    HW226370   1.123   3.249  16.160 -0.1745  1.1081  0.2961
 4912SOL     OW26371   3.121   3.540   8.417  0.3374  0.0588  0.1704
 4912SOL    HW126372   3.183   3.612   8.406 -0.9624  0.8578 -2.0718
 4912SOL    HW226373   3.040   3.584   8.442  0.3545 -0.2527  0.7851
 4913SOL     OW26374   0.490   0.519   5.402  0.8535 -1.2254 -0.0977
 4913SOL    HW126375   0.446   0.593   5.360  1.9757 -1.2541 -1.3198
 4913SOL    HW226376   0.409   0.473   5.426 -0.3514  0.6233 -0.6637
 4914SOL     OW26377   1.845   3.199   7.931  0.2564  0.1599  0.2188
 4914SOL    HW126378   1.922   3.187   7.874  0.0643  1.7891 -0.3870
 4914SOL    HW226379   1.878   3.255   8.001  1.9126  0.0117 -0.4343
 4915SOL     OW26380   0.874   2.424   7.316 -0.6804 -0.2578 -0.6143
 4915SOL    HW126381   0.908   2.372   7.243 -0.0011 -1.9965  0.9191
 4915SOL    HW226382   0.823   2.484   7.262 -2.8441 -0.2470  1.4546
 4916SOL     OW26383   4.680   0.150   3.287  0.2395 -0.1220 -0.2265
 4916SOL    HW126384   0.014   0.150   3.220  2.3531 -1.3232  1.9298
 4916SOL    HW226385   4.689   0.068   3.336  2.8267  0.2851 -0.0324
 4917SOL     OW26386   1.700   3.347  17.585 -0.7270 -0.3468 -0.2971
 4917SOL    HW126387   1.669   3.435  17.565 -0.6287 -0.2571 -0.0486
 4917SOL    HW226388   1.703   3.310  17.496 -1.0891  0.1731 -0.5243
 4918SOL     OW26389   4.247   4.504  13.975  0.2154  0.3467  0.0211
 4918SOL    HW126390   4.304   4.503  14.052 -0.8172  2.5416  0.8344
 4918SOL    HW226391   4.173   4.553  14.011 -1.1781 -1.1265 -0.8090
 4919SOL     OW26392   1.303   0.216   8.960  0.2539 -0.3650 -0.4980
 4919SOL    HW126393   1.257   0.227   9.043 -2.0143 -1.1410 -1.6533
 4919SOL    HW226394   1.349   0.132   8.963  0.7066 -0.1475 -1.3171
 4920SOL     OW26395   1.748   4.238   8.572  0.0692 -0.8435 -0.1347
 4920SOL    HW126396   1.735   4.227   8.667  0.2295  1.2006  0.1441
 4920SOL    HW226397   1.676   4.182   8.544  0.9712 -2.1141  0.1192
 4921SOL     OW26398   4.419   2.388   6.344 -0.3574  0.2521  0.2926
 4921SOL    HW126399   4.397   2.296   6.326 -1.3945  0.3941  0.8816
 4921SOL    HW226400   4.373   2.429   6.271 -1.0891  0.8887  1.1224
 4922SOL     OW26401   2.596   2.146   7.797  0.5717  0.0240  0.3797
 4922SOL    HW126402   2.578   2.067   7.849 -1.4815  0.6645  0.6256
 4922SOL    HW226403   2.690   2.143   7.778  0.1058 -0.5322 -1.8350
 4923SOL     OW26404   2.855   4.007   9.605  0.3011  0.7582 -0.1057
 4923SOL    HW126405   2.926   4.046   9.656  1.0950 -2.3636  1.1748
 4923SOL    HW226406   2.781   4.018   9.664 -1.1930  0.2082 -1.8745
 4924SOL     OW26407   0.207   0.593  10.757  0.0344 -0.2583  0.3348
 4924SOL    HW126408   0.278   0.529  10.766  0.9632  0.8764  1.0249
 4924SOL    HW226409   0.213   0.595  10.662 -1.6618  1.8506  0.2720
 4925SOL     OW26410   1.332   3.952   2.318 -0.4918  0.3132 -0.0067
 4925SOL    HW126411   1.389   4.028   2.331 -2.0364  1.5213 -0.3689
 4925SOL    HW226412   1.321   3.930   2.226 -0.5849 -0.6914  0.2405
 4926SOL     OW26413   4.723   4.350  16.753 -0.1778 -0.3142 -0.2957
 4926SOL    HW126414   0.028   4.352  16.666 -0.2090  2.6170 -0.2744
 4926SOL    HW226415   4.665   4.274  16.751 -1.1340  0.3566  1.2756
 4927SOL     OW26416   3.970   0.451   1.848  0.2411 -0.1848  0.4827
 4927SOL    HW126417   3.918   0.530   1.854 -0.3048 -0.4670 -0.5821
 4927SOL    HW226418   4.032   0.464   1.920 -0.7391  1.4269  1.0330
 4928SOL     OW26419   1.017   0.669   1.817  0.1652  0.0124  0.0055
 4928SOL    HW126420   1.043   0.759   1.797 -1.9111  0.5699 -0.2307
 4928SOL    HW226421   1.038   0.626   1.735  0.6702  1.8887 -0.8525
 4929SOL     OW26422   0.801   0.908   8.314  0.2187  0.1228 -0.1925
 4929SOL    HW126423   0.845   0.823   8.306  0.1720  0.1450 -0.6943
 4929SOL    HW226424   0.710   0.880   8.312  1.0062 -2.3882 -0.8801
 4930SOL     OW26425   3.264   1.002  12.270 -0.4146  0.3520  0.6848
 4930SOL    HW126426   3.216   0.988  12.189 -1.2993  2.1586  0.8970
 4930SOL    HW226427   3.201   1.027  12.338  0.4682 -1.3986  2.1396
 4931SOL     OW26428   4.458   4.093   2.429 -0.2680  0.0092  0.2187
 4931SOL    HW126429   4.519   4.125   2.363  0.7400  1.4341  1.8540
 4931SOL    HW226430   4.500   4.132   2.506 -1.0666 -0.0938  0.7127
 4932SOL     OW26431   2.674   1.233  14.155 -0.2152 -0.2255  0.2482
 4932SOL    HW126432   2.685   1.205  14.246 -1.5744 -4.7826 -0.9959
 4932SOL    HW226433   2.762   1.266  14.136 -0.7412  0.9566 -0.1677
 4933SOL     OW26434   3.199   4.521  15.428 -0.7796 -0.1329 -0.0664
 4933SOL    HW126435   3.278   4.534  15.376 -1.4640 -1.2341 -1.3779
 4933SOL    HW226436   3.216   4.582  15.500  2.7710 -1.1327 -0.0054
 4934SOL     OW26437   4.204   4.365   5.681  0.2265  0.0553 -0.1752
 4934SOL    HW126438   4.172   4.380   5.592  1.2996  2.3435 -0.1608
 4934SOL    HW226439   4.258   4.442   5.694  1.4798 -0.5676 -1.6888
 4935SOL     OW26440   2.798   0.544  13.037  0.2560  0.1470 -0.0954
 4935SOL    HW126441   2.749   0.463  13.050 -0.1162  0.0368 -2.2029
 4935SOL    HW226442   2.820   0.528  12.945 -0.8072 -1.2496 -0.1008
 4936SOL     OW26443   1.783   1.165  12.916 -0.2169 -0.0649 -0.6134
 4936SOL    HW126444   1.859   1.153  12.972 -0.2771  0.3756 -0.4355
 4936SOL    HW226445   1.785   1.083  12.867 -0.8413  0.7245 -1.9801
 4937SOL     OW26446   3.349   3.979  10.716 -0.1561  0.2309 -0.2891
 4937SOL    HW126447   3.255   3.994  10.723  0.2659  2.4449  0.4463
 4937SOL    HW226448   3.380   4.067  10.735  0.5161  0.5766 -3.0219
 4938SOL     OW26449   2.760   2.422  15.564 -0.2019  0.0428  0.1433
 4938SOL    HW126450   2.827   2.442  15.630 -1.0040 -0.0711  0.9831
 4938SOL    HW226451   2.770   2.487  15.494 -1.2671 -0.8306 -0.8117
 4939SOL     OW26452   1.184   2.730  12.975  0.2815  0.1929  0.1679
 4939SOL    HW126453   1.145   2.792  12.914  0.1712  0.7798  0.8389
 4939SOL    HW226454   1.251   2.684  12.924 -0.0156  1.7422 -1.5839
 4940SOL     OW26455   4.055   4.719   7.894 -0.2810  0.2207 -0.0194
 4940SOL    HW126456   3.960   4.727   7.897 -0.2239  0.1494  2.3851
 4940SOL    HW226457   4.072   4.639   7.945 -0.9597  0.8331  1.1644
 4941SOL     OW26458   3.524   2.042  10.662  0.5643 -0.0351 -0.1032
 4941SOL    HW126459   3.498   1.966  10.713 -1.1533 -0.0086 -0.9409
 4941SOL    HW226460   3.522   2.103  10.735 -0.6399  1.7732 -1.6346
 4942SOL     OW26461   0.439   4.038   5.360  0.1205 -0.0295  0.3313
 4942SOL    HW126462   0.403   3.982   5.429  1.5660  0.0075  1.1298
 4942SOL    HW226463   0.363   4.034   5.303 -1.9316 -1.2479  3.1636
 4943SOL     OW26464   3.650   2.663   5.195 -0.1148  0.0663 -0.1865
 4943SOL    HW126465   3.613   2.647   5.107 -0.3045 -0.7855  0.0462
 4943SOL    HW226466   3.641   2.759   5.192 -0.6099  0.0552  1.0019
 4944SOL     OW26467   2.406   0.719   7.151  0.3294  0.3776 -0.2281
 4944SOL    HW126468   2.397   0.717   7.056 -1.3538  0.1918 -0.0685
 4944SOL    HW226469   2.381   0.808   7.176 -2.5456 -0.2213 -0.9337
 4945SOL     OW26470   2.470   1.775  14.888  0.1250 -0.2385  0.4764
 4945SOL    HW126471   2.377   1.773  14.912  0.2095  0.3472  0.8398
 4945SOL    HW226472   2.513   1.747  14.969 -0.3665  1.2417  1.2490
 4946SOL     OW26473   1.312   3.053   9.224  0.0278 -0.0860 -0.5946
 4946SOL    HW126474   1.229   3.005   9.229 -0.2775  0.3938 -1.0614
 4946SOL    HW226475   1.331   3.076   9.315  2.0961 -0.0471 -1.0416
 4947SOL     OW26476   3.179   0.461  15.590  0.2698  0.0300  0.4789
 4947SOL    HW126477   3.156   0.507  15.509  1.8625  1.1014  0.6425
 4947SOL    HW226478   3.224   0.531  15.639 -2.0211  0.6902  1.6508
 4948SOL     OW26479   2.831   0.836   5.656  0.2642 -0.2092 -0.8429
 4948SOL    HW126480   2.820   0.822   5.562 -0.8450 -1.6804 -0.4800
 4948SOL    HW226481   2.811   0.752   5.696  2.9533  1.6710  4.5063
 4949SOL     OW26482   0.788   1.636   3.001 -0.2290  0.1556  0.4491
 4949SOL    HW126483   0.736   1.698   2.950 -0.8895 -0.4021  0.4401
 4949SOL    HW226484   0.879   1.641   2.971 -0.4911  2.7130  0.0543
 4950SOL     OW26485   0.089   0.062  13.065 -0.0847  0.3700 -0.1572
 4950SOL    HW126486   0.050   0.105  12.989 -1.2052  0.9011  0.7279
 4950SOL    HW226487   0.183   0.059  13.044 -0.2835  0.9632 -1.1451
 4951SOL     OW26488   1.379   3.227   6.375 -0.2518  0.5850 -0.9573
 4951SOL    HW126489   1.368   3.138   6.342 -0.3495  1.0214 -2.1005
 4951SOL    HW226490   1.304   3.234   6.434  1.0309 -1.2633  0.9523
 4952SOL     OW26491   0.882   3.119   4.766 -0.2004 -0.1755 -0.4829
 4952SOL    HW126492   0.869   3.203   4.811 -0.9131 -0.2907 -0.4800
 4952SOL    HW226493   0.807   3.076   4.807  0.2065  1.3178  1.8503
 4953SOL     OW26494   3.848   1.975   8.098 -0.0828 -0.3076 -0.0221
 4953SOL    HW126495   3.835   1.973   8.003 -2.8959 -3.2503  0.3949
 4953SOL    HW226496   3.764   1.933   8.119  1.5866 -2.9997  1.2872
 4954SOL     OW26497   3.744   2.996   6.110 -0.1821  0.0405 -0.1060
 4954SOL    HW126498   3.783   2.953   6.034  3.1987  0.7099  1.2482
 4954SOL    HW226499   3.667   3.030   6.067  0.2733  0.8073 -0.3048
 4955SOL     OW26500   3.371   3.953   6.966 -0.2711 -0.0925  0.1954
 4955SOL    HW126501   3.383   4.001   7.048 -0.0623  1.7101 -0.9054
 4955SOL    HW226502   3.277   3.937   6.965 -0.1311 -0.8404 -0.5799
 4956SOL     OW26503   2.567   1.740  12.314 -0.0365  0.1623 -1.0096
 4956SOL    HW126504   2.475   1.761  12.298 -0.3013 -0.1037  0.1665
 4956SOL    HW226505   2.597   1.806  12.377  2.3493 -1.3106 -0.5822
 4957SOL     OW26506   4.382   3.103   6.032  0.0517  0.0272 -0.1187
 4957SOL    HW126507   4.386   3.176   5.969 -1.9586 -0.7540 -1.1633
 4957SOL    HW226508   4.295   3.067   6.017 -0.1769 -0.2290  1.9144
 4958SOL     OW26509   2.740   2.506  17.713 -0.1579 -0.0943 -0.0408
 4958SOL    HW126510   2.777   2.420  17.698  0.1385  0.0952 -0.4047
 4958SOL    HW226511   2.816   2.565  17.709 -0.1827 -0.1090 -0.7892
 4959SOL     OW26512   3.396   1.317   4.908 -0.6505 -0.1510 -0.4356
 4959SOL    HW126513   3.440   1.298   4.991  0.6186  1.5300 -0.7087
 4959SOL    HW226514   3.441   1.247   4.860  1.8617  1.3614 -0.2970
 4960SOL     OW26515   2.228   4.084   0.330 -0.6422 -0.0237  0.1261
 4960SOL    HW126516   2.259   4.006   0.284 -4.6963  0.0738 -2.7801
 4960SOL    HW226517   2.139   4.095   0.295 -0.6502  0.9030  0.4376
 4961SOL     OW26518   2.700   2.745  16.788  0.9083 -0.4234 -0.1397
 4961SOL    HW126519   2.694   2.747  16.883  1.1721 -0.1296 -0.1300
 4961SOL    HW226520   2.788   2.721  16.758  1.3460  0.3852  0.5164
 4962SOL     OW26521   0.468   0.878   8.965  0.4430  0.4491  0.0717
 4962SOL    HW126522   0.459   0.969   8.940 -0.1517 -0.0015 -1.3284
 4962SOL    HW226523   0.407   0.878   9.039  0.3397 -2.7893 -0.0066
 4963SOL     OW26524   3.067   2.301   4.816 -0.1523 -0.0526  0.3721
 4963SOL    HW126525   3.115   2.219   4.801 -1.2918 -0.3891 -1.4273
 4963SOL    HW226526   3.030   2.270   4.899  0.4517 -2.1252 -0.1304
 4964SOL     OW26527   0.426   4.057   9.052 -0.1333 -0.1547  0.2251
 4964SOL    HW126528   0.391   4.003   9.122 -0.2287 -1.1280 -0.5682
 4964SOL    HW226529   0.367   4.132   9.052  0.5651  0.3981  0.0348
 4965SOL     OW26530   3.859   1.298   7.449 -0.2240  0.2202 -0.0591
 4965SOL    HW126531   3.853   1.263   7.360 -0.9654 -0.3768  0.2303
 4965SOL    HW226532   3.779   1.350   7.458 -1.9215 -1.9517 -2.7800
 4966SOL     OW26533   1.177   0.428   8.575 -0.2058  0.2249 -0.0616
 4966SOL    HW126534   1.086   0.442   8.604 -0.4229  0.4676 -0.8699
 4966SOL    HW226535   1.195   0.347   8.624  3.3893  0.8786 -0.3108
 4967SOL     OW26536   3.248   1.800   6.686  0.0685  0.3255 -0.3632
 4967SOL    HW126537   3.215   1.809   6.776 -0.8420 -1.2649 -0.5494
 4967SOL    HW226538   3.165   1.814   6.641 -0.6519  0.6229  1.0427
 4968SOL     OW26539   0.601   0.098   7.873  0.4402 -0.7689  0.5876
 4968SOL    HW126540   0.581   0.142   7.956 -1.3505 -1.5230  0.5563
 4968SOL    HW226541   0.694   0.110   7.856  0.2538 -0.3035 -0.1128
 4969SOL     OW26542   2.860   4.594   1.832 -0.0838 -0.4653 -0.2114
 4969SOL    HW126543   2.797   4.569   1.900  0.6764 -3.2972 -0.5400
 4969SOL    HW226544   2.931   4.533   1.852  0.7774  0.5257 -0.2413
 4970SOL     OW26545   4.067   1.225   1.165  0.2497 -0.0776 -0.0273
 4970SOL    HW126546   4.023   1.272   1.094 -1.3670 -2.0570 -0.3443
 4970SOL    HW226547   4.098   1.296   1.220  1.2222 -0.7094  0.2520
 4971SOL     OW26548   0.960   4.560   2.351 -0.1182 -0.8227  0.0478
 4971SOL    HW126549   0.969   4.582   2.444  0.5891  1.4082 -0.5614
 4971SOL    HW226550   0.866   4.543   2.352 -0.1118 -0.9445 -2.7592
 4972SOL     OW26551   1.003   3.028   8.922 -0.3411 -0.7387  0.4552
 4972SOL    HW126552   1.047   3.091   8.978  2.0907 -2.5232  0.5637
 4972SOL    HW226553   0.937   2.987   8.978 -1.0644 -0.5684 -0.2623
 4973SOL     OW26554   3.770   1.612  16.248 -0.0905  0.1847  0.6098
 4973SOL    HW126555   3.741   1.632  16.159  0.7593  1.5706  0.6389
 4973SOL    HW226556   3.769   1.517  16.238  1.2073  0.1490  0.8154
 4974SOL     OW26557   0.196   1.574   6.362 -0.5953  0.1639  0.0167
 4974SOL    HW126558   0.238   1.551   6.279  1.9990 -0.9003  1.6152
 4974SOL    HW226559   0.177   1.485   6.389 -0.3652  0.3677  0.8554
 4975SOL     OW26560   3.385   2.668   7.820 -0.1677 -0.6272  0.3923
 4975SOL    HW126561   3.345   2.690   7.736 -1.8298  0.8819  1.5668
 4975SOL    HW226562   3.447   2.741   7.827 -0.4110 -0.2043 -1.7552
 4976SOL     OW26563   1.165   3.741   0.781  0.3866  0.2913 -0.1500
 4976SOL    HW126564   1.251   3.760   0.745  0.8686 -1.0805  0.2455
 4976SOL    HW226565   1.147   3.657   0.738 -1.2413 -0.3351  1.7047
 4977SOL     OW26566   2.056   3.207  16.581  0.8162  0.5924  0.3349
 4977SOL    HW126567   2.134   3.157  16.558 -1.8851 -3.0393 -0.9119
 4977SOL    HW226568   2.022   3.167  16.661  0.6146  1.8886  0.8912
 4978SOL     OW26569   0.425   3.366   3.871 -0.3552  0.6994 -0.4166
 4978SOL    HW126570   0.515   3.400   3.866  0.0635 -0.1281  1.4721
 4978SOL    HW226571   0.392   3.430   3.934 -0.4051  0.9271 -0.6694
 4979SOL     OW26572   0.995   0.822   9.736  0.1803 -0.3491 -0.1952
 4979SOL    HW126573   0.958   0.782   9.658 -1.0097  0.5287 -0.0837
 4979SOL    HW226574   1.087   0.824   9.711  1.3505 -0.2481  3.9920
 4980SOL     OW26575   1.495   2.830   5.024  0.3285  0.0977 -0.0626
 4980SOL    HW126576   1.494   2.782   5.106 -0.6401  0.4948  0.1595
 4980SOL    HW226577   1.498   2.915   5.069  0.3245 -0.5089  1.0874
 4981SOL     OW26578   3.618   4.720  10.750  0.7936  0.0237  0.1630
 4981SOL    HW126579   3.620   4.671  10.833 -2.2114 -2.6869 -1.3497
 4981SOL    HW226580   3.541   4.676  10.714  0.1825  0.2782  1.1619
 4982SOL     OW26581   4.457   0.153   4.870 -0.2913  0.1832  0.0779
 4982SOL    HW126582   4.482   0.072   4.915 -0.1352  0.6056  0.7495
 4982SOL    HW226583   4.429   0.119   4.785 -1.0587  3.4108 -0.9517
 4983SOL     OW26584   0.527   4.552   1.903  0.5480  0.7864  0.0090
 4983SOL    HW126585   0.446   4.599   1.920  0.5578  1.3451 -1.4587
 4983SOL    HW226586   0.501   4.497   1.828  0.0629 -0.8072  1.3512
 4984SOL     OW26587   3.925   3.211   2.733  0.6685 -0.1124 -0.1660
 4984SOL    HW126588   4.020   3.209   2.726  0.5948 -2.1184 -0.7098
 4984SOL    HW226589   3.914   3.290   2.680  0.8305  0.8617  1.2401
 4985SOL     OW26590   0.313   2.244  12.071 -0.0098  0.2186 -0.2876
 4985SOL    HW126591   0.292   2.291  11.990  0.8871 -1.8314 -1.7046
 4985SOL    HW226592   0.408   2.249  12.079  0.1211 -1.4304 -0.7167
 4986SOL     OW26593   4.343   1.115  12.518  0.5214 -0.1204 -0.4420
 4986SOL    HW126594   4.427   1.104  12.562  1.1401  1.0038 -1.3328
 4986SOL    HW226595   4.366   1.095  12.427  1.5277  0.7909 -0.3864
 4987SOL     OW26596   4.361   4.526  12.538 -0.0950 -0.0415 -0.0594
 4987SOL    HW126597   4.341   4.619  12.529 -1.6866 -0.3632  0.2923
 4987SOL    HW226598   4.284   4.491  12.582  0.2711 -1.1735 -0.3086
 4988SOL     OW26599   1.658   0.118   6.582  0.2254  0.0827  0.1647
 4988SOL    HW126600   1.720   0.190   6.567  2.1010 -0.9137  3.2073
 4988SOL    HW226601   1.658   0.074   6.497  0.8639 -1.2044  0.8433
 4989SOL     OW26602   0.536   4.192   4.056  0.3028  0.5007 -0.5928
 4989SOL    HW126603   0.476   4.132   4.012 -0.7603  0.3622  1.0761
 4989SOL    HW226604   0.612   4.197   3.997 -0.2797 -0.5894 -1.4286
 4990SOL     OW26605   3.642   4.143   6.619  0.0250 -0.0092  0.8082
 4990SOL    HW126606   3.549   4.128   6.640  0.2421 -2.4803  0.0454
 4990SOL    HW226607   3.636   4.238   6.630 -0.1638  0.0700 -0.0127
 4991SOL     OW26608   1.304   0.199   6.935 -0.0584 -0.0913  0.0576
 4991SOL    HW126609   1.340   0.234   6.853 -0.9398  2.1845  0.6523
 4991SOL    HW226610   1.368   0.138   6.970  1.5452  1.0585 -0.8590
 4992SOL     OW26611   3.942   2.295   9.164 -0.0855  0.2853  0.3469
 4992SOL    HW126612   3.856   2.277   9.127  0.4878  0.0569 -0.8610
 4992SOL    HW226613   3.944   2.243   9.245 -1.0322  2.4603  1.7734
 4993SOL     OW26614   2.267   3.089   6.738 -0.2073  0.4315  0.0983
 4993SOL    HW126615   2.327   3.159   6.765 -0.1515  0.1067  0.8232
 4993SOL    HW226616   2.315   3.034   6.675 -1.6501  0.1254 -0.7211
 4994SOL     OW26617   3.250   2.670   3.722 -0.7830 -0.5148 -0.3810
 4994SOL    HW126618   3.324   2.726   3.747 -0.4898  0.9147 -4.3871
 4994SOL    HW226619   3.291   2.584   3.731  1.2834  0.4271 -0.7657
 4995SOL     OW26620   2.123   0.353   6.806  0.5565  0.1376  0.3531
 4995SOL    HW126621   2.208   0.375   6.844  0.1021  1.0903  0.8080
 4995SOL    HW226622   2.070   0.412   6.859 -0.4087  0.5003 -1.0085
 4996SOL     OW26623   0.897   1.939  15.158  0.3373 -0.2199  0.1329
 4996SOL    HW126624   0.925   1.925  15.249 -0.8784 -2.7306  0.1286
 4996SOL    HW226625   0.818   1.988  15.179 -0.2284 -1.5624  1.1693
 4997SOL     OW26626   2.018   2.527   6.187  0.1548  0.6464  0.0568
 4997SOL    HW126627   1.957   2.582   6.236  0.6946  0.9631  0.3745
 4997SOL    HW226628   1.970   2.507   6.107  0.5548  2.5567 -0.6384
 4998SOL     OW26629   3.908   3.789   0.482  0.2899  0.0334 -0.6609
 4998SOL    HW126630   3.979   3.754   0.536 -2.2714 -3.1423  0.7035
 4998SOL    HW226631   3.951   3.850   0.422 -0.4482  0.4583 -0.7646
 4999SOL     OW26632   0.245   2.413  15.497  0.1688  0.2997  0.3272
 4999SOL    HW126633   0.340   2.401  15.495  0.4107  2.3308 -0.7713
 4999SOL    HW226634   0.232   2.405  15.592 -1.6394 -1.5723 -0.0932
 5000SOL     OW26635   0.464   2.641   2.590  0.1471  0.0195  0.1969
 5000SOL    HW126636   0.394   2.679   2.536  0.1409  0.5441  0.5803
 5000SOL    HW226637   0.502   2.585   2.522 -1.7701 -0.7985 -0.2132
 5001SOL     OW26638   4.389   3.383  13.238  0.2249 -0.4269  0.1769
 5001SOL    HW126639   4.345   3.449  13.184  2.5018  1.3383  0.4730
 5001SOL    HW226640   4.415   3.427  13.319  1.8591 -0.2651 -0.4215
 5002SOL     OW26641   0.281   0.470   7.164  0.1022 -1.0424  0.2241
 5002SOL    HW126642   0.269   0.431   7.251 -1.1231 -0.7554  0.1884
 5002SOL    HW226643   0.229   0.404   7.119 -0.6297 -0.3172 -0.0007
 5003SOL     OW26644   0.768   4.591   6.583  0.4145  0.2727 -0.5772
 5003SOL    HW126645   0.849   4.638   6.565  1.1484 -0.8387 -0.2318
 5003SOL    HW226646   0.722   4.583   6.500  0.4358  0.3786 -0.5982
 5004SOL     OW26647   3.758   0.480  16.948 -0.6417  0.1347  0.3039
 5004SOL    HW126648   3.682   0.444  16.993 -1.6797  0.4368 -1.1768
 5004SOL    HW226649   3.810   0.512  17.021 -2.0227  0.8058  0.9995
 5005SOL     OW26650   1.044   2.629   5.677 -0.3818 -0.1758 -0.0465
 5005SOL    HW126651   1.073   2.600   5.590  1.8753 -1.2059  1.0452
 5005SOL    HW226652   1.123   2.679   5.695 -0.2313  0.1549 -1.6131
 5006SOL     OW26653   1.225   0.636   3.579  0.4821  0.0615 -0.8973
 5006SOL    HW126654   1.245   0.704   3.514  0.2375  1.3056  0.3082
 5006SOL    HW226655   1.130   0.639   3.587  0.3806 -0.7924 -1.9102
 5007SOL     OW26656   4.540   1.890   3.937  0.2229 -0.3878 -0.0955
 5007SOL    HW126657   4.585   1.965   3.897 -0.0396 -0.9520 -1.4524
 5007SOL    HW226658   4.610   1.838   3.975  3.0035 -0.4643 -5.3892
 5008SOL     OW26659   3.190   3.158   7.950 -0.1221  0.0234  0.0442
 5008SOL    HW126660   3.122   3.220   7.923 -0.0245  0.8041  1.6171
 5008SOL    HW226661   3.150   3.126   8.031 -0.9735 -0.0652 -0.4037
 5009SOL     OW26662   1.233   2.928  13.797  0.5259  0.3111 -0.3001
 5009SOL    HW126663   1.277   2.964  13.721  0.7098  1.9649  0.5828
 5009SOL    HW226664   1.214   2.839  13.769 -0.6601  0.4687 -0.0197
 5010SOL     OW26665   1.438   0.983   9.664 -0.1800 -0.4309 -0.3115
 5010SOL    HW126666   1.353   1.008   9.628  0.1827  0.1563 -0.7714
 5010SOL    HW226667   1.399   0.944   9.742 -2.0893 -1.6811 -1.8610
 5011SOL     OW26668   3.472   1.225   1.749  0.5389 -0.1914 -0.2679
 5011SOL    HW126669   3.440   1.149   1.700 -0.3515  0.3806 -0.5731
 5011SOL    HW226670   3.549   1.251   1.699  0.2489 -1.3668 -1.3383
 5012SOL     OW26671   1.148   2.127  15.487  0.6331  0.8930  0.0745
 5012SOL    HW126672   1.164   2.117  15.581  0.4698 -1.5477 -0.1480
 5012SOL    HW226673   1.117   2.217  15.497  1.5035  1.2545 -0.5333
 5013SOL     OW26674   4.692   0.694   0.360  0.1588  0.3323  0.7339
 5013SOL    HW126675   0.032   0.652   0.403  0.3675 -0.0664 -0.0127
 5013SOL    HW226676   0.012   0.737   0.293  1.0050 -0.3158  0.9990
 5014SOL     OW26677   3.729   3.453   8.374  0.0116 -0.4708 -0.4324
 5014SOL    HW126678   3.745   3.547   8.388  0.6111 -0.6487  0.0652
 5014SOL    HW226679   3.641   3.433   8.406  0.2777  3.1369  2.6281
 5015SOL     OW26680   0.927   4.009   5.953  0.6794 -0.3970  0.2557
 5015SOL    HW126681   0.874   4.082   5.984 -0.3474  0.1961 -2.9103
 5015SOL    HW226682   0.906   3.955   6.028  0.2179 -0.6207 -0.0360
 5016SOL     OW26683   3.316   1.566  10.111 -0.4666 -0.4996  0.1287
 5016SOL    HW126684   3.269   1.642  10.146  2.4679  1.0316  0.7642
 5016SOL    HW226685   3.278   1.493  10.160 -0.9013 -0.7169 -0.5339
 5017SOL     OW26686   2.308   2.331   3.380  0.3506  0.6361 -0.7284
 5017SOL    HW126687   2.228   2.382   3.396 -1.2474 -1.8371 -0.7619
 5017SOL    HW226688   2.273   2.241   3.387  0.5496  0.6339  0.2603
 5018SOL     OW26689   1.712   3.063  15.310  0.6438 -0.5129  0.0690
 5018SOL    HW126690   1.800   3.079  15.277  1.1036  0.9720  2.0037
 5018SOL    HW226691   1.671   3.038  15.227  1.3283 -0.9746 -0.1256
 5019SOL     OW26692   0.137   2.232   2.461  0.1795 -0.5273 -0.0323
 5019SOL    HW126693   0.212   2.237   2.402  0.4800  0.6724  0.4595
 5019SOL    HW226694   0.179   2.184   2.532 -0.1040 -2.8987 -1.4638
 5020SOL     OW26695   4.309   2.664   6.553 -0.0799 -0.3393 -0.3234
 5020SOL    HW126696   4.375   2.617   6.502 -0.3237 -0.5336 -0.4613
 5020SOL    HW226697   4.301   2.740   6.495 -0.9990  0.7595  1.2561
 5021SOL     OW26698   2.094   0.805   3.256  0.4205 -0.0518  0.0743
 5021SOL    HW126699   2.048   0.735   3.303  0.4718 -0.7830 -0.9617
 5021SOL    HW226700   2.188   0.786   3.264  0.6009  0.6662 -0.3333
 5022SOL     OW26701   2.850   1.331  14.466 -0.1001 -0.0738  0.5049
 5022SOL    HW126702   2.787   1.262  14.448 -0.5373  0.4736 -0.0367
 5022SOL    HW226703   2.918   1.322  14.399 -0.0734  1.7946  0.2872
 5023SOL     OW26704   3.929   3.959  10.842  0.6956 -0.2000  0.1963
 5023SOL    HW126705   3.980   3.955  10.761 -0.3214 -0.1057 -0.4500
 5023SOL    HW226706   3.975   3.904  10.905 -0.8616  0.0061  1.4859
 5024SOL     OW26707   1.575   0.158   7.290  0.1403 -0.3343  0.0767
 5024SOL    HW126708   1.510   0.149   7.220  0.2916  0.5453 -0.1797
 5024SOL    HW226709   1.662   0.168   7.251 -0.1213 -0.0352 -0.4280
 5025SOL     OW26710   3.897   1.923  16.177 -0.0449 -0.2133  0.4804
 5025SOL    HW126711   3.846   1.849  16.209  0.6030 -1.0565 -0.4452
 5025SOL    HW226712   3.969   1.919  16.241  0.6331  3.5864 -0.0360
 5026SOL     OW26713   3.184   1.258   3.734  0.1752 -0.1775  0.2720
 5026SOL    HW126714   3.111   1.317   3.714 -0.5354 -0.5647  1.7315
 5026SOL    HW226715   3.140   1.185   3.777 -1.1049  0.3876 -0.0781
 5027SOL     OW26716   3.341   3.535  13.596  0.7952 -0.2936  0.0204
 5027SOL    HW126717   3.266   3.591  13.578  1.7159  1.0796  0.4403
 5027SOL    HW226718   3.358   3.572  13.682 -1.4562  2.5823 -0.8118
 5028SOL     OW26719   3.848   0.454   8.468 -1.1044  0.0740  0.5867
 5028SOL    HW126720   3.798   0.534   8.453 -0.3363  0.4079 -0.1787
 5028SOL    HW226721   3.890   0.472   8.553 -0.0234 -0.5743  0.1944
 5029SOL     OW26722   2.421   4.159  15.533 -0.2943  0.0342 -0.4527
 5029SOL    HW126723   2.361   4.089  15.511 -1.7278  0.6632  1.4781
 5029SOL    HW226724   2.499   4.139  15.481  0.0540  2.7473 -0.9985
 5030SOL     OW26725   1.693   3.545  12.936 -0.0663 -0.0712  0.5573
 5030SOL    HW126726   1.724   3.465  12.894 -1.4375  1.6175 -3.7160
 5030SOL    HW226727   1.693   3.597  12.855  0.3829  1.1423  1.3322
 5031SOL     OW26728   2.183   1.183   8.607 -0.3906 -0.2221  0.5604
 5031SOL    HW126729   2.233   1.232   8.541 -1.4857 -1.3401 -1.0966
 5031SOL    HW226730   2.096   1.222   8.609  0.2182  1.2257 -1.3406
 5032SOL     OW26731   0.696   1.913   5.197  0.0793 -0.9782 -0.7736
 5032SOL    HW126732   0.623   1.896   5.255 -0.2528 -1.5090 -1.3486
 5032SOL    HW226733   0.774   1.900   5.252 -0.1231  0.4373 -0.1632
 5033SOL     OW26734   3.943   4.635  10.558  0.3558  0.0913 -0.2546
 5033SOL    HW126735   3.866   4.590  10.594 -0.0357  2.6228  2.0321
 5033SOL    HW226736   4.018   4.579  10.579  1.6265  1.2470 -1.6518
 5034SOL     OW26737   1.181   3.774  13.805  0.5111 -0.1639 -0.4115
 5034SOL    HW126738   1.107   3.716  13.823  0.2326  0.5802  0.8748
 5034SOL    HW226739   1.157   3.784  13.713 -0.5597  2.9166  0.2145
 5035SOL     OW26740   3.215   0.059   5.839  0.5020  0.0940  0.1248
 5035SOL    HW126741   3.142   0.084   5.782  0.6033  1.0159  0.3971
 5035SOL    HW226742   3.203   4.700   5.855  1.4138 -0.1090 -0.4189
 5036SOL     OW26743   2.175   2.841   6.234 -0.2366  0.2555  0.0331
 5036SOL    HW126744   2.091   2.849   6.188  1.2105  2.7736 -2.1690
 5036SOL    HW226745   2.229   2.868   6.159  0.0366 -1.8739 -0.5436
 5037SOL     OW26746   1.290   4.521   5.374 -0.0049  0.2037 -0.0501
 5037SOL    HW126747   1.227   4.449   5.367 -1.2440  1.3377 -0.5947
 5037SOL    HW226748   1.317   4.524   5.282  0.1308 -1.4950 -0.0754
 5038SOL     OW26749   1.112   3.082   7.662  0.1851  0.0355 -0.2381
 5038SOL    HW126750   1.164   3.031   7.600  2.7569 -1.3361  3.0507
 5038SOL    HW226751   1.087   3.018   7.729 -0.1324 -1.0236 -1.3711
 5039SOL     OW26752   3.877   1.836   7.769  0.0808  0.2659 -0.1940
 5039SOL    HW126753   3.942   1.787   7.819  0.0448  0.0648 -0.3439
 5039SOL    HW226754   3.898   1.842   7.676  0.0758 -0.4681 -0.2429
 5040SOL     OW26755   1.736   2.311   5.580  0.2658 -0.2270  0.0708
 5040SOL    HW126756   1.667   2.263   5.626  1.2076 -0.2096  1.4966
 5040SOL    HW226757   1.785   2.238   5.543 -0.7005 -1.7986  1.8781
 5041SOL     OW26758   0.302   1.543   9.117  0.0115  0.0317  0.4876
 5041SOL    HW126759   0.391   1.544   9.082  0.1329  0.1441  0.8019
 5041SOL    HW226760   0.262   1.614   9.068 -1.0022 -0.5338  0.4976
 5042SOL     OW26761   3.383   1.575   8.738  0.0489 -0.2282  0.2425
 5042SOL    HW126762   3.472   1.575   8.773  0.0739 -0.0391  0.1782
 5042SOL    HW226763   3.380   1.659   8.692  1.4391  1.1639  2.6919
 5043SOL     OW26764   4.551   2.426   5.760  0.1882  0.3478 -0.0629
 5043SOL    HW126765   4.580   2.339   5.788  2.8206  1.0325 -0.7571
 5043SOL    HW226766   4.538   2.417   5.666  0.1749 -0.2646 -0.0041
 5044SOL     OW26767   0.715   3.729   9.699 -0.1038  0.2025 -0.0857
 5044SOL    HW126768   0.665   3.807   9.723 -0.5957 -0.8626  2.3626
 5044SOL    HW226769   0.795   3.762   9.740 -0.6224  3.4418 -1.7143
 5045SOL     OW26770   0.364   0.888   6.456  0.1994  0.0927 -0.0234
 5045SOL    HW126771   0.400   0.811   6.498 -2.0547 -2.4415 -2.7460
 5045SOL    HW226772   0.405   0.878   6.370  1.7619 -1.4642  0.9109
 5046SOL     OW26773   3.248   3.990   4.202  0.4674 -0.9209 -0.7582
 5046SOL    HW126774   3.179   3.961   4.262  1.7148 -0.1013  1.0571
 5046SOL    HW226775   3.236   4.085   4.207 -0.2359 -1.0745  0.5198
 5047SOL     OW26776   0.017   2.684   1.331 -0.1556  0.0867 -0.1730
 5047SOL    HW126777   0.085   2.736   1.289  0.8895  0.5512  2.1387
 5047SOL    HW226778   0.069   2.604   1.337 -1.5125 -0.8651 -1.1493
 5048SOL     OW26779   1.295   0.259   6.441  0.3742  0.6228  0.1910
 5048SOL    HW126780   1.204   0.250   6.412  0.2876 -0.5813  0.8641
 5048SOL    HW226781   1.284   0.336   6.497  0.6468  0.5981  0.2792
 5049SOL     OW26782   1.907   4.251   1.932 -0.2925 -0.5274 -0.1686
 5049SOL    HW126783   1.968   4.190   1.891  0.2045 -1.1553  1.5098
 5049SOL    HW226784   1.839   4.245   1.864  1.4443  0.7424 -2.0059
 5050SOL     OW26785   3.000   3.242   5.384  0.2821 -0.4946  0.0507
 5050SOL    HW126786   3.036   3.179   5.446 -0.8441 -0.4313  0.7736
 5050SOL    HW226787   2.911   3.230   5.417 -0.2393  0.4300 -0.9921
 5051SOL     OW26788   1.608   4.502   9.400  0.4403  0.0886 -0.5661
 5051SOL    HW126789   1.671   4.553   9.349  1.2113 -2.5033 -2.1910
 5051SOL    HW226790   1.662   4.454   9.463  2.2754  1.7499 -0.8512
 5052SOL     OW26791   1.574   2.265   8.685 -0.1213  0.3531 -0.0485
 5052SOL    HW126792   1.643   2.332   8.681 -0.0721  0.4460  2.1820
 5052SOL    HW226793   1.597   2.206   8.757 -2.8655 -0.7028 -0.0659
 5053SOL     OW26794   2.858   4.276   8.607 -0.6405 -0.4587 -0.8655
 5053SOL    HW126795   2.778   4.224   8.598 -0.3323 -1.2330  0.9207
 5053SOL    HW226796   2.912   4.203   8.575 -2.0763 -0.3492 -3.5442
 5054SOL     OW26797   3.246   0.770  14.608 -0.0662  0.0956  0.5791
 5054SOL    HW126798   3.151   0.778  14.600 -0.0115 -1.3612 -1.8202
 5054SOL    HW226799   3.257   0.752  14.701 -1.8568  1.1947  0.9980
 5055SOL     OW26800   1.226   4.218   8.560 -0.3978 -0.3206 -0.3526
 5055SOL    HW126801   1.304   4.263   8.592 -2.4651  0.1247  3.9771
 5055SOL    HW226802   1.245   4.128   8.534 -0.4533 -0.6726  0.8367
 5056SOL     OW26803   4.261   0.154   7.879 -0.5657 -0.1308 -0.2873
 5056SOL    HW126804   4.190   0.094   7.901 -1.0847  0.6624  0.1770
 5056SOL    HW226805   4.303   0.092   7.819 -0.1641  1.5293 -1.7153
 5057SOL     OW26806   2.205   4.551   1.530 -0.0068  0.2103 -0.5612
 5057SOL    HW126807   2.117   4.574   1.502 -1.1255 -0.9181  1.9928
 5057SOL    HW226808   2.254   4.633   1.533  1.0508 -0.4687  1.7149
 5058SOL     OW26809   0.047   2.149   5.053 -0.1961  0.0637 -0.0984
 5058SOL    HW126810   0.022   2.141   5.145 -0.7239  3.5479  0.0580
 5058SOL    HW226811   0.111   2.078   5.054 -0.0438  0.1966 -0.2421
 5059SOL     OW26812   2.930   1.875  13.695  0.7954 -0.1382 -0.3275
 5059SOL    HW126813   2.837   1.868  13.673  0.1334  3.2318  1.4396
 5059SOL    HW226814   2.967   1.944  13.640  0.3780 -0.5554 -1.1242
 5060SOL     OW26815   3.196   1.145   6.517  0.3029 -0.4876 -0.4863
 5060SOL    HW126816   3.139   1.111   6.448  2.2277  0.0829 -2.3514
 5060SOL    HW226817   3.272   1.177   6.468 -0.1900 -0.0945 -0.9998
 5061SOL     OW26818   1.087   1.747  16.518  0.1722 -0.9693 -0.3681
 5061SOL    HW126819   1.054   1.773  16.604  2.0129  0.2616 -0.0427
 5061SOL    HW226820   1.157   1.685  16.538  1.0449  0.6388  1.4304
 5062SOL     OW26821   1.855   2.993   2.114 -0.3873  0.2970  0.5492
 5062SOL    HW126822   1.808   2.912   2.130 -2.2359  1.0294 -1.1235
 5062SOL    HW226823   1.925   2.972   2.052 -1.0137 -0.3302  0.0474
 5063SOL     OW26824   2.899   2.807   7.618  0.2705  0.7324  0.1484
 5063SOL    HW126825   2.834   2.855   7.669 -1.3937 -0.8123 -0.5348
 5063SOL    HW226826   2.881   2.723   7.661  0.6355  1.1558  1.1501
 5064SOL     OW26827   0.492   3.934   8.490 -0.7622  0.4146  0.2267
 5064SOL    HW126828   0.556   3.999   8.521 -0.8651 -0.4057  2.1338
 5064SOL    HW226829   0.486   3.965   8.400  2.6714  2.2940  0.6327
 5065SOL     OW26830   2.185   3.221   2.788  0.2172 -0.3934  0.1874
 5065SOL    HW126831   2.271   3.198   2.825 -0.5002 -1.7003  1.0574
 5065SOL    HW226832   2.196   3.236   2.694  1.7246  0.8029  0.5643
 5066SOL     OW26833   0.048   0.495   1.010  0.5708 -0.0948  0.2055
 5066SOL    HW126834   0.006   0.410   1.017  0.1760  0.2168  1.4947
 5066SOL    HW226835   0.141   0.476   1.026  1.1153  1.0968 -1.4904
 5067SOL     OW26836   3.163   2.426  15.720 -0.2214  0.4651 -0.3081
 5067SOL    HW126837   3.174   2.364  15.791  2.8655  1.1959 -0.1728
 5067SOL    HW226838   3.248   2.469  15.714  0.1668 -0.4525 -1.5583
 5068SOL     OW26839   2.121   3.464   6.268 -0.7644  0.3586  0.5034
 5068SOL    HW126840   2.036   3.433   6.302 -0.8185 -0.0906 -0.0635
 5068SOL    HW226841   2.161   3.496   6.349 -1.4949  0.5761  0.7862
 5069SOL     OW26842   3.620   2.930   3.249 -0.3823  0.1798 -0.5734
 5069SOL    HW126843   3.537   2.953   3.290 -0.4097 -0.4222 -0.2865
 5069SOL    HW226844   3.607   2.835   3.246 -0.9799  0.2665 -0.7881
 5070SOL     OW26845   4.076   4.152   8.923  0.9379 -0.1247  0.4976
 5070SOL    HW126846   4.047   4.242   8.905  0.5296 -0.8323 -2.4144
 5070SOL    HW226847   4.003   4.101   8.887  0.9907  0.7598 -0.8626
 5071SOL     OW26848   0.463   3.429   3.581  0.2763  0.1933  0.2050
 5071SOL    HW126849   0.446   3.416   3.675  1.2157  0.6742  0.4441
 5071SOL    HW226850   0.515   3.356   3.548 -1.5888 -0.1628 -1.9401
 5072SOL     OW26851   3.110   1.022   8.524 -0.2035 -0.0284 -0.4368
 5072SOL    HW126852   3.056   1.052   8.451  0.4705  0.1080 -0.8800
 5072SOL    HW226853   3.085   0.929   8.517  1.0832 -0.5806  2.4607
 5073SOL     OW26854   3.138   2.615   5.241  0.2013  0.7123  0.1712
 5073SOL    HW126855   3.168   2.525   5.240  1.1536  1.0446 -1.0179
 5073SOL    HW226856   3.048   2.605   5.209  0.7191 -0.2492 -0.9502
 5074SOL     OW26857   1.952   4.103  11.507 -0.1135 -0.2484 -0.2065
 5074SOL    HW126858   1.993   4.162  11.444 -0.2393  0.1266  0.0618
 5074SOL    HW226859   1.878   4.161  11.526  0.6596  0.9860 -1.0243
 5075SOL     OW26860   2.167   1.642  14.701 -0.3156  0.0155 -0.3882
 5075SOL    HW126861   2.183   1.719  14.648  1.0698  1.8053  2.6054
 5075SOL    HW226862   2.107   1.693  14.756 -0.6025 -0.7286 -0.0105
 5076SOL     OW26863   1.003   4.239  10.694  0.2442 -0.5098  0.3881
 5076SOL    HW126864   1.057   4.241  10.772 -0.4489  2.5818  0.7703
 5076SOL    HW226865   0.918   4.274  10.723 -0.7564 -2.7074  0.1483
 5077SOL     OW26866   0.190   3.755   4.186  0.2856 -0.1590  0.2717
 5077SOL    HW126867   0.142   3.738   4.104 -0.1081  1.9127  0.0820
 5077SOL    HW226868   0.191   3.670   4.230  1.3059  0.4622  1.4250
 5078SOL     OW26869   4.233   0.967   2.972 -0.6102  0.2446  0.4020
 5078SOL    HW126870   4.319   0.972   2.930 -0.5394 -1.0176  0.3840
 5078SOL    HW226871   4.261   0.935   3.058  0.2766 -1.5238 -0.5276
 5079SOL     OW26872   0.491   2.836   4.880  0.6309 -1.0693 -0.5890
 5079SOL    HW126873   0.414   2.872   4.837  2.4886  2.8123 -0.7145
 5079SOL    HW226874   0.449   2.814   4.963  1.1151 -0.6161 -0.2233
 5080SOL     OW26875   3.028   3.714   3.432  0.2954 -1.0352 -0.2212
 5080SOL    HW126876   2.939   3.682   3.443  1.0289 -3.4432 -1.3988
 5080SOL    HW226877   3.028   3.720   3.336  0.2115  0.7091 -0.1201
 5081SOL     OW26878   0.741   0.168   5.632  0.2356  0.2302 -0.3029
 5081SOL    HW126879   0.777   0.257   5.630  1.2616 -0.2158 -1.2335
 5081SOL    HW226880   0.807   0.101   5.649  0.1632 -0.1426 -1.4895
 5082SOL     OW26881   0.269   3.006   8.241  0.2175  0.3709 -0.7431
 5082SOL    HW126882   0.225   3.089   8.258 -0.9551 -0.9957  2.7978
 5082SOL    HW226883   0.230   2.958   8.314  1.6171  2.1157  1.1609
 5083SOL     OW26884   2.815   0.187   5.434  0.5206  0.2310  0.1594
 5083SOL    HW126885   2.817   0.181   5.339 -1.8953 -0.3815  0.1320
 5083SOL    HW226886   2.752   0.119   5.459  0.8835  0.4402  1.6507
 5084SOL     OW26887   3.389   3.910  16.423  0.2329 -0.6522 -0.3136
 5084SOL    HW126888   3.366   3.831  16.374 -3.6312 -0.0307  0.4248
 5084SOL    HW226889   3.306   3.958  16.414  1.5919  2.0835  1.5378
 5085SOL     OW26890   3.231   4.713   3.445  0.2156  0.3775 -0.3820
 5085SOL    HW126891   3.179   4.641   3.480  0.9009 -0.3238 -0.7924
 5085SOL    HW226892   3.308   4.708   3.502 -0.7091  2.2393  1.0331
 5086SOL     OW26893   2.142   2.323   5.944 -0.0895 -0.2895 -0.2354
 5086SOL    HW126894   2.164   2.416   5.938  2.4906 -0.9911 -1.5346
 5086SOL    HW226895   2.061   2.320   5.892 -0.1136  2.1822 -0.3687
 5087SOL     OW26896   0.058   3.396   4.597  0.2606  0.0888 -0.2840
 5087SOL    HW126897   0.058   3.489   4.577  0.3308 -0.3053 -2.1324
 5087SOL    HW226898   0.141   3.390   4.644  1.6268 -0.0452 -2.6748
 5088SOL     OW26899   1.676   1.208   1.532  0.7947 -0.0295 -0.3823
 5088SOL    HW126900   1.701   1.182   1.443 -1.3821 -1.0926 -0.6925
 5088SOL    HW226901   1.720   1.139   1.582 -0.3912 -0.0217  0.6684
 5089SOL     OW26902   1.131   0.093  14.513  0.2197 -0.4021  0.1862
 5089SOL    HW126903   1.075   0.096  14.590 -1.6282  3.8790 -1.3340
 5089SOL    HW226904   1.213   0.122  14.553 -0.1030  0.9211 -0.1113
 5090SOL     OW26905   1.747   4.654   2.374 -0.1940 -0.2556 -0.1187
 5090SOL    HW126906   1.763   4.599   2.451  2.4703  0.4609 -0.1824
 5090SOL    HW226907   1.651   4.653   2.375 -0.1589 -0.4810  2.3309
 5091SOL     OW26908   2.728   0.858   0.733 -0.3795 -0.3061 -0.4853
 5091SOL    HW126909   2.675   0.911   0.673 -0.9384  0.3406  0.5794
 5091SOL    HW226910   2.813   0.849   0.691  0.1042  4.4107 -0.4970
 5092SOL     OW26911   2.373   0.849   8.143  0.1624 -0.1931  0.3890
 5092SOL    HW126912   2.370   0.772   8.200  0.4622 -0.2560  0.3209
 5092SOL    HW226913   2.297   0.830   8.088  0.7190  2.3754 -1.2745
 5093SOL     OW26914   1.079   0.014  14.923  0.3061 -0.3805  0.0162
 5093SOL    HW126915   0.984   0.023  14.922  0.4252  1.1525  1.5286
 5093SOL    HW226916   1.112   0.079  14.861  1.6634 -0.1853  0.9526
 5094SOL     OW26917   0.810   2.488   6.429 -0.2404 -0.1636 -0.3186
 5094SOL    HW126918   0.820   2.395   6.445  0.8919 -0.2370 -1.4338
 5094SOL    HW226919   0.888   2.508   6.377 -2.4520  2.5563 -2.5728
 5095SOL     OW26920   3.608   1.960  11.914 -0.3092 -0.1215 -0.5942
 5095SOL    HW126921   3.543   2.030  11.910 -0.1913 -0.1053 -2.4855
 5095SOL    HW226922   3.582   1.913  11.993 -0.3360  2.5285  0.9977
 5096SOL     OW26923   0.602   0.435   7.926 -0.2331 -0.2730 -0.5787
 5096SOL    HW126924   0.591   0.519   7.971  1.6071  0.7566 -2.0607
 5096SOL    HW226925   0.591   0.373   7.998 -1.1986  0.4229 -0.1297
 5097SOL     OW26926   3.913   1.128   9.031  0.5724  0.0014  0.1346
 5097SOL    HW126927   3.953   1.053   8.988  1.0054 -0.0557  0.6237
 5097SOL    HW226928   3.851   1.086   9.091  2.1993 -2.1859  0.2794
 5098SOL     OW26929   1.017   3.025  15.647 -0.4486  0.1623 -0.0276
 5098SOL    HW126930   1.028   3.111  15.688  1.2278  0.5645 -1.3438
 5098SOL    HW226931   1.103   3.004  15.611 -0.8693 -1.8156  0.0981
 5099SOL     OW26932   2.323   1.298   6.673  0.3665  0.0839 -0.6341
 5099SOL    HW126933   2.296   1.379   6.716  0.0425 -0.5951  0.4226
 5099SOL    HW226934   2.362   1.258   6.750  0.5776  0.3667 -0.5929
 5100SOL     OW26935   2.882   4.411   8.180 -0.0815  0.3354  0.7301
 5100SOL    HW126936   2.832   4.428   8.099 -2.6292 -1.1869  1.9813
 5100SOL    HW226937   2.973   4.421   8.153 -0.6319  0.0469 -1.2959
 5101SOL     OW26938   1.411   1.657  15.321  0.4326 -0.0464 -0.3223
 5101SOL    HW126939   1.351   1.632  15.391  0.1091  1.6592 -0.0005
 5101SOL    HW226940   1.376   1.599  15.253  1.3463 -0.8403 -0.1090
 5102SOL     OW26941   1.990   2.389  17.496 -0.2582  0.0189  0.1996
 5102SOL    HW126942   1.903   2.356  17.520 -0.7370  0.6351 -0.7150
 5102SOL    HW226943   1.982   2.479  17.528 -1.2075 -0.7323  2.0678
 5103SOL     OW26944   0.024   4.034   4.153 -0.2335  0.1365  0.0201
 5103SOL    HW126945   0.011   4.128   4.139  2.0045  0.3704 -0.3825
 5103SOL    HW226946   0.025   4.021   4.247 -0.3395 -0.5640 -0.0749
 5104SOL     OW26947   2.005   2.193   2.629 -0.4527  0.3697  0.2739
 5104SOL    HW126948   2.063   2.224   2.699 -0.5193  0.2200  0.3946
 5104SOL    HW226949   2.015   2.101   2.652  0.7758  0.4095 -0.0948
 5105SOL     OW26950   3.366   1.370   6.159 -0.2872  0.0569 -0.0811
 5105SOL    HW126951   3.332   1.459   6.171  0.4935  0.2676  0.5446
 5105SOL    HW226952   3.369   1.340   6.249 -1.3422 -0.7476 -0.3129
 5106SOL     OW26953   2.504   4.525   6.826  0.1188  0.3702 -0.1296
 5106SOL    HW126954   2.468   4.554   6.743 -1.9741 -0.7670  0.3728
 5106SOL    HW226955   2.449   4.448   6.835  0.4942  0.0353 -0.7182
 5107SOL     OW26956   0.476   0.863   7.543  0.0292 -0.4333 -0.2569
 5107SOL    HW126957   0.414   0.915   7.492 -1.3276  0.0102  1.8512
 5107SOL    HW226958   0.429   0.832   7.620  1.0993  1.0890  0.9906
 5108SOL     OW26959   4.212   3.946   5.301 -0.1943 -0.3407 -0.1693
 5108SOL    HW126960   4.302   3.978   5.296  0.2147 -0.8382  4.1676
 5108SOL    HW226961   4.163   3.997   5.236 -2.0340  0.3817  1.7817
 5109SOL     OW26962   4.129   2.152   4.324 -0.0746 -0.2542  0.0446
 5109SOL    HW126963   4.152   2.174   4.233  3.6657  0.2271  1.0879
 5109SOL    HW226964   4.105   2.060   4.315  0.7412 -0.3457 -1.3365
 5110SOL     OW26965   1.141   2.131   8.057  0.7475  1.0187  0.4072
 5110SOL    HW126966   1.188   2.208   8.025  0.8028 -1.4310 -5.5019
 5110SOL    HW226967   1.199   2.063   8.023  0.1217  0.6855  0.0109
 5111SOL     OW26968   2.135   3.696   2.675  0.6016  0.2131 -0.0650
 5111SOL    HW126969   2.117   3.669   2.585 -0.7845 -1.4568  0.7040
 5111SOL    HW226970   2.173   3.784   2.670  0.8750  0.1254  0.4234
 5112SOL     OW26971   0.749   2.816   0.877  0.3622 -0.4189  0.2676
 5112SOL    HW126972   0.654   2.808   0.864  0.7331  1.2422 -3.2628
 5112SOL    HW226973   0.759   2.895   0.930 -2.1414  0.0416  0.0421
 5113SOL     OW26974   2.725   1.180   1.570 -0.2931 -0.0821 -0.0336
 5113SOL    HW126975   2.802   1.220   1.610  0.8403 -0.7776 -1.4977
 5113SOL    HW226976   2.659   1.249   1.579  0.5567  0.8570 -1.0006
 5114SOL     OW26977   0.113   4.685   1.723 -0.6706 -0.2341  0.0206
 5114SOL    HW126978   0.195   4.639   1.736 -1.9404 -2.4261  0.2922
 5114SOL    HW226979   0.130   0.028   1.777 -1.2766  0.7352 -1.1414
 5115SOL     OW26980   0.044   2.001  13.419  0.4096  0.2912 -0.0974
 5115SOL    HW126981   0.127   1.961  13.444  0.7836  0.3165 -1.2937
 5115SOL    HW226982   0.047   2.069  13.486 -0.5131  0.3875 -0.1634
 5116SOL     OW26983   4.258   1.274   2.510 -0.1539 -0.1566  0.4673
 5116SOL    HW126984   4.310   1.202   2.545  2.4393  1.9645  1.0501
 5116SOL    HW226985   4.318   1.349   2.521  0.9658 -0.8651 -0.8416
 5117SOL     OW26986   4.331   3.237   4.772  0.5066  0.9822  0.1294
 5117SOL    HW126987   4.272   3.312   4.763 -0.4278  0.2826  0.4297
 5117SOL    HW226988   4.395   3.272   4.833 -0.7786  1.7891  1.0075
 5118SOL     OW26989   3.945   2.790   7.804  0.2907 -0.8571 -0.5678
 5118SOL    HW126990   4.020   2.730   7.807  0.8908 -0.0918 -0.1531
 5118SOL    HW226991   3.882   2.728   7.767  1.0524 -1.1134 -1.4493
 5119SOL     OW26992   1.063   2.200  16.477  0.0919  0.2116  0.2583
 5119SOL    HW126993   1.017   2.278  16.507  1.4754  0.7736  0.9113
 5119SOL    HW226994   1.054   2.211  16.383  2.0313 -0.8851 -0.0714
 5120SOL     OW26995   2.092   1.285   8.976  0.1264  0.1605  0.3247
 5120SOL    HW126996   2.021   1.267   9.038 -0.4835  1.0917 -0.1111
 5120SOL    HW226997   2.114   1.195   8.951  0.2040  0.4424 -0.6138
 5121SOL     OW26998   2.847   2.032   7.769  0.0143  0.1740 -0.1985
 5121SOL    HW126999   2.911   2.062   7.705  1.3433  0.5212  1.2887
 5121SOL    HW227000   2.862   1.938   7.762  1.7635  0.4607 -0.3063
 5122SOL     OW27001   3.862   2.843   5.550  0.0557  0.3816  0.1144
 5122SOL    HW127002   3.800   2.877   5.486 -0.9626 -1.7584 -0.0581
 5122SOL    HW227003   3.837   2.751   5.541 -0.7753  0.6326 -0.1108
 5123SOL     OW27004   1.166   1.370   0.714 -0.0025  0.0809 -0.7088
 5123SOL    HW127005   1.105   1.305   0.680 -0.8792  0.3345  0.3817
 5123SOL    HW227006   1.140   1.446   0.662  1.0551  0.6365 -0.4256
 5124SOL     OW27007   1.745   4.658   7.500 -0.0473 -0.2649 -0.0089
 5124SOL    HW127008   1.725   0.014   7.527  0.2334 -0.2575  0.1734
 5124SOL    HW227009   1.681   4.640   7.432  0.8893 -1.5504 -0.5480
 5125SOL     OW27010   3.751   0.225   6.280 -0.0662 -0.7081  0.3510
 5125SOL    HW127011   3.663   0.261   6.274  0.7499  1.1347 -0.4911
 5125SOL    HW227012   3.770   0.194   6.191 -0.1426  2.9312 -0.9040
 5126SOL     OW27013   0.811   0.999   6.457  0.5348 -0.4167  0.1768
 5126SOL    HW127014   0.891   0.988   6.404 -1.4061  2.4728 -3.3488
 5126SOL    HW227015   0.748   1.025   6.390 -2.2386 -2.6761  1.9428
 5127SOL     OW27016   1.992   1.740   3.293  0.0232  0.3179 -0.3036
 5127SOL    HW127017   1.943   1.812   3.251 -2.5731 -0.2327  1.8125
 5127SOL    HW227018   2.040   1.710   3.215 -2.0132 -1.6142 -0.7911
 5128SOL     OW27019   4.020   0.415  15.928  0.4163  0.2764 -0.5623
 5128SOL    HW127020   3.990   0.458  15.848  0.0876  0.6200 -0.2576
 5128SOL    HW227021   3.976   0.330  15.930 -1.0744  1.0543 -0.0947
 5129SOL     OW27022   4.144   2.148   1.917  0.2661  0.2376  0.2687
 5129SOL    HW127023   4.161   2.218   1.981 -1.4951  0.9966 -0.0997
 5129SOL    HW227024   4.231   2.120   1.888  0.1660  0.6950 -0.4781
 5130SOL     OW27025   0.364   0.046   8.135 -0.4399  0.1543 -0.6968
 5130SOL    HW127026   0.365   4.698   8.086 -1.9727  1.7163 -3.2815
 5130SOL    HW227027   0.391   0.017   8.223 -2.0349  0.4284 -0.1253
 5131SOL     OW27028   2.876   0.210   9.416  0.6812  0.3175 -0.2967
 5131SOL    HW127029   2.930   0.186   9.341  0.8369  1.1921 -0.4617
 5131SOL    HW227030   2.904   0.300   9.429  0.6896  0.0778  1.3068
 5132SOL     OW27031   1.414   2.338   7.630 -0.0542  0.2422  0.1849
 5132SOL    HW127032   1.376   2.368   7.712 -0.4516 -1.0427  0.4650
 5132SOL    HW227033   1.479   2.270   7.652 -1.6638 -1.0040  1.0832
 5133SOL     OW27034   3.781   1.519  16.895 -0.2968 -0.7743 -0.2286
 5133SOL    HW127035   3.715   1.524  16.826 -0.5212  4.4025  0.3182
 5133SOL    HW227036   3.729   1.561  16.964  0.5654  0.0264 -0.0750
 5134SOL     OW27037   1.622   4.022   4.958 -0.0643 -0.0897 -0.3423
 5134SOL    HW127038   1.652   3.961   5.025 -0.5009 -0.6392 -0.6544
 5134SOL    HW227039   1.703   4.018   4.906 -0.5520  1.1296 -1.1940
 5135SOL     OW27040   2.797   1.303   1.221 -0.0171  0.5009 -0.3017
 5135SOL    HW127041   2.801   1.263   1.134  0.9902  2.2263 -1.0364
 5135SOL    HW227042   2.778   1.222   1.269  0.4452 -0.6750 -2.1022
 5136SOL     OW27043   0.157   3.864   5.255  0.3176  0.3552 -0.3508
 5136SOL    HW127044   0.115   3.832   5.334 -0.4053 -0.1266 -0.9259
 5136SOL    HW227045   0.093   3.927   5.221 -0.5403  0.5818  1.7427
 5137SOL     OW27046   1.511   0.529   3.584  0.4154 -0.9086 -0.7375
 5137SOL    HW127047   1.486   0.470   3.655  1.3277 -2.8813 -2.0772
 5137SOL    HW227048   1.434   0.575   3.549  0.4785 -0.5471 -0.3939
 5138SOL     OW27049   4.241   0.196   2.619  0.0628 -0.1348  0.4243
 5138SOL    HW127050   4.155   0.195   2.578 -0.8898 -1.2634  2.4124
 5138SOL    HW227051   4.225   0.195   2.713  0.2161  1.9339  0.4546
 5139SOL     OW27052   1.439   4.014   1.910 -0.2029  0.0968  0.0694
 5139SOL    HW127053   1.390   3.956   1.968  0.2276 -0.7527 -0.4106
 5139SOL    HW227054   1.507   3.952   1.881 -0.0643  0.7978 -1.1046
 5140SOL     OW27055   0.119   0.215  14.099  0.3114  0.3552 -0.3053
 5140SOL    HW127056   0.179   0.196  14.028 -0.6579  1.5822 -1.4571
 5140SOL    HW227057   0.035   0.225  14.054 -1.1579 -0.5093  2.2426
 5141SOL     OW27058   3.084   2.750   8.213  0.2359 -0.2043 -0.0814
 5141SOL    HW127059   3.025   2.796   8.153  0.2299 -0.8457 -0.5764
 5141SOL    HW227060   3.137   2.705   8.146  2.1655 -3.7453  3.8083
 5142SOL     OW27061   3.476   2.398   6.349  0.4458 -0.0868 -0.0420
 5142SOL    HW127062   3.571   2.405   6.358  0.5918 -1.5251 -0.5827
 5142SOL    HW227063   3.462   2.483   6.391  1.6526 -0.5318  1.2792
 5143SOL     OW27064   3.743   1.720   8.608  0.6755  0.2867 -0.0987
 5143SOL    HW127065   3.721   1.666   8.531 -2.3294 -0.4188  1.2502
 5143SOL    HW227066   3.726   1.656   8.678  0.4486  0.4694  0.0147
 5144SOL     OW27067   3.944   1.611   5.443 -0.3362  0.0546 -0.0389
 5144SOL    HW127068   3.885   1.612   5.517 -1.3119 -0.6350 -0.8089
 5144SOL    HW227069   3.947   1.516   5.430  0.2275  0.1226 -0.4224
 5145SOL     OW27070   1.102   2.291   5.317 -0.0063 -0.2191 -0.1214
 5145SOL    HW127071   1.079   2.203   5.348  2.2088 -0.2002  1.5817
 5145SOL    HW227072   1.103   2.269   5.224  0.7982 -0.8650  0.0349
 5146SOL     OW27073   2.705   3.901   7.917 -0.1275  0.1203 -0.2445
 5146SOL    HW127074   2.740   3.990   7.921  0.0659  0.1712 -3.0200
 5146SOL    HW227075   2.688   3.865   8.004  0.6284  0.0357 -0.1302
 5147SOL     OW27076   1.852   3.734   5.666 -0.5587  0.3203  0.1824
 5147SOL    HW127077   1.850   3.714   5.760 -2.3726 -0.6735 -0.0838
 5147SOL    HW227078   1.946   3.731   5.647 -0.9005  1.9543 -1.7275
 5148SOL     OW27079   3.914   4.385   9.886 -0.0550 -0.2480 -0.1328
 5148SOL    HW127080   3.975   4.437   9.938 -0.3162 -0.0521 -0.0211
 5148SOL    HW227081   3.865   4.456   9.845 -0.9470 -0.8156 -0.0460
 5149SOL     OW27082   1.959   0.692   6.615 -0.3560  0.4103 -0.0653
 5149SOL    HW127083   1.931   0.665   6.528 -0.4254 -1.3336  0.5089
 5149SOL    HW227084   1.889   0.753   6.640 -0.9166 -0.3004  0.1222
 5150SOL     OW27085   0.142   1.272   5.901 -0.2279  0.3037  0.2125
 5150SOL    HW127086   0.183   1.335   5.960  0.0039  0.2702  0.0904
 5150SOL    HW227087   0.209   1.276   5.832  0.8660 -0.1789  1.2386
 5151SOL     OW27088   4.392   0.903   3.900  0.1722  1.0477  0.1724
 5151SOL    HW127089   4.479   0.941   3.890  0.7680 -0.2517  0.4374
 5151SOL    HW227090   4.343   0.982   3.876 -0.3094  0.8398  0.4475
 5152SOL     OW27091   3.480   2.170  15.003 -0.4012 -0.1842 -0.5694
 5152SOL    HW127092   3.408   2.139  14.947  1.1033  0.0614 -2.6533
 5152SOL    HW227093   3.517   2.084  15.024  1.3613  0.0766 -2.5527
 5153SOL     OW27094   3.972   1.875  13.835  0.3153  0.1169 -0.5478
 5153SOL    HW127095   3.941   1.927  13.761 -2.4035 -0.9293 -0.1273
 5153SOL    HW227096   3.992   1.792  13.792 -0.7879  0.6365 -2.0786
 5154SOL     OW27097   3.597   1.596   9.075 -0.6492 -0.4459  0.1292
 5154SOL    HW127098   3.526   1.562   9.130  1.3448 -1.4799  2.0507
 5154SOL    HW227099   3.669   1.538   9.099 -0.5827 -0.9149 -1.1760
 5155SOL     OW27100   4.347   3.070   5.090 -0.0381  0.0389 -0.3612
 5155SOL    HW127101   4.394   3.023   5.022  0.5639 -1.2653  0.9462
 5155SOL    HW227102   4.425   3.107   5.131  0.0669  0.4210 -0.9187
 5156SOL     OW27103   1.954   2.305   3.552  0.6128  0.6858  0.0032
 5156SOL    HW127104   1.935   2.299   3.458 -0.6577  0.1786  0.2918
 5156SOL    HW227105   1.963   2.400   3.560 -0.8011  0.6504  1.9308
 5157SOL     OW27106   4.434   0.490  11.498 -0.3078  0.3880  0.3146
 5157SOL    HW127107   4.345   0.463  11.478 -1.0543  1.3892  2.3608
 5157SOL    HW227108   4.409   0.570  11.543  1.5003  0.9595  0.3196
 5158SOL     OW27109   0.258   0.530   0.731 -0.2140 -0.4212 -0.8155
 5158SOL    HW127110   0.353   0.520   0.725  0.0476  0.8255  1.1287
 5158SOL    HW227111   0.262   0.606   0.789  0.5990 -0.6805 -0.5253
 5159SOL     OW27112   2.170   0.698   0.825  0.2610 -0.9908 -0.5172
 5159SOL    HW127113   2.231   0.717   0.754  0.0058 -1.6753 -0.9242
 5159SOL    HW227114   2.168   0.602   0.815  0.3304 -0.9819 -0.6148
 5160SOL     OW27115   3.057   0.173  13.582 -0.0332  0.1847  0.2016
 5160SOL    HW127116   3.124   0.189  13.648 -0.6411  1.6819  0.4720
 5160SOL    HW227117   3.113   0.118  13.527  0.6509  0.0648  1.0151
 5161SOL     OW27118   3.315   1.437  12.650 -0.5366  0.2378  0.2790
 5161SOL    HW127119   3.259   1.386  12.709 -0.3180  0.2553  0.5017
 5161SOL    HW227120   3.247   1.477  12.595 -1.3546 -2.8073 -0.9267
 5162SOL     OW27121   0.757   4.659   8.299  0.7595  0.2629 -0.3265
 5162SOL    HW127122   0.777   4.659   8.393  2.3422 -0.3578 -0.6555
 5162SOL    HW227123   0.780   0.015   8.279  0.9552  0.5831  1.3117
 5163SOL     OW27124   1.404   1.109   5.319  0.3956  0.5668 -0.0479
 5163SOL    HW127125   1.413   1.088   5.226  3.7041  0.3613  0.2897
 5163SOL    HW227126   1.439   1.199   5.317 -3.7043  2.1640  0.4646
 5164SOL     OW27127   3.677   4.123  10.706  0.6381 -0.1266 -0.2192
 5164SOL    HW127128   3.725   4.148  10.627 -0.0972  2.6044  0.1967
 5164SOL    HW227129   3.637   4.209  10.721  0.2694 -0.2254 -0.6236
 5165SOL     OW27130   3.937   1.888   5.839  0.1747  0.5744  0.4216
 5165SOL    HW127131   3.933   1.949   5.914  3.2418  0.3678  0.7558
 5165SOL    HW227132   3.962   1.807   5.882 -2.4050  0.3701  1.5489
 5166SOL     OW27133   4.018   4.052  11.269  0.4470  0.1186  0.2575
 5166SOL    HW127134   4.099   4.050  11.219  0.7214 -0.2303  0.7189
 5166SOL    HW227135   3.989   4.143  11.262  3.2782  1.0266  0.6609
 5167SOL     OW27136   4.621   3.787   5.409 -0.4594  0.1779  0.6535
 5167SOL    HW127137   4.601   3.821   5.496  0.6083  4.1048 -0.6788
 5167SOL    HW227138   4.558   3.830   5.352  0.7134 -0.8047 -1.3672
 5168SOL     OW27139   2.654   2.022   3.122 -0.1360  0.2198  0.1954
 5168SOL    HW127140   2.670   2.116   3.112  0.8165 -0.0124 -0.4207
 5168SOL    HW227141   2.573   2.015   3.174 -0.0119  1.3906  0.5521
 5169SOL     OW27142   4.027   3.102   6.209 -0.1106  0.2146 -0.1527
 5169SOL    HW127143   3.950   3.124   6.157 -0.1057  1.2722  0.2845
 5169SOL    HW227144   3.997   3.063   6.291 -2.4183  0.4108 -0.8953
 5170SOL     OW27145   0.691   3.725   0.979  0.5935  0.0453 -0.1128
 5170SOL    HW127146   0.664   3.761   0.894 -0.2987  0.5881  0.4064
 5170SOL    HW227147   0.786   3.740   0.976  0.6607 -0.5029 -0.6640
 5171SOL     OW27148   1.254   2.465   5.131  0.1137 -0.3794 -0.2472
 5171SOL    HW127149   1.194   2.413   5.184  1.6737  0.5476  2.4205
 5171SOL    HW227150   1.231   2.552   5.161  0.0679 -0.8378  1.0544
 5172SOL     OW27151   4.641   3.734   4.664  0.2141  0.3827 -0.4311
 5172SOL    HW127152   4.724   3.721   4.710  0.3740  0.8421 -0.5928
 5172SOL    HW227153   4.583   3.771   4.731  0.9357  3.7862 -1.6884
 5173SOL     OW27154   2.222   2.314  10.445 -0.0785 -0.7201  0.4309
 5173SOL    HW127155   2.186   2.398  10.474  0.8372  0.1347 -0.9118
 5173SOL    HW227156   2.287   2.335  10.378 -0.4266  2.8994  1.2240
 5174SOL     OW27157   1.529   0.341   5.833 -0.2437  0.0721 -0.2467
 5174SOL    HW127158   1.517   0.390   5.751 -0.4391 -0.5596 -0.5958
 5174SOL    HW227159   1.459   0.379   5.886 -2.2675 -1.9497 -1.4474
 5175SOL     OW27160   2.644   3.821   6.310  0.2924  0.4026  1.0447
 5175SOL    HW127161   2.629   3.889   6.244  1.3787 -1.6993 -1.3649
 5175SOL    HW227162   2.635   3.752   6.245 -2.0528  0.5265  1.2434
 5176SOL     OW27163   1.384   4.218   2.690  0.3560 -0.2280  0.2112
 5176SOL    HW127164   1.451   4.154   2.710 -0.2369 -0.2586  2.1374
 5176SOL    HW227165   1.336   4.216   2.773 -0.7615 -1.8935 -0.4576
 5177SOL     OW27166   3.111   0.503   9.882 -0.0157  0.3864  0.1353
 5177SOL    HW127167   3.138   0.495   9.790  1.3086  0.2634  0.5294
 5177SOL    HW227168   3.046   0.435   9.899  1.7795 -0.5578  3.2799
 5178SOL     OW27169   0.908   3.311   7.450 -0.7390  0.1436  0.2360
 5178SOL    HW127170   0.829   3.316   7.504 -2.1511 -0.7336 -1.7006
 5178SOL    HW227171   0.920   3.216   7.444  0.9307  0.2499  2.1507
 5179SOL     OW27172   3.224   3.140   4.554  0.3309 -0.1432 -0.3222
 5179SOL    HW127173   3.237   3.129   4.648 -1.2946 -0.4291 -0.1309
 5179SOL    HW227174   3.246   3.230   4.531  1.1483 -0.4555 -0.7429
 5180SOL     OW27175   3.655   0.020   0.300 -0.5519 -0.1300  0.0349
 5180SOL    HW127176   3.676   0.102   0.255 -0.4611 -0.8364 -1.2300
 5180SOL    HW227177   3.613   4.705   0.229 -0.5778 -0.9167  0.6117
 5181SOL     OW27178   3.111   0.897   8.037 -0.6571  0.1784 -0.1177
 5181SOL    HW127179   3.021   0.903   8.067 -0.4921 -0.1692  0.4551
 5181SOL    HW227180   3.143   0.987   8.036 -0.9617  0.2688 -2.3718
 5182SOL     OW27181   1.777   0.827   7.787  0.6203 -0.1631  0.0556
 5182SOL    HW127182   1.747   0.744   7.823  3.9261 -0.7980  1.4097
 5182SOL    HW227183   1.706   0.890   7.785  0.3819 -0.4246  0.2123
 5183SOL     OW27184   3.591   3.150   1.915 -0.4956 -0.1285 -0.1006
 5183SOL    HW127185   3.665   3.208   1.935  0.3293 -0.4922 -2.0871
 5183SOL    HW227186   3.638   3.078   1.872 -0.0877  0.4227 -0.5887
 5184SOL     OW27187   4.005   3.031   7.267 -0.3998  0.8395  0.1076
 5184SOL    HW127188   3.978   3.036   7.359  1.2751  0.5732  0.6263
 5184SOL    HW227189   3.918   3.039   7.229  0.2044 -1.5836 -1.7631
 5185SOL     OW27190   0.716   1.421   8.867  0.3658  0.2541  0.1482
 5185SOL    HW127191   0.805   1.454   8.863  0.4181 -0.0855 -1.3236
 5185SOL    HW227192   0.737   1.329   8.884 -1.1947  0.2118  1.9067
 5186SOL     OW27193   4.506   3.587   3.674 -0.0956 -0.2934  0.3950
 5186SOL    HW127194   4.541   3.501   3.652 -0.2603 -0.3667  0.4216
 5186SOL    HW227195   4.438   3.547   3.728 -2.5635  5.1687  1.2739
 5187SOL     OW27196   0.810   4.432  16.004  0.1298  0.2992 -0.2941
 5187SOL    HW127197   0.743   4.494  16.032  0.4003 -0.0026  1.0357
 5187SOL    HW227198   0.758   4.387  15.937 -1.6861  0.9738  0.6474
 5188SOL     OW27199   3.038   1.355   2.097 -0.6617 -0.2068 -0.2124
 5188SOL    HW127200   3.114   1.371   2.154 -1.4363 -1.1819  1.0688
 5188SOL    HW227201   3.042   1.439   2.049  0.1325 -0.5422 -0.7451
 5189SOL     OW27202   3.420   0.207  11.019 -0.3375  0.1333  0.0979
 5189SOL    HW127203   3.353   0.139  11.025  0.0533 -0.2290  0.3600
 5189SOL    HW227204   3.440   0.218  11.112 -1.5522  0.1605  0.3486
 5190SOL     OW27205   1.825   0.920   7.480  0.2570 -0.4632 -0.1911
 5190SOL    HW127206   1.866   0.932   7.565  0.7119  0.0221 -0.4783
 5190SOL    HW227207   1.737   0.955   7.492  1.5996  2.3045  1.4663
 5191SOL     OW27208   3.915   4.338   8.087  0.5373  0.1746 -0.1869
 5191SOL    HW127209   4.011   4.341   8.080  0.5414 -2.6999 -1.0558
 5191SOL    HW227210   3.893   4.422   8.129 -2.2828 -0.5296 -0.2605
 5192SOL     OW27211   1.055   2.942   9.254 -0.1253 -0.2447  0.3753
 5192SOL    HW127212   1.037   2.878   9.324  2.4573 -2.0860 -0.6347
 5192SOL    HW227213   0.977   2.939   9.199 -0.2788 -0.8702  0.6222
 5193SOL     OW27214   3.877   4.244   6.373  0.3406  0.3167  0.1304
 5193SOL    HW127215   3.812   4.208   6.433 -0.1016  0.5979 -0.1752
 5193SOL    HW227216   3.912   4.170   6.324 -0.6030  0.5408 -0.8828
 5194SOL     OW27217   0.706   3.504   4.779  0.2725 -0.0184 -0.1381
 5194SOL    HW127218   0.737   3.570   4.717 -0.3497 -1.2645 -1.7665
 5194SOL    HW227219   0.786   3.460   4.810 -0.4302 -1.2785 -0.1187
 5195SOL     OW27220   3.804   4.493   0.055  0.2695 -0.0809 -0.2641
 5195SOL    HW127221   3.758   4.576   0.041  0.5474  0.0038 -0.6607
 5195SOL    HW227222   3.732   4.439   0.087  0.5123  0.2504  0.8671
 5196SOL     OW27223   3.207   0.670   3.639  0.0090 -0.0285 -0.0817
 5196SOL    HW127224   3.291   0.637   3.607  1.1206  1.2910  1.4661
 5196SOL    HW227225   3.243   0.751   3.676  0.0780 -0.7859  1.4951
 5197SOL     OW27226   0.122   0.227   1.586 -0.4264 -0.4793 -0.0521
 5197SOL    HW127227   0.092   0.236   1.677 -3.2620  0.4389 -1.1156
 5197SOL    HW227228   0.045   0.260   1.542  0.6600  0.3691 -1.3181
 5198SOL     OW27229   4.430   0.052   8.476 -0.4753 -0.4268 -0.1352
 5198SOL    HW127230   4.389   4.718   8.423 -4.9284 -0.5553  3.5537
 5198SOL    HW227231   4.356   0.108   8.496  0.9158  0.1452  3.4750
 5199SOL     OW27232   4.288   1.869  16.233 -0.0220  0.3672  0.1795
 5199SOL    HW127233   4.301   1.778  16.206 -0.9159  0.1623  0.4183
 5199SOL    HW227234   4.215   1.867  16.295 -0.0119  1.2086  0.2289
 5200SOL     OW27235   2.861   3.580   2.953 -0.4823  0.1765 -0.6417
 5200SOL    HW127236   2.882   3.631   2.875  0.7961  0.6137 -0.0111
 5200SOL    HW227237   2.945   3.535   2.966 -1.0252 -0.7354 -0.2524
 5201SOL     OW27238   1.756   2.550  14.855 -0.1847  0.9479  0.2577
 5201SOL    HW127239   1.709   2.467  14.853 -1.5028  1.7111 -0.9152
 5201SOL    HW227240   1.831   2.530  14.799  0.0949 -1.3155  1.4594
 5202SOL     OW27241   1.330   1.250   1.893 -0.0661  0.1319 -0.6671
 5202SOL    HW127242   1.337   1.326   1.951 -3.2451 -2.1002  2.6480
 5202SOL    HW227243   1.255   1.210   1.937  0.3845  0.7821  0.6778
 5203SOL     OW27244   1.843   3.698   8.055 -0.4367  0.2761 -0.7441
 5203SOL    HW127245   1.803   3.785   8.050  0.9374  0.8746 -1.3729
 5203SOL    HW227246   1.829   3.674   8.146 -1.3090  0.7288 -0.7617
 5204SOL     OW27247   1.555   3.413   4.785 -0.1093  0.3179  0.6393
 5204SOL    HW127248   1.585   3.466   4.711 -1.3861  1.1372  0.6925
 5204SOL    HW227249   1.491   3.360   4.738 -0.9038  1.0725  0.8485
 5205SOL     OW27250   2.310   0.957   4.805  0.0902 -0.0844 -0.0023
 5205SOL    HW127251   2.235   0.990   4.855  0.4011  1.2347 -0.4173
 5205SOL    HW227252   2.251   0.917   4.741  0.6317 -0.5973 -0.1767
 5206SOL     OW27253   4.159   4.116  16.688 -0.4964 -0.5923 -0.4834
 5206SOL    HW127254   4.103   4.164  16.627  0.9856 -1.5777 -2.5869
 5206SOL    HW227255   4.117   4.124  16.774  0.4523 -0.1778 -0.0568
 5207SOL     OW27256   2.133   1.015   2.179 -0.4140  0.0250  0.2816
 5207SOL    HW127257   2.122   1.101   2.221 -2.6920 -0.1626  0.0720
 5207SOL    HW227258   2.046   0.997   2.142 -0.2735  0.4465 -0.2497
 5208SOL     OW27259   4.334   2.351   2.614 -0.7165  0.1990 -0.6151
 5208SOL    HW127260   4.247   2.319   2.588 -0.7605 -2.7825  3.2112
 5208SOL    HW227261   4.309   2.434   2.657  0.7031 -1.2749  3.0665
 5209SOL     OW27262   0.873   0.498   9.311 -0.3830  0.0648  0.0232
 5209SOL    HW127263   0.825   0.443   9.249  1.5508 -1.5928 -0.0031
 5209SOL    HW227264   0.924   0.435   9.362 -0.3910  1.5947  1.9038
 5210SOL     OW27265   3.339   1.863   8.644 -0.3133 -0.1568  0.3031
 5210SOL    HW127266   3.362   1.885   8.734  0.6099  0.0204  0.0208
 5210SOL    HW227267   3.391   1.922   8.590  0.8184 -2.3521 -0.9938
 5211SOL     OW27268   4.731   1.721   5.031 -0.8001 -0.1369  0.4191
 5211SOL    HW127269   0.087   1.752   5.024 -0.2626 -1.4283  1.3785
 5211SOL    HW227270   4.715   1.724   5.125  2.1032  0.7474  0.8879
 5212SOL     OW27271   1.076   2.500   3.983  0.2126  0.1406 -0.1477
 5212SOL    HW127272   1.169   2.515   4.001  0.1763 -1.6028  1.4781
 5212SOL    HW227273   1.048   2.569   4.043  1.2221  2.0733 -1.8996
 5213SOL     OW27274   4.390   4.009   6.278  0.0317 -0.3457 -1.6842
 5213SOL    HW127275   4.348   4.015   6.192 -3.3828  1.8663  0.1319
 5213SOL    HW227276   4.449   4.082   6.261  0.3424 -0.2186 -0.0947
 5214SOL     OW27277   4.188   1.635   1.739 -0.2490 -0.2470 -0.5379
 5214SOL    HW127278   4.207   1.598   1.653 -0.7849  0.1834 -0.8412
 5214SOL    HW227279   4.216   1.563   1.795  1.4419  1.7125  1.1928
 5215SOL     OW27280   1.938   3.013  11.942  0.0405 -0.0567 -0.1284
 5215SOL    HW127281   1.940   3.048  12.031 -3.7871  0.6023 -0.3282
 5215SOL    HW227282   1.933   2.919  11.960  1.1235 -0.4060 -1.6664
 5216SOL     OW27283   0.087   0.415   2.069  0.1184 -0.3552  0.4050
 5216SOL    HW127284   0.023   0.467   2.021 -0.9690 -1.5273  0.5909
 5216SOL    HW227285   0.040   0.397   2.151 -0.9717  1.9124  0.2990
 5217SOL     OW27286   0.067   0.566   4.301 -0.0958 -0.3761 -0.1845
 5217SOL    HW127287   0.143   0.529   4.256  0.6462 -0.2849  0.9859
 5217SOL    HW227288   0.013   0.558   4.222  0.4257 -2.5277 -0.3365
 5218SOL     OW27289   1.533   1.882   5.801  0.2171 -0.2571  0.1947
 5218SOL    HW127290   1.602   1.853   5.861 -1.5636  1.1136  2.9010
 5218SOL    HW227291   1.447   1.873   5.841  1.1292  0.7648  2.3476
 5219SOL     OW27292   4.095   2.113   6.571 -0.7344  0.2432  0.6015
 5219SOL    HW127293   4.153   2.065   6.512 -0.7673 -0.0773  0.8319
 5219SOL    HW227294   4.135   2.117   6.658  0.0203 -0.1077  0.2733
 5220SOL     OW27295   1.661   4.461   8.399 -0.2090 -0.0506  0.6013
 5220SOL    HW127296   1.732   4.419   8.446 -0.0456 -1.7398 -1.1534
 5220SOL    HW227297   1.617   4.496   8.476  0.2162  1.9939 -0.0717
 5221SOL     OW27298   1.124   4.413   2.723  0.2460  0.1091  0.2077
 5221SOL    HW127299   1.191   4.357   2.761  0.4076  0.1877  0.0397
 5221SOL    HW227300   1.139   4.491   2.777 -0.8202 -1.4008  2.6654
 5222SOL     OW27301   3.972   1.552   8.203 -0.4873  0.3688 -0.3531
 5222SOL    HW127302   3.976   1.621   8.136  0.4768  1.1704  0.5304
 5222SOL    HW227303   4.063   1.523   8.197 -0.4199  0.6129 -0.5284
 5223SOL     OW27304   1.363   2.798  10.439  0.0760 -0.0208 -0.2224
 5223SOL    HW127305   1.327   2.880  10.470  0.8166  1.3237 -2.9578
 5223SOL    HW227306   1.413   2.770  10.516  2.6123  0.7019 -1.5958
 5224SOL     OW27307   3.645   0.121   1.289  0.1119  0.5878 -0.0814
 5224SOL    HW127308   3.557   0.083   1.288 -0.2040  1.2342  1.9534
 5224SOL    HW227309   3.692   0.078   1.218  3.7284  0.6453  2.2408
 5225SOL     OW27310   3.279   1.096   2.744  0.2694  0.0683 -0.3254
 5225SOL    HW127311   3.347   1.159   2.768  0.5443 -0.4732  0.3429
 5225SOL    HW227312   3.323   1.010   2.740 -1.4310 -1.0121  4.6447
 5226SOL     OW27313   1.030   0.668   4.130 -0.1735 -0.3707  0.4501
 5226SOL    HW127314   0.981   0.602   4.081 -1.7138 -1.0714  2.9294
 5226SOL    HW227315   1.056   0.738   4.069  0.2795  0.4839  1.6242
 5227SOL     OW27316   0.729   4.081  16.760 -0.7953  0.0721 -0.8154
 5227SOL    HW127317   0.667   4.015  16.791 -2.9424  1.9354 -1.1137
 5227SOL    HW227318   0.761   4.121  16.841 -0.5129  0.4154 -1.0985
 5228SOL     OW27319   3.785   3.740  12.528 -0.1898  0.1180  0.3677
 5228SOL    HW127320   3.806   3.731  12.435  0.9638 -2.5192  0.8793
 5228SOL    HW227321   3.690   3.744  12.522 -0.0034  2.2120 -1.2671
 5229SOL     OW27322   3.226   3.620   8.700 -0.2223 -0.7013  0.0227
 5229SOL    HW127323   3.276   3.654   8.774 -0.2184  1.4643 -0.9743
 5229SOL    HW227324   3.225   3.699   8.646 -1.5171  0.7796  2.1967
 5230SOL     OW27325   1.995   3.205   6.131  0.1462  0.0666  0.2950
 5230SOL    HW127326   2.074   3.227   6.179  0.3929  0.2565 -0.1982
 5230SOL    HW227327   1.942   3.281   6.154 -0.8885 -0.5502 -0.0489
 5231SOL     OW27328   2.026   3.611   3.296  0.5902  0.9221 -0.3533
 5231SOL    HW127329   2.038   3.520   3.321  2.7829  1.5121  0.7087
 5231SOL    HW227330   1.996   3.649   3.379  1.9543  0.1548  0.4854
 5232SOL     OW27331   1.720   2.180  15.884  0.3743  0.3973 -0.0286
 5232SOL    HW127332   1.769   2.227  15.951  1.4043  2.1274 -1.9982
 5232SOL    HW227333   1.636   2.156  15.923  0.3914  0.3834  0.0003
 5233SOL     OW27334   3.996   2.360   5.796  0.6106  0.1043  0.6377
 5233SOL    HW127335   4.046   2.279   5.792  1.8450  0.8412  0.8500
 5233SOL    HW227336   3.914   2.321   5.768  0.9593 -0.2094  0.0656
 5234SOL     OW27337   0.553   0.544   8.393 -0.3382 -0.1484 -0.4208
 5234SOL    HW127338   0.573   0.628   8.353  2.7087 -0.6603  0.0679
 5234SOL    HW227339   0.600   0.494   8.326  0.0910 -0.4153  0.0791
 5235SOL     OW27340   1.694   4.107   2.083 -0.3407  0.3955  0.2358
 5235SOL    HW127341   1.712   4.036   2.144 -0.5898  0.6672  0.6272
 5235SOL    HW227342   1.607   4.087   2.049 -1.2557  0.9640  2.2596
 5236SOL     OW27343   3.989   4.244   9.647  0.1845 -0.0394 -0.0506
 5236SOL    HW127344   4.081   4.238   9.672 -0.4688  1.4394  2.6640
 5236SOL    HW227345   3.952   4.285   9.725  4.0939  1.5160  0.9729
 5237SOL     OW27346   2.647   2.363   4.082  0.3284 -0.2481  0.4446
 5237SOL    HW127347   2.673   2.448   4.116 -0.5073 -0.1250  0.7544
 5237SOL    HW227348   2.645   2.379   3.987  2.1896 -2.4746  0.0156
 5238SOL     OW27349   3.868   2.686   7.404  0.7254 -0.0325  0.4813
 5238SOL    HW127350   3.962   2.685   7.424  0.8702 -0.0532 -0.1925
 5238SOL    HW227351   3.871   2.622   7.332 -0.2044  0.7946 -0.2860
 5239SOL     OW27352   1.330   4.225   7.456  0.2566 -0.1760  0.1180
 5239SOL    HW127353   1.363   4.285   7.523  1.9882  0.1322 -1.0326
 5239SOL    HW227354   1.275   4.294   7.420 -0.5180 -1.9268 -2.0406
 5240SOL     OW27355   3.145   0.151   2.957  0.7762  0.1498  0.5249
 5240SOL    HW127356   3.063   0.153   3.006  0.0457 -0.1083 -0.6741
 5240SOL    HW227357   3.202   0.126   3.029  0.9863 -0.5647  0.1175
 5241SOL     OW27358   4.363   1.413   4.616  0.5908 -0.2289  0.4281
 5241SOL    HW127359   4.425   1.437   4.684  1.5854  3.3387 -1.7475
 5241SOL    HW227360   4.346   1.492   4.565 -1.0934 -1.6172 -1.1848
 5242SOL     OW27361   3.670   3.199   5.708 -0.5892 -0.6421  0.5214
 5242SOL    HW127362   3.622   3.210   5.625 -0.4188 -2.5536  0.1649
 5242SOL    HW227363   3.616   3.227   5.782 -1.7568 -1.7329  0.1037
 5243SOL     OW27364   0.925   0.468  11.356 -0.3392  0.3977  0.2796
 5243SOL    HW127365   0.967   0.554  11.359 -0.8773  0.6734 -0.0545
 5243SOL    HW227366   0.955   0.441  11.269  2.1990  1.2087  0.9183
 5244SOL     OW27367   4.474   4.266   4.451  0.1278 -0.0174 -0.3055
 5244SOL    HW127368   4.495   4.201   4.518 -1.0201  1.2115  1.2520
 5244SOL    HW227369   4.388   4.233   4.426 -0.4730  1.5977 -0.3861
 5245SOL     OW27370   3.847   3.665   7.033  0.6189  0.0136  0.0984
 5245SOL    HW127371   3.893   3.742   7.067  0.7711  0.3075 -0.7825
 5245SOL    HW227372   3.916   3.626   6.978 -0.2139 -0.3322 -0.6918
 5246SOL     OW27373   4.607   1.030  12.616  0.2481 -0.1455  0.2206
 5246SOL    HW127374   4.637   1.001  12.530  0.4421  0.0961  0.2060
 5246SOL    HW227375   4.681   1.091  12.623 -1.7622  2.0344  2.2925
 5247SOL     OW27376   0.738   2.454   8.683  0.9460  0.2707 -0.0794
 5247SOL    HW127377   0.771   2.497   8.605 -0.4191  1.7001  0.1397
 5247SOL    HW227378   0.688   2.379   8.652 -1.5197  1.0820  1.9304
 5248SOL     OW27379   3.642   3.274   0.207 -0.0747 -0.0306  0.4542
 5248SOL    HW127380   3.732   3.307   0.207 -0.2123  0.3729  1.4891
 5248SOL    HW227381   3.597   3.358   0.200 -0.6027 -0.5617 -2.3839
 5249SOL     OW27382   0.955   1.041   7.418 -0.7607 -0.2778 -0.2911
 5249SOL    HW127383   0.883   1.027   7.480  0.3968  0.8068  1.2547
 5249SOL    HW227384   0.929   1.115   7.363 -0.1860 -0.3318 -0.6292
 5250SOL     OW27385   0.221   3.459   6.276  0.1677  0.8792  0.5882
 5250SOL    HW127386   0.315   3.474   6.286  0.0570  0.6664  1.9692
 5250SOL    HW227387   0.221   3.419   6.189 -3.6150 -0.1911  1.0903
 5251SOL     OW27388   1.151   3.289   2.539  0.6217  0.1157  0.9631
 5251SOL    HW127389   1.103   3.339   2.605 -0.7415  2.4233 -1.7694
 5251SOL    HW227390   1.219   3.352   2.515  1.7111 -1.1167  0.8204
 5252SOL     OW27391   4.273   0.550   3.381 -0.3840 -0.2403  0.2700
 5252SOL    HW127392   4.267   0.459   3.408 -1.8451  0.2989  1.8070
 5252SOL    HW227393   4.280   0.596   3.465  0.8076  0.5618 -0.2787
 5253SOL     OW27394   2.234   0.364   7.592  0.1699 -0.1204 -0.1772
 5253SOL    HW127395   2.145   0.386   7.565 -0.6804 -1.3357  1.6140
 5253SOL    HW227396   2.281   0.447   7.590  0.7699 -0.5202 -2.3199
 5254SOL     OW27397   2.583   2.094  12.567  0.5337  0.1434  0.3042
 5254SOL    HW127398   2.604   2.172  12.617 -0.0158  0.6028 -0.1886
 5254SOL    HW227399   2.588   2.027  12.635 -2.2026 -0.7658 -0.4105
 5255SOL     OW27400   0.717   3.154   7.969  0.2063  0.0733  0.0154
 5255SOL    HW127401   0.781   3.087   7.995  1.4260  0.7263 -1.3476
 5255SOL    HW227402   0.644   3.153   8.031 -1.0254 -1.0084 -1.4684
 5256SOL     OW27403   4.572   2.199   5.908 -0.0097  0.0888  0.1032
 5256SOL    HW127404   4.644   2.168   5.963  0.2744  0.8174  0.1296
 5256SOL    HW227405   4.523   2.254   5.968 -0.3928 -0.3854  0.2286
 5257SOL     OW27406   3.925   0.584   9.003 -0.0915  0.0450  0.0368
 5257SOL    HW127407   3.981   0.538   9.065 -1.2006  0.7234  1.5605
 5257SOL    HW227408   3.837   0.569   9.039  0.3160 -2.4508 -0.0648
 5258SOL     OW27409   4.078   2.917   8.827  0.1087 -0.0270  0.1042
 5258SOL    HW127410   4.002   2.967   8.799 -0.6257 -2.9544 -3.1360
 5258SOL    HW227411   4.144   2.984   8.809 -1.5081  1.8041  1.0946
 5259SOL     OW27412   0.325   3.688   1.737 -0.0382  0.0430 -0.1563
 5259SOL    HW127413   0.324   3.687   1.642 -0.0779 -0.9223 -0.1446
 5259SOL    HW227414   0.408   3.734   1.749 -0.4944  0.7654  0.2545
 5260SOL     OW27415   4.216   3.231   7.663 -0.2762 -0.1908  0.1782
 5260SOL    HW127416   4.249   3.320   7.648 -1.3709 -0.2996 -2.8691
 5260SOL    HW227417   4.169   3.236   7.746  2.1282  0.3106  1.5290
 5261SOL     OW27418   0.053   4.221  13.501  0.1400 -0.2764 -0.0865
 5261SOL    HW127419   0.022   4.169  13.428 -1.5090 -0.3397  0.6749
 5261SOL    HW227420   4.716   4.209  13.564  1.7012 -0.7915  1.6005
 5262SOL     OW27421   4.125   3.420   4.635  0.3628 -0.2884 -0.7893
 5262SOL    HW127422   4.198   3.440   4.577 -0.2129 -0.5471 -1.5956
 5262SOL    HW227423   4.117   3.498   4.689 -1.6773 -1.5680  0.7952
 5263SOL     OW27424   0.151   0.683   4.825 -0.5203 -0.1429 -0.2553
 5263SOL    HW127425   0.203   0.703   4.747 -1.2290 -0.8241 -0.9096
 5263SOL    HW227426   0.221   0.702   4.888 -0.3927 -1.8162  0.1067
 5264SOL     OW27427   0.768   2.512   1.950  0.1005  0.5963  0.0748
 5264SOL    HW127428   0.771   2.584   2.012 -3.6370  3.0696 -2.6319
 5264SOL    HW227429   0.830   2.452   1.992  0.6022  0.3703 -0.9880
 5265SOL     OW27430   0.887   0.160   4.005  0.2609  0.6751 -0.2657
 5265SOL    HW127431   0.938   0.103   3.947  3.1774  1.7585  1.2431
 5265SOL    HW227432   0.811   0.103   4.015  1.1725 -0.6439 -0.8480
 5266SOL     OW27433   4.561   4.613   6.767  0.5135 -0.1609 -0.1025
 5266SOL    HW127434   4.587   4.565   6.845 -2.7476 -0.6498  0.6821
 5266SOL    HW227435   4.469   4.598   6.789  0.5738  1.3434  1.2018
 5267SOL     OW27436   1.915   3.395   4.800 -0.5894  0.5732 -0.0829
 5267SOL    HW127437   2.005   3.398   4.835  0.0795 -1.1493 -1.6646
 5267SOL    HW227438   1.910   3.323   4.738  1.3095  0.2859  0.0862
 5268SOL     OW27439   4.111   4.639   3.205  0.0907 -0.5587  0.1298
 5268SOL    HW127440   4.047   4.611   3.271  0.1322 -1.3937 -0.1860
 5268SOL    HW227441   4.053   4.657   3.132 -0.7212 -1.0144  0.6604
 5269SOL     OW27442   1.160   4.249   1.944  0.0242 -0.1622 -0.1494
 5269SOL    HW127443   1.246   4.280   1.970 -0.5912  1.5362 -0.1227
 5269SOL    HW227444   1.111   4.321   1.985  0.3004 -0.8673  1.4028
 5270SOL     OW27445   1.543   0.362   6.384  0.0297 -0.4979 -0.4747
 5270SOL    HW127446   1.473   0.299   6.402  0.1806 -0.1405  1.3699
 5270SOL    HW227447   1.502   0.409   6.311  1.0389 -0.1505 -0.8197
 5271SOL     OW27448   0.807   3.109   5.622  0.3820 -0.3672  0.0186
 5271SOL    HW127449   0.821   3.179   5.557  0.8645 -1.2631 -0.8519
 5271SOL    HW227450   0.784   3.163   5.697  1.7499 -0.1868  0.3131
 5272SOL     OW27451   0.847   0.081   5.344 -0.0887  0.1575  0.2972
 5272SOL    HW127452   0.924   0.134   5.324  0.2951 -0.6035 -0.2371
 5272SOL    HW227453   0.858   0.075   5.439  1.9067 -2.6155 -0.0942
 5273SOL     OW27454   0.313   0.216  13.913  0.4860 -0.1557  0.3958
 5273SOL    HW127455   0.404   0.210  13.944  0.1118 -1.0703  1.2794
 5273SOL    HW227456   0.337   0.260  13.831  2.4630 -1.5454  0.2343
 5274SOL     OW27457   0.812   0.679   3.295 -0.5544 -0.3365 -0.3685
 5274SOL    HW127458   0.753   0.744   3.256  2.2575  1.6338 -1.3022
 5274SOL    HW227459   0.884   0.738   3.315 -1.1585 -0.6899  2.8030
 5275SOL     OW27460   2.659   3.216   6.249  0.1501  0.3739 -0.3997
 5275SOL    HW127461   2.569   3.226   6.282  0.5571  1.0094  0.5239
 5275SOL    HW227462   2.665   3.134   6.199 -1.6428 -0.5049  0.7910
 5276SOL     OW27463   2.117   0.085   7.855  0.3843 -0.4243  0.1728
 5276SOL    HW127464   2.182   0.151   7.878 -1.0793  1.4595 -1.0864
 5276SOL    HW227465   2.163   0.071   7.772  0.0295  1.7540 -0.3958
 5277SOL     OW27466   2.188   2.804   3.345 -0.0231 -0.4037  0.3254
 5277SOL    HW127467   2.230   2.793   3.260 -1.9886 -1.4990 -0.4874
 5277SOL    HW227468   2.243   2.759   3.409  3.6855  1.0244 -1.8329
 5278SOL     OW27469   3.515   2.337  10.637 -0.0702 -0.0685 -0.6489
 5278SOL    HW127470   3.443   2.329  10.574  1.2834  0.2957 -2.2491
 5278SOL    HW227471   3.491   2.290  10.717  1.7584  1.9761  1.0785
 5279SOL     OW27472   2.158   4.075   6.138 -0.5372  0.1761 -0.5515
 5279SOL    HW127473   2.163   3.999   6.195  2.1547  2.1532  1.8450
 5279SOL    HW227474   2.084   4.128   6.168  0.7420  2.3628 -1.2805
 5280SOL     OW27475   2.055   0.029   4.270  0.0394 -0.4588 -0.3559
 5280SOL    HW127476   2.029   0.113   4.230 -1.3233 -1.6473 -1.9526
 5280SOL    HW227477   2.094   4.719   4.194  1.3778  2.8502 -1.6298
 5281SOL     OW27478   2.950   3.723  11.238 -0.5539 -0.2006  0.2137
 5281SOL    HW127479   3.021   3.779  11.208 -0.0614 -1.0581 -0.2142
 5281SOL    HW227480   2.950   3.748  11.330 -0.6641  1.6094 -0.2789
 5282SOL     OW27481   3.887   3.261   2.353 -0.1384 -0.8198 -0.6012
 5282SOL    HW127482   3.804   3.241   2.397 -0.9110  0.8864 -1.2922
 5282SOL    HW227483   3.952   3.245   2.422 -0.1642  1.4629 -0.0227
 5283SOL     OW27484   3.007   2.868   9.067  0.2682 -0.3399 -0.3585
 5283SOL    HW127485   2.917   2.846   9.091  0.5769  0.8999  2.0233
 5283SOL    HW227486   3.007   2.874   8.972 -0.4287 -1.5428 -0.4345
 5284SOL     OW27487   3.866   1.279   2.686 -0.3586  0.0495 -0.5523
 5284SOL    HW127488   3.878   1.371   2.709 -0.7215  0.0732 -0.4463
 5284SOL    HW227489   3.844   1.285   2.593 -1.0004  1.1142 -0.3374
 5285SOL     OW27490   0.345   3.421   6.829  0.3020  0.1076 -0.2512
 5285SOL    HW127491   0.416   3.386   6.884  0.9184 -0.2173 -1.2495
 5285SOL    HW227492   0.305   3.340   6.797  0.9041 -0.7478  1.1842
 5286SOL     OW27493   2.785   2.404  11.221  0.0770  0.0042  0.4425
 5286SOL    HW127494   2.728   2.465  11.267  0.6240  0.3849  0.6135
 5286SOL    HW227495   2.754   2.417  11.131  0.4207 -1.3116  0.1322
 5287SOL     OW27496   1.918   4.260   7.815 -0.7759  0.2440  0.5982
 5287SOL    HW127497   1.935   4.240   7.907  2.7614 -1.9855 -0.5184
 5287SOL    HW227498   1.823   4.261   7.822 -0.7923 -2.3520  0.7675
 5288SOL     OW27499   3.088   4.573  10.207 -0.3605  0.2323  0.2298
 5288SOL    HW127500   3.108   4.642  10.144 -1.4565  0.5760  0.2465
 5288SOL    HW227501   3.060   4.508  10.142 -1.0144  1.0020 -0.2572
 5289SOL     OW27502   1.440   0.238   1.959 -0.1637  0.1760 -0.0426
 5289SOL    HW127503   1.420   0.147   1.936  0.5459 -0.0881  0.4145
 5289SOL    HW227504   1.500   0.223   2.031 -0.7974  5.1100  1.5239
 5290SOL     OW27505   2.288   4.599   5.043  0.0987 -0.2894  0.3339
 5290SOL    HW127506   2.207   4.600   4.993  0.3761 -1.3109 -0.1260
 5290SOL    HW227507   2.341   4.637   4.972  0.9316 -2.7488 -0.3557
 5291SOL     OW27508   3.434   2.164  11.897 -0.0660 -0.4418  0.2111
 5291SOL    HW127509   3.342   2.139  11.906 -0.6202  1.6084  0.3853
 5291SOL    HW227510   3.430   2.199  11.808  3.6655 -2.1758 -0.6606
 5292SOL     OW27511   3.504   0.747   8.273  0.6385  0.1169 -0.0805
 5292SOL    HW127512   3.413   0.749   8.243  0.5891 -1.9487 -0.0345
 5292SOL    HW227513   3.518   0.842   8.283 -2.7848  0.6498 -0.3334
 5293SOL     OW27514   1.596   1.547   5.034 -0.1701 -0.2154  0.6125
 5293SOL    HW127515   1.578   1.454   5.019  2.2481 -0.4672 -0.6335
 5293SOL    HW227516   1.643   1.534   5.116  0.7316 -1.0754 -0.0449
 5294SOL     OW27517   3.957   3.922   2.776 -0.4471  0.2099  0.0337
 5294SOL    HW127518   4.010   3.849   2.744 -0.5931 -0.0032  0.2744
 5294SOL    HW227519   4.015   3.952   2.846 -1.8369  0.3230  1.1478
 5295SOL     OW27520   3.729   0.955   4.938 -0.2506  0.3716  0.0518
 5295SOL    HW127521   3.822   0.974   4.953 -0.1345  1.1000 -1.5936
 5295SOL    HW227522   3.698   1.043   4.921 -2.8646 -0.7920 -1.2161
 5296SOL     OW27523   0.354   0.716   2.897  0.0789  0.6699  0.2624
 5296SOL    HW127524   0.308   0.677   2.972  1.5498  0.5453  1.0927
 5296SOL    HW227525   0.369   0.801   2.937  0.3864  1.1703 -0.9351
 5297SOL     OW27526   3.796   4.621  16.370  0.7071 -0.1240  0.2726
 5297SOL    HW127527   3.735   4.685  16.407 -0.5355 -0.6638 -0.8689
 5297SOL    HW227528   3.844   4.675  16.306  1.5334  1.1838  1.9972
 5298SOL     OW27529   1.277   3.945   8.793  0.1887 -0.2472  0.5221
 5298SOL    HW127530   1.278   3.866   8.740 -0.5455  0.4523 -0.5365
 5298SOL    HW227531   1.190   3.937   8.833  0.1280 -1.1119  0.2191
 5299SOL     OW27532   0.087   3.503   2.739 -0.1700 -0.2798  0.9458
 5299SOL    HW127533   0.102   3.598   2.742 -2.8746  0.1280  0.8375
 5299SOL    HW227534   0.003   3.517   2.696 -0.2720 -2.1170  0.5661
 5300SOL     OW27535   4.696   0.349   9.433 -0.3299 -0.0467 -0.2435
 5300SOL    HW127536   0.022   0.414   9.395  1.2175 -0.4767  1.4855
 5300SOL    HW227537   4.729   0.336   9.522 -1.4317 -3.2964 -0.3023
 5301SOL     OW27538   1.498   0.288   5.425 -0.1507 -0.3105  0.1180
 5301SOL    HW127539   1.493   0.234   5.347 -0.0858  2.2846 -1.6743
 5301SOL    HW227540   1.588   0.319   5.432 -0.2630  0.2468 -0.9699
 5302SOL     OW27541   0.533   4.225   4.916  0.2390  0.0880 -0.2434
 5302SOL    HW127542   0.580   4.280   4.978 -0.1477 -1.5457  1.5338
 5302SOL    HW227543   0.587   4.219   4.837 -1.0589  0.3425 -1.1468
 5303SOL     OW27544   2.064   0.735   9.098 -0.0762 -0.2194 -0.6513
 5303SOL    HW127545   2.140   0.679   9.113 -0.3605 -0.6032 -0.6526
 5303SOL    HW227546   2.090   0.819   9.137  0.1322 -0.1843 -0.8689
 5304SOL     OW27547   1.039   0.365   9.492 -0.5897 -0.2465  0.2170
 5304SOL    HW127548   1.121   0.326   9.521  0.0654  3.0705  2.8077
 5304SOL    HW227549   0.996   0.384   9.576 -1.4602  3.4053 -1.0405
 5305SOL     OW27550   0.614   3.261   6.328 -0.1985  0.5809  0.2146
 5305SOL    HW127551   0.575   3.183   6.288 -0.5196  0.0060  1.6464
 5305SOL    HW227552   0.560   3.279   6.404 -0.4120 -0.4361  0.3052
 5306SOL     OW27553   1.892   1.895  13.711  1.3897 -0.2621  0.0559
 5306SOL    HW127554   1.911   1.832  13.780  0.0441 -1.2782 -0.4973
 5306SOL    HW227555   1.799   1.908  13.730  1.1632 -1.6805 -0.0986
 5307SOL     OW27556   0.518   2.213   2.080  0.4493  0.0333  0.3964
 5307SOL    HW127557   0.501   2.132   2.127 -3.5388  0.4732 -0.2103
 5307SOL    HW227558   0.560   2.173   2.004  0.6840  0.3234  0.3727
 5308SOL     OW27559   0.259   3.247   2.056 -0.3226 -0.2870  0.3200
 5308SOL    HW127560   0.253   3.157   2.026 -0.6282  0.8592 -3.0645
 5308SOL    HW227561   0.284   3.290   1.974  0.6689  0.1369  0.8456
 5309SOL     OW27562   1.898   0.510  11.018 -0.3087  0.7253 -0.0296
 5309SOL    HW127563   1.987   0.505  10.981 -0.2032 -2.6205  0.6433
 5309SOL    HW227564   1.922   0.510  11.111 -1.0689 -0.3703  0.1684
 5310SOL     OW27565   1.071   0.855  14.148 -0.2416 -0.5527 -0.0545
 5310SOL    HW127566   1.163   0.829  14.159 -0.0469 -0.1385 -0.7147
 5310SOL    HW227567   1.054   0.942  14.182  0.1149 -0.4094 -0.2399
 5311SOL     OW27568   2.081   2.205   7.682  0.2967 -0.3974  0.2293
 5311SOL    HW127569   2.115   2.282   7.727 -0.3402  1.1094 -1.9082
 5311SOL    HW227570   2.159   2.183   7.631 -0.5202  0.2637 -1.2741
 5312SOL     OW27571   0.044   1.018   5.852  0.0503  0.5174  0.4052
 5312SOL    HW127572   0.085   1.104   5.868 -0.1183  0.9071 -1.3015
 5312SOL    HW227573   0.116   0.978   5.803 -1.8535 -1.4571 -0.7734
 5313SOL     OW27574   2.324   3.883  16.758  0.1721 -0.4694 -0.0400
 5313SOL    HW127575   2.286   3.891  16.670 -1.6450  3.4137  1.0859
 5313SOL    HW227576   2.271   3.811  16.791  0.8006 -1.0344 -0.2774
 5314SOL     OW27577   2.937   4.594  15.000 -0.0404  0.1127  0.2564
 5314SOL    HW127578   2.853   4.563  15.032 -0.2564 -1.0325 -1.4306
 5314SOL    HW227579   2.984   4.580  15.082  0.4926  1.2785  0.1536
 5315SOL     OW27580   4.719   4.379   8.204 -0.1509 -0.1499 -0.7358
 5315SOL    HW127581   0.066   4.427   8.215 -0.7915  0.2623  2.0289
 5315SOL    HW227582   4.698   4.372   8.297 -0.1100  1.0717 -0.6445
 5316SOL     OW27583   0.081   2.226  13.577 -0.4901 -0.0663  0.1113
 5316SOL    HW127584   0.101   2.314  13.547  0.7556 -1.4318 -3.0552
 5316SOL    HW227585   0.136   2.229  13.655 -1.1434 -1.9509  0.6527
 5317SOL     OW27586   1.013   2.783   3.719 -0.3075  0.0987 -0.3527
 5317SOL    HW127587   0.950   2.715   3.744 -1.8784 -0.3821 -5.5488
 5317SOL    HW227588   1.088   2.725   3.730 -1.1320 -1.0578 -0.7714
 5318SOL     OW27589   4.168   4.182   1.122 -0.2846  0.5445 -0.2587
 5318SOL    HW127590   4.187   4.233   1.044  2.0362  1.5313  0.9564
 5318SOL    HW227591   4.104   4.122   1.083  0.4098 -0.2776 -0.1108
 5319SOL     OW27592   1.280   1.486   2.020 -0.1338  0.0646 -0.1519
 5319SOL    HW127593   1.208   1.504   1.960 -0.2387  2.0415  0.5921
 5319SOL    HW227594   1.249   1.530   2.098 -0.8357 -1.4056  0.4028
 5320SOL     OW27595   3.432   0.031   3.637  0.4435  0.1153  0.3608
 5320SOL    HW127596   3.437   4.703   3.709 -2.2713  0.5255  0.9060
 5320SOL    HW227597   3.411   0.114   3.679  1.3271 -0.6817  2.3512
 5321SOL     OW27598   4.009   0.777  16.938  0.8570  0.3475 -0.1644
 5321SOL    HW127599   4.089   0.741  16.976  1.1202  1.3579  0.2567
 5321SOL    HW227600   3.939   0.728  16.981  0.3620 -0.1551 -1.5396
 5322SOL     OW27601   1.556   3.054   3.105  0.5705 -0.0856 -0.6050
 5322SOL    HW127602   1.508   3.038   3.024  0.0239 -0.2391 -0.2515
 5322SOL    HW227603   1.569   2.964   3.135 -0.4351  0.6940  2.2266
 5323SOL     OW27604   3.863   3.986   6.648 -0.9419 -0.0741  0.2640
 5323SOL    HW127605   3.790   4.047   6.660 -0.4583  0.6247 -0.3099
 5323SOL    HW227606   3.928   4.056   6.657  0.4367 -1.3355  0.1101
 5324SOL     OW27607   1.563   2.520  10.751  0.6096 -0.2484  0.1429
 5324SOL    HW127608   1.494   2.546  10.811  2.2829 -0.6226  2.2328
 5324SOL    HW227609   1.616   2.476  10.817 -2.2886 -1.3239  1.7463
 5325SOL     OW27610   0.220   2.936   6.815 -0.2792 -0.4648 -0.0350
 5325SOL    HW127611   0.277   2.872   6.772 -1.6258 -0.1017 -2.3758
 5325SOL    HW227612   0.175   2.869   6.866  0.8891 -1.3198 -0.1089
 5326SOL     OW27613   0.829   3.111   3.390  0.6394  0.9135 -0.2611
 5326SOL    HW127614   0.880   3.031   3.379 -0.5086 -0.0537  1.4006
 5326SOL    HW227615   0.813   3.110   3.484  1.3783 -1.5502 -0.1673
 5327SOL     OW27616   1.035   3.265  12.233 -0.7673 -0.1655  0.1083
 5327SOL    HW127617   1.131   3.265  12.231 -0.7527  0.5251  0.6375
 5327SOL    HW227618   1.001   3.213  12.160 -2.3734  0.1852  0.6279
 5328SOL     OW27619   3.606   1.355   9.834  0.0777 -0.1897 -0.1601
 5328SOL    HW127620   3.604   1.395   9.921 -0.1751  0.9402 -0.6956
 5328SOL    HW227621   3.700   1.336   9.838  0.2032  0.6564  0.8807
 5329SOL     OW27622   3.594   2.850   4.088  0.5295 -0.3744 -0.5938
 5329SOL    HW127623   3.525   2.882   4.146  1.7359  1.5946 -0.2228
 5329SOL    HW227624   3.667   2.829   4.146  0.5584 -0.2650 -0.5904
 5330SOL     OW27625   2.285   4.317   5.823 -0.7150  0.5949 -0.3256
 5330SOL    HW127626   2.214   4.259   5.850 -0.9872  0.7243 -0.7692
 5330SOL    HW227627   2.349   4.257   5.785 -0.8468 -0.9300  1.8111
 5331SOL     OW27628   2.659   2.444   3.782 -0.5520 -0.2406 -0.5122
 5331SOL    HW127629   2.680   2.525   3.828  1.9746 -0.3096 -1.5440
 5331SOL    HW227630   2.727   2.442   3.714  1.2670 -0.1412  1.3032
 5332SOL     OW27631   1.186   0.814   8.917 -0.1304  0.3812  0.0738
 5332SOL    HW127632   1.211   0.905   8.936  2.0580  0.0330 -1.1061
 5332SOL    HW227633   1.113   0.824   8.857  0.0872  0.0728 -0.2432
 5333SOL     OW27634   2.689   4.212   6.177 -0.4586 -0.0931 -0.2635
 5333SOL    HW127635   2.650   4.124   6.175  0.6684 -0.6219  1.0677
 5333SOL    HW227636   2.755   4.196   6.110 -2.8176  1.1213 -2.8884
 5334SOL     OW27637   2.408   3.397   0.298 -0.2325 -0.0232  0.1569
 5334SOL    HW127638   2.368   3.310   0.294  4.1435 -2.0292 -0.2758
 5334SOL    HW227639   2.386   3.416   0.389 -2.6716  1.2539 -0.6901
 5335SOL     OW27640   1.931   0.706   2.754  0.5022 -0.2172 -0.4550
 5335SOL    HW127641   1.912   0.614   2.770 -0.3333 -0.8579 -4.9639
 5335SOL    HW227642   1.854   0.760   2.771  0.2298 -1.1585  1.3027
 5336SOL     OW27643   2.114   0.867   4.628 -0.6003 -0.5512 -0.1632
 5336SOL    HW127644   2.117   0.810   4.551  2.2461  1.5806 -1.6067
 5336SOL    HW227645   2.041   0.925   4.607 -0.7894 -0.4967  0.6328
 5337SOL     OW27646   4.638   0.626  11.746  0.1178  0.2887 -0.1339
 5337SOL    HW127647   4.585   0.692  11.701 -0.9208  0.2905  1.0909
 5337SOL    HW227648   4.718   0.678  11.732  0.8249 -0.2651  1.7098
 5338SOL     OW27649   3.657   2.173   7.091 -0.3188  0.2096  0.6243
 5338SOL    HW127650   3.695   2.255   7.061  0.3021  0.1199  1.1639
 5338SOL    HW227651   3.732   2.130   7.131  1.5564  0.6309 -2.3954
 5339SOL     OW27652   1.005   2.387   6.733  0.2614 -0.1790  0.5700
 5339SOL    HW127653   0.982   2.301   6.699 -0.0060 -0.4067  1.3079
 5339SOL    HW227654   0.933   2.400   6.795 -0.4054 -2.2908  0.2368
 5340SOL     OW27655   4.075   3.106   3.388  0.1960 -0.3081  0.3008
 5340SOL    HW127656   4.040   3.119   3.300 -0.2924 -1.3237  0.3421
 5340SOL    HW227657   4.022   3.032   3.417 -0.5266  0.3063  0.5375
 5341SOL     OW27658   1.881   0.346   8.908  0.9574  0.0143  0.4599
 5341SOL    HW127659   1.808   0.383   8.959 -1.4273 -4.9919  0.6319
 5341SOL    HW227660   1.958   0.381   8.952 -0.1510  0.4087  2.1013
 5342SOL     OW27661   4.036   4.416   2.382 -0.0623 -0.2542  0.1033
 5342SOL    HW127662   4.064   4.503   2.410  1.7446 -1.8845  3.3029
 5342SOL    HW227663   4.080   4.409   2.298  0.2404 -1.3880  0.3571
 5343SOL     OW27664   1.170   3.262  15.435 -0.3564  0.0602 -0.1524
 5343SOL    HW127665   1.221   3.215  15.369  1.2524 -0.4045  1.4039
 5343SOL    HW227666   1.238   3.286  15.498  0.7053 -1.4927 -0.6867
 5344SOL     OW27667   1.274   3.975   9.224 -0.4052  0.0067  0.1189
 5344SOL    HW127668   1.283   3.905   9.158 -1.9071 -0.5916  0.5593
 5344SOL    HW227669   1.230   3.922   9.290  0.1935 -0.8270 -0.1379
 5345SOL     OW27670   1.674   0.157   9.048 -0.4673 -0.4717 -0.6567
 5345SOL    HW127671   1.731   0.163   8.972 -0.5130 -0.2098 -0.6700
 5345SOL    HW227672   1.712   0.213   9.115 -0.1482 -1.7139  0.2149
 5346SOL     OW27673   0.175   0.985   7.198 -0.0886  0.1725 -0.1833
 5346SOL    HW127674   0.245   1.010   7.138 -1.2510 -0.3658 -1.7458
 5346SOL    HW227675   0.150   0.900   7.162  0.0286  0.0691 -0.0247
 5347SOL     OW27676   1.146   3.730   4.457  0.0288 -0.1111 -0.0804
 5347SOL    HW127677   1.214   3.770   4.512  0.9572  1.5147 -2.3793
 5347SOL    HW227678   1.174   3.740   4.366 -2.8312 -2.0818 -1.1658
 5348SOL     OW27679   4.110   0.265  10.343  0.0225  0.0662  0.1933
 5348SOL    HW127680   4.093   0.174  10.369 -1.6347  0.6053  0.9964
 5348SOL    HW227681   4.205   0.267  10.333  0.1628 -0.3307  1.3799
 5349SOL     OW27682   0.742   4.675  13.444 -0.1172 -0.4453  0.3179
 5349SOL    HW127683   0.741   4.695  13.537  1.4792  0.7111  0.0781
 5349SOL    HW227684   0.725   0.026  13.404 -0.7050 -0.2092  1.0756
 5350SOL     OW27685   0.828   1.329   5.510  0.2773  0.3550  0.3510
 5350SOL    HW127686   0.784   1.327   5.426 -2.1416  1.0066  1.5973
 5350SOL    HW227687   0.874   1.412   5.496 -0.6919  0.7017 -0.7882
 5351SOL     OW27688   4.730   4.266  12.135 -0.4764 -0.2045 -0.0640
 5351SOL    HW127689   0.067   4.233  12.080  0.1437 -1.3323  1.4050
 5351SOL    HW227690   0.036   4.335  12.187 -0.5537 -0.6990  0.6625
 5352SOL     OW27691   2.325   1.002  17.320  0.8938 -0.3574  0.2445
 5352SOL    HW127692   2.289   0.914  17.308 -1.3276  0.5105  0.5544
 5352SOL    HW227693   2.251   1.051  17.355  0.1474 -0.2939 -1.4216
 5353SOL     OW27694   0.175   1.915   0.004  0.3899  0.4179  0.1037
 5353SOL    HW127695   0.264   1.941   0.027  0.6103  0.8813 -1.2612
 5353SOL    HW227696   0.197   1.864  17.662 -0.1650 -0.7591  0.7169
 5354SOL     OW27697   2.495   3.556   3.992 -0.4797  0.2834 -0.1315
 5354SOL    HW127698   2.527   3.531   3.905 -0.1922  2.3078 -0.6154
 5354SOL    HW227699   2.541   3.494   4.048 -1.3637 -1.6424 -1.5434
 5355SOL     OW27700   1.140   1.223  10.516  0.5576  0.3677  0.0037
 5355SOL    HW127701   1.172   1.314  10.518  0.1791  0.4755  1.7465
 5355SOL    HW227702   1.212   1.183  10.565  2.0555  0.5977 -2.0433
 5356SOL     OW27703   1.034   2.461   7.520  0.1469  0.2381  0.4641
 5356SOL    HW127704   0.991   2.532   7.568 -0.7136 -0.9335  1.4256
 5356SOL    HW227705   0.965   2.456   7.452 -0.6476  1.5761  1.1763
 5357SOL     OW27706   0.170   3.850  15.064  0.3114 -0.1537  0.2761
 5357SOL    HW127707   0.109   3.814  14.999 -0.2006  0.0946  0.6231
 5357SOL    HW227708   0.130   3.936  15.074  1.4786  0.4130  0.0785
 5358SOL     OW27709   3.751   2.092   7.664  0.1365 -0.6928  0.5260
 5358SOL    HW127710   3.703   2.040   7.728 -1.6141 -3.1933 -2.8048
 5358SOL    HW227711   3.709   2.047   7.590  0.0620 -0.7568  0.6078
 5359SOL     OW27712   1.428   4.196   3.195  0.5791 -0.4178  0.3890
 5359SOL    HW127713   1.489   4.250   3.245  0.4316  0.7633 -0.7228
 5359SOL    HW227714   1.366   4.179   3.266  0.7701 -1.4076  0.3257
 5360SOL     OW27715   2.547   4.623  14.179  0.7210 -0.4681  0.3237
 5360SOL    HW127716   2.499   4.559  14.127  0.0183  0.3340 -0.0096
 5360SOL    HW227717   2.585   4.574  14.252  0.7570 -0.6849  0.1594
 5361SOL     OW27718   0.702   0.679   3.848  0.3537 -0.0119 -0.1658
 5361SOL    HW127719   0.636   0.686   3.917 -0.5232  0.9403 -1.0880
 5361SOL    HW227720   0.721   0.585   3.842 -0.4801 -0.3219  1.9820
 5362SOL     OW27721   2.394   3.074   5.245 -0.1841 -0.3575 -0.2522
 5362SOL    HW127722   2.358   2.993   5.211  1.0786 -0.2746 -1.7868
 5362SOL    HW227723   2.482   3.075   5.208  0.2364  0.8130  0.7567
 5363SOL     OW27724   0.589   0.655  12.485 -0.3115  0.2541  0.6110
 5363SOL    HW127725   0.635   0.738  12.477 -1.4112  0.5897 -2.3727
 5363SOL    HW227726   0.513   0.655  12.427  1.5593 -0.0531 -1.8401
 5364SOL     OW27727   4.039   0.896   2.488 -0.1368 -0.8931  0.1963
 5364SOL    HW127728   4.018   0.967   2.427  0.5527  0.0905  1.1067
 5364SOL    HW227729   4.017   0.938   2.572 -1.3136 -1.9760  0.4390
 5365SOL     OW27730   0.467   2.243   5.265  0.0530 -0.0217 -0.3210
 5365SOL    HW127731   0.424   2.169   5.307 -3.3870  1.8253 -0.5538
 5365SOL    HW227732   0.405   2.256   5.192 -0.2781 -1.5502 -0.3066
 5366SOL     OW27733   1.039   2.868   3.292  0.2724 -0.0435 -0.0878
 5366SOL    HW127734   0.984   2.872   3.213 -3.4179  1.3796  2.5080
 5366SOL    HW227735   1.095   2.942   3.269 -1.2599  0.6794 -1.4427
 5367SOL     OW27736   2.652   1.398   5.850 -0.1374 -0.0831 -0.3505
 5367SOL    HW127737   2.685   1.320   5.895 -0.1477 -0.3819 -0.8700
 5367SOL    HW227738   2.562   1.372   5.829 -0.8096 -0.4258  2.8164
 5368SOL     OW27739   3.481   1.967   8.390 -0.3074 -0.1795  0.3066
 5368SOL    HW127740   3.546   2.024   8.350 -0.3815 -0.6527 -0.4861
 5368SOL    HW227741   3.533   1.886   8.389  0.2107  0.1720 -0.6880
 5369SOL     OW27742   1.887   4.388   3.455  0.1618  0.0505 -0.1681
 5369SOL    HW127743   1.814   4.418   3.400  0.4879 -2.7432 -2.1179
 5369SOL    HW227744   1.842   4.406   3.538 -0.3467  0.7895 -0.6032
 5370SOL     OW27745   1.767   2.099  15.620  0.9730 -0.0566 -0.0865
 5370SOL    HW127746   1.732   2.142  15.698  2.2769  1.9949 -0.6438
 5370SOL    HW227747   1.822   2.167  15.581 -1.5342  0.5770 -2.5465
 5371SOL     OW27748   0.577   4.256   1.777  0.1955  0.0591  0.5312
 5371SOL    HW127749   0.513   4.185   1.770 -0.6252  0.7938  0.6582
 5371SOL    HW227750   0.557   4.326   1.714  2.3161  1.0400  0.9636
 5372SOL     OW27751   4.080   0.147  13.543 -0.0758  0.5503 -0.7412
 5372SOL    HW127752   4.073   0.070  13.487  0.3857  0.0649 -0.1301
 5372SOL    HW227753   3.986   0.165  13.538 -0.9464 -4.1488 -0.6505
 5373SOL     OW27754   4.522   1.158   7.737  0.0210  0.2911 -0.4472
 5373SOL    HW127755   4.593   1.216   7.709  1.9265 -2.3539 -1.2132
 5373SOL    HW227756   4.446   1.211   7.760  1.5552  2.6618 -0.8442
 5374SOL     OW27757   3.235   1.693  15.123  0.1183  0.7384 -0.0736
 5374SOL    HW127758   3.263   1.689  15.215  1.8690  1.0250 -0.5893
 5374SOL    HW227759   3.171   1.622  15.121 -0.7952  1.5069  2.1272
 5375SOL     OW27760   1.926   0.242   6.123 -0.0520 -0.4370 -0.1613
 5375SOL    HW127761   1.929   0.291   6.205 -0.4695  2.3494 -1.8199
 5375SOL    HW227762   1.831   0.229   6.116 -0.2485  2.0098 -1.8663
 5376SOL     OW27763   4.033   4.568   1.302 -0.2982 -0.2115  0.2354
 5376SOL    HW127764   3.985   4.506   1.246  2.1807  1.2918 -3.5456
 5376SOL    HW227765   3.988   4.651   1.284 -1.0790 -0.9511 -1.2732
 5377SOL     OW27766   0.611   4.387   5.130  0.2709 -0.6617  0.6051
 5377SOL    HW127767   0.602   4.352   5.218 -2.6208 -0.0091  0.5741
 5377SOL    HW227768   0.584   4.477   5.147  1.3538 -0.0037 -1.1139
 5378SOL     OW27769   1.640   0.706   4.208  0.5554  0.1010 -0.2560
 5378SOL    HW127770   1.670   0.786   4.251  1.7207 -1.4502  1.8252
 5378SOL    HW227771   1.601   0.738   4.127  1.2500  1.1434 -0.1837
 5379SOL     OW27772   4.063   0.422   7.139  0.1254 -0.0059  0.2628
 5379SOL    HW127773   3.973   0.400   7.116  1.3223 -1.5544 -3.0112
 5379SOL    HW227774   4.043   0.465   7.222  0.8850 -0.6830  0.7944
 5380SOL     OW27775   3.839   3.336  10.979 -0.2250  0.2408 -0.2102
 5380SOL    HW127776   3.911   3.372  11.030  0.6072  0.7127 -1.7076
 5380SOL    HW227777   3.816   3.257  11.028  0.7314 -0.3583 -0.7201
 5381SOL     OW27778   0.203   2.231  13.829 -0.0482 -0.0457  0.7307
 5381SOL    HW127779   0.193   2.144  13.868 -0.3766 -1.0458 -1.6089
 5381SOL    HW227780   0.158   2.279  13.898  0.0374 -1.1044  1.5245
 5382SOL     OW27781   0.578   4.121  14.095  1.0611 -0.0195  0.2051
 5382SOL    HW127782   0.552   4.153  14.181  2.2893  1.6613 -0.0498
 5382SOL    HW227783   0.578   4.026  14.110 -2.1322  0.0178  0.4640
 5383SOL     OW27784   1.024   3.698   6.389 -0.0224 -0.9129 -0.0701
 5383SOL    HW127785   0.979   3.778   6.415  1.2037 -0.0629 -0.5519
 5383SOL    HW227786   1.055   3.674   6.476  0.6591  1.0391  0.2245
 5384SOL     OW27787   2.297   4.030   6.802 -0.0692 -0.7709  1.0612
 5384SOL    HW127788   2.369   3.987   6.850  1.0378 -1.3159 -1.1096
 5384SOL    HW227789   2.232   4.038   6.872  0.1743  0.3635  1.1516
 5385SOL     OW27790   2.093   2.898   8.477 -0.0580 -0.0960 -0.0525
 5385SOL    HW127791   2.010   2.867   8.514 -0.9816  3.8628  1.2302
 5385SOL    HW227792   2.163   2.839   8.503 -0.8997 -0.7804  0.6876
 5386SOL     OW27793   0.122   4.032   1.580 -0.5838  0.0356 -0.5205
 5386SOL    HW127794   0.053   4.022   1.646 -3.0124  0.8971 -2.9481
 5386SOL    HW227795   0.063   4.028   1.505  0.3825 -2.9781 -1.1038
 5387SOL     OW27796   4.264   4.587   7.256 -0.0719  0.4101 -0.4689
 5387SOL    HW127797   4.285   4.508   7.305  1.4157 -0.9278 -3.2866
 5387SOL    HW227798   4.180   4.614   7.294  0.7034  0.7383  1.0113
 5388SOL     OW27799   2.090   0.145   1.598  0.2735  0.3532  0.2129
 5388SOL    HW127800   2.006   0.163   1.555 -0.3577 -0.1974  1.2267
 5388SOL    HW227801   2.144   0.124   1.521 -3.9735 -3.1928 -1.8464
 5389SOL     OW27802   4.672   0.400   7.327  0.3615 -0.2995 -0.0455
 5389SOL    HW127803   4.612   0.436   7.262 -1.3631 -2.3938  0.3735
 5389SOL    HW227804   4.647   0.452   7.402  2.7158 -0.2347  0.7014
 5390SOL     OW27805   4.472   4.724   9.102 -0.3203 -0.1642 -0.3996
 5390SOL    HW127806   4.499   4.727   9.194  0.1206 -0.3091 -0.5243
 5390SOL    HW227807   4.424   4.642   9.116  0.6449 -0.7287 -0.4460
 5391SOL     OW27808   1.697   0.688   2.266  0.1294  0.2267 -0.1700
 5391SOL    HW127809   1.694   0.758   2.201  0.0023 -0.0581 -0.4697
 5391SOL    HW227810   1.669   0.615   2.211 -0.2915  0.4067 -0.1970
 5392SOL     OW27811   2.896   0.344   4.600  0.0361  0.4428  0.1534
 5392SOL    HW127812   2.933   0.283   4.536  1.3014  2.1712 -0.7724
 5392SOL    HW227813   2.973   0.387   4.637  1.5481 -1.9793 -0.1559
 5393SOL     OW27814   4.170   1.691   2.611  0.2410 -0.6482  0.1696
 5393SOL    HW127815   4.119   1.618   2.576 -3.3293  1.4158  1.0970
 5393SOL    HW227816   4.151   1.700   2.704  1.0729 -1.3240  0.4076
 5394SOL     OW27817   1.199   1.254   8.262 -0.0567  0.9522 -0.0184
 5394SOL    HW127818   1.136   1.202   8.213  0.2124  2.3001 -1.8116
 5394SOL    HW227819   1.279   1.203   8.243 -0.3175  0.2763  0.6990
 5395SOL     OW27820   0.451   2.469  14.908  0.0984  0.6369 -0.2423
 5395SOL    HW127821   0.524   2.506  14.859  0.4637  0.0381 -0.1463
 5395SOL    HW227822   0.460   2.513  14.992 -3.1956 -0.4139  0.6718
 5396SOL     OW27823   4.498   0.400  15.806 -0.7435 -0.0759 -0.6896
 5396SOL    HW127824   4.513   0.313  15.771 -2.3884 -0.2692 -0.8851
 5396SOL    HW227825   4.466   0.445  15.728 -1.1925 -0.2333 -0.5947
 5397SOL     OW27826   2.756   1.475   9.201 -0.5810  0.8375 -0.3743
 5397SOL    HW127827   2.757   1.511   9.290 -1.1844  0.2039 -0.1052
 5397SOL    HW227828   2.834   1.418   9.203 -1.9730 -1.0871 -0.6049
 5398SOL     OW27829   0.799   0.820   1.542 -0.6537  0.1740  0.2807
 5398SOL    HW127830   0.771   0.765   1.615 -1.5376  2.2730  1.4994
 5398SOL    HW227831   0.872   0.774   1.500 -0.9796  0.4666 -0.6167
 5399SOL     OW27832   3.986   1.380   8.700  0.3524  0.1267 -0.4763
 5399SOL    HW127833   4.053   1.336   8.752  1.4794 -1.4731 -3.2975
 5399SOL    HW227834   4.042   1.456   8.681 -2.4255  2.0920 -0.7561
 5400SOL     OW27835   4.224   1.596   7.722  1.0428  0.1097  0.1998
 5400SOL    HW127836   4.313   1.624   7.701  0.5889  0.6123 -1.0556
 5400SOL    HW227837   4.240   1.505   7.746 -0.2978 -0.1659  0.0799
 5401SOL     OW27838   2.778   1.838   7.228 -0.0327 -0.6783  0.0628
 5401SOL    HW127839   2.802   1.931   7.220 -1.5294 -0.2770  0.2773
 5401SOL    HW227840   2.756   1.830   7.321  2.5596  1.9995  0.9361
 5402SOL     OW27841   3.703   2.647  12.624 -0.6332  0.0120 -0.0106
 5402SOL    HW127842   3.692   2.607  12.710  3.5686 -2.9423 -0.8664
 5402SOL    HW227843   3.772   2.586  12.598 -0.2390  0.6176 -0.3938
 5403SOL     OW27844   0.599   4.155   8.846 -0.0548 -0.2686  0.2669
 5403SOL    HW127845   0.554   4.138   8.928 -2.5502 -0.6727 -1.1892
 5403SOL    HW227846   0.662   4.084   8.833 -0.1908  0.0077 -1.8826
 5404SOL     OW27847   0.319   4.618   9.419  0.5702  0.0224 -0.2081
 5404SOL    HW127848   0.238   4.643   9.375  1.4483 -1.2448 -2.5422
 5404SOL    HW227849   0.281   4.601   9.505 -0.2383 -0.9719 -0.7528
 5405SOL     OW27850   4.462   2.261   3.622 -0.1133  0.1064  0.3514
 5405SOL    HW127851   4.388   2.267   3.682  0.4095 -0.2011  1.0356
 5405SOL    HW227852   4.516   2.340   3.628  0.1108  0.1064 -1.6281
 5406SOL     OW27853   3.917   0.962  10.515  0.4228 -0.5845 -0.4486
 5406SOL    HW127854   3.888   1.044  10.554 -1.0813 -1.0762 -0.5459
 5406SOL    HW227855   3.837   0.910  10.511 -0.1857  0.2207  1.7709
 5407SOL     OW27856   3.362   2.515   4.077  0.6569 -0.2830 -0.2359
 5407SOL    HW127857   3.455   2.518   4.097  1.0538  0.6590 -2.2242
 5407SOL    HW227858   3.344   2.609   4.087  0.6085 -0.3139 -0.0439
 5408SOL     OW27859   2.894   2.989  16.079 -0.2943 -0.4538 -0.3362
 5408SOL    HW127860   2.906   3.059  16.014  2.9666  1.1058  1.9348
 5408SOL    HW227861   2.800   3.002  16.092 -0.1298 -0.5912  0.9739
 5409SOL     OW27862   2.393   1.725   9.135  0.3483  0.0073 -0.6842
 5409SOL    HW127863   2.436   1.643   9.110  0.1211 -0.1545 -0.5408
 5409SOL    HW227864   2.413   1.724   9.228  2.3896  2.9037 -1.0989
 5410SOL     OW27865   4.111   1.329   9.169 -0.1681  0.6266 -0.5329
 5410SOL    HW127866   4.190   1.279   9.187 -0.0171  1.4257  1.0315
 5410SOL    HW227867   4.070   1.260   9.117  1.3495  0.4396 -1.4797
 5411SOL     OW27868   0.180   1.777   2.447 -0.5513  0.4344 -0.1279
 5411SOL    HW127869   0.214   1.761   2.535 -0.3173  1.2634 -0.0684
 5411SOL    HW227870   0.126   1.700   2.430 -0.6002 -0.2242  3.1098
 5412SOL     OW27871   1.182   3.955   6.212 -0.4490 -0.1932 -0.1667
 5412SOL    HW127872   1.128   4.021   6.168 -0.2707 -0.9658 -1.5609
 5412SOL    HW227873   1.128   3.875   6.215  2.9415 -2.5115 -1.5144
 5413SOL     OW27874   0.965   3.938   6.816 -0.7298 -0.3898  0.4066
 5413SOL    HW127875   0.967   3.908   6.907  0.5897  0.7684  0.7668
 5413SOL    HW227876   1.050   3.983   6.809 -0.4339 -1.1720 -1.2088
 5414SOL     OW27877   0.200   0.208   4.001 -0.0080 -0.4961  0.0378
 5414SOL    HW127878   0.213   0.116   3.981 -2.8752 -1.1252  1.1193
 5414SOL    HW227879   0.195   0.207   4.097 -1.4170  0.6854 -0.0185
 5415SOL     OW27880   3.613   3.977  12.293  0.8390 -0.0348 -0.1709
 5415SOL    HW127881   3.574   3.943  12.212 -0.8946  1.7407 -0.0626
 5415SOL    HW227882   3.695   3.927  12.299  2.0214  1.9665  0.2504
 5416SOL     OW27883   1.884   3.544  16.365 -0.0498  0.0377 -0.1119
 5416SOL    HW127884   1.953   3.508  16.310  0.1449 -0.9977  0.8159
 5416SOL    HW227885   1.909   3.637  16.367 -1.2295  0.4154 -2.8544
 5417SOL     OW27886   0.365   1.752   1.704 -0.2517 -0.2037 -0.0744
 5417SOL    HW127887   0.411   1.672   1.676 -0.7107 -0.7277  0.6517
 5417SOL    HW227888   0.345   1.732   1.795 -0.8149 -1.9801 -0.5875
 5418SOL     OW27889   0.271   1.537   3.725  0.1927 -0.0616 -0.4715
 5418SOL    HW127890   0.214   1.467   3.694 -1.5170  1.3665 -0.5547
 5418SOL    HW227891   0.304   1.511   3.811 -0.1345  2.9226  0.5785
 5419SOL     OW27892   4.123   0.190   9.313  0.0213 -0.0280 -0.3299
 5419SOL    HW127893   4.040   0.172   9.356 -0.4874  0.2786 -1.1923
 5419SOL    HW227894   4.151   0.101   9.334  1.7333  0.4383 -0.5731
 5420SOL     OW27895   3.380   3.255   4.213 -0.1829  0.0041 -0.0224
 5420SOL    HW127896   3.341   3.217   4.134 -0.7179 -1.3241  0.8945
 5420SOL    HW227897   3.391   3.175   4.264 -0.6925  1.1663  1.9195
 5421SOL     OW27898   1.435   2.684  17.665 -0.4738 -0.4582  0.3637
 5421SOL    HW127899   1.368   2.656  17.726 -0.2589  1.5502  1.5242
 5421SOL    HW227900   1.438   2.777  17.687  0.3738 -0.2131 -0.7669
 5422SOL     OW27901   0.107   3.733   1.919  0.6046 -0.0469  0.9873
 5422SOL    HW127902   0.178   3.716   1.856 -0.6667 -0.9296 -0.1988
 5422SOL    HW227903   0.055   3.787   1.861  0.5925  1.7302  2.6608
 5423SOL     OW27904   3.771   1.337   2.439  0.2104 -0.8110 -0.2117
 5423SOL    HW127905   3.738   1.312   2.353  1.1483 -0.6793 -0.6146
 5423SOL    HW227906   3.700   1.374   2.492 -3.4122 -2.0144 -4.2011
 5424SOL     OW27907   0.873   3.860   6.194  0.0796 -0.0366 -0.3865
 5424SOL    HW127908   0.886   3.765   6.190  1.3044  0.0235  1.9300
 5424SOL    HW227909   0.822   3.868   6.275 -2.2044  0.4169 -1.8588
 5425SOL     OW27910   4.025   2.491   2.863 -0.1324 -0.2637  0.3011
 5425SOL    HW127911   4.075   2.571   2.854  3.4830 -2.6771 -1.1547
 5425SOL    HW227912   4.051   2.457   2.949  0.7063 -2.2240 -0.7283
 5426SOL     OW27913   2.109   2.072   5.279  0.3435 -0.6883  0.5888
 5426SOL    HW127914   2.134   2.157   5.316 -0.6213 -0.2889  0.3276
 5426SOL    HW227915   2.192   2.042   5.244  0.9568 -0.1832  1.6182
 5427SOL     OW27916   2.770   3.378   8.631  0.2722 -0.1195  0.5623
 5427SOL    HW127917   2.775   3.292   8.673  0.5120 -0.7618 -0.7896
 5427SOL    HW227918   2.859   3.410   8.643  0.4629 -0.1868 -0.6472
 5428SOL     OW27919   4.452   3.725  16.607 -0.1227  0.1337  0.0004
 5428SOL    HW127920   4.437   3.722  16.513 -0.0333  1.1424 -0.0507
 5428SOL    HW227921   4.440   3.820  16.612 -1.7507 -0.1144  0.5391
 5429SOL     OW27922   2.583   0.025   3.080  0.1430 -0.8585  0.1813
 5429SOL    HW127923   2.640   0.066   3.013  1.4392 -0.2413  1.6644
 5429SOL    HW227924   2.564   0.096   3.141  1.9276  0.0272 -0.2623
 5430SOL     OW27925   3.747   4.684   8.014  0.0745 -0.1183  0.3728
 5430SOL    HW127926   3.689   4.621   8.057  2.8755 -1.5193  2.0705
 5430SOL    HW227927   3.779   0.001   8.088  0.4111 -2.6554  1.9646
 5431SOL     OW27928   4.599   0.267   8.875  0.7799 -0.2945  0.0845
 5431SOL    HW127929   4.595   0.242   8.782  0.0063 -0.5950  0.1994
 5431SOL    HW227930   4.508   0.298   8.883  1.3304  1.2930  0.2863
 5432SOL     OW27931   4.428   0.346  16.333 -0.3264  0.5463  0.1705
 5432SOL    HW127932   4.453   0.437  16.351 -0.6571  0.7138 -0.2236
 5432SOL    HW227933   4.421   0.343  16.238 -1.0857  2.6650  0.1645
 5433SOL     OW27934   4.383   3.482   4.504 -0.3516 -0.0956 -0.2466
 5433SOL    HW127935   4.453   3.417   4.510  0.2922  0.8560  2.7311
 5433SOL    HW227936   4.354   3.481   4.413  0.9545  2.0417 -0.6879
 5434SOL     OW27937   2.324   2.047  15.247  0.6983 -0.7024 -0.1849
 5434SOL    HW127938   2.260   1.984  15.281  0.2194 -1.2962 -2.1335
 5434SOL    HW227939   2.392   1.992  15.206  0.8708 -0.9121  0.3871
 5435SOL     OW27940   3.043   1.881   3.671  0.0889 -0.0567  0.5643
 5435SOL    HW127941   3.036   1.817   3.600 -1.6467 -0.8113  1.4119
 5435SOL    HW227942   2.957   1.916   3.696 -0.3700 -2.1000  1.8312
 5436SOL     OW27943   1.818   2.320   5.299  0.8669 -0.1295 -0.2248
 5436SOL    HW127944   1.729   2.350   5.319  1.0757 -0.2409  0.8741
 5436SOL    HW227945   1.831   2.363   5.214 -0.1938 -1.4850 -1.0598
 5437SOL     OW27946   1.674   1.696  16.827 -0.0475  0.0425  0.0626
 5437SOL    HW127947   1.600   1.691  16.766 -0.7431 -2.1103  1.0854
 5437SOL    HW227948   1.680   1.790  16.844  0.0906  0.1648 -0.6656
 5438SOL     OW27949   3.453   2.971  13.186 -0.0656 -0.2723  0.2390
 5438SOL    HW127950   3.389   2.909  13.153 -0.9718 -0.7588  2.9442
 5438SOL    HW227951   3.530   2.955  13.130  0.5852 -1.3322  1.4400
 5439SOL     OW27952   3.120   0.172  11.304 -0.3989  0.5710  0.8275
 5439SOL    HW127953   3.144   0.265  11.303  2.7303 -0.2675 -0.4323
 5439SOL    HW227954   3.158   0.134  11.383 -1.3811  0.3070  1.1776
 5440SOL     OW27955   1.908   2.262   3.884  0.2367 -0.4212  0.7439
 5440SOL    HW127956   1.943   2.336   3.934  3.9598 -1.2182 -0.6486
 5440SOL    HW227957   1.986   2.244   3.831 -0.2568  1.4649 -0.5975
 5441SOL     OW27958   3.261   0.745   3.349  0.4352 -0.3173  0.4147
 5441SOL    HW127959   3.195   0.798   3.392 -0.7444 -1.0912 -0.4283
 5441SOL    HW227960   3.292   0.698   3.426  2.6519  0.7095  0.1685
 5442SOL     OW27961   0.561   1.709  10.973 -0.0706  0.5078  0.2424
 5442SOL    HW127962   0.605   1.793  10.961  0.7131 -0.2032 -1.9057
 5442SOL    HW227963   0.499   1.703  10.900 -0.4983 -0.1767  0.6584
 5443SOL     OW27964   2.213   2.983  16.296 -0.4537  0.1933 -0.7910
 5443SOL    HW127965   2.129   3.013  16.329 -0.3817 -0.9544  0.4471
 5443SOL    HW227966   2.185   2.909  16.242  0.6393  0.8984 -2.3479
 5444SOL     OW27967   1.286   1.193  17.543 -0.0808  0.5997 -0.1966
 5444SOL    HW127968   1.201   1.204  17.585 -0.4531 -0.0228 -0.7993
 5444SOL    HW227969   1.269   1.119  17.486 -0.1418  0.6425 -0.2344
 5445SOL     OW27970   0.339   1.063   1.538  0.0317 -0.3138 -0.2599
 5445SOL    HW127971   0.348   1.066   1.634  0.2695  3.1641 -0.4184
 5445SOL    HW227972   0.385   1.143   1.513  1.1330 -1.2688 -1.3304
 5446SOL     OW27973   3.516   3.761   9.658  0.3588 -0.3669  0.0541
 5446SOL    HW127974   3.432   3.750   9.701  0.3801  0.2480  0.2630
 5446SOL    HW227975   3.566   3.802   9.728  0.7065 -0.2734 -0.2466
 5447SOL     OW27976   4.684   3.261   6.810  0.2283 -0.2076 -0.3196
 5447SOL    HW127977   4.657   3.180   6.765  0.3591 -1.1273  1.2379
 5447SOL    HW227978   0.028   3.276   6.758 -0.2450 -0.9654 -1.2608
 5448SOL     OW27979   2.057   0.941   5.250 -0.2013  0.2367  0.0155
 5448SOL    HW127980   2.117   0.959   5.178 -0.1507  1.5676  0.3898
 5448SOL    HW227981   2.085   0.997   5.323 -1.7199 -1.6808  2.0432
 5449SOL     OW27982   3.177   4.385   8.908 -0.1487  0.4535  0.4861
 5449SOL    HW127983   3.165   4.421   8.820  1.2396  0.5737  0.3459
 5449SOL    HW227984   3.263   4.422   8.926  1.1321 -2.4953  0.4600
 5450SOL     OW27985   0.347   1.721   1.994 -0.2692  0.2797  0.5524
 5450SOL    HW127986   0.334   1.782   2.067 -1.5430 -0.6744  1.1142
 5450SOL    HW227987   0.324   1.642   2.043 -0.7535  0.1528  0.1227
 5451SOL     OW27988   1.026   0.526   2.216  0.2832  0.8101 -0.0031
 5451SOL    HW127989   0.948   0.503   2.266  0.5225  0.4714  0.2146
 5451SOL    HW227990   0.999   0.554   2.129 -1.8555 -0.8577  0.1416
 5452SOL     OW27991   2.622   1.664   5.480  0.4356 -0.1495  0.2228
 5452SOL    HW127992   2.555   1.629   5.539 -0.3605  1.5707  0.3455
 5452SOL    HW227993   2.702   1.619   5.508 -1.7314 -2.9859  1.8606
 5453SOL     OW27994   1.753   1.239  13.711  0.4511 -0.6622 -0.5018
 5453SOL    HW127995   1.764   1.155  13.667 -1.0907 -0.7112 -0.8023
 5453SOL    HW227996   1.679   1.273  13.661 -0.1960 -1.4478 -0.0685
 5454SOL     OW27997   1.970   2.187   2.147 -0.4023 -0.2616 -0.1652
 5454SOL    HW127998   1.977   2.097   2.179  0.1717 -0.6186 -1.3234
 5454SOL    HW227999   2.036   2.191   2.079  0.8783  0.2082  1.1035
 5455SOL     OW28000   4.394   2.429   7.104 -0.7507  0.9227  0.5213
 5455SOL    HW128001   4.357   2.357   7.155 -1.4027  0.2411 -0.9056
 5455SOL    HW228002   4.322   2.478   7.064 -0.5005 -0.9993 -2.2678
 5456SOL     OW28003   1.544   0.722   5.894 -0.0107 -0.4947 -0.0754
 5456SOL    HW128004   1.479   0.762   5.837 -0.5945 -0.0018  0.9319
 5456SOL    HW228005   1.600   0.676   5.832 -0.0979  0.8063 -1.1105
 5457SOL     OW28006   3.280   4.364   0.291 -0.5059 -0.1166 -0.0674
 5457SOL    HW128007   3.199   4.373   0.240 -0.4101 -1.2173 -0.4272
 5457SOL    HW228008   3.333   4.434   0.252 -3.2997  1.0025 -1.8641
 5458SOL     OW28009   2.829   4.230   2.531  0.6764 -0.0950  0.0797
 5458SOL    HW128010   2.900   4.175   2.498  0.4214  0.4820 -1.4537
 5458SOL    HW228011   2.820   4.208   2.624 -1.1712  4.0367  0.8734
 5459SOL     OW28012   3.202   1.970   1.138  0.4142 -0.3422 -0.3832
 5459SOL    HW128013   3.110   1.986   1.158  0.5981 -0.4506  0.5502
 5459SOL    HW228014   3.200   1.879   1.108  0.8910 -0.7834  0.9106
 5460SOL     OW28015   3.250   2.759   3.451 -0.3385  0.2538 -0.4390
 5460SOL    HW128016   3.225   2.679   3.405  1.4973 -0.0009 -0.9881
 5460SOL    HW228017   3.265   2.721   3.538  0.0744 -1.2761 -1.1741
 5461SOL     OW28018   3.999   0.493   7.765  0.1476 -0.0238  0.2723
 5461SOL    HW128019   3.974   0.401   7.756  0.2955 -0.0355 -0.0275
 5461SOL    HW228020   4.060   0.496   7.691 -1.1908 -2.4101 -0.8991
 5462SOL     OW28021   0.322   2.703  10.590 -0.2091  0.3158 -0.1984
 5462SOL    HW128022   0.288   2.624  10.549 -0.7662  0.5211 -0.1315
 5462SOL    HW228023   0.243   2.757  10.590 -0.6845 -0.4025 -2.0945
 5463SOL     OW28024   3.058   3.955   7.189  0.4030 -0.2016  0.0463
 5463SOL    HW128025   3.105   3.990   7.265 -0.7897 -1.6752  1.4490
 5463SOL    HW228026   3.080   3.862   7.193 -1.3016 -0.6901 -1.8857
 5464SOL     OW28027   3.903   3.099   4.455 -0.3423  0.1815 -0.6933
 5464SOL    HW128028   3.928   3.158   4.383  0.7260  0.5157 -0.0557
 5464SOL    HW228029   3.915   3.015   4.411  0.4280 -0.1268  0.1088
 5465SOL     OW28030   0.094   3.064   5.140  0.0562 -0.2318 -0.2595
 5465SOL    HW128031   0.151   3.123   5.092  2.2876 -2.7799 -0.7407
 5465SOL    HW228032   0.080   2.993   5.077  0.1121  1.0327 -1.6740
 5466SOL     OW28033   0.183   2.434   2.121 -0.6108 -0.3901 -0.4741
 5466SOL    HW128034   0.103   2.433   2.172 -0.0639 -2.7953  0.3432
 5466SOL    HW228035   0.192   2.345   2.087 -0.6261 -0.7426  0.4459
 5467SOL     OW28036   0.330   2.320   4.800  0.2089  0.2663 -0.1685
 5467SOL    HW128037   0.294   2.405   4.773 -0.9345  0.3632  1.6582
 5467SOL    HW228038   0.260   2.260   4.776 -0.4809  0.1281  2.1753
 5468SOL     OW28039   2.552   1.338   1.786 -0.0632 -0.1310  0.2669
 5468SOL    HW128040   2.579   1.247   1.792 -0.0343 -0.0588  1.2376
 5468SOL    HW228041   2.456   1.335   1.791 -0.2319  1.2384 -2.0867
 5469SOL     OW28042   3.852   0.850   7.695  0.6207  0.1850  0.4005
 5469SOL    HW128043   3.924   0.843   7.632 -0.5402  1.9541 -1.1164
 5469SOL    HW228044   3.823   0.939   7.679 -0.6663 -0.1325  1.0282
 5470SOL     OW28045   3.627   1.521   6.389 -0.1458 -0.0631 -0.3373
 5470SOL    HW128046   3.542   1.539   6.430  0.0680 -0.9011  0.4567
 5470SOL    HW228047   3.682   1.580   6.443 -0.9243  0.3282  0.0287
 5471SOL     OW28048   0.874   1.956   3.580  0.7658  0.2677 -0.0034
 5471SOL    HW128049   0.850   1.985   3.492 -0.5319 -0.3807  0.1407
 5471SOL    HW228050   0.846   2.031   3.634  3.7947  1.2818  0.1534
 5472SOL     OW28051   0.479   1.806  14.025 -0.0003  0.4455  0.8367
 5472SOL    HW128052   0.448   1.896  14.023 -1.2198  0.0478  1.7992
 5472SOL    HW228053   0.403   1.760  13.989 -0.4380  0.6176  1.5330
 5473SOL     OW28054   4.615   0.476   6.788  0.1222 -0.2967  0.0249
 5473SOL    HW128055   4.552   0.426   6.735 -0.7447  1.8040 -0.9219
 5473SOL    HW228056   4.609   0.550   6.728 -0.8543 -0.4618 -0.0849
 5474SOL     OW28057   2.633   0.637   8.317  0.4669  0.2238  0.0033
 5474SOL    HW128058   2.543   0.619   8.292 -0.0373  0.4800  1.6166
 5474SOL    HW228059   2.632   0.732   8.305 -0.0567  0.0764 -1.0829
 5475SOL     OW28060   0.642   2.120  17.673 -0.6464  0.0976  0.2277
 5475SOL    HW128061   0.715   2.067  17.704  0.5099  0.6560 -1.5323
 5475SOL    HW228062   0.680   2.208  17.666  1.5520 -1.1214 -3.2676
 5476SOL     OW28063   1.144   2.443   9.915  0.2965 -0.4497 -0.0381
 5476SOL    HW128064   1.119   2.381   9.984  0.0880 -2.3399 -1.8272
 5476SOL    HW228065   1.236   2.427   9.892  0.8668  1.1091  1.1066
 5477SOL     OW28066   0.306   2.618   8.595  0.0371  0.1075  0.4787
 5477SOL    HW128067   0.335   2.556   8.528  0.9250 -0.5592  1.4848
 5477SOL    HW228068   0.227   2.574   8.627  0.1248 -0.8219 -0.5845
 5478SOL     OW28069   1.577   4.385   5.397  0.0035 -0.4143 -0.2345
 5478SOL    HW128070   1.494   4.338   5.385 -0.2558 -0.0250  0.0164
 5478SOL    HW228071   1.636   4.332   5.343  0.2754 -2.0278  1.6243
 5479SOL     OW28072   4.654   3.471  11.918 -0.8942  0.0489  0.1199
 5479SOL    HW128073   4.698   3.386  11.913 -1.7019 -0.3009 -0.9269
 5479SOL    HW228074   4.575   3.449  11.869 -0.8535  1.4526 -0.5865
 5480SOL     OW28075   1.279   3.256   7.790 -0.0313 -0.1906  0.8454
 5480SOL    HW128076   1.227   3.199   7.734  0.0403  0.7950 -0.2375
 5480SOL    HW228077   1.210   3.316   7.818 -1.3023 -0.0586 -2.5985
 5481SOL     OW28078   4.126   1.699   6.437  0.0456  0.2803  0.3977
 5481SOL    HW128079   4.101   1.689   6.345 -0.5581  1.0094  0.4818
 5481SOL    HW228080   4.052   1.656   6.480  0.3099 -0.7265 -0.1516
 5482SOL     OW28081   0.270   3.650  15.983  0.6194  0.0761 -0.2369
 5482SOL    HW128082   0.251   3.727  15.930  0.4108  2.2617  3.0301
 5482SOL    HW228083   0.244   3.572  15.933 -0.1291 -1.0166  1.8668
 5483SOL     OW28084   3.017   2.091  12.200 -0.2834  0.2719 -0.7380
 5483SOL    HW128085   3.052   2.045  12.124  2.9574  2.4098 -0.5619
 5483SOL    HW228086   3.005   2.017  12.259 -0.1274  1.7462  1.1495
 5484SOL     OW28087   3.114   0.865   2.041  0.4543 -0.2592 -0.0084
 5484SOL    HW128088   3.074   0.842   2.124  1.8047  0.8859  0.9718
 5484SOL    HW228089   3.121   0.960   2.049 -1.5145 -0.0574 -0.7658
 5485SOL     OW28090   3.777   0.911   1.727  0.4878 -0.6015 -0.2082
 5485SOL    HW128091   3.859   0.867   1.747  0.3700 -1.4511 -1.5670
 5485SOL    HW228092   3.810   0.995   1.698  0.6268 -0.6563 -0.2076
 5486SOL     OW28093   0.974   4.291   4.049 -0.2171 -0.6041  0.2475
 5486SOL    HW128094   1.033   4.356   4.009 -0.9279 -0.3373 -0.3613
 5486SOL    HW228095   1.026   4.259   4.123 -0.4445  0.1449  0.7316
 5487SOL     OW28096   1.155   3.718  13.527  0.1864  0.2505 -0.5561
 5487SOL    HW128097   1.149   3.812  13.510  1.0157  0.8235  2.2516
 5487SOL    HW228098   1.209   3.678  13.459  0.9780 -1.5813  1.1555
 5488SOL     OW28099   4.427   1.065   6.581 -0.7204  0.3608  0.0710
 5488SOL    HW128100   4.466   1.122   6.647 -0.3717  1.1916 -0.8764
 5488SOL    HW228101   4.503   1.016   6.550 -1.9336 -1.4785 -0.0324
 5489SOL     OW28102   0.245   1.983   6.590  0.1232  0.2070  0.7315
 5489SOL    HW128103   0.159   1.964   6.553  0.2114  1.8813 -0.3393
 5489SOL    HW228104   0.233   2.076   6.604  0.2309  0.0343  1.9301
 5490SOL     OW28105   1.986   1.454   1.243 -0.3499 -0.4487 -0.2594
 5490SOL    HW128106   1.912   1.409   1.285  0.7503 -0.4158  1.7392
 5490SOL    HW228107   1.951   1.529   1.194  2.3489 -0.1709 -1.7151
 5491SOL     OW28108   4.099   4.381   5.950  0.3973  0.1555  0.1330
 5491SOL    HW128109   4.142   4.337   5.878 -2.9347 -3.9257  0.6282
 5491SOL    HW228110   4.037   4.312   5.974  0.4510 -0.5374 -1.7517
 5492SOL     OW28111   0.302   0.933   2.343 -0.0105  0.2577  0.1650
 5492SOL    HW128112   0.363   0.882   2.397 -0.3887 -1.8886 -1.4474
 5492SOL    HW228113   0.241   0.970   2.406  1.1697  0.2865  1.3078
 5493SOL     OW28114   0.076   0.468   3.724 -0.9058  0.2419  0.5524
 5493SOL    HW128115   0.054   0.464   3.631  0.9975  0.0395  0.1163
 5493SOL    HW228116   0.157   0.418   3.730  0.7058  2.9539  1.2924
 5494SOL     OW28117   0.270   0.796   5.060  0.0783  0.2933  0.2858
 5494SOL    HW128118   0.365   0.789   5.052 -0.1157 -2.6419  0.5862
 5494SOL    HW228119   0.259   0.890   5.051 -1.4407 -0.0515 -1.4973
 5495SOL     OW28120   1.516   4.712   4.504 -0.2155  0.0913  0.3386
 5495SOL    HW128121   1.489   0.062   4.466  1.4785  0.4329 -0.1140
 5495SOL    HW228122   1.606   4.732   4.530  0.4272  1.7942 -3.1705
 5496SOL     OW28123   3.564   2.251  12.166 -0.2303 -0.1823  0.1265
 5496SOL    HW128124   3.483   2.260  12.215 -0.8961 -2.2742 -0.6181
 5496SOL    HW228125   3.539   2.230  12.076 -0.9106 -3.2014  1.0522
 5497SOL     OW28126   2.105   0.779   3.768  0.5290 -0.1337 -0.2720
 5497SOL    HW128127   2.074   0.733   3.846 -1.1540 -0.1410 -0.9312
 5497SOL    HW228128   2.168   0.832   3.816 -0.0996  1.2913 -1.0111
 5498SOL     OW28129   4.542   1.607   4.871 -0.5129  0.6545 -0.0499
 5498SOL    HW128130   4.603   1.663   4.920 -0.3690 -0.9755  1.6194
 5498SOL    HW228131   4.607   1.550   4.829 -2.3356  0.2904 -2.3493
 5499SOL     OW28132   3.540   1.372   4.621 -0.2863 -0.2737  0.8747
 5499SOL    HW128133   3.621   1.372   4.570  0.5141  1.0712  2.1530
 5499SOL    HW228134   3.570   1.418   4.700 -1.7153  3.7031 -0.9014
 5500SOL     OW28135   4.014   4.092   6.023  0.5340  0.5610  0.6647
 5500SOL    HW128136   3.971   4.019   5.979 -1.1226 -1.5702  5.9400
 5500SOL    HW228137   3.990   4.073   6.113 -5.0273  0.4463 -0.8268
 5501SOL     OW28138   3.625   1.085  14.695  0.1527  0.8793 -0.4863
 5501SOL    HW128139   3.713   1.051  14.678 -0.6352  0.0045 -2.8290
 5501SOL    HW228140   3.573   1.005  14.681  1.5583  0.1721 -1.6983
 5502SOL     OW28141   1.727   0.272  14.671  0.0603  0.0222 -0.1497
 5502SOL    HW128142   1.685   0.246  14.589  1.7816 -2.5715 -0.2153
 5502SOL    HW228143   1.818   0.276  14.640 -1.1508  1.6950 -3.5248
 5503SOL     OW28144   4.313   3.477   0.507 -0.1463 -0.6799  0.2015
 5503SOL    HW128145   4.351   3.391   0.488  2.5608  0.2827  1.2238
 5503SOL    HW228146   4.395   3.521   0.529 -0.2101 -0.1244 -0.6512
 5504SOL     OW28147   1.870   1.584   5.149 -0.0433 -0.2288 -0.0149
 5504SOL    HW128148   1.908   1.671   5.147  0.3189 -0.3597  0.9994
 5504SOL    HW228149   1.873   1.549   5.238  1.8086  0.9298  0.3764
 5505SOL     OW28150   3.507   2.526   5.439 -0.0520  0.6853  0.1460
 5505SOL    HW128151   3.459   2.573   5.371 -0.5050 -2.0274 -1.3996
 5505SOL    HW228152   3.594   2.566   5.435 -0.1569  0.9148  0.1734
 5506SOL     OW28153   0.767   0.696  15.012  0.8580  0.0248  0.3210
 5506SOL    HW128154   0.702   0.658  14.953  0.7535  0.5758  0.0846
 5506SOL    HW228155   0.801   0.617  15.055 -1.1787 -1.0147  0.0090
 5507SOL     OW28156   0.995   2.608   4.265 -0.0242  0.1549  0.5423
 5507SOL    HW128157   1.004   2.522   4.307 -1.0949 -0.5659 -0.6722
 5507SOL    HW228158   1.074   2.652   4.294  0.7750  0.3253 -1.8482
 5508SOL     OW28159   1.646   3.120   8.727 -0.1483  0.3919 -0.6443
 5508SOL    HW128160   1.655   3.149   8.817 -1.5223  1.5057 -0.8600
 5508SOL    HW228161   1.595   3.190   8.686  0.1966  0.5991 -0.7177
 5509SOL     OW28162   0.484   0.135   0.177 -0.5409  0.0072 -0.1581
 5509SOL    HW128163   0.554   0.080   0.211 -0.1589 -0.8118 -2.2990
 5509SOL    HW228164   0.515   0.152   0.088 -1.2939  1.7524 -0.0894
 5510SOL     OW28165   1.488   3.385  16.689  0.4200  0.0703  0.5661
 5510SOL    HW128166   1.568   3.400  16.639 -0.2234  2.3014  0.1953
 5510SOL    HW228167   1.432   3.430  16.626 -2.8131 -0.2732  3.1967
 5511SOL     OW28168   3.755   0.425   5.031  0.2877 -0.2580  0.4888
 5511SOL    HW128169   3.840   0.393   5.001 -1.0358 -2.1993 -1.2467
 5511SOL    HW228170   3.753   0.497   4.968 -2.0750  0.2854  1.1822
 5512SOL     OW28171   0.957   4.566  10.024  0.5697 -0.1916 -0.3815
 5512SOL    HW128172   1.017   4.621  10.074 -0.3630  2.6688 -2.4452
 5512SOL    HW228173   0.874   4.597  10.058  0.6941  0.1760 -0.4153
 5513SOL     OW28174   0.528   1.973   2.197 -0.1524  0.1227 -0.1667
 5513SOL    HW128175   0.564   1.943   2.280  0.0988  0.6997 -0.0702
 5513SOL    HW228176   0.437   1.945   2.207  0.3358 -1.8701 -1.2394
 5514SOL     OW28177   4.000   2.341   8.345 -0.0632  0.1842  0.1734
 5514SOL    HW128178   4.091   2.315   8.332  0.7847  2.6827  1.1772
 5514SOL    HW228179   4.014   2.370   8.435 -0.2839  0.5824  0.0803
 5515SOL     OW28180   3.338   0.376   2.773  0.1931 -0.4561  0.5752
 5515SOL    HW128181   3.357   0.393   2.865  2.8980  2.3442 -0.4854
 5515SOL    HW228182   3.300   0.289   2.778 -1.1161  0.1306  0.8238
 5516SOL     OW28183   1.042   2.121   6.639  0.3825 -0.3863 -0.3987
 5516SOL    HW128184   1.128   2.121   6.679  0.1686 -0.4002  0.0613
 5516SOL    HW228185   1.012   2.030   6.635 -2.2803  0.4488  0.1369
 5517SOL     OW28186   3.249   2.894   8.779  0.7371  0.4289 -0.5201
 5517SOL    HW128187   3.273   2.802   8.781 -2.5352 -0.4537 -2.3710
 5517SOL    HW228188   3.155   2.892   8.762  0.6400  0.9933 -0.0855
 5518SOL     OW28189   1.100   2.248   7.680  0.1518 -0.3767 -0.3281
 5518SOL    HW128190   1.014   2.231   7.718  0.7933  1.4004  1.8911
 5518SOL    HW228191   1.083   2.313   7.612  1.0176 -2.7428 -2.8165
 5519SOL     OW28192   2.793   3.588   5.202  0.4086 -0.2981  0.5660
 5519SOL    HW128193   2.799   3.613   5.294 -0.1485 -3.0260  1.3312
 5519SOL    HW228194   2.759   3.670   5.166  1.9430 -0.1437 -0.5235
 5520SOL     OW28195   2.516   3.528   8.204  0.1424 -0.0227 -0.0390
 5520SOL    HW128196   2.492   3.484   8.122 -0.9912 -0.6053  0.6043
 5520SOL    HW228197   2.432   3.555   8.241  0.6196  1.9424 -0.4129
 5521SOL     OW28198   3.423   1.345   7.067 -0.1900 -0.3426 -0.2504
 5521SOL    HW128199   3.483   1.271   7.075 -0.3537 -0.3713  0.6839
 5521SOL    HW228200   3.483   1.416   7.091 -1.2061 -0.2705  2.0300
 5522SOL     OW28201   3.007   4.724   9.613  0.0182  0.4401  0.2286
 5522SOL    HW128202   2.996   4.663   9.540 -2.0476  2.2154 -0.9279
 5522SOL    HW228203   3.045   0.069   9.576 -0.9322  0.9204  0.2861
 5523SOL     OW28204   1.016   0.954   4.773 -0.1570 -0.3511 -0.3702
 5523SOL    HW128205   1.061   0.951   4.857 -0.8350 -1.0523 -0.0317
 5523SOL    HW228206   0.936   0.998   4.800  0.9499  0.7303  1.1583
 5524SOL     OW28207   0.453   3.363  12.932  0.4263  0.2992 -0.4288
 5524SOL    HW128208   0.425   3.284  12.979 -0.3436  0.2758 -0.9273
 5524SOL    HW228209   0.461   3.321  12.847  0.5356  0.2094 -0.3751
 5525SOL     OW28210   3.718   0.647   2.643  0.7617 -0.5360 -0.3342
 5525SOL    HW128211   3.707   0.680   2.733  1.1854  0.3115 -0.5868
 5525SOL    HW228212   3.634   0.602   2.635 -0.5134  1.4133  1.9952
 5526SOL     OW28213   1.398   2.321   2.991 -0.3558 -0.2577 -0.4853
 5526SOL    HW128214   1.487   2.356   2.989 -0.5958  0.3479 -0.4535
 5526SOL    HW228215   1.359   2.399   3.031 -0.7992  0.3094 -2.0461
 5527SOL     OW28216   0.711   3.056   7.532 -0.1509 -0.4980 -0.3574
 5527SOL    HW128217   0.630   3.057   7.481  0.0185 -1.1666 -0.6495
 5527SOL    HW228218   0.769   3.035   7.459 -1.5342 -2.2399 -0.9512
 5528SOL     OW28219   1.147   0.775  13.117 -0.3522  0.4425  0.1759
 5528SOL    HW128220   1.215   0.721  13.075  0.0482  0.2635  1.0539
 5528SOL    HW228221   1.088   0.792  13.044  0.5615 -0.4490 -0.7872
 5529SOL     OW28222   2.233   4.088   4.922  0.3718 -0.2457  0.4462
 5529SOL    HW128223   2.161   4.134   4.964 -0.1114 -1.4966  1.0036
 5529SOL    HW228224   2.193   4.011   4.881  0.6360  0.7932 -1.7501
 5530SOL     OW28225   1.740   0.416  10.117  0.1035  0.3209 -0.7232
 5530SOL    HW128226   1.789   0.498  10.123  2.8965 -1.5635  2.1560
 5530SOL    HW228227   1.770   0.387  10.031  0.8721  1.6443 -0.9146
 5531SOL     OW28228   2.920   3.826   6.365  0.7093  0.1837 -0.2686
 5531SOL    HW128229   2.914   3.915   6.400  2.7156 -0.9698  3.0036
 5531SOL    HW228230   2.828   3.821   6.340  0.8619  3.8735 -1.5039
 5532SOL     OW28231   2.501   1.316   3.774  0.7552 -0.0080  0.6147
 5532SOL    HW128232   2.596   1.303   3.775  0.6147 -0.8390  1.9123
 5532SOL    HW228233   2.496   1.340   3.866 -0.1054  0.8991  0.3318
 5533SOL     OW28234   4.301   3.618   0.804  0.5560 -0.1021 -0.4781
 5533SOL    HW128235   4.335   3.666   0.880 -0.4231  1.0187 -0.7383
 5533SOL    HW228236   4.368   3.553   0.784  1.0841  0.0894  0.6942
 5534SOL     OW28237   0.955   4.546   7.343  0.4869  0.6002  0.3163
 5534SOL    HW128238   0.920   4.574   7.258 -0.7154 -0.6282  0.4194
 5534SOL    HW228239   0.914   4.602   7.409  0.4018 -0.1676  0.9070
 5535SOL     OW28240   1.287   1.654  17.552  0.3267  0.2597  0.5039
 5535SOL    HW128241   1.279   1.565  17.516 -0.6965 -0.8480  3.4790
 5535SOL    HW228242   1.353   1.691  17.493 -1.1311 -1.1013 -1.9742
 5536SOL     OW28243   3.368   2.103  10.299 -0.3889  0.2452  0.0165
 5536SOL    HW128244   3.361   2.151  10.217 -0.5008  1.4911  0.7486
 5536SOL    HW228245   3.355   2.178  10.357 -0.5809  2.4125 -2.8576
 5537SOL     OW28246   3.093   2.076  10.624 -0.0984 -0.1748 -0.0148
 5537SOL    HW128247   3.057   2.098  10.710  0.7007  0.1845  0.2227
 5537SOL    HW228248   3.124   1.986  10.634  0.8387  0.0174 -1.1397
 5538SOL     OW28249   1.762   1.638   1.762 -0.2826 -0.0613 -0.2952
 5538SOL    HW128250   1.707   1.559   1.770  0.2838 -0.5403 -1.1679
 5538SOL    HW228251   1.722   1.683   1.837  1.5512  0.7113  0.2010
 5539SOL     OW28252   4.591   1.746   4.527  0.6226 -0.2082 -0.0838
 5539SOL    HW128253   4.664   1.806   4.540  1.0415 -0.7062 -0.1312
 5539SOL    HW228254   4.626   1.670   4.481 -1.7214 -1.9085  0.9212
 5540SOL     OW28255   1.116   0.574   0.234 -0.2472  0.0965  0.0505
 5540SOL    HW128256   1.054   0.582   0.161  0.0084 -0.3814 -0.2241
 5540SOL    HW228257   1.080   0.642   0.291 -0.0779 -0.0224  0.2982
 5541SOL     OW28258   3.128   3.908   4.455  0.4258  0.2213 -0.1763
 5541SOL    HW128259   3.102   3.851   4.528  1.3649  0.7330  0.5539
 5541SOL    HW228260   3.106   3.987   4.503 -1.2710  0.9079 -2.1014
 5542SOL     OW28261   4.211   0.318   3.496  0.7927 -0.3161  0.1758
 5542SOL    HW128262   4.166   0.298   3.578  0.1430  1.8497  0.3522
 5542SOL    HW228263   4.220   0.229   3.461 -1.8795 -0.6064  0.2693
 5543SOL     OW28264   1.774   1.356  14.367 -0.0266  0.0798 -0.1949
 5543SOL    HW128265   1.780   1.357  14.463 -1.1112 -1.5530 -0.1159
 5543SOL    HW228266   1.688   1.396  14.354  0.4444  1.5829  1.3430
 5544SOL     OW28267   3.656   2.104   2.249  0.0200  0.8495 -0.0107
 5544SOL    HW128268   3.603   2.134   2.176 -3.2356 -1.5582  1.3383
 5544SOL    HW228269   3.616   2.163   2.312  0.0679 -1.7717  2.5167
 5545SOL     OW28270   1.896   3.584   0.636  0.0337  0.2719 -0.0582
 5545SOL    HW128271   1.900   3.554   0.545  0.2750  0.0643  0.0210
 5545SOL    HW228272   1.987   3.589   0.667  0.8544 -0.9750 -2.2397
 5546SOL     OW28273   0.850   0.073   7.787 -0.0686  1.1128 -0.1173
 5546SOL    HW128274   0.935   0.111   7.812 -0.5173  1.3572  1.0130
 5546SOL    HW228275   0.873   4.714   7.780 -1.8414  0.7205 -0.5261
 5547SOL     OW28276   2.797   1.523  15.234  0.2827  0.1716 -0.6619
 5547SOL    HW128277   2.728   1.488  15.290  0.2957  1.7234  0.3430
 5547SOL    HW228278   2.869   1.519  15.298 -1.1374  0.3125  0.9566
 5548SOL     OW28279   1.836   3.114   7.506  0.1431 -0.3463  0.2382
 5548SOL    HW128280   1.811   3.178   7.573 -1.6504  0.3036 -1.0446
 5548SOL    HW228281   1.836   3.031   7.554  1.3428  0.3797  1.4862
 5549SOL     OW28282   1.106   1.661   7.243 -0.3790 -0.4173  0.1009
 5549SOL    HW128283   1.021   1.639   7.205 -1.0296  1.5641  0.3938
 5549SOL    HW228284   1.168   1.607   7.195  0.2272 -0.4597  0.9276
 5550SOL     OW28285   4.655   2.968  13.622  0.5748  0.2162  0.1611
 5550SOL    HW128286   4.560   2.964  13.621  0.5565  0.1539  1.6425
 5550SOL    HW228287   4.677   2.999  13.534 -2.3246 -1.8250 -1.2480
 5551SOL     OW28288   1.238   2.800   8.293 -0.2839 -1.1528  0.2835
 5551SOL    HW128289   1.226   2.789   8.199 -0.0467  3.3829 -0.2484
 5551SOL    HW228290   1.217   2.893   8.301  0.2982 -0.9785 -0.2556
 5552SOL     OW28291   2.048   2.985  11.458 -0.2309  0.3224 -0.6007
 5552SOL    HW128292   2.060   2.899  11.498  0.2605 -0.3252 -2.1681
 5552SOL    HW228293   2.033   3.034  11.540  0.6628 -2.0845  0.9933
 5553SOL     OW28294   1.223   1.083   7.512 -0.0415  0.1398  0.1716
 5553SOL    HW128295   1.133   1.073   7.480  0.0877  0.1451 -0.1946
 5553SOL    HW228296   1.229   1.012   7.575 -1.3300 -1.5848 -1.6594
 5554SOL     OW28297   4.156   4.536   8.057  0.1426 -0.3929 -0.0763
 5554SOL    HW128298   4.162   4.600   8.128 -0.5146  0.2591 -0.6084
 5554SOL    HW228299   4.248   4.517   8.038 -0.1943 -0.7415 -1.3965
 5555SOL     OW28300   4.692   1.102  15.598  0.3263  0.5027  0.0661
 5555SOL    HW128301   4.676   1.076  15.688 -0.5556  2.7895  0.5853
 5555SOL    HW228302   4.606   1.123  15.563  0.6329  0.6234 -0.6143
 5556SOL     OW28303   4.252   3.799   8.676 -0.1444  0.5299  0.2615
 5556SOL    HW128304   4.259   3.877   8.731  0.0522  0.1045  0.8306
 5556SOL    HW228305   4.157   3.798   8.682 -0.1872  0.2347 -0.4412
 5557SOL     OW28306   1.110   2.446  16.727  0.2576  0.7232  0.2330
 5557SOL    HW128307   1.047   2.434  16.655 -0.2351  1.1189  0.5979
 5557SOL    HW228308   1.178   2.480  16.669  2.7942  0.3610  3.0023
 5558SOL     OW28309   2.325   2.143  14.247 -0.1531  0.8724  0.2172
 5558SOL    HW128310   2.405   2.182  14.282 -0.7887  1.8023  0.6289
 5558SOL    HW228311   2.344   2.066  14.302 -1.1855  0.7942  0.4567
 5559SOL     OW28312   1.965   1.699   1.511  0.3062  0.7756  0.1670
 5559SOL    HW128313   1.907   1.645   1.565 -0.2558 -0.7111 -1.9094
 5559SOL    HW228314   2.019   1.628   1.477  0.4312  0.4362  1.0624
 5560SOL     OW28315   0.464   1.312   4.693 -0.3581  0.8336 -0.0022
 5560SOL    HW128316   0.547   1.302   4.741 -1.4030 -3.2919  0.9604
 5560SOL    HW228317   0.476   1.245   4.626  2.5382 -1.3686  2.6685
 5561SOL     OW28318   2.653   4.426   4.797 -0.0401  0.0899 -0.1061
 5561SOL    HW128319   2.603   4.386   4.868 -1.3704 -1.6239 -2.0304
 5561SOL    HW228320   2.689   4.349   4.752 -0.7862 -0.5864  0.4556
 5562SOL     OW28321   2.206   0.246   5.872  0.3089 -0.0511  0.2845
 5562SOL    HW128322   2.129   0.239   5.928 -0.2895  0.1336 -0.5099
 5562SOL    HW228323   2.199   0.156   5.840  0.3171  0.3788 -0.9571
 5563SOL     OW28324   0.374   2.418   5.759 -0.3806 -0.2358  0.7085
 5563SOL    HW128325   0.316   2.390   5.830 -1.4987  1.0462  0.3209
 5563SOL    HW228326   0.312   2.479   5.718  0.0919  0.3176  0.8137
 5564SOL     OW28327   1.309   0.045   7.207 -0.8763 -0.3561 -0.0530
 5564SOL    HW128328   1.330   4.708   7.148 -0.1975 -1.8829  2.0313
 5564SOL    HW228329   1.214   0.034   7.210 -0.6650 -1.7420  1.7623
 5565SOL     OW28330   3.803   3.746   8.067  0.0999  0.4837  1.0877
 5565SOL    HW128331   3.889   3.707   8.084 -0.5386 -0.7441  1.4942
 5565SOL    HW228332   3.763   3.698   7.995  0.6986 -0.3733  1.3294
 5566SOL     OW28333   3.610   2.591  14.552 -0.8364 -0.0864 -0.5025
 5566SOL    HW128334   3.577   2.501  14.551 -0.7715 -0.0970 -1.6940
 5566SOL    HW228335   3.637   2.587  14.644 -1.3141 -0.4300 -0.3789
 5567SOL     OW28336   1.992   3.784  16.402  0.1131 -0.1894 -0.0103
 5567SOL    HW128337   1.981   3.873  16.435 -1.7035  0.3170 -2.0061
 5567SOL    HW228338   2.055   3.803  16.332  1.7388 -0.6588  1.3273
 5568SOL     OW28339   2.407   1.034   6.890 -0.5796 -0.5044 -0.4776
 5568SOL    HW128340   2.363   1.027   6.805  0.0459 -5.2359 -0.4226
 5568SOL    HW228341   2.401   0.941   6.912  0.8524 -0.2702  0.9258
 5569SOL     OW28342   3.058   0.740   4.841 -0.3207  0.2482  0.0526
 5569SOL    HW128343   3.101   0.756   4.757  0.5463 -1.0085  0.2551
 5569SOL    HW228344   2.975   0.787   4.842 -0.0453  0.8146 -2.6256
 5570SOL     OW28345   4.251   3.271   2.973  0.2312 -0.0625  0.2338
 5570SOL    HW128346   4.295   3.212   2.912  0.4216 -1.2023  1.4991
 5570SOL    HW228347   4.329   3.300   3.021  0.6406 -0.4206 -0.2171
 5571SOL     OW28348   3.876   4.472   0.493  0.3824  0.0004  0.0237
 5571SOL    HW128349   3.908   4.431   0.413  2.5701 -0.9069  1.3659
 5571SOL    HW228350   3.787   4.437   0.486  0.1140  0.9097 -1.0286
 5572SOL     OW28351   1.662   2.972   7.889  0.0235 -0.1734  0.3622
 5572SOL    HW128352   1.692   2.892   7.933 -1.3074 -1.3729 -0.9257
 5572SOL    HW228353   1.737   3.031   7.895 -0.9791  1.0227  1.2217
 5573SOL     OW28354   3.584   4.563  11.682  0.0536 -0.7018  0.0589
 5573SOL    HW128355   3.553   4.654  11.689  0.8172 -0.4047 -0.3860
 5573SOL    HW228356   3.670   4.574  11.642 -0.0977  0.7662  0.1065
 5574SOL     OW28357   2.599   4.450   9.131  0.4757  0.1979 -0.3955
 5574SOL    HW128358   2.688   4.440   9.100  2.0049  0.2951  3.8966
 5574SOL    HW228359   2.619   4.413   9.217  0.3904 -1.3582 -1.0558
 5575SOL     OW28360   2.336   3.905   8.826 -0.3406  0.0723  0.8187
 5575SOL    HW128361   2.325   3.810   8.827 -2.9576  0.4069  1.8691
 5575SOL    HW228362   2.418   3.911   8.875  0.0688 -2.2307  0.4119
 5576SOL     OW28363   2.350   4.176   8.552  0.1386 -0.4182 -0.5956
 5576SOL    HW128364   2.359   4.227   8.633  1.3736  0.6341 -1.3982
 5576SOL    HW228365   2.255   4.165   8.542 -0.3040  1.3601  1.6188
 5577SOL     OW28366   4.632   3.959   5.185 -0.5625 -0.8266 -0.3637
 5577SOL    HW128367   4.592   3.918   5.108 -1.1456 -0.5753 -0.1897
 5577SOL    HW228368   4.560   4.018   5.205 -1.6277 -2.3248  0.2389
 5578SOL     OW28369   3.315   1.357   3.165  0.0363 -0.0275  0.1870
 5578SOL    HW128370   3.323   1.276   3.114 -0.8445 -0.1872  0.3053
 5578SOL    HW228371   3.318   1.422   3.095  2.3118 -0.9000 -0.5115
 5579SOL     OW28372   1.671   1.498   1.139  0.3628  0.2922 -0.2365
 5579SOL    HW128373   1.758   1.527   1.114 -0.5859  1.2999 -2.3997
 5579SOL    HW228374   1.679   1.425   1.077  1.4784  0.5631 -0.4062
 5580SOL     OW28375   1.588   2.059   0.544  0.3493 -0.3634  0.4627
 5580SOL    HW128376   1.608   2.093   0.631 -0.3230  1.0987  0.0460
 5580SOL    HW228377   1.608   2.140   0.496  0.4427  1.4301  3.5135
 5581SOL     OW28378   2.013   3.239  13.709  0.6122  0.1099 -0.3384
 5581SOL    HW128379   2.073   3.167  13.729  0.9397  1.0169  1.9532
 5581SOL    HW228380   1.977   3.252  13.796 -0.1500  1.2545 -0.8292
 5582SOL     OW28381   1.706   3.385   2.787 -0.4364  0.2483  0.0467
 5582SOL    HW128382   1.706   3.417   2.877 -2.4466  1.1315 -0.2772
 5582SOL    HW228383   1.796   3.407   2.762  0.1149 -0.6052  1.3106
 5583SOL     OW28384   0.388   1.616   5.867  0.6256  0.3403  0.5448
 5583SOL    HW128385   0.394   1.602   5.772  0.1521  0.0788  0.5528
 5583SOL    HW228386   0.481   1.597   5.878  0.5792  0.5782  1.2854
 5584SOL     OW28387   0.108   1.274   8.783  0.1446 -0.1133  0.6302
 5584SOL    HW128388   0.024   1.270   8.829 -0.1205  1.7139  0.3048
 5584SOL    HW228389   0.128   1.185   8.756  0.5575  1.2467 -3.5287
 5585SOL     OW28390   4.327   0.856   8.262 -1.0498 -0.1335  0.1444
 5585SOL    HW128391   4.306   0.949   8.260 -1.3119 -0.1606  1.2757
 5585SOL    HW228392   4.249   0.818   8.304 -0.8670 -1.4356 -0.6937
 5586SOL     OW28393   3.884   4.665  12.600 -0.2035  0.1325 -0.1179
 5586SOL    HW128394   3.951   4.601  12.574  0.3897 -0.0322  1.7712
 5586SOL    HW228395   3.828   4.649  12.525  0.6428 -0.0613 -0.7093
 5587SOL     OW28396   4.675   0.406   5.730  0.5246  0.4718 -0.7397
 5587SOL    HW128397   4.662   0.355   5.809  0.7299  1.4243 -0.0889
 5587SOL    HW228398   4.694   0.337   5.666 -0.9019 -1.6489  1.1622
 5588SOL     OW28399   3.331   1.295  14.632 -0.0473 -0.8653  0.1448
 5588SOL    HW128400   3.292   1.346  14.703  0.0113 -0.6146 -0.0034
 5588SOL    HW228401   3.271   1.301  14.558  1.8055  3.6221 -1.0392
 5589SOL     OW28402   2.122   4.413   8.119 -0.7852  0.1321  0.3374
 5589SOL    HW128403   2.065   4.455   8.054 -0.3473 -1.3060 -0.9774
 5589SOL    HW228404   2.203   4.407   8.069 -1.3240  1.7173 -0.7162
 5590SOL     OW28405   3.917   0.777   4.539  0.6987  0.3717 -0.0872
 5590SOL    HW128406   3.822   0.773   4.531  0.8890  1.4857 -2.9283
 5590SOL    HW228407   3.928   0.690   4.579  0.5400  0.1397 -0.5455
 5591SOL     OW28408   0.535   4.415   5.598 -0.0409  0.0144  0.1418
 5591SOL    HW128409   0.573   4.500   5.573 -2.7459  0.5746 -2.1191
 5591SOL    HW228410   0.579   4.351   5.542 -1.1107  0.9562 -1.7882
 5592SOL     OW28411   3.694   2.017   0.343  0.4138 -0.0072  0.3574
 5592SOL    HW128412   3.720   2.029   0.434 -1.4704  0.6549  0.8071
 5592SOL    HW228413   3.761   2.066   0.295  2.6666 -0.1508  3.3536
 5593SOL     OW28414   0.922   4.390   6.255  0.1512  0.2435  0.1746
 5593SOL    HW128415   0.951   4.361   6.341 -3.2476 -0.3999  1.1115
 5593SOL    HW228416   1.010   4.401   6.221 -0.5551  0.3946 -1.6189
 5594SOL     OW28417   1.528   3.594  12.671  0.0042 -0.7794  0.2288
 5594SOL    HW128418   1.590   3.569  12.603  0.0218  0.3089 -0.1521
 5594SOL    HW228419   1.442   3.560  12.648 -0.7279  0.2319  1.4879
 5595SOL     OW28420   0.442   0.472  10.286 -0.6423 -0.1779  0.4500
 5595SOL    HW128421   0.363   0.490  10.234 -1.6287  1.3233  2.4589
 5595SOL    HW228422   0.465   0.382  10.263 -0.3466 -0.1388  0.5857
 5596SOL     OW28423   0.038   3.369   4.999  0.5318  0.6305 -0.1762
 5596SOL    HW128424   4.712   3.340   5.068 -0.0896  0.9985 -0.5632
 5596SOL    HW228425   0.109   3.396   5.058  0.2259  0.7867  0.1212
 5597SOL     OW28426   4.657   4.704   1.537  0.4564  0.7644 -0.1316
 5597SOL    HW128427   4.716   4.722   1.610  0.9322  0.8672 -0.5433
 5597SOL    HW228428   4.673   4.612   1.517  0.7487  1.1260 -1.5391
 5598SOL     OW28429   3.144   1.717   0.907  0.1571  0.4944  0.2341
 5598SOL    HW128430   3.236   1.715   0.932 -0.1873  1.3953  1.5530
 5598SOL    HW228431   3.103   1.732   0.992 -1.1726  0.3690 -0.3830
 5599SOL     OW28432   1.221   1.502  10.484  0.1154  0.0794 -0.3773
 5599SOL    HW128433   1.213   1.571  10.549  0.5138  0.2539 -0.5142
 5599SOL    HW228434   1.281   1.547  10.424 -1.4756  1.0647 -1.2348
 5600SOL     OW28435   3.753   1.054   2.554 -0.3386  0.1511 -0.0412
 5600SOL    HW128436   3.682   1.109   2.521 -0.2198  0.5505  0.3723
 5600SOL    HW228437   3.778   1.102   2.632  0.0555 -0.6656  0.3352
 5601SOL     OW28438   2.564   0.390  10.856  0.3522  0.0556 -0.6899
 5601SOL    HW128439   2.611   0.308  10.866  0.6077 -0.0514 -2.8861
 5601SOL    HW228440   2.630   0.453  10.885  0.2157  1.1175 -2.6804
 5602SOL     OW28441   2.100   1.794  16.142  0.3899  0.2682  0.3518
 5602SOL    HW128442   2.103   1.885  16.112  3.4318 -0.4714 -1.6199
 5602SOL    HW228443   2.168   1.798  16.209 -1.6894 -1.3860  2.5356
 5603SOL     OW28444   4.224   0.019  12.728  0.3823  1.1770  1.2030
 5603SOL    HW128445   4.129   0.015  12.740  0.0917 -0.2373 -1.5685
 5603SOL    HW228446   4.238   0.102  12.683  0.3506 -0.3712 -1.6494
 5604SOL     OW28447   2.715   0.526   5.177  0.1555  0.5140 -0.2281
 5604SOL    HW128448   2.806   0.496   5.177  0.5001  1.5993 -0.8991
 5604SOL    HW228449   2.678   0.464   5.114  1.4823 -1.3835  0.8334
 5605SOL     OW28450   1.111   1.026  14.860 -0.1277  0.4497 -0.2873
 5605SOL    HW128451   1.035   1.077  14.832  0.8868  2.8012  1.2011
 5605SOL    HW228452   1.098   1.032  14.955  0.8499  1.3089 -0.2092
 5606SOL     OW28453   3.975   2.784   6.024 -0.2142 -0.2908  0.2301
 5606SOL    HW128454   3.990   2.787   6.119 -1.0445 -0.1367  0.3627
 5606SOL    HW228455   4.050   2.729   6.001  0.3701  1.4108 -1.9745
 5607SOL     OW28456   2.947   3.184   6.463 -0.0352  0.2197 -0.0967
 5607SOL    HW128457   2.875   3.236   6.428  2.0745  2.1788 -1.5640
 5607SOL    HW228458   2.957   3.221   6.551 -0.9788  0.8576 -0.2625
 5608SOL     OW28459   0.540   2.721   5.370  0.0737  0.5972  0.2621
 5608SOL    HW128460   0.504   2.636   5.393  0.2027  0.5460  0.2725
 5608SOL    HW228461   0.615   2.721   5.430 -0.8029 -1.5643  1.3305
 5609SOL     OW28462   3.669   2.929  15.221 -0.4454 -0.2722  0.4410
 5609SOL    HW128463   3.753   2.952  15.263 -0.5558  0.6543  0.1669
 5609SOL    HW228464   3.617   3.004  15.251 -1.2114  0.3580 -2.4835
 5610SOL     OW28465   2.459   1.670  11.181 -0.1737 -0.0255 -0.5620
 5610SOL    HW128466   2.370   1.678  11.216 -0.2017  0.6416 -0.7752
 5610SOL    HW228467   2.453   1.727  11.104 -0.1944  0.0960 -0.4711
 5611SOL     OW28468   1.476   0.281   7.659  0.0423  0.8363  0.4374
 5611SOL    HW128469   1.495   0.349   7.594 -0.8473  1.4524  0.8215
 5611SOL    HW228470   1.423   0.327   7.724 -0.5807 -0.1183  0.6062
 5612SOL     OW28471   1.615   1.886   2.680  0.2962 -0.2252 -0.2919
 5612SOL    HW128472   1.669   1.947   2.729 -2.2171  0.4266  1.6841
 5612SOL    HW228473   1.643   1.917   2.594  0.5705  1.4576  0.3979
 5613SOL     OW28474   4.054   4.183  16.940 -0.5498  0.1054  0.5473
 5613SOL    HW128475   4.065   4.275  16.964  2.2383 -0.1262  0.1746
 5613SOL    HW228476   3.987   4.163  17.006 -0.4007  0.9637  0.9633
 5614SOL     OW28477   3.529   0.253  10.788  0.0791  0.0974 -0.4037
 5614SOL    HW128478   3.559   0.165  10.768 -2.2649  0.0610 -3.8033
 5614SOL    HW228479   3.504   0.250  10.881  0.1452 -2.9028 -0.4749
 5615SOL     OW28480   4.693   1.916  11.159  0.0165 -0.0241 -0.4314
 5615SOL    HW128481   0.026   1.985  11.163 -0.9461  0.7307  2.6084
 5615SOL    HW228482   0.004   1.851  11.212  0.7510  1.7070  1.0901
 5616SOL     OW28483   1.512   0.929   7.741 -0.5863 -0.2569  0.0841
 5616SOL    HW128484   1.529   0.894   7.653 -0.7448  1.6093 -0.6884
 5616SOL    HW228485   1.428   0.890   7.764 -0.1640 -0.0356  2.0530
 5617SOL     OW28486   4.062   0.375   2.131  0.0277 -0.0714 -0.7106
 5617SOL    HW128487   4.024   0.403   2.215  1.8696 -0.5642  0.2983
 5617SOL    HW228488   4.144   0.337   2.165  0.5840 -0.6420 -2.7378
 5618SOL     OW28489   0.769   0.588   5.357  0.2599  0.1602  0.0621
 5618SOL    HW128490   0.677   0.604   5.377  0.2728  1.7964 -1.1965
 5618SOL    HW228491   0.775   0.623   5.268  1.6197 -2.2568 -0.8191
 5619SOL     OW28492   2.617   0.075  15.224 -0.4934 -0.5627  0.1865
 5619SOL    HW128493   2.558   0.026  15.283 -2.6535  3.0215  1.0006
 5619SOL    HW228494   2.567   0.088  15.144 -1.6726  2.7487  1.4727
 5620SOL     OW28495   4.585   2.543   6.493  0.1213  0.5828 -0.5648
 5620SOL    HW128496   4.537   2.473   6.448  0.3122  1.2607 -1.8371
 5620SOL    HW228497   4.580   2.492   6.574  0.2601 -0.3562 -1.1366
 5621SOL     OW28498   3.743   0.082   5.137  0.2447  0.1828 -0.0478
 5621SOL    HW128499   3.812   0.070   5.071  1.3284  1.9799  0.7592
 5621SOL    HW228500   3.776   0.032   5.212  1.4211  0.4867 -0.3494
 5622SOL     OW28501   3.271   2.965   7.443  0.0395  0.6647 -0.3811
 5622SOL    HW128502   3.263   2.937   7.352  0.4523 -1.1559  0.1448
 5622SOL    HW228503   3.347   3.018   7.417 -0.2282  2.0546  1.6854
 5623SOL     OW28504   0.061   4.314   5.219  0.2523  0.3792 -0.2331
 5623SOL    HW128505   0.076   4.259   5.296 -1.5876  1.6066  0.9933
 5623SOL    HW228506   4.724   4.372   5.245 -0.2980 -0.4199  0.0351
 5624SOL     OW28507   1.366   2.531   6.900  0.0063  0.5634  0.1697
 5624SOL    HW128508   1.417   2.458   6.864 -3.2248 -1.6285  0.1135
 5624SOL    HW228509   1.365   2.503   6.991 -0.5876 -1.4719 -0.4586
 5625SOL     OW28510   0.850   0.440   4.129 -0.1244  0.4049  0.3716
 5625SOL    HW128511   0.802   0.387   4.192 -0.5048 -0.4580 -0.6455
 5625SOL    HW228512   0.785   0.449   4.059 -0.7373 -1.5020  0.7156
 5626SOL     OW28513   3.927   0.168   2.017 -0.4832  0.0957 -0.2922
 5626SOL    HW128514   3.993   0.237   2.023 -1.3245  0.7284  1.8439
 5626SOL    HW228515   3.940   0.128   1.931  0.3629 -2.1422  0.8752
 5627SOL     OW28516   3.199   0.404   7.359 -0.1350 -0.3428  0.2644
 5627SOL    HW128517   3.162   0.361   7.281  0.7875  0.5998 -0.6968
 5627SOL    HW228518   3.235   0.326   7.401  0.8779 -1.0790 -1.9307
 5628SOL     OW28519   1.630   1.086   7.988  0.0993  0.1903 -0.3508
 5628SOL    HW128520   1.580   1.047   7.916 -0.8596 -0.4211  0.6560
 5628SOL    HW228521   1.652   1.175   7.959 -0.3499  0.7667  1.0898
 5629SOL     OW28522   1.090   3.977   8.388  0.5806  0.2597  0.3545
 5629SOL    HW128523   1.055   4.030   8.461 -4.8636 -0.4723 -1.7211
 5629SOL    HW228524   1.062   4.028   8.313 -1.5836 -0.2895  0.7939
 5630SOL     OW28525   4.513   3.920   5.644  0.0385  0.0954  0.3631
 5630SOL    HW128526   4.476   3.869   5.716 -0.7595  1.7173  1.0834
 5630SOL    HW228527   4.448   3.990   5.647 -0.2460 -0.0798 -1.3990
 5631SOL     OW28528   2.112   1.848  14.522 -0.3428 -0.2520 -0.0761
 5631SOL    HW128529   2.131   1.783  14.456  1.5152 -1.9236  2.1181
 5631SOL    HW228530   2.184   1.906  14.500  0.5679 -1.9548 -1.5341
 5632SOL     OW28531   2.147   2.238   6.234  0.2600  0.0802  0.1103
 5632SOL    HW128532   2.204   2.315   6.229  2.6703 -1.6575  0.7083
 5632SOL    HW228533   2.084   2.273   6.172  0.6386  0.4804 -0.0533
 5633SOL     OW28534   2.574   0.453   1.592 -0.4461  0.1463 -0.0456
 5633SOL    HW128535   2.600   0.363   1.615 -0.5722 -0.6914 -3.2690
 5633SOL    HW228536   2.639   0.476   1.526 -0.2698  1.4908  0.6017
 5634SOL     OW28537   1.343   2.348  10.258  0.1751 -0.6226 -0.0086
 5634SOL    HW128538   1.358   2.317  10.347 -0.8861 -1.8869 -0.2638
 5634SOL    HW228539   1.376   2.437  10.247  0.6838 -0.8913 -0.6539
 5635SOL     OW28540   1.566   0.789   7.123  0.2659 -0.7174  0.1705
 5635SOL    HW128541   1.584   0.883   7.124 -0.0451 -0.6539 -0.1928
 5635SOL    HW228542   1.649   0.756   7.159 -0.1707 -0.9253  0.9926
 5636SOL     OW28543   1.175   1.514   0.131  0.0261  0.2674 -0.5104
 5636SOL    HW128544   1.256   1.476   0.097  1.1514  2.1145  0.0949
 5636SOL    HW228545   1.153   1.446   0.196 -1.9902 -0.1017 -1.5790
 5637SOL     OW28546   3.080   4.189   6.264 -0.0230  0.0304  0.1177
 5637SOL    HW128547   3.121   4.234   6.338 -2.5410  2.2554  0.1447
 5637SOL    HW228548   3.001   4.158   6.309  0.0334  0.4567  0.5111
 5638SOL     OW28549   2.219   1.864   4.315  0.3397 -0.0062  0.1483
 5638SOL    HW128550   2.182   1.826   4.235  1.4361 -3.1426  1.1401
 5638SOL    HW228551   2.145   1.854   4.375  0.0876  0.0858 -0.1459
 5639SOL     OW28552   4.670   2.629   4.392 -0.0881 -0.0709  0.0284
 5639SOL    HW128553   4.703   2.539   4.389 -0.7871 -0.2419 -3.3221
 5639SOL    HW228554   0.009   2.675   4.351  0.3668  0.3124  1.2799
 5640SOL     OW28555   3.590   2.162   3.521 -0.1947  0.1244  0.0983
 5640SOL    HW128556   3.629   2.084   3.561  0.6444  0.4447 -0.1142
 5640SOL    HW228557   3.659   2.225   3.542 -1.7545  1.8500  0.0167
 5641SOL     OW28558   3.756   1.820   2.218 -0.0458 -0.1693  0.2442
 5641SOL    HW128559   3.704   1.895   2.189 -0.7592 -0.8253 -0.1800
 5641SOL    HW228560   3.807   1.875   2.277  0.9283  0.3707 -1.1168
 5642SOL     OW28561   3.841   0.111  14.462  0.1889 -0.2316  0.2972
 5642SOL    HW128562   3.908   0.180  14.460  1.0084 -0.9843  1.8927
 5642SOL    HW228563   3.784   0.126  14.537  0.5629  0.1393  0.5113
 5643SOL     OW28564   2.905   2.138   8.015  0.3895  0.3378 -0.4807
 5643SOL    HW128565   2.995   2.113   8.036  0.7321  1.2228 -0.8774
 5643SOL    HW228566   2.902   2.112   7.923  1.1826  0.2363 -0.4803
 5644SOL     OW28567   4.422   1.346   5.076 -0.2116 -0.5714 -0.0621
 5644SOL    HW128568   4.502   1.340   5.128 -0.5896  2.0062  0.8585
 5644SOL    HW228569   4.394   1.436   5.093 -1.0852 -0.7147 -0.7273
 5645SOL     OW28570   0.580   3.550   9.955  0.2303  0.0533 -0.4051
 5645SOL    HW128571   0.661   3.602   9.966 -0.8031  1.7100 -0.6413
 5645SOL    HW228572   0.591   3.468  10.002 -0.9054  0.5204  0.6765
 5646SOL     OW28573   1.899   0.614   5.221  0.7907  0.0644  0.3357
 5646SOL    HW128574   1.905   0.585   5.312 -0.2717 -0.2444  0.3023
 5646SOL    HW228575   1.824   0.673   5.225  0.9427  0.3178 -0.5122
 5647SOL     OW28576   3.021   0.587   8.293 -0.0395 -0.3069 -0.0116
 5647SOL    HW128577   2.980   0.560   8.211 -0.3181 -1.3982  0.4880
 5647SOL    HW228578   3.045   0.507   8.341 -0.2046 -0.8600 -0.8528
 5648SOL     OW28579   2.479   0.662   5.589  0.3193 -0.2877  0.0058
 5648SOL    HW128580   2.433   0.709   5.519  0.8989 -1.5366 -1.2158
 5648SOL    HW228581   2.507   0.586   5.539  0.3970  0.5705 -1.2541
 5649SOL     OW28582   4.593   0.122   5.500  0.3715  0.4711  0.0832
 5649SOL    HW128583   4.566   0.197   5.446  2.9765 -0.2602 -2.2251
 5649SOL    HW228584   4.532   0.055   5.469  1.1144  0.1728 -0.7367
 5650SOL     OW28585   3.198   1.357   4.207 -0.6131  0.8746 -0.2072
 5650SOL    HW128586   3.221   1.420   4.139 -2.0546  0.6733 -0.8677
 5650SOL    HW228587   3.109   1.333   4.184 -1.1097  1.6553  0.8720
 5651SOL     OW28588   4.627   2.457   3.605 -0.8484  0.2607 -0.0342
 5651SOL    HW128589   4.705   2.432   3.654 -0.5893 -0.3116 -0.7497
 5651SOL    HW228590   4.651   2.543   3.571 -0.1195 -0.4958 -1.4180
 5652SOL     OW28591   1.403   1.830   6.769  0.6368 -0.1096 -0.8568
 5652SOL    HW128592   1.421   1.767   6.699  1.0293 -1.7040  0.6609
 5652SOL    HW228593   1.436   1.777   6.841  1.6704  1.3511 -0.2635
 5653SOL     OW28594   1.656   2.847   7.396 -0.9382 -0.0180 -0.8275
 5653SOL    HW128595   1.606   2.929   7.399 -0.2858  0.3811 -0.5857
 5653SOL    HW228596   1.586   2.782   7.393 -1.2689  0.2212  1.5516
 5654SOL     OW28597   0.117   0.608  12.011 -0.2036  0.5145  0.2709
 5654SOL    HW128598   0.211   0.613  12.026  0.1402 -1.2539 -1.2522
 5654SOL    HW228599   0.121   0.576  11.920  1.0902  0.3419  0.3978
 5655SOL     OW28600   0.824   1.742   8.791 -0.2666  0.5190  0.1000
 5655SOL    HW128601   0.819   1.837   8.796 -2.1253  0.4312 -0.2136
 5655SOL    HW228602   0.734   1.720   8.816  0.0237 -0.2871  0.4343
 5656SOL     OW28603   2.982   1.490  14.999 -0.0347 -0.0926  0.3044
 5656SOL    HW128604   2.918   1.496  15.070 -1.8134  0.5181 -1.3689
 5656SOL    HW228605   3.033   1.415  15.030  0.5065  0.3025  0.3722
 5657SOL     OW28606   0.903   4.417   9.783  0.3652 -0.1029  0.0406
 5657SOL    HW128607   0.922   4.483   9.851 -0.0089  1.2279 -1.1494
 5657SOL    HW228608   0.985   4.369   9.793  0.2596 -0.3157 -0.1333
 5658SOL     OW28609   3.351   2.134   5.749 -0.1903  0.4809 -0.9639
 5658SOL    HW128610   3.265   2.130   5.706 -1.3369 -1.0975  1.4406
 5658SOL    HW228611   3.360   2.229   5.743 -1.0174  0.8289  2.9415
 5659SOL     OW28612   0.976   1.015  17.565  0.6257 -0.1544 -0.1528
 5659SOL    HW128613   1.021   0.949  17.617 -0.0038  0.3279  0.9951
 5659SOL    HW228614   1.011   0.994  17.478 -1.9196  0.7207 -1.3804
 5660SOL     OW28615   0.141   4.638  13.442 -0.6105 -0.2972 -0.0370
 5660SOL    HW128616   0.175   4.549  13.443 -0.5210 -0.2619  0.4238
 5660SOL    HW228617   0.059   4.630  13.394  0.0430 -1.5635 -0.9205
 5661SOL     OW28618   3.709   3.988   4.731  0.0672 -0.0809  0.1860
 5661SOL    HW128619   3.636   3.928   4.739 -0.9167  1.0207 -0.5641
 5661SOL    HW228620   3.679   4.031   4.652 -0.0006 -0.1562  0.1713
 5662SOL     OW28621   4.306   2.990   3.269 -0.3618  0.5743  0.0416
 5662SOL    HW128622   4.298   3.074   3.224 -0.7160  1.4566  1.7304
 5662SOL    HW228623   4.230   3.001   3.326  0.9735 -1.2983  2.2076
 5663SOL     OW28624   4.354   4.510   8.396  0.4819 -0.6822  0.0745
 5663SOL    HW128625   4.410   4.518   8.319  0.0906  0.4543 -0.0954
 5663SOL    HW228626   4.371   4.421   8.428  2.8607 -0.3555 -0.2568
 5664SOL     OW28627   0.262   1.190   4.266  0.3439  0.7961 -0.5590
 5664SOL    HW128628   0.279   1.283   4.279  1.8904  0.6704 -1.5634
 5664SOL    HW228629   0.338   1.159   4.215  0.6822  0.1027  0.3719
 5665SOL     OW28630   0.011   0.033   9.876 -0.5475  0.6667  0.1423
 5665SOL    HW128631   0.055   0.034   9.961  0.9150  3.1573 -0.6419
 5665SOL    HW228632   0.087   0.054   9.821 -0.7775 -0.7021 -0.6905
 5666SOL     OW28633   1.679   0.663   8.639  0.3657 -0.0452 -0.2696
 5666SOL    HW128634   1.714   0.678   8.727 -0.5090 -0.9510  0.2344
 5666SOL    HW228635   1.741   0.713   8.587  1.2682 -0.2635  0.5903
 5667SOL     OW28636   4.517   1.999   5.748 -0.3908  0.2890 -0.1040
 5667SOL    HW128637   4.561   1.931   5.799  1.2889  1.1432 -0.4213
 5667SOL    HW228638   4.542   2.079   5.794  3.6020 -1.0691  0.1076
 5668SOL     OW28639   2.290   1.409   2.305 -1.1174 -0.1663 -0.2862
 5668SOL    HW128640   2.195   1.403   2.310 -0.9996 -1.8396  0.0175
 5668SOL    HW228641   2.312   1.316   2.315 -0.3068  0.0511 -0.0197
 5669SOL     OW28642   0.441   3.358   7.430 -0.1734 -0.7786  0.8708
 5669SOL    HW128643   0.376   3.399   7.374 -0.8653 -3.3305 -0.1992
 5669SOL    HW228644   0.426   3.268   7.402 -1.2418  0.1104 -1.4181
 5670SOL     OW28645   0.221   0.674   2.613  0.0118 -0.2645  0.5693
 5670SOL    HW128646   0.292   0.683   2.677 -0.2768  1.4941  0.6456
 5670SOL    HW228647   0.157   0.737   2.646  2.3537  2.4638 -0.0730
 5671SOL     OW28648   4.382   3.190   5.600 -0.5219  0.5019 -0.2201
 5671SOL    HW128649   4.436   3.114   5.577  0.4972  0.9373  0.7272
 5671SOL    HW228650   4.313   3.169   5.537  2.0785 -1.3788 -2.4338
 5672SOL     OW28651   1.417   3.340   6.719 -0.3837  0.2916 -0.7024
 5672SOL    HW128652   1.436   3.315   6.809  0.0628  0.3197 -0.7911
 5672SOL    HW228653   1.358   3.270   6.689 -0.3601  0.2283 -0.6005
 5673SOL     OW28654   1.870   1.022   4.998 -0.1844  0.7739  0.5027
 5673SOL    HW128655   1.838   1.036   4.910  1.0070  0.1193 -0.0445
 5673SOL    HW228656   1.889   0.928   4.986 -2.3486  0.5345 -0.9186
 5674SOL     OW28657   1.484   4.668   2.406  0.8869  0.0030  0.2520
 5674SOL    HW128658   1.504   4.731   2.475  0.5945 -0.5298  0.8244
 5674SOL    HW228659   1.392   4.693   2.395  1.6850  2.6751 -0.1600
 5675SOL     OW28660   2.693   2.171   2.346  0.0482 -0.2980 -0.4453
 5675SOL    HW128661   2.608   2.141   2.315 -0.2974  0.0677  0.1514
 5675SOL    HW228662   2.760   2.124   2.296 -0.5559 -1.6693  0.0194
 5676SOL     OW28663   1.142   4.001  13.569  0.0325  0.1095 -0.1866
 5676SOL    HW128664   1.048   4.020  13.564  0.2958  1.9405  1.8766
 5676SOL    HW228665   1.193   4.082  13.561 -1.3639  0.9039 -1.1852
 5677SOL     OW28666   4.083   3.027   3.741  0.1895  0.5672 -0.0836
 5677SOL    HW128667   4.120   2.941   3.721 -1.9379 -0.2767 -0.3912
 5677SOL    HW228668   3.991   3.016   3.719  0.1148 -1.2885  1.1981
 5678SOL     OW28669   0.847   4.038   6.582  0.0617  0.2842 -0.2162
 5678SOL    HW128670   0.757   4.005   6.577  1.0360 -2.4247 -0.0342
 5678SOL    HW228671   0.888   3.999   6.659 -1.5153 -1.2218 -0.1362
 5679SOL     OW28672   1.706   1.218   5.291 -0.3566 -0.2597 -0.1384
 5679SOL    HW128673   1.731   1.127   5.277 -1.5590 -0.9368  2.0909
 5679SOL    HW228674   1.770   1.253   5.354 -0.5376 -2.4403  1.2529
 5680SOL     OW28675   2.575   3.688   9.786  0.3049 -0.7820  0.4312
 5680SOL    HW128676   2.609   3.777   9.792 -1.0205 -0.3684  1.7274
 5680SOL    HW228677   2.642   3.644   9.734 -0.8133 -0.8793 -0.9251
 5681SOL     OW28678   3.513   2.163   2.036 -0.7950 -0.6110 -0.4655
 5681SOL    HW128679   3.443   2.117   1.991 -0.4576 -3.4949  1.9487
 5681SOL    HW228680   3.595   2.151   1.989 -0.8192  1.0258 -0.9546
 5682SOL     OW28681   4.020   0.937  17.370  0.9117  0.0253 -0.1884
 5682SOL    HW128682   4.070   1.000  17.422 -1.4280  1.2364  0.5976
 5682SOL    HW228683   4.001   1.000  17.301  1.2168  0.3250  0.0011
 5683SOL     OW28684   1.714   0.118   4.318 -0.0689  0.2072  0.0543
 5683SOL    HW128685   1.761   0.043   4.355  0.5083  0.1028 -0.8558
 5683SOL    HW228686   1.683   0.090   4.231 -2.3661 -2.7800  1.8559
 5684SOL     OW28687   1.326   2.945  15.930  0.1939 -0.2645 -0.2105
 5684SOL    HW128688   1.341   3.036  15.905  0.3906 -0.1197  0.4285
 5684SOL    HW228689   1.299   2.908  15.846  0.4669 -0.7819 -0.0748
 5685SOL     OW28690   0.847   2.339  17.672  0.1573  0.1157 -0.5330
 5685SOL    HW128691   0.825   2.386   0.017  1.6856  1.4521 -0.9004
 5685SOL    HW228692   0.890   2.407  17.620 -2.3942  1.8143 -0.4014
 5686SOL     OW28693   1.186   2.929   1.559 -0.1705 -0.1120  0.1845
 5686SOL    HW128694   1.182   2.846   1.512  3.4502  1.8689 -3.7158
 5686SOL    HW228695   1.252   2.978   1.510  0.1746 -0.7578  0.0084
 5687SOL     OW28696   1.986   4.563  12.854 -0.4630 -0.3610  0.0707
 5687SOL    HW128697   1.939   4.642  12.826  0.8601 -0.0687 -1.3666
 5687SOL    HW228698   2.016   4.521  12.773 -2.0385  1.3323 -1.4104
 5688SOL     OW28699   3.427   1.238   6.423  0.2125  0.5774 -0.3355
 5688SOL    HW128700   3.477   1.185   6.484 -1.5774  0.3804  0.9768
 5688SOL    HW228701   3.471   1.320   6.447  0.7594  0.0278  0.5380
 5689SOL     OW28702   4.543   2.048  17.257 -0.1283 -0.0036  0.4658
 5689SOL    HW128703   4.473   2.113  17.246 -1.1371 -0.7790  2.3628
 5689SOL    HW228704   4.600   2.104  17.309 -0.1405 -0.4418  0.9469
 5690SOL     OW28705   4.221   2.618   7.018 -0.1195  0.5284  0.4276
 5690SOL    HW128706   4.209   2.711   7.036 -1.9433 -0.0212  2.0661
 5690SOL    HW228707   4.130   2.606   6.991  0.1925 -0.0633 -0.3533
 5691SOL     OW28708   2.032   1.533   7.909 -0.6714 -0.5004  0.1109
 5691SOL    HW128709   2.058   1.446   7.878 -2.3562 -0.6662 -0.8515
 5691SOL    HW228710   1.937   1.525   7.918 -0.3745 -1.7590  2.0900
 5692SOL     OW28711   4.138   3.509   9.370  0.5392  0.5032 -0.9058
 5692SOL    HW128712   4.229   3.479   9.360  0.5094  0.6915 -1.7027
 5692SOL    HW228713   4.108   3.449   9.439 -1.9083  1.8773 -0.8072
 5693SOL     OW28714   4.373   0.563   9.429 -0.0889 -0.2280  0.9589
 5693SOL    HW128715   4.408   0.628   9.368  1.2185 -2.4572 -0.6699
 5693SOL    HW228716   4.380   0.481   9.380  0.7777 -0.5695  1.6475
 5694SOL     OW28717   4.614   3.815   9.336  0.5389 -0.1806  0.0343
 5694SOL    HW128718   4.669   3.757   9.389  0.4186 -0.9994 -0.7307
 5694SOL    HW228719   4.527   3.782   9.358 -0.1129  1.0485 -0.6987
 5695SOL     OW28720   0.746   1.213   1.158  0.0392 -0.0662  0.2270
 5695SOL    HW128721   0.818   1.155   1.182  0.7100 -0.0690 -1.8568
 5695SOL    HW228722   0.704   1.157   1.093 -1.4199  0.2266  0.8963
 5696SOL     OW28723   4.454   2.700   7.639  0.0230 -0.4550  0.1381
 5696SOL    HW128724   4.439   2.672   7.730 -2.7497 -0.6705 -0.3961
 5696SOL    HW228725   4.367   2.733   7.616  0.8623  1.9387  0.4340
 5697SOL     OW28726   2.562   3.435   3.755  0.1162  0.7675 -0.3056
 5697SOL    HW128727   2.526   3.365   3.700 -0.5911 -1.7827  3.3566
 5697SOL    HW228728   2.656   3.418   3.753 -0.1262 -0.5432 -0.8888
 5698SOL     OW28729   1.764   4.351   9.026  0.1400 -0.0857  0.2560
 5698SOL    HW128730   1.770   4.445   9.037  2.5244 -0.2556  0.4966
 5698SOL    HW228731   1.708   4.323   9.098  1.9297 -0.5989  1.4560
 5699SOL     OW28732   3.253   3.142   4.020  0.3220 -0.8547  0.0801
 5699SOL    HW128733   3.257   3.140   3.924  2.4691 -0.1008  0.1597
 5699SOL    HW228734   3.183   3.081   4.045  2.1385 -1.6728  3.1007
 5700SOL     OW28735   2.510   0.777  14.747  0.0407 -0.6981 -1.2100
 5700SOL    HW128736   2.431   0.776  14.801 -0.5557 -1.2962 -2.1120
 5700SOL    HW228737   2.557   0.847  14.793 -1.0824  0.1916 -1.4099
 5701SOL     OW28738   2.487   0.856   3.536 -0.6258  0.2764 -0.2159
 5701SOL    HW128739   2.507   0.793   3.606  0.8134  2.0663  0.9928
 5701SOL    HW228740   2.424   0.917   3.573  0.7093  0.9748  0.9025
 5702SOL     OW28741   2.161   1.838   3.802 -0.5354 -0.3643 -0.1960
 5702SOL    HW128742   2.095   1.805   3.740  0.8020  1.1215 -2.3882
 5702SOL    HW228743   2.217   1.893   3.748  0.8758 -3.0857 -1.4991
 5703SOL     OW28744   3.442   2.122   6.353 -0.2827  0.3545  0.4736
 5703SOL    HW128745   3.433   2.197   6.294  1.5141 -0.3843 -0.7526
 5703SOL    HW228746   3.508   2.155   6.414 -0.5060  0.5568  0.6042
 5704SOL     OW28747   2.801   0.625   0.406  0.0202  0.3211 -0.0899
 5704SOL    HW128748   2.787   0.559   0.473 -1.2575  0.9728  0.2860
 5704SOL    HW228749   2.884   0.662   0.435  0.0532 -0.0515  0.2855
 5705SOL     OW28750   1.409   0.597  11.979 -0.0219  0.2432 -0.0324
 5705SOL    HW128751   1.369   0.511  11.963 -0.2400  0.1095  1.2003
 5705SOL    HW228752   1.480   0.575  12.040 -1.4929  1.6385  2.1678
 5706SOL     OW28753   4.548   0.977   8.990  0.0846  0.4721  0.5001
 5706SOL    HW128754   4.536   0.935   9.076  0.6128  0.7979  0.7361
 5706SOL    HW228755   4.625   0.937   8.949  0.6334  0.1318  1.8409
 5707SOL     OW28756   4.179   2.500   6.204 -0.5890  0.0898  0.2588
 5707SOL    HW128757   4.168   2.591   6.231 -1.1782  0.3139 -0.7362
 5707SOL    HW228758   4.177   2.510   6.109 -0.4575  0.1606  0.2646
 5708SOL     OW28759   2.801   4.034   9.062  0.5784 -0.1016 -0.7154
 5708SOL    HW128760   2.818   3.990   8.978  0.0489 -0.5133 -0.6051
 5708SOL    HW228761   2.805   3.961   9.123  0.1622  1.1777  0.8483
 5709SOL     OW28762   1.913   4.209   6.206 -0.5408 -0.0345 -0.1708
 5709SOL    HW128763   1.873   4.174   6.126  0.3260 -1.8179  0.1865
 5709SOL    HW228764   1.834   4.198   6.260  0.0089  0.2510  0.6872
 5710SOL     OW28765   0.948   1.417  17.405  0.0529  0.1581 -0.4716
 5710SOL    HW128766   0.914   1.492  17.453 -2.2683 -1.0341 -0.2358
 5710SOL    HW228767   1.042   1.423  17.419 -0.2339  2.5972  0.3637
 5711SOL     OW28768   0.589   3.255  11.550  0.3997 -0.0250  0.3401
 5711SOL    HW128769   0.534   3.333  11.543  0.4478  0.1509  1.8828
 5711SOL    HW228770   0.557   3.200  11.479 -1.7752 -0.7447  1.8878
 5712SOL     OW28771   1.293   2.832   7.233  0.6496 -0.0087  0.0951
 5712SOL    HW128772   1.234   2.789   7.295  1.6754 -3.3720 -1.2896
 5712SOL    HW228773   1.238   2.841   7.155  1.7417  0.9719 -0.5628
 5713SOL     OW28774   0.463   0.091  12.318  0.1924  0.4480 -0.8973
 5713SOL    HW128775   0.400   0.023  12.296  0.7814 -0.3520 -0.0885
 5713SOL    HW228776   0.462   0.088  12.413 -2.0212 -0.5911 -0.9432
 5714SOL     OW28777   1.817   3.891   7.613  0.1870 -0.0039 -0.5841
 5714SOL    HW128778   1.910   3.882   7.591  0.2461 -0.6520 -0.0798
 5714SOL    HW228779   1.816   3.986   7.611 -1.7840 -0.0740 -2.1288
 5715SOL     OW28780   4.711   2.715   9.377  0.2679 -0.3797  0.2528
 5715SOL    HW128781   4.684   2.735   9.467  1.7103  0.2737  0.5365
 5715SOL    HW228782   4.632   2.666   9.353  1.0030  0.1301 -3.2062
 5716SOL     OW28783   0.167   3.031   6.422 -0.2140 -0.0427  0.3667
 5716SOL    HW128784   0.186   3.098   6.358 -1.8502  2.1618  2.2107
 5716SOL    HW228785   0.124   2.970   6.363  1.3309 -0.3421 -0.4498
 5717SOL     OW28786   1.986   3.117  15.167 -0.4314 -0.1690  0.0518
 5717SOL    HW128787   1.963   3.126  15.075 -1.1069 -2.0277  0.0501
 5717SOL    HW228788   1.975   3.022  15.173  1.0914 -0.4699 -2.1492
 5718SOL     OW28789   2.980   2.391   3.972  0.3196 -0.2693  0.0558
 5718SOL    HW128790   3.030   2.366   3.894  1.3229  4.3272 -0.7368
 5718SOL    HW228791   2.985   2.486   3.972 -1.8926 -0.1642  1.7304
 5719SOL     OW28792   3.268   3.781  10.337  0.1943 -0.9022  1.0655
 5719SOL    HW128793   3.274   3.873  10.364  0.1670  0.4930 -3.6669
 5719SOL    HW228794   3.223   3.742  10.412  1.5354 -2.0753  1.2418
 5720SOL     OW28795   3.078   0.331  13.988 -0.3201  0.4729  0.5721
 5720SOL    HW128796   3.040   0.362  13.906 -0.0505 -1.9999 -0.4896
 5720SOL    HW228797   3.062   0.237  13.979 -1.0158  0.5845  0.6106
 5721SOL     OW28798   1.049   3.635   7.873 -0.4256 -0.8000  0.0790
 5721SOL    HW128799   1.108   3.657   7.801 -0.4865  0.7730  0.5008
 5721SOL    HW228800   0.963   3.648   7.833  0.9576 -0.6309 -2.8644
 5722SOL     OW28801   3.978   4.597   9.583 -0.0059 -0.2428 -0.0581
 5722SOL    HW128802   3.927   4.624   9.659  0.3569 -0.8651  0.3963
 5722SOL    HW228803   4.059   4.645   9.597  0.7518 -1.4266 -0.4051
 5723SOL     OW28804   3.843   3.598   9.911 -0.0869 -0.0484  0.5151
 5723SOL    HW128805   3.757   3.617   9.948  0.3747 -0.5285  1.8164
 5723SOL    HW228806   3.840   3.591   9.815  0.2991  2.3564  0.3261
 5724SOL     OW28807   2.512   2.956   6.299  0.7392  0.5578  0.3771
 5724SOL    HW128808   2.573   2.968   6.371  0.0978 -0.4460  1.0910
 5724SOL    HW228809   2.570   2.945   6.224 -0.0828  0.0176 -0.1870
 5725SOL     OW28810   3.564   3.834  10.619  0.7294 -0.4856 -0.0605
 5725SOL    HW128811   3.472   3.849  10.641  1.1401  0.7703  0.7877
 5725SOL    HW228812   3.600   3.922  10.636  0.6026 -0.0039 -2.2631
 5726SOL     OW28813   0.886   3.431   8.816 -0.2870  0.0508 -0.1316
 5726SOL    HW128814   0.806   3.451   8.768  0.2258 -0.1825 -1.0721
 5726SOL    HW228815   0.940   3.509   8.806  0.6630 -0.5294  0.4250
 5727SOL     OW28816   4.053   4.437   5.407 -0.2821  0.0294 -0.1029
 5727SOL    HW128817   3.986   4.394   5.459  0.1566 -0.8720 -0.2849
 5727SOL    HW228818   4.001   4.498   5.355  2.5747  0.0887 -2.9027
 5728SOL     OW28819   0.661   1.420  12.163  0.0585  0.6755 -0.2891
 5728SOL    HW128820   0.743   1.380  12.136 -0.5567 -1.8070  1.4971
 5728SOL    HW228821   0.647   1.492  12.102  0.3173  1.1894  0.2571
 5729SOL     OW28822   4.515   4.150   3.235  0.1914 -0.0503  0.0242
 5729SOL    HW128823   4.590   4.102   3.201  0.9287  1.4973 -0.5470
 5729SOL    HW228824   4.484   4.091   3.304 -0.7355  0.3102 -0.0759
 5730SOL     OW28825   4.706   0.959  17.477  0.0408  0.2216 -0.0573
 5730SOL    HW128826   4.682   0.869  17.455 -0.0326 -0.1042  1.3445
 5730SOL    HW228827   4.673   0.998  17.396  1.9976  0.4596 -0.7355
 5731SOL     OW28828   1.181   4.585  14.434  0.0309  0.5470  0.0533
 5731SOL    HW128829   1.152   4.675  14.449  1.1070  0.7435  0.9180
 5731SOL    HW228830   1.120   4.543  14.495 -0.6338  0.1781 -0.8414
 5732SOL     OW28831   2.882   4.426  10.349  0.1617 -0.8113  0.1515
 5732SOL    HW128832   2.865   4.413  10.442 -3.3152 -0.8234 -0.4720
 5732SOL    HW228833   2.935   4.506  10.353 -1.8358  0.4818  0.7430
 5733SOL     OW28834   0.207   1.065   6.597  0.6476 -0.4018 -0.9342
 5733SOL    HW128835   0.238   1.003   6.531 -0.8492 -0.8665 -1.2057
 5733SOL    HW228836   0.169   1.015   6.670  1.8453  0.2087  0.1106
 5734SOL     OW28837   3.646   3.540   6.316 -0.2662 -0.1131 -0.1861
 5734SOL    HW128838   3.722   3.545   6.258  0.2241 -0.7686  0.3980
 5734SOL    HW228839   3.593   3.595   6.258  0.5777  0.3176 -0.5484
 5735SOL     OW28840   1.827   4.648   9.314 -0.0963  0.1976  0.4028
 5735SOL    HW128841   1.876   4.730   9.304 -2.2723  1.6277  1.3159
 5735SOL    HW228842   1.808   4.626   9.223 -1.7371  0.5041  0.6656
 5736SOL     OW28843   1.595   4.384   2.480 -0.1682  0.3964 -0.0780
 5736SOL    HW128844   1.687   4.406   2.497  0.5608 -1.8009 -1.2058
 5736SOL    HW228845   1.541   4.452   2.521 -0.5013  0.0069  0.1313
 5737SOL     OW28846   0.228   0.126   7.494 -0.0858 -0.2516  0.0387
 5737SOL    HW128847   0.141   0.128   7.454  0.4172 -2.8597 -1.2622
 5737SOL    HW228848   0.212   0.086   7.579  1.0675 -1.2802 -0.2182
 5738SOL     OW28849   3.915   0.578   9.398 -0.4509  0.0686  0.3459
 5738SOL    HW128850   3.844   0.531   9.441 -1.5417  0.6716 -0.8123
 5738SOL    HW228851   3.904   0.668   9.428 -1.7127  0.0652 -0.1098
 5739SOL     OW28852   4.602   0.848   8.409 -0.3402 -0.0316  0.0440
 5739SOL    HW128853   4.602   0.779   8.475  1.3318 -1.4841 -1.4616
 5739SOL    HW228854   4.512   0.862   8.382 -0.2929  0.9883  0.4096
 5740SOL     OW28855   2.536   2.693   2.882 -0.1573 -0.1090  0.3137
 5740SOL    HW128856   2.525   2.625   2.949  2.6856 -1.0111 -0.1586
 5740SOL    HW228857   2.575   2.648   2.807  1.1633 -1.4448  1.8066
 5741SOL     OW28858   0.634   1.120   2.480  0.0901 -0.7998 -0.0439
 5741SOL    HW128859   0.583   1.198   2.501 -0.0964 -1.1910  0.9149
 5741SOL    HW228860   0.580   1.052   2.519  0.8389  0.2260  2.7562
 5742SOL     OW28861   0.471   2.860   7.488 -0.4646  0.3294 -0.5295
 5742SOL    HW128862   0.384   2.870   7.526 -0.4659  0.3652 -0.5425
 5742SOL    HW228863   0.519   2.903   7.559 -2.2383 -0.9155  1.4111
 5743SOL     OW28864   1.623   2.583  12.259  0.3131 -1.0669  0.5450
 5743SOL    HW128865   1.684   2.587  12.186 -2.1239 -0.4308 -1.4482
 5743SOL    HW228866   1.597   2.490  12.260  1.2255 -1.3218  0.1695
 5744SOL     OW28867   3.532   2.499   9.374 -0.4049  0.0571  0.1772
 5744SOL    HW128868   3.579   2.502   9.290 -0.3841 -2.4906  0.0992
 5744SOL    HW228869   3.554   2.411   9.406 -2.3224 -1.1283 -1.7800
 5745SOL     OW28870   3.635   1.497   2.866  0.0348 -0.3474 -0.2441
 5745SOL    HW128871   3.730   1.507   2.860  0.1152 -1.1652 -0.3490
 5745SOL    HW228872   3.605   1.532   2.950  1.3159  0.1544 -0.0037
 5746SOL     OW28873   1.292   3.307   3.414  0.5080 -0.1560  0.5214
 5746SOL    HW128874   1.226   3.364   3.453 -1.7527 -2.4419 -0.0100
 5746SOL    HW228875   1.318   3.252   3.488 -0.6966  1.0929  1.8502
 5747SOL     OW28876   2.334   2.256   2.981 -0.1968 -0.1184 -0.0128
 5747SOL    HW128877   2.302   2.192   3.044 -2.0111 -0.1203 -0.9432
 5747SOL    HW228878   2.362   2.201   2.908  1.7735  0.5975  0.2126
 5748SOL     OW28879   4.486   1.350   6.660 -0.1322  0.1770 -0.4974
 5748SOL    HW128880   4.401   1.376   6.625 -0.4045  0.7018  0.5400
 5748SOL    HW228881   4.452   1.286   6.723  1.9572  1.5338  2.0392
 5749SOL     OW28882   1.086   3.066   3.643  0.3690 -0.1281  0.3940
 5749SOL    HW128883   1.106   2.977   3.672  0.3499 -0.1696  0.2834
 5749SOL    HW228884   0.997   3.082   3.675  0.5923  1.6444  0.1306
 5750SOL     OW28885   1.644   2.827   0.732 -0.4431  0.4441 -0.3626
 5750SOL    HW128886   1.640   2.747   0.679  1.0746  1.0880 -1.4834
 5750SOL    HW228887   1.661   2.785   0.816  2.0013  1.1407 -0.4871
 5751SOL     OW28888   0.426   0.653   5.850  0.2191 -0.2868 -0.2107
 5751SOL    HW128889   0.520   0.642   5.863  0.1148 -1.1350 -0.1773
 5751SOL    HW228890   0.396   0.564   5.835  2.4065 -1.1424  0.6142
 5752SOL     OW28891   4.578   3.520  12.625 -0.1019  0.7550 -0.7605
 5752SOL    HW128892   4.533   3.452  12.574  0.1249 -0.2537  0.3964
 5752SOL    HW228893   4.654   3.473  12.660  0.8765  1.8578 -1.3868
 5753SOL     OW28894   1.677   4.021   1.650  0.9538  0.0536 -0.5592
 5753SOL    HW128895   1.616   4.087   1.683  0.3643 -1.2623  0.9603
 5753SOL    HW228896   1.641   3.943   1.692  0.2443 -0.2479 -1.7307
 5754SOL     OW28897   0.826   1.164   8.940 -0.2588 -0.0785 -0.0467
 5754SOL    HW128898   0.914   1.151   8.904 -1.1486 -2.0893 -1.5350
 5754SOL    HW228899   0.796   1.073   8.939 -1.3811  0.2877 -0.8152
 5755SOL     OW28900   2.838   2.144   0.939  0.2527 -0.2367 -0.1075
 5755SOL    HW128901   2.890   2.175   1.013  0.0667  2.1220 -0.9487
 5755SOL    HW228902   2.875   2.065   0.900  1.8512  0.4418  0.0318
 5756SOL     OW28903   1.699   4.731   7.996  0.3710  0.1486 -0.4924
 5756SOL    HW128904   1.716   4.655   8.051 -0.3564  0.7276  0.5306
 5756SOL    HW228905   1.779   0.049   8.001  1.8744 -2.2207  0.2047
 5757SOL     OW28906   0.385   3.479   4.917  0.5813 -0.5909  0.0210
 5757SOL    HW128907   0.478   3.505   4.914  0.5053 -0.4090 -0.7827
 5757SOL    HW228908   0.336   3.559   4.936  0.7368 -1.2171  3.0327
 5758SOL     OW28909   1.463   3.956   8.177 -0.2193  0.7032 -0.5596
 5758SOL    HW128910   1.549   3.991   8.154 -0.9278  2.3617 -0.6440
 5758SOL    HW228911   1.455   3.897   8.102  1.1469 -1.4063  0.9582
 5759SOL     OW28912   2.657   3.756  10.766  0.0779 -0.1956 -0.0573
 5759SOL    HW128913   2.607   3.782  10.688 -0.7385 -2.4547 -0.2896
 5759SOL    HW228914   2.593   3.721  10.828  1.2392  0.9101  1.7600
 5760SOL     OW28915   1.163   1.806  15.584  0.0665 -0.4386 -1.0545
 5760SOL    HW128916   1.151   1.772  15.673  0.4079  1.9557 -0.1142
 5760SOL    HW228917   1.175   1.720  15.544  1.1459 -0.6956 -0.1658
 5761SOL     OW28918   2.907   0.718   1.931 -0.5765  0.2694  0.0048
 5761SOL    HW128919   2.862   0.787   1.883 -1.5176 -0.8919 -0.7895
 5761SOL    HW228920   2.964   0.764   1.992  0.9596 -1.3369 -0.2109
 5762SOL     OW28921   2.770   3.442   1.012  1.1464  0.1916 -0.2721
 5762SOL    HW128922   2.746   3.532   0.990 -0.4343 -0.2047 -0.1448
 5762SOL    HW228923   2.819   3.414   0.935  1.5221  1.3182 -0.4454
 5763SOL     OW28924   0.107   1.236   3.048 -0.1256  0.3320  0.5394
 5763SOL    HW128925   0.169   1.305   3.071  0.2196  0.1052  0.2959
 5763SOL    HW228926   0.042   1.252   3.116 -0.0077 -1.0163  0.9665
 5764SOL     OW28927   2.494   1.135   2.797  0.3295  0.1135  0.7407
 5764SOL    HW128928   2.489   1.134   2.893  0.0064 -0.3112  0.7178
 5764SOL    HW228929   2.483   1.042   2.782  0.1721  0.2970 -0.2710
 5765SOL     OW28930   3.153   3.627   7.986 -0.1050  0.0353 -0.5408
 5765SOL    HW128931   3.222   3.631   8.052 -1.1511 -0.0339  0.5561
 5765SOL    HW228932   3.193   3.665   7.908 -3.0436  2.0694 -1.0540
 5766SOL     OW28933   4.173   0.265   9.574  0.4784 -0.0915  0.1440
 5766SOL    HW128934   4.199   0.353   9.602 -0.4097  0.4921 -0.8793
 5766SOL    HW228935   4.095   0.287   9.523 -0.6959 -1.6920  1.2265
 5767SOL     OW28936   0.586   4.026   7.855 -0.4058  0.0508 -0.0020
 5767SOL    HW128937   0.613   4.060   7.941  1.8744  2.6529 -1.7220
 5767SOL    HW228938   0.665   3.985   7.820 -0.2366  0.6373 -0.3217
 5768SOL     OW28939   1.645   2.073   5.260 -0.1631  0.4321 -0.3170
 5768SOL    HW128940   1.676   1.999   5.312 -0.2330  0.4840 -0.2001
 5768SOL    HW228941   1.567   2.043   5.215 -1.6046  5.1886 -0.9968
 5769SOL     OW28942   2.296   3.847   6.016 -0.0820 -0.0804 -0.0673
 5769SOL    HW128943   2.251   3.931   6.013  0.2694  0.2053  2.8051
 5769SOL    HW228944   2.230   3.801   6.068 -0.6427 -1.1273 -1.6741
 5770SOL     OW28945   1.508   4.563  15.251 -0.6456  0.8907 -0.5019
 5770SOL    HW128946   1.464   4.627  15.195 -1.6059  1.5001  0.9636
 5770SOL    HW228947   1.561   4.625  15.301 -1.3282  0.4556  0.7528
 5771SOL     OW28948   3.491   1.923  14.547 -0.4059  0.4305 -0.2383
 5771SOL    HW128949   3.448   1.845  14.513 -0.2856  0.1438  0.2757
 5771SOL    HW228950   3.560   1.887  14.603 -0.5967 -0.8295 -0.8159
 5772SOL     OW28951   2.604   0.605  14.462 -0.2137  0.2964  0.1394
 5772SOL    HW128952   2.574   0.621  14.372 -0.2875  0.7698  0.2467
 5772SOL    HW228953   2.610   0.510  14.458  1.4691  0.3780  0.9425
 5773SOL     OW28954   2.700   2.115  13.095  0.3054  0.2298 -0.0609
 5773SOL    HW128955   2.690   2.128  13.189  2.1049  0.7905  0.0612
 5773SOL    HW228956   2.793   2.137  13.088  0.6408 -0.5125  2.2166
 5774SOL     OW28957   2.577   4.656  11.825  0.6064  0.2201 -0.1144
 5774SOL    HW128958   2.670   4.639  11.813 -0.0170 -1.6070 -2.1864
 5774SOL    HW228959   2.571   4.732  11.766 -2.5627 -0.9337 -1.2776
 5775SOL     OW28960   1.641   3.256   1.909  0.0748  0.3923 -0.1764
 5775SOL    HW128961   1.617   3.210   1.989  3.3086  1.4476  1.3848
 5775SOL    HW228962   1.560   3.251   1.858 -0.1552  1.1500  0.1174
 5776SOL     OW28963   1.395   3.776   5.447  0.2556  0.4321  0.4853
 5776SOL    HW128964   1.452   3.716   5.495 -1.9887 -1.1533  1.1509
 5776SOL    HW228965   1.453   3.776   5.370  1.3118 -0.6430  1.2890
 5777SOL     OW28966   0.443   2.980   6.295  0.4237 -0.3810  0.6303
 5777SOL    HW128967   0.379   3.017   6.234  1.4023 -0.2178 -0.3077
 5777SOL    HW228968   0.461   2.900   6.247  1.6703 -0.2713  0.9090
 5778SOL     OW28969   0.372   0.769   3.283 -0.6084  0.4226 -0.1483
 5778SOL    HW128970   0.295   0.775   3.339  1.1003 -0.0382  2.2529
 5778SOL    HW228971   0.341   0.693   3.233  0.1039 -0.2498  0.4312
 5779SOL     OW28972   2.516   1.149  15.245  0.1407 -0.4491 -0.5745
 5779SOL    HW128973   2.481   1.084  15.306 -0.5325  1.4491  1.0319
 5779SOL    HW228974   2.603   1.171  15.280 -1.2231  1.3425  1.6854
 5780SOL     OW28975   1.926   2.000   1.080  0.7558  0.6589 -0.3156
 5780SOL    HW128976   1.905   1.978   1.170 -0.5899 -2.0701 -1.2701
 5780SOL    HW228977   2.019   2.021   1.087 -0.1013  3.9884  0.9734
 5781SOL     OW28978   3.607   4.523   9.297  0.1925  0.1190 -0.7833
 5781SOL    HW128979   3.554   4.518   9.217 -0.7740  1.0348 -0.1999
 5781SOL    HW228980   3.651   4.440   9.315  1.3488  1.1637  1.1996
 5782SOL     OW28981   2.960   3.090  13.571  0.3026  0.5283 -0.3984
 5782SOL    HW128982   2.918   3.166  13.530 -3.3263 -0.4635  1.4339
 5782SOL    HW228983   3.007   3.054  13.496 -1.4175 -1.0142 -0.7417
 5783SOL     OW28984   3.909   3.994   2.445  0.2828 -0.0490  0.2575
 5783SOL    HW128985   3.916   3.899   2.444 -0.1030 -0.0711 -0.6367
 5783SOL    HW228986   3.997   4.024   2.468 -0.9628  2.4862  1.7482
 5784SOL     OW28987   2.319   0.331   6.420  0.6224 -0.0530 -0.1534
 5784SOL    HW128988   2.292   0.419   6.394  2.0185  0.7192  1.0309
 5784SOL    HW228989   2.284   0.270   6.355  2.3590 -0.0009 -1.1419
 5785SOL     OW28990   2.973   4.532  16.754  0.0316 -0.6145  0.0114
 5785SOL    HW128991   2.939   4.445  16.733  1.5755 -0.9411 -1.1516
 5785SOL    HW228992   3.049   4.513  16.810 -0.4791 -1.2429  0.4969
 5786SOL     OW28993   0.092   2.700   3.833  0.3490  0.4267 -0.0923
 5786SOL    HW128994   0.128   2.646   3.763 -1.5128  0.5565 -1.1652
 5786SOL    HW228995   0.132   2.657   3.908 -0.4410 -0.9900 -0.4824
 5787SOL     OW28996   2.831   4.487   8.801 -0.2884 -0.0858  0.2079
 5787SOL    HW128997   2.835   4.439   8.884  0.1522 -0.4947 -0.0494
 5787SOL    HW228998   2.863   4.428   8.734 -0.7578 -1.6007  1.3072
 5788SOL     OW28999   1.433   1.909   4.144 -0.0090  0.1777  0.5223
 5788SOL    HW129000   1.454   2.001   4.157 -1.2713  0.3472  1.4678
 5788SOL    HW229001   1.445   1.897   4.050 -2.7528 -0.3854  0.2398
 5789SOL     OW29002   1.175   4.054   5.857 -0.0659  0.3648  0.1804
 5789SOL    HW129003   1.083   4.058   5.881 -0.8758  0.8926 -3.1204
 5789SOL    HW229004   1.194   4.115   5.786 -0.3219  1.4004  0.9958
 5790SOL     OW29005   4.689   0.077  15.017 -0.4157  0.9911 -0.0848
 5790SOL    HW129006   4.692   0.145  14.950  0.8898  0.6907 -0.3349
 5790SOL    HW229007   0.000   0.131  15.081  3.3124 -2.6995  0.3777
 5791SOL     OW29008   0.736   3.746   4.634  0.1621  0.1690 -0.6956
 5791SOL    HW129009   0.736   3.703   4.548  1.0739  1.1506 -1.1763
 5791SOL    HW229010   0.784   3.822   4.604  1.8737  0.1262  1.9791
 5792SOL     OW29011   3.975   2.629   6.835 -1.0091  0.3894 -0.0870
 5792SOL    HW129012   4.018   2.584   6.763 -1.0543  1.8280 -1.0128
 5792SOL    HW229013   3.885   2.604   6.819 -1.1980  1.1706 -0.2248
 5793SOL     OW29014   0.024   1.343   6.781 -0.0370  0.2330 -0.4552
 5793SOL    HW129015   4.692   1.280   6.753 -0.0752 -0.0800  0.3339
 5793SOL    HW229016   4.711   1.425   6.768 -0.2513  0.2284  0.3021
 5794SOL     OW29017   2.129   1.315   5.087 -0.1047  0.3426  0.2484
 5794SOL    HW129018   2.069   1.357   5.026 -0.3262 -1.1817 -0.5879
 5794SOL    HW229019   2.116   1.369   5.165  0.6305  2.1896 -0.9044
 5795SOL     OW29020   3.942   4.579   8.450 -0.5174 -0.4567  0.0214
 5795SOL    HW129021   3.940   4.644   8.380  2.3759  0.6639  0.9517
 5795SOL    HW229022   4.033   4.593   8.477 -0.7535  0.6462  0.2443
 5796SOL     OW29023   3.835   2.819   9.068 -0.1049 -0.3330 -0.1867
 5796SOL    HW129024   3.845   2.800   8.975  0.8642  0.2057 -0.1884
 5796SOL    HW229025   3.800   2.907   9.057 -0.6928 -0.8454 -2.4263
 5797SOL     OW29026   0.799   4.670   8.556 -0.0677  0.1082 -0.2904
 5797SOL    HW129027   0.760   4.707   8.635 -1.8818 -1.3305 -0.5127
 5797SOL    HW229028   0.890   4.693   8.576 -1.2541  3.4121  1.2707
 5798SOL     OW29029   4.368   2.934  16.826 -0.0544  0.6395 -0.1126
 5798SOL    HW129030   4.332   2.866  16.771 -0.6213  2.2479 -1.7223
 5798SOL    HW229031   4.419   2.892  16.896  2.3178  1.6830 -1.1822
 5799SOL     OW29032   3.295   1.578   6.316 -0.4002  0.2061  0.4899
 5799SOL    HW129033   3.340   1.663   6.316 -0.1554  0.0727 -0.4018
 5799SOL    HW229034   3.295   1.554   6.409 -1.3486  0.1340  0.4655
 5800SOL     OW29035   2.723   0.557  13.942 -0.5842 -0.4056  0.5577
 5800SOL    HW129036   2.637   0.524  13.970 -1.5235 -0.7284 -2.7032
 5800SOL    HW229037   2.718   0.544  13.847  1.7878  0.2880  0.3502
 5801SOL     OW29038   1.972   3.438  11.805 -0.0869 -0.2025 -0.8193
 5801SOL    HW129039   1.917   3.360  11.811  0.0169 -0.0388  2.0915
 5801SOL    HW229040   2.017   3.435  11.889 -0.6141 -0.4733 -0.5462
 5802SOL     OW29041   4.298   3.294  17.107  0.2318 -0.3702 -0.2450
 5802SOL    HW129042   4.377   3.336  17.072 -1.3983  2.2237 -0.8119
 5802SOL    HW229043   4.322   3.305  17.199 -0.1060 -0.3595 -0.1582
 5803SOL     OW29044   3.917   3.469   6.201  0.1078  0.5489 -0.0096
 5803SOL    HW129045   3.997   3.433   6.241 -0.6987 -1.0794  0.1595
 5803SOL    HW229046   3.886   3.394   6.149 -0.9980  1.1488 -0.1975
 5804SOL     OW29047   0.609   0.245   1.378  0.2326  0.3207 -0.4101
 5804SOL    HW129048   0.633   0.329   1.417  0.9975  0.1226 -0.4395
 5804SOL    HW229049   0.517   0.238   1.401  0.5485 -0.3562  0.6219
 5805SOL     OW29050   1.081   1.748   0.233  0.6683 -0.0696  0.2330
 5805SOL    HW129051   0.989   1.725   0.245  0.0653  2.6903  0.9291
 5805SOL    HW229052   1.116   1.659   0.224  0.4841 -0.3597  2.4894
 5806SOL     OW29053   2.981   4.349   4.424  0.2696  0.3423  0.2175
 5806SOL    HW129054   3.047   4.356   4.355 -2.2926  2.8691 -1.9414
 5806SOL    HW229055   3.010   4.425   4.473 -4.0513  2.9631 -1.3031
 5807SOL     OW29056   0.047   3.826   3.935  0.3718 -0.1055 -0.6845
 5807SOL    HW129057   4.696   3.867   3.920  0.1941 -0.4737 -0.6867
 5807SOL    HW229058   0.083   3.896   3.990  0.6927 -1.2154  0.5091
 5808SOL     OW29059   3.772   4.614   2.273 -0.6248 -0.3876  0.2749
 5808SOL    HW129060   3.790   4.593   2.365  0.5664  1.3768  0.4429
 5808SOL    HW229061   3.702   4.677   2.294 -1.1766 -0.9815  0.2052
 5809SOL     OW29062   1.000   1.706   5.036 -0.0133  0.4290 -0.1354
 5809SOL    HW129063   1.087   1.746   5.027  0.4001 -0.6760 -1.0853
 5809SOL    HW229064   1.000   1.680   5.128 -0.7272  1.3992  0.1307
 5810SOL     OW29065   0.974   3.999   1.186 -0.6439 -0.6317 -0.3697
 5810SOL    HW129066   0.930   4.021   1.104 -1.8510  3.2630  1.2936
 5810SOL    HW229067   0.937   3.913   1.206 -1.1180  0.1063  1.9609
 5811SOL     OW29068   1.843   1.016   0.354  0.0293  0.2807  0.5438
 5811SOL    HW129069   1.875   0.927   0.342  0.6382  0.5778 -0.0686
 5811SOL    HW229070   1.808   1.009   0.443 -0.6555 -1.7897  0.0935
 5812SOL     OW29071   0.302   2.227   9.352  0.2199  0.0169 -0.3306
 5812SOL    HW129072   0.288   2.142   9.311 -2.4189  0.1013  0.4007
 5812SOL    HW229073   0.394   2.242   9.331  0.4127 -0.3683  0.2402
 5813SOL     OW29074   3.518   0.327   1.689 -0.0992 -0.4685 -0.5268
 5813SOL    HW129075   3.497   0.395   1.626 -0.7115  0.4050  0.6001
 5813SOL    HW229076   3.578   0.272   1.640  0.3206  1.1682 -1.8302
 5814SOL     OW29077   4.340   0.464  13.695  0.6843  0.2065 -0.4259
 5814SOL    HW129078   4.429   0.474  13.660  0.3904 -0.0510 -1.2420
 5814SOL    HW229079   4.348   0.471  13.790 -1.3167 -1.6176 -0.1246
 5815SOL     OW29080   3.219   2.108   6.655  0.3928  0.0347 -0.6121
 5815SOL    HW129081   3.260   2.135   6.737 -1.1303  0.0997  0.1123
 5815SOL    HW229082   3.260   2.025   6.633  1.1274  0.7827 -2.0635
 5816SOL     OW29083   4.700   1.883   3.436  0.1098  0.3104 -0.1961
 5816SOL    HW129084   4.707   1.975   3.462 -0.4598 -0.2697  2.0078
 5816SOL    HW229085   4.621   1.882   3.383 -0.0683 -0.9087  0.0994
 5817SOL     OW29086   2.300   3.784  14.531 -0.0771 -0.5144 -0.5030
 5817SOL    HW129087   2.354   3.835  14.470  0.1051  0.3237  0.3486
 5817SOL    HW229088   2.361   3.722  14.571  0.7884  0.3736 -0.4347
 5818SOL     OW29089   2.895   2.965   4.553 -0.4075 -0.0687  0.4849
 5818SOL    HW129090   2.896   2.993   4.644  2.1213  0.0948  0.4132
 5818SOL    HW229091   2.858   3.046   4.517  1.0214 -0.1278 -1.1511
 5819SOL     OW29092   2.977   0.434   5.178  0.2251 -0.7064  0.3707
 5819SOL    HW129093   3.062   0.453   5.218 -0.1585  0.0626  0.8037
 5819SOL    HW229094   2.998   0.446   5.085  0.7860 -1.0576  0.4547
 5820SOL     OW29095   3.371   2.473   2.614  0.2231  0.2185 -0.4412
 5820SOL    HW129096   3.313   2.422   2.670  0.3187  1.0376  0.3904
 5820SOL    HW229097   3.310   2.518   2.554 -2.3118  1.2382  2.9122
 5821SOL     OW29098   3.114   1.815   3.235  0.0894 -0.5420  0.5367
 5821SOL    HW129099   3.123   1.842   3.143  1.9797  0.2864  0.9603
 5821SOL    HW229100   3.019   1.815   3.243  0.2448 -0.7927  2.3930
 5822SOL     OW29101   4.333   1.734  14.254  0.6130  0.2473 -0.5586
 5822SOL    HW129102   4.319   1.781  14.336  3.4018 -0.5228  0.3641
 5822SOL    HW229103   4.367   1.652  14.290 -2.7137 -0.2697  1.4481
 5823SOL     OW29104   2.010   0.883   4.318  0.0982  0.3520  0.1559
 5823SOL    HW129105   2.050   0.801   4.350 -2.0733 -0.2624  1.2989
 5823SOL    HW229106   1.926   0.875   4.363  0.7256  0.9350  1.4261
 5824SOL     OW29107   1.802   3.224  11.845 -0.3299 -0.2358  0.7101
 5824SOL    HW129108   1.836   3.151  11.896  0.0263  0.7845  1.9324
 5824SOL    HW229109   1.726   3.233  11.903  0.0107  0.7823  1.0026
 5825SOL     OW29110   2.766   4.454   2.970 -0.0306  0.1678  0.3841
 5825SOL    HW129111   2.692   4.439   3.029 -1.0922 -2.7144 -1.7052
 5825SOL    HW229112   2.823   4.504   3.029  0.5761  1.0734 -0.9735
 5826SOL     OW29113   3.945   0.577   6.625 -0.7281 -0.1478 -0.1312
 5826SOL    HW129114   4.009   0.529   6.678 -0.5605 -0.4610 -0.6122
 5826SOL    HW229115   3.992   0.643   6.574 -0.3096  0.3258  0.8798
 5827SOL     OW29116   3.514   1.634   3.091  0.3579  0.1962 -0.0379
 5827SOL    HW129117   3.579   1.610   3.156 -0.1786 -0.7727  0.1318
 5827SOL    HW229118   3.515   1.729   3.106  0.7115  0.0368  0.9266
 5828SOL     OW29119   2.904   4.249  15.376 -0.2736 -0.6574  0.4979
 5828SOL    HW129120   2.979   4.218  15.427  0.1514  0.8017  0.7692
 5828SOL    HW229121   2.934   4.333  15.341  2.5926 -2.1111 -0.4361
 5829SOL     OW29122   0.336   4.683  10.027  0.0988 -0.2000  0.1513
 5829SOL    HW129123   0.323   4.668  10.121 -0.8701 -3.0637 -0.4203
 5829SOL    HW229124   0.293   4.605   9.993 -0.0835 -0.2571  0.5050
 5830SOL     OW29125   3.047   0.546  10.376 -0.5930  0.2198 -0.2492
 5830SOL    HW129126   3.099   0.548  10.296 -0.4504 -1.0116 -0.1958
 5830SOL    HW229127   3.107   0.493  10.429 -0.4217 -0.1441 -0.8077
 5831SOL     OW29128   1.526   3.261   4.561 -0.1717  0.3966  0.1011
 5831SOL    HW129129   1.613   3.223   4.549 -0.0513 -0.3931  3.3187
 5831SOL    HW229130   1.524   3.319   4.486  1.1605  1.3629  0.8289
 5832SOL     OW29131   4.695   0.314   6.416 -0.5310  0.6740  0.7575
 5832SOL    HW129132   4.648   0.311   6.499 -2.3374  1.3022 -0.2566
 5832SOL    HW229133   4.638   0.374   6.368  1.5565  0.0964 -2.4752
 5833SOL     OW29134   0.687   3.841   5.460 -0.4923  0.0403 -0.2953
 5833SOL    HW129135   0.600   3.816   5.492  0.3516 -2.3796  0.1279
 5833SOL    HW229136   0.662   3.910   5.398 -2.0641 -0.2202  0.0481
 5834SOL     OW29137   3.770   3.389   6.988  0.3544 -0.5843 -0.4033
 5834SOL    HW129138   3.795   3.477   6.961 -0.8110  0.5063  2.0039
 5834SOL    HW229139   3.785   3.343   6.906 -1.5875  0.0350 -1.1119
 5835SOL     OW29140   2.316   1.880  10.107  0.1931 -0.3833  0.0937
 5835SOL    HW129141   2.291   1.916  10.192  2.5695 -1.2429  1.1771
 5835SOL    HW229142   2.289   1.789  10.116 -0.4195 -0.1615  0.4886
 5836SOL     OW29143   4.504   2.975   5.492 -0.2562 -0.3975  0.2102
 5836SOL    HW129144   4.441   2.930   5.547 -1.5659  1.0555 -0.1124
 5836SOL    HW229145   4.550   2.905   5.446  0.7728  0.4496 -0.0528
 5837SOL     OW29146   0.068   4.495   2.604  0.8704 -0.1916  0.6041
 5837SOL    HW129147   0.162   4.476   2.602  0.7496 -0.9129  2.5145
 5837SOL    HW229148   0.057   4.555   2.530 -0.1234 -1.2805 -0.1263
 5838SOL     OW29149   1.398   2.165   5.176 -0.6321  0.4423 -0.1106
 5838SOL    HW129150   1.378   2.219   5.099 -2.3328 -1.0270 -0.7048
 5838SOL    HW229151   1.415   2.221   5.251  1.5686 -0.4324  0.0318
 5839SOL     OW29152   0.448   2.509   7.144  0.4359 -0.0959  0.5124
 5839SOL    HW129153   0.411   2.438   7.196 -1.3075  1.0837  0.8959
 5839SOL    HW229154   0.374   2.511   7.083 -0.6796  2.8804  1.9353
 5840SOL     OW29155   4.485   0.576   3.724  0.0430  0.4196  0.1600
 5840SOL    HW129156   4.501   0.482   3.723 -0.8453  0.2772  0.0578
 5840SOL    HW229157   4.472   0.581   3.819 -1.3615 -3.5267  0.1526
 5841SOL     OW29158   4.501   3.764   1.078  0.4720  0.0496  0.3695
 5841SOL    HW129159   4.491   3.742   1.170  0.4567  2.2535  0.8912
 5841SOL    HW229160   4.584   3.719   1.067  0.9121  1.0890 -0.4906
 5842SOL     OW29161   2.933   1.253   7.270 -0.6498  0.2827 -0.0541
 5842SOL    HW129162   2.857   1.243   7.213 -1.2595  1.4625  0.5551
 5842SOL    HW229163   3.010   1.238   7.214  0.1100 -2.1790  1.6922
 5843SOL     OW29164   0.839   2.909   6.801  0.1510  0.2302 -0.2885
 5843SOL    HW129165   0.861   2.857   6.724 -0.0706 -0.5775  0.1963
 5843SOL    HW229166   0.744   2.912   6.792  0.2854  2.3268 -1.1204
 5844SOL     OW29167   2.617   0.119  11.662  0.4639 -0.4562 -0.1611
 5844SOL    HW129168   2.566   0.155  11.589  2.5511  1.2953 -0.7482
 5844SOL    HW229169   2.707   0.123  11.629  1.2095 -0.9350  1.8210
 5845SOL     OW29170   1.359   3.568   3.552  0.5308  0.4017 -0.0627
 5845SOL    HW129171   1.321   3.502   3.494 -0.2648 -2.0179  3.2528
 5845SOL    HW229172   1.346   3.645   3.496 -0.3654 -1.6467 -2.6468
 5846SOL     OW29173   4.567   0.666   9.238  0.3042 -0.1517 -0.3439
 5846SOL    HW129174   4.661   0.660   9.255  0.4348  1.7990 -0.2883
 5846SOL    HW229175   4.549   0.592   9.180 -2.5407 -0.1238  0.4985
 5847SOL     OW29176   3.199   0.515   6.198 -0.2741  0.0525  0.2342
 5847SOL    HW129177   3.291   0.487   6.191 -0.0071  0.5629  1.9280
 5847SOL    HW229178   3.157   0.431   6.180 -0.5811  0.3036 -0.2238
 5848SOL     OW29179   2.011   4.035   2.711 -0.0968  0.4876 -0.5446
 5848SOL    HW129180   2.099   4.010   2.681 -0.5490 -1.9319  0.1365
 5848SOL    HW229181   1.978   4.051   2.623 -1.5632  0.5325  0.0229
 5849SOL     OW29182   0.620   2.716   7.947  0.2642  0.3075  0.2345
 5849SOL    HW129183   0.650   2.670   8.025  1.5339  0.8005  0.0350
 5849SOL    HW229184   0.536   2.745   7.983  1.5286  1.0733  2.5739
 5850SOL     OW29185   0.641   2.247   3.983  0.1998  0.5681  0.3198
 5850SOL    HW129186   0.707   2.279   4.045 -0.0578 -0.1758  0.9829
 5850SOL    HW229187   0.607   2.170   4.029  1.4701  0.4875  1.1359
 5851SOL     OW29188   2.221   2.385   8.199  0.9159  0.3114  0.1490
 5851SOL    HW129189   2.177   2.340   8.271 -0.0274  0.3400 -0.4020
 5851SOL    HW229190   2.223   2.304   8.148 -0.4502  1.5450 -1.8452
 5852SOL     OW29191   4.221   3.756   9.112  0.2918  0.6763  0.0554
 5852SOL    HW129192   4.291   3.820   9.118  1.0847 -0.0503 -1.6420
 5852SOL    HW229193   4.141   3.801   9.141  1.0834  1.3830  1.1434
 5853SOL     OW29194   4.001   0.751   6.323  0.7331  0.1430 -0.3335
 5853SOL    HW129195   3.919   0.714   6.290 -0.8720  2.2847  1.2392
 5853SOL    HW229196   4.011   0.833   6.274 -1.2528  0.7257  0.2295
 5854SOL     OW29197   1.927   1.327  17.185 -0.0747  0.2436 -0.0990
 5854SOL    HW129198   1.859   1.260  17.193 -2.1790  2.4015  0.4231
 5854SOL    HW229199   1.950   1.330  17.277  0.5199 -2.7978 -0.1613
 5855SOL     OW29200   2.689   1.854   7.477 -0.2517 -0.3015  0.2136
 5855SOL    HW129201   2.722   1.868   7.566 -2.2489  1.2542  0.6863
 5855SOL    HW229202   2.595   1.847   7.490 -0.0763 -1.2662  1.0672
 5856SOL     OW29203   4.056   2.902   8.052  0.6110 -0.0792 -0.4953
 5856SOL    HW129204   3.985   2.942   8.102 -0.2083 -1.3806 -0.6114
 5856SOL    HW229205   3.997   2.867   7.984 -0.0750  1.2251 -0.5828
 5857SOL     OW29206   0.348   2.628   0.633 -0.0847  0.2897 -0.2421
 5857SOL    HW129207   0.345   2.568   0.707 -0.9530  1.5366  0.7323
 5857SOL    HW229208   0.389   2.585   0.558 -0.1289 -0.0140 -0.0920
 5858SOL     OW29209   0.407   3.694  15.099  0.4825 -0.2524  0.4535
 5858SOL    HW129210   0.336   3.752  15.070 -1.1532 -1.2907  2.4464
 5858SOL    HW229211   0.381   3.609  15.065 -1.2622 -0.0686  1.3598
 5859SOL     OW29212   3.475   0.837  10.179  0.6566 -0.1997 -0.2083
 5859SOL    HW129213   3.486   0.909  10.241  1.7048 -0.1460 -0.4638
 5859SOL    HW229214   3.553   0.785  10.163  0.9311  0.2728 -0.4098
 5860SOL     OW29215   4.571   3.648  15.168 -0.1949  0.6330 -0.2248
 5860SOL    HW129216   4.665   3.637  15.183 -0.0773 -0.7392 -1.9401
 5860SOL    HW229217   4.554   3.573  15.110  1.6461  0.3879 -0.4372
 5861SOL     OW29218   4.026   0.653  12.365  0.0898  0.4492 -0.6797
 5861SOL    HW129219   3.961   0.660  12.436  1.2883  0.8989  0.3787
 5861SOL    HW229220   4.077   0.732  12.384  0.0301  0.3456 -0.0716
 5862SOL     OW29221   2.237   2.469  14.162  0.0598 -0.4481 -0.5389
 5862SOL    HW129222   2.221   2.563  14.158 -2.4164 -0.8709 -0.1808
 5862SOL    HW229223   2.333   2.465  14.161  0.0721  0.0258 -1.2716
 5863SOL     OW29224   4.553   4.197   7.974  0.2009  0.0939  0.2107
 5863SOL    HW129225   4.604   4.238   8.044  0.0872  1.3003 -0.4154
 5863SOL    HW229226   4.540   4.110   8.012 -1.2260  0.1649 -0.1041
 5864SOL     OW29227   3.324   3.362   7.721  0.2443  0.3587 -0.0488
 5864SOL    HW129228   3.366   3.444   7.745  1.5425 -0.5265  0.7171
 5864SOL    HW229229   3.345   3.381   7.629  0.7848  0.6928  0.1456
 5865SOL     OW29230   3.447   3.404  15.378 -0.4239  0.0181 -0.1173
 5865SOL    HW129231   3.505   3.480  15.381 -0.5726  0.0333  2.2416
 5865SOL    HW229232   3.402   3.432  15.458 -1.8515  0.6948 -1.1511
 5866SOL     OW29233   1.531   1.822   7.399  0.2230  0.1900 -0.0809
 5866SOL    HW129234   1.621   1.790   7.394 -0.6414 -2.0288 -1.5978
 5866SOL    HW229235   1.475   1.745   7.388  3.6113 -2.3681  0.6472
 5867SOL     OW29236   1.105   1.489   8.201  0.0258  0.2707 -0.0235
 5867SOL    HW129237   1.130   1.398   8.221  1.6652  0.8917  0.7827
 5867SOL    HW229238   1.190   1.523   8.172  0.2200  1.6654  2.2404
 5868SOL     OW29239   1.081   3.277   4.282  0.3745  0.4639  0.0470
 5868SOL    HW129240   1.067   3.195   4.234 -3.4743 -0.3134  2.4995
 5868SOL    HW229241   1.111   3.336   4.213  0.0641 -0.1548 -0.6293
 5869SOL     OW29242   4.588   0.288   4.548  0.1508 -0.1177 -0.1854
 5869SOL    HW129243   4.619   0.253   4.464 -0.0160  0.2867 -0.4148
 5869SOL    HW229244   4.654   0.264   4.613 -1.3759 -0.8983  1.0623
 5870SOL     OW29245   3.398   3.907   3.028 -0.7221 -0.6604 -0.1002
 5870SOL    HW129246   3.352   3.870   2.953 -3.6842  3.4753 -0.3569
 5870SOL    HW229247   3.323   3.954   3.066  0.3963  1.0749 -0.0458
 5871SOL     OW29248   0.724   1.469   3.917 -0.1219 -0.0785  0.5654
 5871SOL    HW129249   0.724   1.377   3.888  0.2691  0.3299 -0.7321
 5871SOL    HW229250   0.665   1.505   3.851  1.4077 -0.4856 -1.0043
 5872SOL     OW29251   3.523   4.324   7.185  0.3869 -0.4776 -0.3687
 5872SOL    HW129252   3.516   4.228   7.192  0.2524 -0.3679  0.9093
 5872SOL    HW229253   3.543   4.349   7.275 -2.4362  0.5873 -0.0479
 5873SOL     OW29254   1.181   1.456   7.813  0.9165  0.7814  0.2517
 5873SOL    HW129255   1.219   1.371   7.835 -1.3471  0.2020  1.8443
 5873SOL    HW229256   1.257   1.494   7.770  0.2282  0.8489 -0.9103
 5874SOL     OW29257   1.937   3.068   2.804 -0.0172 -0.2319  0.2287
 5874SOL    HW129258   2.023   3.058   2.845 -0.1689 -0.0399  0.5938
 5874SOL    HW229259   1.964   3.145   2.755  1.3389  0.2545  1.7445
 5875SOL     OW29260   0.998   0.796   7.701  0.4557 -0.1217  0.0529
 5875SOL    HW129261   0.931   0.788   7.633  2.3625  0.7613 -1.9410
 5875SOL    HW229262   0.960   0.867   7.752 -2.6852 -1.1515 -0.8532
 5876SOL     OW29263   3.761   1.767   7.017  0.3443  0.1885 -0.4615
 5876SOL    HW129264   3.678   1.813   7.021  0.0647 -0.5966  2.8645
 5876SOL    HW229265   3.736   1.706   7.087  0.3958  0.7655  0.0617
 5877SOL     OW29266   2.123   3.855   4.823 -0.0393 -0.3284  0.3435
 5877SOL    HW129267   2.145   3.852   4.730  1.3561  0.1546  0.6526
 5877SOL    HW229268   2.144   3.767   4.854 -0.0951 -0.0977  1.0512
 5878SOL     OW29269   0.541   4.503   8.273 -0.0774  0.0171  0.5550
 5878SOL    HW129270   0.528   4.477   8.364 -0.1215  0.3369  0.6379
 5878SOL    HW229271   0.613   4.566   8.278  1.1925 -1.1387 -2.9703
 5879SOL     OW29272   4.061   0.262   0.104 -0.0846  0.1733  0.3643
 5879SOL    HW129273   4.102   0.240   0.020  0.4243 -1.8692  1.1413
 5879SOL    HW229274   4.081   0.355   0.103 -1.5024  0.4915  1.1405
 5880SOL     OW29275   3.801   3.199   6.787  0.3349 -0.1231  0.1157
 5880SOL    HW129276   3.818   3.106   6.769  0.1068 -0.1639  0.1001
 5880SOL    HW229277   3.821   3.244   6.704  0.7529 -0.8872 -0.1988
 5881SOL     OW29278   1.908   0.233   3.661  0.2105  0.4071  0.0150
 5881SOL    HW129279   1.865   0.314   3.689  1.5330  1.4791 -1.0296
 5881SOL    HW229280   1.991   0.268   3.629 -0.2160  1.2943 -0.1416
 5882SOL     OW29281   4.097   2.782   6.265  0.2755 -0.2239  0.1652
 5882SOL    HW129282   4.107   2.841   6.340 -0.5311 -2.0260  1.7030
 5882SOL    HW229283   4.165   2.816   6.207 -0.3254 -0.0810 -0.4585
 5883SOL     OW29284   4.630   4.278   7.705  0.0971 -0.4829  0.2545
 5883SOL    HW129285   4.629   4.233   7.790  0.9033 -0.1789  0.4263
 5883SOL    HW229286   4.715   4.253   7.669  0.8894  1.2197  0.9331
 5884SOL     OW29287   2.590   1.063   4.080 -0.1505  0.6765  0.4371
 5884SOL    HW129288   2.627   1.147   4.104 -0.9410  1.4298 -0.9915
 5884SOL    HW229289   2.500   1.095   4.080  0.3073  1.9449  0.5866
 5885SOL     OW29290   3.798   2.460  13.346 -0.0985  0.4114 -0.2679
 5885SOL    HW129291   3.726   2.430  13.291 -0.6271 -1.8110  1.6187
 5885SOL    HW229292   3.820   2.545  13.306  0.5539  1.2909  1.9701
 5886SOL     OW29293   0.577   1.566   9.045 -0.3335  0.2878 -0.2715
 5886SOL    HW129294   0.620   1.648   9.020 -0.7357  0.4746 -0.3685
 5886SOL    HW229295   0.611   1.506   8.980 -2.7274 -0.0392 -1.2463
 5887SOL     OW29296   3.723   2.299  16.075  0.0046 -0.0774  0.4473
 5887SOL    HW129297   3.789   2.348  16.027  2.5369 -0.3983  3.6109
 5887SOL    HW229298   3.743   2.215  16.034  2.6257  0.4805  0.6299
 5888SOL     OW29299   1.569   2.500   6.455  0.0467  0.2280  0.0373
 5888SOL    HW129300   1.496   2.442   6.476  1.1894 -1.2826 -0.1919
 5888SOL    HW229301   1.535   2.590   6.459 -1.5695 -0.4448  1.3796
 5889SOL     OW29302   2.078   4.142  12.834 -0.0266 -0.7269  0.9223
 5889SOL    HW129303   2.045   4.183  12.914 -2.2769  2.0653 -1.4338
 5889SOL    HW229304   1.998   4.098  12.806 -0.0218 -0.0671 -0.1367
 5890SOL     OW29305   2.424   3.868   3.580 -0.0116  0.1580 -0.0210
 5890SOL    HW129306   2.509   3.882   3.622 -1.2458  0.8706  2.2180
 5890SOL    HW229307   2.428   3.910   3.493  0.5580  1.8231  0.7966
 5891SOL     OW29308   0.010   1.190   2.792  0.5739 -0.3033  0.0950
 5891SOL    HW129309   0.040   1.207   2.881  2.0491  1.0182 -0.6457
 5891SOL    HW229310   0.041   1.267   2.745 -0.5693  1.0803  1.6348
 5892SOL     OW29311   0.771   0.491   7.731  0.4673 -0.2598 -0.7430
 5892SOL    HW129312   0.826   0.413   7.743  0.7030  0.0096 -0.0248
 5892SOL    HW229313   0.695   0.478   7.789  0.2337 -1.6222 -1.3629
 5893SOL     OW29314   1.406   4.090  11.008  0.3642  0.4948 -0.3106
 5893SOL    HW129315   1.442   4.179  11.015 -1.2318  0.9979  1.2913
 5893SOL    HW229316   1.409   4.073  10.914  1.4017 -0.7586 -0.0515
 5894SOL     OW29317   4.422   3.722   8.893 -0.0213  0.5710  0.6961
 5894SOL    HW129318   4.388   3.799   8.846  2.1985  1.2662  0.2266
 5894SOL    HW229319   4.374   3.726   8.975 -1.8020  0.4092 -0.3385
 5895SOL     OW29320   0.286   1.880   5.895  0.3666 -0.2694 -0.2859
 5895SOL    HW129321   0.290   1.877   5.991  1.5994 -0.9564 -0.3693
 5895SOL    HW229322   0.328   1.797   5.874 -2.3132 -1.2235 -1.8712
 5896SOL     OW29323   0.011   1.033   6.276  0.4728 -0.2720  0.0792
 5896SOL    HW129324   4.704   1.092   6.212 -2.5085 -2.0907  0.3065
 5896SOL    HW229325   0.017   0.959   6.217 -0.6486  0.6696 -1.2228
 5897SOL     OW29326   2.245   1.187  14.095 -0.5204  0.6125 -0.3573
 5897SOL    HW129327   2.310   1.256  14.092 -0.2630  0.3948  0.3281
 5897SOL    HW229328   2.251   1.172  14.189 -1.5360  3.0802  0.1028
 5898SOL     OW29329   2.006   2.135   1.685  0.7416  0.1162  0.3076
 5898SOL    HW129330   2.039   2.156   1.773 -0.2635 -0.2761  0.7666
 5898SOL    HW229331   2.023   2.041   1.687  0.4153 -0.0624 -4.2427
 5899SOL     OW29332   4.417   3.673   2.092 -0.0956 -0.2084  0.1897
 5899SOL    HW129333   4.456   3.587   2.104  1.7045  0.2892 -2.0390
 5899SOL    HW229334   4.446   3.684   2.001 -1.8708 -1.0030 -0.4776
 5900SOL     OW29335   0.149   3.882   7.908  0.1892 -0.2499  0.2160
 5900SOL    HW129336   0.145   3.969   7.948  0.9563 -1.8656  3.7466
 5900SOL    HW229337   0.179   3.829   7.982 -0.0107  0.5980  0.9061
 5901SOL     OW29338   1.650   3.072  15.724 -0.6224  0.2288  0.4291
 5901SOL    HW129339   1.643   3.167  15.737  2.3519  0.3396  1.0870
 5901SOL    HW229340   1.648   3.067  15.628 -2.3216  1.8168  0.3632
 5902SOL     OW29341   3.035   3.450   0.606 -0.6337  0.1928 -0.4505
 5902SOL    HW129342   3.113   3.417   0.562  0.0694  2.1561 -0.6954
 5902SOL    HW229343   2.996   3.370   0.640 -1.3603 -0.5726 -3.0945
 5903SOL     OW29344   3.371   2.629   8.414 -0.2663  0.0801 -0.3937
 5903SOL    HW129345   3.444   2.608   8.474  1.6553  0.8168 -2.4762
 5903SOL    HW229346   3.314   2.663   8.484 -1.0166  1.0976 -1.5067
 5904SOL     OW29347   1.077   0.934  10.051 -0.2292 -0.6260  0.5027
 5904SOL    HW129348   0.989   0.900  10.037 -0.2988 -0.3247  0.2222
 5904SOL    HW229349   1.077   0.980  10.134 -0.1227  0.1331  0.0849
 5905SOL     OW29350   1.793   3.185  11.579 -0.2786 -0.3405  0.1636
 5905SOL    HW129351   1.832   3.257  11.531 -1.2611 -1.1094 -1.7875
 5905SOL    HW229352   1.813   3.207  11.670 -1.9204  0.9418  0.2071
 5906SOL     OW29353   1.434   3.910   5.890  0.2765  0.5288  0.1252
 5906SOL    HW129354   1.433   3.822   5.852 -1.4418  1.0228 -0.9673
 5906SOL    HW229355   1.359   3.956   5.852  0.5296  1.2159  0.4713
 5907SOL     OW29356   3.564   4.153   4.956 -0.2348 -0.1283 -0.1326
 5907SOL    HW129357   3.609   4.196   4.883 -0.4010 -1.2311 -0.8949
 5907SOL    HW229358   3.635   4.129   5.016 -1.8449 -2.2545  0.8911
 5908SOL     OW29359   1.348   0.148   6.146 -0.0189 -0.1455  0.2143
 5908SOL    HW129360   1.383   0.181   6.064 -1.2312  0.2814 -0.1381
 5908SOL    HW229361   1.259   0.182   6.136 -0.2308 -0.9247 -0.5080
 5909SOL     OW29362   0.430   1.015  14.503 -0.2423  0.1025 -0.0485
 5909SOL    HW129363   0.384   1.097  14.488  1.6922  1.2824  0.5507
 5909SOL    HW229364   0.482   0.999  14.425  0.5370 -2.3242  0.9393
 5910SOL     OW29365   2.631   4.096   6.705 -0.1310  0.3515 -0.4724
 5910SOL    HW129366   2.542   4.089   6.670  0.7201  0.0527 -2.5558
 5910SOL    HW229367   2.654   4.174   6.654  2.1272 -0.8017 -1.1898
 5911SOL     OW29368   0.390   2.079   4.076 -0.5725  0.1730  0.2604
 5911SOL    HW129369   0.459   2.027   4.117  0.3115  2.2262  1.3731
 5911SOL    HW229370   0.356   2.125   4.152 -0.0007  0.7204  0.1801
 5912SOL     OW29371   2.891   2.914   2.938  0.2394 -0.0125 -0.4744
 5912SOL    HW129372   2.891   2.951   3.027 -1.7478  0.6430 -0.7422
 5912SOL    HW229373   2.952   2.972   2.891  0.0209  0.9505  0.4209
 5913SOL     OW29374   1.931   3.570   5.370  0.3426 -0.1367 -0.6601
 5913SOL    HW129375   1.992   3.586   5.442  0.7512 -0.1830 -0.9972
 5913SOL    HW229376   1.901   3.480   5.378 -1.9410  0.6858  0.1314
 5914SOL     OW29377   3.152   3.321  13.764 -0.3105  0.6891  0.4852
 5914SOL    HW129378   3.066   3.294  13.734  0.2759 -1.4194  0.6979
 5914SOL    HW229379   3.197   3.321  13.679  0.9486 -0.0784  1.1553
 5915SOL     OW29380   4.149   0.569  15.698 -0.3030 -0.4591 -0.2449
 5915SOL    HW129381   4.225   0.520  15.668  0.7680  0.8468  0.3247
 5915SOL    HW229382   4.179   0.585  15.788  2.0505  0.2235 -1.1532
 5916SOL     OW29383   2.846   1.385   6.475  0.1629 -0.3886 -0.7552
 5916SOL    HW129384   2.854   1.360   6.383 -1.6099  1.1640 -1.3202
 5916SOL    HW229385   2.872   1.477   6.487  0.3949 -0.1879 -2.7560
 5917SOL     OW29386   3.240   0.954   6.157  0.0580  0.2335 -0.5766
 5917SOL    HW129387   3.297   1.012   6.107 -0.5410  1.0057 -0.3659
 5917SOL    HW229388   3.230   0.878   6.099 -1.0827  0.5792 -0.8332
 5918SOL     OW29389   4.316   0.253   8.123  0.0271 -0.0264 -0.2933
 5918SOL    HW129390   4.406   0.259   8.091 -0.0217  1.4569 -0.1538
 5918SOL    HW229391   4.281   0.219   8.041 -0.3001  1.0766 -0.6105
 5919SOL     OW29392   2.776   1.510   4.283  0.0979  0.1170  0.2030
 5919SOL    HW129393   2.753   1.519   4.375  1.5969  1.1695  0.4805
 5919SOL    HW229394   2.863   1.549   4.281  0.5709 -0.7701  3.4129
 5920SOL     OW29395   2.443   1.235   6.063  0.2751  0.1922 -0.2090
 5920SOL    HW129396   2.509   1.174   6.029 -0.7760 -1.3947  0.6149
 5920SOL    HW229397   2.502   1.306   6.086  0.5658 -0.2550  0.4267
 5921SOL     OW29398   1.679   3.421   8.753  0.0408  0.1520  0.2922
 5921SOL    HW129399   1.594   3.409   8.710 -0.2985  1.5820  0.5645
 5921SOL    HW229400   1.662   3.387   8.841  0.6672  0.3898  0.5047
 5922SOL     OW29401   1.050   1.011   8.141 -0.3064  0.0801  0.3189
 5922SOL    HW129402   0.985   1.020   8.072  2.5232  0.7651 -2.2524
 5922SOL    HW229403   1.128   0.991   8.089 -1.5913 -1.4029 -1.0385
 5923SOL     OW29404   3.906   1.251   0.503 -0.1571 -0.4183  0.1904
 5923SOL    HW129405   3.873   1.166   0.529  0.7636 -0.4370  1.3128
 5923SOL    HW229406   3.831   1.306   0.527 -0.9334 -0.3102 -2.5408
 5924SOL     OW29407   1.191   0.557  13.888  0.5354 -0.1320  0.0293
 5924SOL    HW129408   1.237   0.609  13.953 -1.1160  1.1608  0.1355
 5924SOL    HW229409   1.150   0.484  13.935  2.9278 -0.4985  1.5318
 5925SOL     OW29410   2.925   0.068   6.801 -0.1905  0.1292  0.3234
 5925SOL    HW129411   2.965   4.727   6.844  0.0788 -1.0449 -1.9436
 5925SOL    HW229412   2.954   0.062   6.710  1.8440  0.1467  0.9595
 5926SOL     OW29413   2.581   4.526   7.173 -0.5665  0.5416 -0.1536
 5926SOL    HW129414   2.507   4.582   7.194 -0.0680  0.9705  0.4828
 5926SOL    HW229415   2.559   4.496   7.085 -0.8079 -2.2216  0.8811
 5927SOL     OW29416   3.984   0.291   3.138  0.0585  0.5004 -0.0942
 5927SOL    HW129417   3.977   0.200   3.110  0.6738  0.0903  1.0980
 5927SOL    HW229418   4.027   0.331   3.062 -1.0041  1.2589 -0.2889
 5928SOL     OW29419   3.437   2.639   6.444  0.3282 -0.4757 -0.2362
 5928SOL    HW129420   3.358   2.635   6.498 -0.9994 -1.3034 -2.2421
 5928SOL    HW229421   3.457   2.732   6.437 -1.9349  0.1104  1.3514
 5929SOL     OW29422   2.383   2.555  10.965  0.6226 -0.2630 -0.2136
 5929SOL    HW129423   2.457   2.615  10.978 -1.1605  1.5295  1.6402
 5929SOL    HW229424   2.372   2.520  11.053  0.6354 -2.0212 -0.9253
 5930SOL     OW29425   2.516   3.862   3.975  0.4294  0.6461 -0.4618
 5930SOL    HW129426   2.472   3.857   4.059 -1.0949  1.4182 -1.2127
 5930SOL    HW229427   2.553   3.774   3.972  2.0242  1.3329 -1.3095
 5931SOL     OW29428   1.790   3.782  15.355  0.6886 -0.2578  0.4936
 5931SOL    HW129429   1.862   3.719  15.351  1.1042  0.2317  0.2548
 5931SOL    HW229430   1.726   3.734  15.303 -1.2901  1.4148  1.3855
 5932SOL     OW29431   0.370   2.634   6.687  0.6693  0.0257 -0.0361
 5932SOL    HW129432   0.390   2.541   6.678  2.0949  0.4778 -1.7553
 5932SOL    HW229433   0.417   2.656   6.767  1.1955 -2.3837  0.3064
 5933SOL     OW29434   1.847   0.477   2.441 -0.6179 -0.0459  0.0418
 5933SOL    HW129435   1.900   0.456   2.364 -0.3297 -0.7471  0.4279
 5933SOL    HW229436   1.800   0.555   2.411 -0.1321  0.6328  1.0511
 5934SOL     OW29437   4.252   1.968   4.590 -0.2405  0.0790 -0.1776
 5934SOL    HW129438   4.283   1.937   4.505 -0.4347  2.0324 -0.9650
 5934SOL    HW229439   4.289   1.906   4.652 -1.1104  0.0094  0.2771
 5935SOL     OW29440   3.505   3.914   8.447  0.1295 -0.2794  0.6159
 5935SOL    HW129441   3.555   3.848   8.495  1.0614  0.1954  0.2985
 5935SOL    HW229442   3.546   3.912   8.360  1.1656 -0.4903  1.1148
 5936SOL     OW29443   2.170   1.280   7.856 -0.3054 -0.2180 -0.5492
 5936SOL    HW129444   2.179   1.202   7.801 -2.1194  0.9210 -2.4860
 5936SOL    HW229445   2.255   1.272   7.900  0.3845  0.7378 -1.7216
 5937SOL     OW29446   0.404   4.479   9.207 -0.4312 -0.1002  0.6633
 5937SOL    HW129447   0.478   4.456   9.263 -1.2602 -0.3622  1.6469
 5937SOL    HW229448   0.355   4.533   9.269 -0.9079  0.2199 -0.0066
 5938SOL     OW29449   4.286   4.122   1.346  0.5409  0.0736 -0.2874
 5938SOL    HW129450   4.226   4.056   1.383  1.0695 -0.1393  0.1770
 5938SOL    HW229451   4.254   4.153   1.261 -0.0860  0.3987  0.0664
 5939SOL     OW29452   0.910   1.479   3.236 -0.4697 -0.1948 -0.0162
 5939SOL    HW129453   0.879   1.516   3.153 -0.5753  1.2569  0.6560
 5939SOL    HW229454   0.964   1.552   3.267  0.9140 -1.1746 -0.1374
 5940SOL     OW29455   4.467   3.000   7.282 -0.2841 -0.3502  0.5377
 5940SOL    HW129456   4.480   3.094   7.269  1.7661 -0.5215  1.3678
 5940SOL    HW229457   4.468   3.004   7.377 -0.8186 -0.2162  0.5397
 5941SOL     OW29458   0.430   4.279  13.934 -0.2710 -0.3356  0.3996
 5941SOL    HW129459   0.494   4.343  13.963 -0.9832  1.6686 -2.3600
 5941SOL    HW229460   0.461   4.196  13.970 -1.1947 -0.1521  1.6370
 5942SOL     OW29461   1.402   1.225   0.661  0.3762 -0.2635  0.4325
 5942SOL    HW129462   1.389   1.197   0.570  0.2385  0.7407  0.1342
 5942SOL    HW229463   1.330   1.288   0.668 -0.7816 -1.4995 -0.3382
 5943SOL     OW29464   0.106   1.273   4.977 -0.0313  0.3298 -0.2943
 5943SOL    HW129465   0.175   1.323   5.021 -2.3153  1.0856  2.4151
 5943SOL    HW229466   0.148   1.277   4.891  0.0630  0.1910 -0.2553
 5944SOL     OW29467   2.886   0.458   3.127  0.3425  0.0241 -0.1050
 5944SOL    HW129468   2.980   0.472   3.117  0.7688 -1.9289  1.2722
 5944SOL    HW229469   2.852   0.545   3.106  0.7554  0.7913  2.4001
 5945SOL     OW29470   0.850   0.026   7.510  0.3899  0.3870  0.3401
 5945SOL    HW129471   0.779   0.061   7.458 -2.0027 -3.6677  0.9042
 5945SOL    HW229472   0.833   0.069   7.594 -2.6056  0.4223 -0.2840
 5946SOL     OW29473   3.346   3.169   5.519 -0.1593 -0.1987  0.1531
 5946SOL    HW129474   3.284   3.109   5.476 -1.0120  1.4872 -0.9702
 5946SOL    HW229475   3.298   3.186   5.601  0.4337 -1.0643  0.6851
 5947SOL     OW29476   3.500   3.655  10.281  0.2792 -0.3348 -0.5140
 5947SOL    HW129477   3.423   3.699  10.319 -0.2116 -0.6383 -1.1541
 5947SOL    HW229478   3.479   3.565  10.306  0.0657 -0.5281 -1.3962
 5948SOL     OW29479   2.887   3.646   8.441 -0.2256 -0.1832 -0.1976
 5948SOL    HW129480   2.819   3.694   8.487  0.2700 -2.3967  2.8870
 5948SOL    HW229481   2.847   3.560   8.426 -2.6250  0.5198  2.2150
 5949SOL     OW29482   0.076   1.856   2.850 -0.9360 -0.1729  0.4424
 5949SOL    HW129483   0.156   1.897   2.883 -0.0076 -1.0751 -0.6854
 5949SOL    HW229484   0.013   1.913   2.894 -1.4782  0.4679 -1.1351
 5950SOL     OW29485   2.818   0.609  13.501 -0.0114 -0.0010  0.3502
 5950SOL    HW129486   2.885   0.673  13.524 -0.3045  0.5922 -0.4503
 5950SOL    HW229487   2.859   0.582  13.420  1.0214 -0.6830  1.1010
 5951SOL     OW29488   0.157   2.553   3.597 -0.1693 -0.3079  0.4225
 5951SOL    HW129489   0.222   2.483   3.593  0.7962  0.6090  0.1757
 5951SOL    HW229490   0.192   2.604   3.524  2.2873 -0.4412  1.5384
 5952SOL     OW29491   4.350   4.139  11.950 -0.2450 -0.6225 -0.5447
 5952SOL    HW129492   4.326   4.048  11.966 -0.2959 -0.3993  0.6445
 5952SOL    HW229493   4.263   4.178  11.954  0.3763  0.7800 -0.8109
 5953SOL     OW29494   3.075   0.743   0.354 -0.1917 -0.5185 -0.3273
 5953SOL    HW129495   3.150   0.691   0.325 -1.6406 -1.5038 -2.2645
 5953SOL    HW229496   3.077   0.808   0.284  1.9770 -0.9601 -0.6814
 5954SOL     OW29497   4.340   0.308   1.560 -0.3546 -0.4933  1.0398
 5954SOL    HW129498   4.273   0.374   1.542 -0.6270 -0.6968  1.3134
 5954SOL    HW229499   4.302   0.230   1.518 -0.3155 -1.7238  3.3209
 5955SOL     OW29500   0.235   1.419   2.466 -0.0182  0.5116  0.2812
 5955SOL    HW129501   0.180   1.474   2.411  1.7122  2.0607  0.1054
 5955SOL    HW229502   0.168   1.362   2.506 -1.9639  2.9057  0.4064
 5956SOL     OW29503   2.154   1.224  14.380  0.1788 -0.3669  0.2891
 5956SOL    HW129504   2.104   1.151  14.417 -0.6971  0.1808  0.1794
 5956SOL    HW229505   2.139   1.296  14.441 -1.7623 -1.2429  0.8601
 5957SOL     OW29506   2.945   0.222   0.199 -0.1265  0.5642  0.0874
 5957SOL    HW129507   3.019   0.170   0.229 -2.3184 -1.5249  1.9209
 5957SOL    HW229508   2.936   0.180   0.113  0.6316  1.5290 -0.4558
 5958SOL     OW29509   4.511   0.244  16.584 -0.4880  0.2678 -0.2702
 5958SOL    HW129510   4.540   0.153  16.585 -3.7414 -0.7877 -2.2974
 5958SOL    HW229511   4.447   0.249  16.513 -2.6392 -0.4407  1.6020
 5959SOL     OW29512   0.684   3.174   8.323  0.3746 -0.0679 -0.8872
 5959SOL    HW129513   0.766   3.220   8.305 -0.9119  1.9854 -1.4631
 5959SOL    HW229514   0.712   3.084   8.303 -0.5770 -0.7422  0.7960
 5960SOL     OW29515   0.434   1.273   4.061 -0.3494  0.3001  0.5020
 5960SOL    HW129516   0.462   1.190   4.097 -0.1317  0.4383  0.6512
 5960SOL    HW229517   0.429   1.244   3.970 -2.0301 -2.0023  1.3296
 5961SOL     OW29518   3.562   4.289   1.778  0.3495 -0.5992 -0.3406
 5961SOL    HW129519   3.633   4.232   1.749 -0.0614 -0.7795 -0.9999
 5961SOL    HW229520   3.508   4.220   1.818 -0.7673 -0.1746 -1.1024
 5962SOL     OW29521   1.167   3.621   5.305 -0.0003 -0.2893  0.2314
 5962SOL    HW129522   1.198   3.690   5.364  1.3647  0.7680 -1.7402
 5962SOL    HW229523   1.114   3.570   5.366  0.5891  0.1279  1.0909
 5963SOL     OW29524   1.772   1.681  16.442 -0.1407 -0.1286  0.9879
 5963SOL    HW129525   1.843   1.649  16.387 -2.7380 -1.2444 -1.6754
 5963SOL    HW229526   1.748   1.601  16.488  2.2870 -0.3526  1.8478
 5964SOL     OW29527   1.237   4.001   4.861 -0.2207 -0.3269  0.0452
 5964SOL    HW129528   1.311   3.943   4.840  1.1892  1.0611  1.1887
 5964SOL    HW229529   1.190   3.951   4.927  1.1982  1.8609  2.6911
 5965SOL     OW29530   2.437   2.197  17.280  0.0230 -0.3579  0.0867
 5965SOL    HW129531   2.353   2.178  17.321  0.4191  0.1983  1.1669
 5965SOL    HW229532   2.416   2.255  17.207  1.7424  1.2883  0.8928
 5966SOL     OW29533   2.888   2.320  12.106 -0.5946  1.1512 -0.4190
 5966SOL    HW129534   2.970   2.370  12.104  0.1136 -0.0636 -1.3244
 5966SOL    HW229535   2.903   2.233  12.141  1.6772  2.0187  0.7453
 5967SOL     OW29536   0.439   3.090  13.885 -0.3593  0.2836  0.2774
 5967SOL    HW129537   0.456   3.078  13.979 -0.0257  2.3608  0.4645
 5967SOL    HW229538   0.344   3.084  13.873 -0.5956 -0.2063  2.3030
 5968SOL     OW29539   1.576   0.422   3.311  0.1779 -0.2178  0.3318
 5968SOL    HW129540   1.549   0.485   3.244  0.4450 -1.8208 -1.2844
 5968SOL    HW229541   1.612   0.473   3.383 -1.9737  1.0176  0.5329
 5969SOL     OW29542   3.175   1.006   0.227  0.1831  0.0357 -0.8734
 5969SOL    HW129543   3.263   1.027   0.196 -0.4222 -0.5008 -2.8933
 5969SOL    HW229544   3.138   0.953   0.157 -1.7072 -0.7424  0.7082
 5970SOL     OW29545   1.334   1.794  13.490  0.0514 -0.3519 -0.5253
 5970SOL    HW129546   1.281   1.818  13.566 -1.2932  0.8190 -1.8399
 5970SOL    HW229547   1.279   1.818  13.416  0.2512  0.3179 -0.4549
 5971SOL     OW29548   0.203   1.441  10.813  0.1238  0.1055  0.8635
 5971SOL    HW129549   0.201   1.357  10.859  1.4153  1.4216  3.3025
 5971SOL    HW229550   0.132   1.484  10.861  1.4287  0.6549  2.2842
 5972SOL     OW29551   4.220   3.905  10.791  0.1741  0.0472 -0.6640
 5972SOL    HW129552   4.197   3.872  10.878 -0.3197  3.1908  0.4120
 5972SOL    HW229553   4.258   3.825  10.755  1.8578  0.1398  0.8996
 5973SOL     OW29554   0.347   1.793  10.056  0.8939  0.1421 -0.1364
 5973SOL    HW129555   0.436   1.775  10.025  0.0240 -0.2258 -2.3398
 5973SOL    HW229556   0.329   1.710  10.100 -0.8739  1.0544  0.8509
 5974SOL     OW29557   0.501   0.917   3.468 -0.0549 -0.4258  0.3384
 5974SOL    HW129558   0.418   0.965   3.470  0.7577  0.9895  0.7268
 5974SOL    HW229559   0.486   0.867   3.388 -0.2849 -1.2482  0.9082
 5975SOL     OW29560   4.602   4.643  15.273  0.2276  0.6155  0.0300
 5975SOL    HW129561   4.688   4.644  15.314  0.2749  1.7926 -0.0908
 5975SOL    HW229562   4.546   4.684  15.340 -1.4532 -1.7494  0.0553
 5976SOL     OW29563   1.761   4.128   3.332  0.2720 -0.3748 -0.0552
 5976SOL    HW129564   1.844   4.117   3.286  0.6438 -0.8083  0.7314
 5976SOL    HW229565   1.735   4.038   3.349 -0.3872 -0.1551  0.1249
 5977SOL     OW29566   0.758   0.235   8.680  0.1792  0.0170  0.5971
 5977SOL    HW129567   0.721   0.314   8.721 -1.3445 -0.9790  1.1343
 5977SOL    HW229568   0.766   0.170   8.749  1.7159 -0.4391 -0.0260
 5978SOL     OW29569   3.279   3.551   4.690 -0.4214  0.3206 -0.2292
 5978SOL    HW129570   3.279   3.538   4.785 -0.1939 -0.8140 -0.3776
 5978SOL    HW229571   3.373   3.549   4.671 -0.4300  0.2707 -0.2676
 5979SOL     OW29572   1.791   3.401   3.440  0.7949  0.1000  0.0924
 5979SOL    HW129573   1.808   3.326   3.382  0.6156 -1.9940  2.7535
 5979SOL    HW229574   1.869   3.405   3.496  0.0565  0.6278  1.0721
 5980SOL     OW29575   3.258   4.259   1.904  0.3289 -0.4031 -0.6297
 5980SOL    HW129576   3.302   4.303   1.976  0.8688  0.3050 -1.4048
 5980SOL    HW229577   3.187   4.323   1.898 -0.0231 -1.0552 -3.4152
 5981SOL     OW29578   1.961   3.431   1.943  0.7510 -0.2022  0.2059
 5981SOL    HW129579   1.947   3.343   1.909 -0.4944  0.1949 -0.3278
 5981SOL    HW229580   1.999   3.411   2.028 -0.1404  1.7346  1.0770
 5982SOL     OW29581   0.257   4.728   6.591  0.2016  0.6938  0.2546
 5982SOL    HW129582   0.207   4.708   6.512  1.7655  2.7999 -1.2671
 5982SOL    HW229583   0.221   4.666   6.654 -2.1537  0.4575 -1.3392
 5983SOL     OW29584   0.708   2.584   7.147 -0.4571 -0.2788 -0.4913
 5983SOL    HW129585   0.615   2.572   7.169 -0.7568  2.6258 -0.1068
 5983SOL    HW229586   0.731   2.674   7.171 -0.2973  0.2903 -2.7682
 5984SOL     OW29587   1.595   0.025   4.078 -0.5260  0.3942 -0.1179
 5984SOL    HW129588   1.510   0.040   4.036 -0.3480  0.0966 -0.5811
 5984SOL    HW229589   1.644   0.096   4.035 -1.7952  0.7932 -0.9293
 5985SOL     OW29590   0.650   4.560   3.545  0.0059  0.0083 -0.2639
 5985SOL    HW129591   0.695   4.509   3.612  0.2364  0.4546 -0.0782
 5985SOL    HW229592   0.631   4.488   3.485  1.1629  0.0232 -0.6508
 5986SOL     OW29593   1.428   3.603  11.913 -0.5374  0.1934 -0.3260
 5986SOL    HW129594   1.391   3.656  11.983 -1.6535 -2.7675  1.2991
 5986SOL    HW229595   1.373   3.643  11.846  2.1476  1.8013 -1.5817
 5987SOL     OW29596   0.732   4.709   1.390 -0.1836 -0.3395 -0.2314
 5987SOL    HW129597   0.672   4.708   1.315 -1.2192 -1.0270  0.6036
 5987SOL    HW229598   0.719   0.065   1.421 -0.6802 -0.8457  1.0664
 5988SOL     OW29599   0.509   1.831   5.366 -0.1586  0.0579  0.3747
 5988SOL    HW129600   0.505   1.735   5.366 -0.1048  0.0688 -3.0481
 5988SOL    HW229601   0.545   1.848   5.454  0.3041  0.7702  0.0497
 5989SOL     OW29602   0.881   4.160   5.556  0.4640 -0.2324  0.2227
 5989SOL    HW129603   0.878   4.157   5.461  0.9469 -0.0765  0.2025
 5989SOL    HW229604   0.974   4.149   5.573  0.1109 -0.4880  2.0769
 5990SOL     OW29605   1.266   2.402  16.338  0.1989  0.0860  0.0113
 5990SOL    HW129606   1.282   2.428  16.428  0.7675  1.6228 -0.5305
 5990SOL    HW229607   1.346   2.350  16.332  0.3185 -0.0266  2.5105
 5991SOL     OW29608   3.630   3.770   5.028  0.7642  0.2486  0.5136
 5991SOL    HW129609   3.577   3.780   4.949 -1.2215 -0.5837  1.7210
 5991SOL    HW229610   3.713   3.739   4.991  0.1372  0.6577 -1.2418
 5992SOL     OW29611   2.602   1.808   0.684  0.1307  0.1006 -0.2494
 5992SOL    HW129612   2.511   1.835   0.697 -0.2561 -0.7026 -1.2235
 5992SOL    HW229613   2.591   1.799   0.589  1.3310  0.5083 -0.4385
 5993SOL     OW29614   2.283   3.406  14.594  0.4272  0.6084  0.5208
 5993SOL    HW129615   2.366   3.439  14.560  0.9365 -0.3875  0.8002
 5993SOL    HW229616   2.299   3.311  14.590  2.5318  0.8627  2.5363
 5994SOL     OW29617   3.542   0.841   2.888  0.0800 -0.1360 -0.4206
 5994SOL    HW129618   3.504   0.849   2.801 -3.4931 -0.4737  1.1280
 5994SOL    HW229619   3.606   0.910   2.870  1.4650 -1.3835 -0.2836
 5995SOL     OW29620   0.381   4.306   2.346  0.0567 -0.3849  0.0040
 5995SOL    HW129621   0.400   4.250   2.421 -1.1479  0.3281  0.8278
 5995SOL    HW229622   0.369   4.239   2.279 -1.8379 -1.0169  0.9989
 5996SOL     OW29623   2.296   0.096   7.632 -0.4854  0.3809  0.1891
 5996SOL    HW129624   2.391   0.093   7.617 -1.2288 -2.7610 -4.0598
 5996SOL    HW229625   2.277   0.185   7.601  3.2596  0.6847 -1.2879
 5997SOL     OW29626   3.229   3.839   4.882 -0.1129  0.7140  0.6418
 5997SOL    HW129627   3.225   3.922   4.929 -0.9480  1.3705 -0.5875
 5997SOL    HW229628   3.271   3.782   4.947  0.7150  0.6704  0.0681
 5998SOL     OW29629   3.909   0.126   3.729 -0.4849 -0.0378 -0.3648
 5998SOL    HW129630   3.935   0.034   3.735  1.0654  0.2906 -2.1215
 5998SOL    HW229631   3.905   0.135   3.634 -0.2636 -0.2397 -0.3933
 5999SOL     OW29632   0.612   2.127   3.213 -0.6022  0.2207  0.5157
 5999SOL    HW129633   0.631   2.203   3.268 -2.3904 -0.0050  1.4478
 5999SOL    HW229634   0.517   2.122   3.218 -0.6919  1.0833 -0.3218
 6000SOL     OW29635   3.240   4.131   2.595 -0.1045 -0.2691 -0.5642
 6000SOL    HW129636   3.222   4.192   2.666  3.1008  0.4642 -0.3619
 6000SOL    HW229637   3.257   4.049   2.640  1.7648  0.2621 -0.2987
 6001SOL     OW29638   0.387   3.067  14.417  0.6822 -0.4193  0.0636
 6001SOL    HW129639   0.407   3.148  14.464  1.8681 -1.2945  1.0900
 6001SOL    HW229640   0.292   3.070  14.405  0.3328 -2.0768  2.3008
 6002SOL     OW29641   0.216   0.757   8.685  0.3633  0.2351 -0.2639
 6002SOL    HW129642   0.309   0.769   8.703  0.6891 -1.2776 -0.9778
 6002SOL    HW229643   0.207   0.678   8.633  1.4236 -0.6195  0.8694
 6003SOL     OW29644   1.772   2.448   7.833 -0.7368  0.1972 -0.0181
 6003SOL    HW129645   1.758   2.366   7.785  0.6127  0.3297 -0.6353
 6003SOL    HW229646   1.724   2.431   7.914 -3.6668 -0.6839 -1.9544
 6004SOL     OW29647   2.248   0.884   5.839 -0.0382  0.0953 -0.3845
 6004SOL    HW129648   2.322   0.880   5.900 -0.3989  0.5153  0.0948
 6004SOL    HW229649   2.214   0.795   5.845 -0.2177 -0.0259 -3.3434
 6005SOL     OW29650   2.101   0.453   2.842 -0.1824 -0.2417 -0.1387
 6005SOL    HW129651   2.019   0.451   2.792 -0.3711  2.2884  0.0761
 6005SOL    HW229652   2.157   0.382   2.811 -1.4519 -0.6369 -1.5476
 6006SOL     OW29653   0.023   3.074  11.348 -0.1654  0.2038 -0.2411
 6006SOL    HW129654   0.090   3.113  11.292  0.3695 -2.2638 -1.3410
 6006SOL    HW229655   4.694   3.035  11.288  2.0525 -2.3501 -0.9085
 6007SOL     OW29656   2.030   3.729   9.082  0.4242 -0.2546  0.6724
 6007SOL    HW129657   1.990   3.741   8.996  1.9183 -0.1618 -0.0127
 6007SOL    HW229658   2.052   3.636   9.071 -1.5001 -0.8035  1.4186
 6008SOL     OW29659   4.199   0.053   5.627  0.4249  0.7146  0.7000
 6008SOL    HW129660   4.116   0.009   5.612  0.0165  1.1433  1.7361
 6008SOL    HW229661   4.200   0.107   5.548 -1.5299 -0.5831 -0.2159
 6009SOL     OW29662   4.073   1.735  11.996  0.2800 -0.1344  0.0032
 6009SOL    HW129663   4.089   1.659  11.940  0.0805 -0.9783  1.0717
 6009SOL    HW229664   3.983   1.760  11.976  0.1046 -0.4250  0.4151
 6010SOL     OW29665   0.637   4.370  11.697  0.3559 -0.0919  0.4245
 6010SOL    HW129666   0.589   4.335  11.772  2.3835  1.7324  2.5641
 6010SOL    HW229667   0.585   4.445  11.668  0.4573 -0.4072 -0.5580
 6011SOL     OW29668   1.200   2.604   6.679 -0.1339  0.1112  0.3337
 6011SOL    HW129669   1.276   2.594   6.737 -0.6389 -1.3341  0.7436
 6011SOL    HW229670   1.139   2.539   6.713  1.0311  1.2299  4.5342
 6012SOL     OW29671   3.444   4.029   4.543 -0.1189 -0.5760 -0.2141
 6012SOL    HW129672   3.358   4.013   4.503 -0.4000 -0.3292  0.2923
 6012SOL    HW229673   3.435   4.116   4.580  0.0669 -0.5534 -0.2243
 6013SOL     OW29674   4.114   1.563  11.778 -0.0044 -0.7533 -0.2692
 6013SOL    HW129675   4.046   1.606  11.725 -0.8976 -1.6664  0.1476
 6013SOL    HW229676   4.116   1.477  11.736  1.9948 -0.9659  0.2512
 6014SOL     OW29677   0.887   3.790   5.189  0.0270 -0.8752  0.5867
 6014SOL    HW129678   0.837   3.866   5.217  0.4230  0.2532 -1.7672
 6014SOL    HW229679   0.845   3.767   5.106 -1.2729  1.2667  0.6470
 6015SOL     OW29680   4.247   0.416   7.561  0.0616 -0.5732 -0.1006
 6015SOL    HW129681   4.273   0.470   7.486 -0.8991 -0.1724 -0.1374
 6015SOL    HW229682   4.265   0.329   7.525 -2.1826 -0.8298 -0.6020
 6016SOL     OW29683   2.006   3.631   2.149  0.1104  0.2220 -0.6969
 6016SOL    HW129684   2.058   3.711   2.138  0.3811 -0.0349 -1.2561
 6016SOL    HW229685   2.013   3.607   2.057 -1.3649  0.2528 -0.8079
 6017SOL     OW29686   0.466   3.757   7.353  0.2303  0.0684 -0.4091
 6017SOL    HW129687   0.463   3.704   7.433 -2.6573  0.1676 -0.4479
 6017SOL    HW229688   0.417   3.710   7.286 -0.4490 -1.8893  1.4284
 6018SOL     OW29689   2.358   4.683   7.176  0.2882  0.1607 -0.2785
 6018SOL    HW129690   2.318   4.722   7.098  1.2271  2.0305  0.1889
 6018SOL    HW229691   2.353   0.025   7.233  2.1508 -1.9427  2.6766
 6019SOL     OW29692   1.478   2.758  12.410  0.0821 -0.1117 -0.7176
 6019SOL    HW129693   1.546   2.812  12.450 -0.4492 -1.0716  1.4812
 6019SOL    HW229694   1.533   2.701  12.357  0.5613  1.1004 -1.4983
 6020SOL     OW29695   3.084   0.096   4.140 -0.3358 -0.1093 -0.3888
 6020SOL    HW129696   3.124   0.160   4.081 -0.0425  0.7675  0.7682
 6020SOL    HW229697   3.165   0.069   4.183  0.0841  1.9432  0.0846
 6021SOL     OW29698   0.160   3.048   1.882 -0.3717  0.0099  0.5305
 6021SOL    HW129699   0.222   3.076   1.814  1.2858 -2.6545  0.9442
 6021SOL    HW229700   0.190   2.957   1.887  0.4828  0.2120 -0.8691
 6022SOL     OW29701   2.148   1.947   6.227 -0.0930  0.7824 -0.2510
 6022SOL    HW129702   2.237   1.949   6.263 -0.2117 -1.5754  0.1457
 6022SOL    HW229703   2.130   2.041   6.222  0.6748  0.9576  0.1483
 6023SOL     OW29704   3.916   4.499   6.256 -0.2986  0.5658  0.5417
 6023SOL    HW129705   3.847   4.554   6.294  0.4429  1.1678  1.0047
 6023SOL    HW229706   3.903   4.410   6.290  2.4281 -0.3407 -0.7967
 6024SOL     OW29707   3.395   0.295   5.403 -0.3750  0.0257  0.6100
 6024SOL    HW129708   3.483   0.300   5.442  0.9641 -0.0823 -2.4047
 6024SOL    HW229709   3.415   0.313   5.311 -0.4440 -2.4872  0.1161
 6025SOL     OW29710   2.493   3.731  14.205 -0.1543  0.0278  0.2621
 6025SOL    HW129711   2.570   3.675  14.199 -1.5056 -1.6634 -1.4452
 6025SOL    HW229712   2.423   3.666  14.198  1.6862 -1.5125 -3.8657
 6026SOL     OW29713   1.027   2.014  10.047  0.3138  0.1167  0.5920
 6026SOL    HW129714   0.976   2.011   9.967  1.0377  2.0230  0.0630
 6026SOL    HW229715   0.960   2.045  10.108 -1.4617 -0.7952 -0.8970
 6027SOL     OW29716   0.992   4.438   2.104 -0.1224  0.1752  0.0746
 6027SOL    HW129717   0.996   4.434   2.200  1.0452 -0.0270  0.0232
 6027SOL    HW229718   0.902   4.412   2.084  0.2835 -0.3807 -1.0489
 6028SOL     OW29719   4.158   0.872  12.391  0.4677  1.2419 -0.6993
 6028SOL    HW129720   4.113   0.954  12.412 -1.8858  0.0963 -1.3224
 6028SOL    HW229721   4.247   0.903  12.371  0.7874 -0.4124 -1.9384
 6029SOL     OW29722   4.099   2.333   3.463 -0.0632  0.2479 -0.2005
 6029SOL    HW129723   4.079   2.313   3.554 -0.7107  1.4364 -0.0888
 6029SOL    HW229724   4.108   2.247   3.422  0.5918  0.7242 -1.0594
 6030SOL     OW29725   1.394   4.337   4.598 -0.1239  0.1205 -0.0360
 6030SOL    HW129726   1.422   4.306   4.684  0.6098 -1.1903 -0.7408
 6030SOL    HW229727   1.312   4.383   4.613 -0.7239 -0.8381 -0.3630
 6031SOL     OW29728   4.450   3.371   6.919  0.8979 -0.5910 -0.3197
 6031SOL    HW129729   4.538   3.370   6.881  1.9333  0.4112  2.0626
 6031SOL    HW229730   4.414   3.446   6.871 -1.3456  1.3878  4.4493
 6032SOL     OW29731   1.533   3.971   8.890 -0.1368  0.6764  0.1229
 6032SOL    HW129732   1.439   3.967   8.871  0.2812 -3.7347 -0.9316
 6032SOL    HW229733   1.560   3.901   8.830 -0.2242  0.3234  0.4938
 6033SOL     OW29734   2.614   3.127  12.705 -0.0519 -0.1707  0.1830
 6033SOL    HW129735   2.594   3.095  12.617  1.1092 -0.6419  0.0890
 6033SOL    HW229736   2.609   3.222  12.692  1.3466 -0.3100 -1.3852
 6034SOL     OW29737   4.059   3.591   6.878  0.0921 -0.0979  0.0100
 6034SOL    HW129738   4.061   3.512   6.824 -0.0279  0.1148 -0.3020
 6034SOL    HW229739   4.080   3.663   6.819  0.7458 -0.4785 -0.2155
 6035SOL     OW29740   1.351   1.567   8.138  0.3669  0.4949 -0.0777
 6035SOL    HW129741   1.419   1.533   8.196  0.9422  0.2369 -0.9109
 6035SOL    HW229742   1.363   1.492   8.080 -1.6299 -0.7172  1.0443
 6036SOL     OW29743   4.678   1.106   0.262 -0.1903 -0.1304  0.6941
 6036SOL    HW129744   4.623   1.137   0.334 -1.9947 -0.6809 -0.4585
 6036SOL    HW229745   0.029   1.135   0.296 -1.9245  1.8448  3.3302
 6037SOL     OW29746   0.651   2.990   0.481 -0.1339 -0.1797 -0.1827
 6037SOL    HW129747   0.639   3.083   0.460  0.0100 -0.0236  0.4167
 6037SOL    HW229748   0.710   2.999   0.556  0.2956 -2.5688 -0.2388
 6038SOL     OW29749   1.445   2.653   0.432 -0.5649  0.1788  0.2235
 6038SOL    HW129750   1.518   2.640   0.492 -1.9156  1.0716  2.0519
 6038SOL    HW229751   1.376   2.618   0.489 -2.4346 -0.5828 -2.5067
 6039SOL     OW29752   1.923   0.009   6.727  0.1965 -0.3005 -0.1928
 6039SOL    HW129753   1.929   0.056   6.644  0.1959 -0.2924 -0.1882
 6039SOL    HW229754   1.830   0.011   6.749 -0.2199  0.5879 -2.0301
 6040SOL     OW29755   3.057   4.564   4.598  0.2433  0.9606  0.0980
 6040SOL    HW129756   2.974   4.581   4.643 -1.4152 -0.3697 -2.4684
 6040SOL    HW229757   3.124   4.546   4.664  0.9174  1.6566 -0.3907
 6041SOL     OW29758   0.856   1.641   0.327 -0.1763  0.5785 -0.2080
 6041SOL    HW129759   0.818   1.564   0.371 -1.1332  1.7536  1.0469
 6041SOL    HW229760   0.781   1.697   0.305 -0.2713  0.4022 -0.3279
 6042SOL     OW29761   4.501   1.158   6.840 -0.8514  0.0426  0.5484
 6042SOL    HW129762   4.461   1.071   6.848 -0.0916 -0.2680  0.9722
 6042SOL    HW229763   4.523   1.192   6.927  2.2816  1.0606 -0.6351
 6043SOL     OW29764   4.555   2.431  16.382 -0.3689  0.1975 -0.1290
 6043SOL    HW129765   4.557   2.526  16.394 -1.1558  0.0790  0.8962
 6043SOL    HW229766   4.477   2.413  16.434 -1.2482 -1.2906 -1.9738
 6044SOL     OW29767   2.609   4.630   2.505  0.0924  0.8150  0.5146
 6044SOL    HW129768   2.538   4.566   2.498  1.7437 -0.9413 -0.1818
 6044SOL    HW229769   2.685   4.573   2.494  0.3872  0.8925  2.2817
 6045SOL     OW29770   1.244   3.682  12.109 -0.0230  0.2830  0.5000
 6045SOL    HW129771   1.202   3.767  12.097 -1.7918 -0.7498 -0.5848
 6045SOL    HW229772   1.231   3.679  12.204  2.1777 -0.8864  0.7634
 6046SOL     OW29773   2.310   3.055  15.227 -0.2795  0.1483 -0.4007
 6046SOL    HW129774   2.389   3.106  15.242  0.8104 -1.3690 -1.0374
 6046SOL    HW229775   2.266   3.088  15.306 -1.7692 -1.8133 -0.3960
 6047SOL     OW29776   2.087   0.999   9.226  0.6736 -0.1141  0.1804
 6047SOL    HW129777   2.020   0.963   9.284  1.1604 -2.4688 -0.7118
 6047SOL    HW229778   2.057   1.090   9.223 -0.5650 -0.5299 -0.0311
 6048SOL     OW29779   1.366   3.137  12.566 -0.4447  0.2178 -0.1111
 6048SOL    HW129780   1.443   3.193  12.561 -0.1793 -0.1053  0.3538
 6048SOL    HW229781   1.327   3.176  12.644 -0.2074 -0.9991  0.6306
 6049SOL     OW29782   2.257   0.570  11.905  0.2322 -0.4334  0.3577
 6049SOL    HW129783   2.186   0.529  11.954 -0.9986  0.4113 -0.7273
 6049SOL    HW229784   2.238   0.550  11.814  1.8621 -1.2938  0.1926
 6050SOL     OW29785   3.396   3.102   8.273 -1.2345 -0.2422  0.4395
 6050SOL    HW129786   3.441   3.122   8.355 -1.4318 -0.2149  0.5408
 6050SOL    HW229787   3.334   3.033   8.298 -0.6261 -0.0489  2.4700
 6051SOL     OW29788   3.163   3.331   6.642 -0.3482 -0.8615  0.1285
 6051SOL    HW129789   3.081   3.343   6.691 -0.7852 -2.1157 -0.2730
 6051SOL    HW229790   3.223   3.394   6.680  1.0305 -1.9729 -0.2264
 6052SOL     OW29791   0.888   0.834   6.975  0.5059 -0.2690  0.1339
 6052SOL    HW129792   0.936   0.759   7.011  1.6722  0.1698 -0.4907
 6052SOL    HW229793   0.897   0.820   6.881 -3.1942 -3.1428  0.2158
 6053SOL     OW29794   2.875   1.763  12.153  0.0347  0.2609 -0.1732
 6053SOL    HW129795   2.888   1.668  12.144  0.1115  0.1221  1.3468
 6053SOL    HW229796   2.797   1.766  12.210 -0.3269  0.5119 -0.6812
 6054SOL     OW29797   2.962   2.104   3.197  0.0454 -0.8537  0.3902
 6054SOL    HW129798   2.952   2.009   3.196 -1.2394 -0.7145  0.2917
 6054SOL    HW229799   2.920   2.135   3.116  3.5542  1.2053 -0.6577
 6055SOL     OW29800   1.285   0.680   3.858  0.2066  0.3705  0.2352
 6055SOL    HW129801   1.234   0.627   3.796  0.4139  1.5266 -0.9084
 6055SOL    HW229802   1.220   0.747   3.881 -1.0126 -0.4428 -0.8201
 6056SOL     OW29803   1.888   0.131  17.420 -0.2565  0.2436 -0.0809
 6056SOL    HW129804   1.961   0.186  17.450 -0.0410  0.2013 -0.5209
 6056SOL    HW229805   1.913   0.048  17.461  2.0961  2.0391  2.1381
 6057SOL     OW29806   4.432   0.782  13.754  0.3705  0.1768 -0.3340
 6057SOL    HW129807   4.463   0.692  13.765 -2.3598 -0.6961  0.4394
 6057SOL    HW229808   4.353   0.778  13.808  0.8642 -2.1890  0.2091
 6058SOL     OW29809   1.486   0.006   5.578 -0.1641  0.1090  0.2438
 6058SOL    HW129810   1.517   4.650   5.578  0.1198  0.2235  2.9397
 6058SOL    HW229811   1.556   0.055   5.535 -0.9550 -1.2151 -2.5464
 6059SOL     OW29812   0.378   3.761   9.795  0.1382  0.5785 -0.1384
 6059SOL    HW129813   0.401   3.847   9.832  1.4036 -0.4855  1.4990
 6059SOL    HW229814   0.430   3.701   9.848  1.7112 -0.2124 -2.5886
 6060SOL     OW29815   2.061   4.503  13.512 -0.3421  0.0551 -0.1339
 6060SOL    HW129816   2.035   4.564  13.443  2.6694 -0.8299 -2.0569
 6060SOL    HW229817   2.156   4.513  13.502 -0.5212 -0.5445 -2.6027
 6061SOL     OW29818   3.678   0.952   8.077 -0.0577 -0.3463  0.1699
 6061SOL    HW129819   3.623   0.977   8.151 -0.6401 -0.8027 -0.1039
 6061SOL    HW229820   3.695   1.030   8.024  0.9530 -1.2521 -0.8292
 6062SOL     OW29821   0.310   1.803   4.316  0.4829 -0.0694  0.5971
 6062SOL    HW129822   0.373   1.791   4.387 -1.4709 -0.6221  2.2286
 6062SOL    HW229823   0.338   1.887   4.278 -1.2418  0.6930  1.0101
 6063SOL     OW29824   2.908   0.774   3.559 -0.6468 -0.8731 -0.1109
 6063SOL    HW129825   2.985   0.810   3.513  0.4876  0.6780  3.0102
 6063SOL    HW229826   2.854   0.853   3.552 -0.7641 -0.7413  2.4556
 6064SOL     OW29827   3.354   1.121   8.012  0.0635 -0.1098  0.6377
 6064SOL    HW129828   3.429   1.180   8.013  0.2640 -0.3396 -1.4154
 6064SOL    HW229829   3.358   1.079   7.926  0.1114 -0.7099  0.9335
 6065SOL     OW29830   4.472   1.520   6.308 -0.0022 -0.4303  1.0189
 6065SOL    HW129831   4.504   1.480   6.389 -3.2974 -0.4205  2.3445
 6065SOL    HW229832   4.377   1.518   6.314 -0.2152 -0.2290 -2.3114
 6066SOL     OW29833   3.442   1.498   3.748 -0.6658  0.2213  0.4767
 6066SOL    HW129834   3.404   1.410   3.747  0.8267 -0.4433  1.5586
 6066SOL    HW229835   3.391   1.540   3.678 -0.6828  0.7662  0.8218
 6067SOL     OW29836   2.302   3.181   1.959  0.0812  0.7280 -0.6507
 6067SOL    HW129837   2.381   3.194   1.906  0.6190  2.0708  0.5046
 6067SOL    HW229838   2.323   3.096   1.998  1.5582  1.5255  0.2915
 6068SOL     OW29839   0.106   2.275  14.513 -0.1175 -0.1989 -0.1654
 6068SOL    HW129840   0.065   2.228  14.585 -0.3747  3.8325  2.3291
 6068SOL    HW229841   0.198   2.282  14.539  0.0708 -0.9979 -0.6210
 6069SOL     OW29842   3.566   2.534  12.417  0.6022 -0.5436 -0.1014
 6069SOL    HW129843   3.616   2.572  12.489  2.6771 -4.3392  0.4522
 6069SOL    HW229844   3.572   2.441  12.439 -2.4383 -0.5887  0.5914
 6070SOL     OW29845   3.281   2.495   3.309 -0.2704  0.4347 -0.2795
 6070SOL    HW129846   3.248   2.481   3.221  1.5813 -0.4884 -0.8375
 6070SOL    HW229847   3.320   2.413   3.341 -1.1967  0.7279  1.5870
 6071SOL     OW29848   1.132   3.143   4.679 -0.3456 -0.1171 -0.9600
 6071SOL    HW129849   1.043   3.121   4.705  0.0687 -0.5744  0.0637
 6071SOL    HW229850   1.119   3.235   4.658 -0.1220  0.3181  0.8130
 6072SOL     OW29851   4.242   1.180   5.185 -0.5559 -0.2922 -0.0534
 6072SOL    HW129852   4.273   1.231   5.110  1.3367 -1.9655 -0.3744
 6072SOL    HW229853   4.151   1.206   5.199 -0.3042 -0.1682  1.4321
 6073SOL     OW29854   1.435   3.913   4.083 -0.1879 -0.2704 -0.1257
 6073SOL    HW129855   1.514   3.908   4.028  0.8261 -3.2150  1.5944
 6073SOL    HW229856   1.472   3.924   4.171  0.3463  1.4535 -0.5802
 6074SOL     OW29857   3.056   0.579   6.939  0.7725  0.6941  0.3886
 6074SOL    HW129858   3.006   0.500   6.959 -2.0335  2.3196 -0.2388
 6074SOL    HW229859   3.019   0.640   7.002 -0.7342  0.0757  0.0852
 6075SOL     OW29860   4.399   4.602   5.700  0.0493 -0.6453  0.1948
 6075SOL    HW129861   4.333   4.650   5.650  1.2362  0.3874 -0.3877
 6075SOL    HW229862   4.468   4.669   5.698 -1.7544  1.2344  0.6854
 6076SOL     OW29863   1.102   2.859   1.107 -0.4594  0.0638  0.1910
 6076SOL    HW129864   1.189   2.880   1.140 -0.5281  0.2424  0.2592
 6076SOL    HW229865   1.040   2.873   1.178 -2.6124  0.0550 -1.6953
 6077SOL     OW29866   3.729   0.168   4.144 -0.3130 -0.5065  0.2774
 6077SOL    HW129867   3.711   0.198   4.055 -0.8338 -3.1605 -0.5062
 6077SOL    HW229868   3.665   0.229   4.182  1.6519  1.3246  0.6266
 6078SOL     OW29869   0.944   3.199   8.693 -0.1924  0.3612 -0.1554
 6078SOL    HW129870   0.956   3.129   8.757 -0.6342  0.1831 -0.2688
 6078SOL    HW229871   0.939   3.267   8.761 -0.5051 -0.5631  0.7373
 6079SOL     OW29872   0.027   1.651   5.700  0.4372 -0.1458  0.0264
 6079SOL    HW129873   4.692   1.678   5.640 -0.4404 -1.2256  0.5710
 6079SOL    HW229874   0.014   1.718   5.767  0.7606 -0.5965  0.5316
 6080SOL     OW29875   4.281   4.578   6.730  0.0455 -0.1900  0.1086
 6080SOL    HW129876   4.248   4.560   6.818  0.0101 -2.1209 -0.2981
 6080SOL    HW229877   4.204   4.607   6.682  1.8820  1.3966 -1.8370
 6081SOL     OW29878   3.560   3.611   8.719 -1.3126 -0.1926  0.3054
 6081SOL    HW129879   3.588   3.689   8.766  0.7066  1.0627 -3.0841
 6081SOL    HW229880   3.541   3.553   8.793  2.0717  1.1051  2.1522
 6082SOL     OW29881   1.471   1.549   0.616  0.4166  0.1598 -0.7562
 6082SOL    HW129882   1.525   1.615   0.661 -1.9067  1.3848  0.2387
 6082SOL    HW229883   1.440   1.507   0.696  0.2232  1.5162 -0.1265
 6083SOL     OW29884   3.806   2.838   8.533 -0.1244  0.1746 -0.2420
 6083SOL    HW129885   3.847   2.912   8.488  1.4073 -0.3068  0.3499
 6083SOL    HW229886   3.722   2.844   8.487 -0.7174  1.1681  0.9672
 6084SOL     OW29887   1.374   3.729   2.487  0.0286  0.6977 -0.5908
 6084SOL    HW129888   1.347   3.806   2.437 -1.0390  0.5828 -0.1852
 6084SOL    HW229889   1.395   3.782   2.563 -2.6321  3.8669 -2.0634
 6085SOL     OW29890   2.407   0.294   9.395 -0.6094  0.3841 -0.2715
 6085SOL    HW129891   2.455   0.362   9.443 -1.7823 -0.1178  1.6438
 6085SOL    HW229892   2.434   0.292   9.303  1.7228 -0.2041  0.4253
 6086SOL     OW29893   4.641   2.278   4.218 -0.3538  0.1383  0.4921
 6086SOL    HW129894   4.653   2.293   4.124 -0.3787 -0.7965  0.3336
 6086SOL    HW229895   4.667   2.186   4.220 -1.2716 -0.0894  2.0701
 6087SOL     OW29896   4.502   4.146   1.481  0.1414 -0.1266 -0.2530
 6087SOL    HW129897   4.513   4.072   1.541  2.9421  0.8966  0.4876
 6087SOL    HW229898   4.412   4.130   1.455 -0.2444  1.9118 -0.1478
 6088SOL     OW29899   0.374   4.631  16.314 -0.6117 -0.0700 -0.2363
 6088SOL    HW129900   0.298   4.679  16.282 -2.7108 -2.7466  0.7488
 6088SOL    HW229901   0.353   4.601  16.402  1.7354  0.5980  0.5671
 6089SOL     OW29902   0.045   0.110  12.795  0.5299  0.0861  0.4719
 6089SOL    HW129903   0.029   0.157  12.713 -2.1491  0.4168  1.2078
 6089SOL    HW229904   4.709   0.046  12.796  0.4173  0.2249  1.6003
 6090SOL     OW29905   3.361   3.985  17.267  0.2275 -0.4390  0.7074
 6090SOL    HW129906   3.390   3.944  17.349  3.2580  0.7660  0.2259
 6090SOL    HW229907   3.416   3.939  17.204 -0.1937 -0.1970  0.1693
 6091SOL     OW29908   2.509   0.462  10.076 -0.5975  0.2812  0.2358
 6091SOL    HW129909   2.560   0.482   9.998 -1.0827 -0.7724 -0.3505
 6091SOL    HW229910   2.558   0.512  10.141  2.4337 -2.1840 -0.1396
 6092SOL     OW29911   4.127   2.533   5.949 -0.1002  0.1017  0.0211
 6092SOL    HW129912   4.060   2.470   5.920 -1.4959  0.0709  3.2903
 6092SOL    HW229913   4.156   2.561   5.862  0.9713  1.5584  0.8554
 6093SOL     OW29914   2.642   1.193   8.194 -0.2735 -0.0390  0.1084
 6093SOL    HW129915   2.673   1.266   8.248 -0.7212  1.4874 -1.6986
 6093SOL    HW229916   2.655   1.232   8.108 -1.1361  1.1883  0.5257
 6094SOL     OW29917   1.299   0.454   7.829  0.2364  0.1917 -0.8238
 6094SOL    HW129918   1.246   0.485   7.755 -0.4127 -0.0005 -0.4356
 6094SOL    HW229919   1.258   0.487   7.909 -1.6763  2.0585 -2.5602
 6095SOL     OW29920   0.276   1.394   6.902  0.2414 -0.3553 -0.2414
 6095SOL    HW129921   0.205   1.401   6.837 -0.0319  1.9626  0.3146
 6095SOL    HW229922   0.338   1.347   6.846  1.7627  2.0532 -0.5609
 6096SOL     OW29923   3.947   1.421   1.862  0.5128 -0.1581  0.4668
 6096SOL    HW129924   3.922   1.337   1.901 -1.1076  0.5657  0.9874
 6096SOL    HW229925   4.042   1.414   1.871  0.6778  1.5444 -0.0261
 6097SOL     OW29926   2.361   0.446   3.301 -0.3777 -0.0812 -0.0786
 6097SOL    HW129927   2.361   0.468   3.208  3.6570  0.3738  0.0249
 6097SOL    HW229928   2.267   0.435   3.314 -0.6134 -0.2720 -1.9667
 6098SOL     OW29929   0.909   0.077   4.887  0.1283 -0.3582 -0.3213
 6098SOL    HW129930   0.987   0.073   4.942 -1.3326  0.6608  1.8048
 6098SOL    HW229931   0.844   0.090   4.956 -1.6899  0.8281 -2.2698
 6099SOL     OW29932   1.242   1.103   4.919 -0.4941  0.5490 -0.2734
 6099SOL    HW129933   1.262   1.075   4.829  0.5387 -0.4576  0.2688
 6099SOL    HW229934   1.247   1.199   4.917  1.2499  0.4896  1.3864
 6100SOL     OW29935   4.667   2.916   7.995  0.5371 -0.0421  0.2063
 6100SOL    HW129936   4.585   2.965   8.005 -0.0785 -1.5499  2.6386
 6100SOL    HW229937   4.669   2.886   7.905 -0.3225  3.8997 -1.1186
 6101SOL     OW29938   4.641   0.524   4.074 -0.2776  0.1256  0.2190
 6101SOL    HW129939   4.591   0.443   4.069 -0.5120  0.3576 -1.1720
 6101SOL    HW229940   4.579   0.588   4.040 -0.6971 -0.0651  0.6293
 6102SOL     OW29941   2.343   4.629   6.621  0.3443  0.3382  0.2048
 6102SOL    HW129942   2.271   4.570   6.646 -2.0491  2.4821 -1.6913
 6102SOL    HW229943   2.303   4.714   6.640 -0.0649 -0.3923  2.6095
 6103SOL     OW29944   1.670   2.129   3.943 -0.8237  0.0821  0.7734
 6103SOL    HW129945   1.740   2.076   3.981  0.5167  0.9235 -0.5461
 6103SOL    HW229946   1.714   2.199   3.896 -3.4416  1.1203 -0.1026
 6104SOL     OW29947   2.258   4.515  15.364 -0.2802 -0.2652 -0.1820
 6104SOL    HW129948   2.309   4.595  15.350 -2.7470  0.9296 -2.2513
 6104SOL    HW229949   2.305   4.468  15.294 -1.1505  1.4932 -1.9358
 6105SOL     OW29950   0.725   1.729   6.277 -0.2693 -0.7763  0.3250
 6105SOL    HW129951   0.735   1.724   6.372 -0.8243 -0.8402  0.3811
 6105SOL    HW229952   0.814   1.726   6.243 -0.6284  1.1820 -0.8134
 6106SOL     OW29953   4.389   1.163  12.013  0.7635  0.0808  0.4055
 6106SOL    HW129954   4.334   1.241  12.026  1.1138  0.2470  0.8765
 6106SOL    HW229955   4.473   1.206  11.997  0.3494  0.9057  0.4178
 6107SOL     OW29956   3.917   2.941   6.728 -0.0070  0.5514 -0.0700
 6107SOL    HW129957   3.874   2.862   6.696  1.0820 -0.3510  0.6931
 6107SOL    HW229958   3.928   2.909   6.817 -1.5380 -0.4265 -0.2352
 6108SOL     OW29959   2.610   1.232   3.050  0.4942 -0.0032 -0.1388
 6108SOL    HW129960   2.673   1.196   2.987  1.6376 -1.1442  1.6661
 6108SOL    HW229961   2.621   1.165   3.118 -0.5595  1.5038  1.5148
 6109SOL     OW29962   1.368   3.319  17.461 -0.5779 -0.3860  0.0275
 6109SOL    HW129963   1.389   3.299  17.369 -0.0597  0.9162 -0.1396
 6109SOL    HW229964   1.326   3.241  17.498 -0.6565  0.0853  0.9241
 6110SOL     OW29965   4.227   4.634   1.954 -0.2741  0.8291 -0.3967
 6110SOL    HW129966   4.165   4.695   1.916 -0.7478  1.4673  1.3710
 6110SOL    HW229967   4.303   4.652   1.900  0.4095 -0.7727  0.0066
 6111SOL     OW29968   2.347   0.471   9.718  0.1415  0.4994 -0.2464
 6111SOL    HW129969   2.415   0.538   9.713 -1.2139  1.8699 -0.3396
 6111SOL    HW229970   2.264   0.511   9.693  1.3375  2.5620 -0.9236
 6112SOL     OW29971   0.012   4.567  10.100 -0.8481  0.0854 -0.1015
 6112SOL    HW129972   0.046   4.548  10.013  1.9838  1.0961  0.7842
 6112SOL    HW229973   0.088   4.606  10.145 -0.1903 -1.3136 -0.0008
 6113SOL     OW29974   0.825   1.342   2.859  0.1319  0.6270 -0.2745
 6113SOL    HW129975   0.829   1.247   2.859 -1.3567  0.5555 -1.1062
 6113SOL    HW229976   0.887   1.364   2.929  0.5817  0.2599 -0.5654
 6114SOL     OW29977   4.684   1.318   7.562  0.0974  0.2124  0.3074
 6114SOL    HW129978   0.041   1.329   7.534  0.3147 -0.2056  0.8680
 6114SOL    HW229979   4.667   1.225   7.545  1.2319  0.1275 -0.3443
 6115SOL     OW29980   4.645   4.282  12.631 -0.0675  0.0772  0.2917
 6115SOL    HW129981   4.732   4.322  12.628  0.0297 -0.1830 -0.2748
 6115SOL    HW229982   4.610   4.300  12.543 -0.8308  1.7478  0.9290
 6116SOL     OW29983   3.934   2.410  15.951 -0.0618 -0.4794 -0.0333
 6116SOL    HW129984   3.907   2.498  15.924 -3.2139 -0.8734  1.9367
 6116SOL    HW229985   3.992   2.396  15.875 -0.3313  0.3082 -0.3801
 6117SOL     OW29986   3.708   1.080   8.546 -0.4007 -0.5216 -0.1110
 6117SOL    HW129987   3.759   1.085   8.465 -0.8434 -0.1131 -0.3630
 6117SOL    HW229988   3.685   1.173   8.547 -1.1132 -0.6828 -1.2848
 6118SOL     OW29989   1.705   3.175   4.155 -0.3285  0.1939  0.2521
 6118SOL    HW129990   1.709   3.270   4.144 -2.3938  0.2637  0.1068
 6118SOL    HW229991   1.794   3.140   4.144 -0.0739  0.9185  0.0178
 6119SOL     OW29992   0.223   4.494   7.265 -0.3442 -0.2496 -0.2560
 6119SOL    HW129993   0.260   4.477   7.351  2.7134  2.5278 -0.9793
 6119SOL    HW229994   0.163   4.421   7.258 -0.8775  0.1506  0.1430
 6120SOL     OW29995   3.912   4.530  13.310 -0.4228 -0.0059  0.5691
 6120SOL    HW129996   3.885   4.485  13.230  0.0437  0.1516  0.3198
 6120SOL    HW229997   3.918   4.456  13.371  0.5339  0.9249  1.6052
 6121SOL     OW29998   1.624   3.320   8.291  0.0999 -0.5225 -0.6054
 6121SOL    HW129999   1.542   3.288   8.329  0.7008  0.1727  1.2606
 6121SOL    HW230000   1.664   3.237   8.264  1.2119 -0.2385  0.1807
 6122SOL     OW30001   3.205   0.357   8.123 -0.3549  0.4910  0.0047
 6122SOL    HW130002   3.122   0.340   8.078  0.1291  0.8790 -1.0554
 6122SOL    HW230003   3.220   0.280   8.176 -2.2570 -0.0138 -0.1709
 6123SOL     OW30004   2.478   0.262  14.777  0.6413  0.2150  0.3136
 6123SOL    HW130005   2.571   0.267  14.798  0.6010 -3.1108  1.2828
 6123SOL    HW230006   2.452   0.354  14.778  2.3358  0.6799  0.4896
 6124SOL     OW30007   3.360   0.863   8.586 -0.2901 -0.1308  0.1042
 6124SOL    HW130008   3.331   0.939   8.536  2.1560  0.0438 -1.0587
 6124SOL    HW230009   3.340   0.901   8.672 -1.4610 -1.9103  0.6154
 6125SOL     OW30010   0.878   4.338   8.807  0.1891  0.3814 -0.3115
 6125SOL    HW130011   0.860   4.269   8.871  0.4506  1.5339  1.0350
 6125SOL    HW230012   0.828   4.412   8.842  2.1038  0.1943  2.8668
 6126SOL     OW30013   1.939   2.652   7.759  0.0388  0.1413  0.9213
 6126SOL    HW130014   1.901   2.699   7.685  0.8743 -0.7648 -0.0709
 6126SOL    HW230015   1.869   2.594   7.789  1.4736 -0.6754  2.6875
 6127SOL     OW30016   3.715   3.748   8.465 -0.2324  0.0933  0.2887
 6127SOL    HW130017   3.806   3.777   8.453 -0.9398  1.4898 -1.6100
 6127SOL    HW230018   3.724   3.710   8.553 -0.0613  0.3312  0.3755
 6128SOL     OW30019   4.084   3.554  13.446  0.4636  0.5335  0.4790
 6128SOL    HW130020   4.135   3.590  13.518  0.7530  0.3225  0.3800
 6128SOL    HW230021   4.004   3.574  13.495 -0.7290 -3.8015  0.2633
 6129SOL     OW30022   0.332   4.086   6.818  1.3384 -0.2641 -0.3314
 6129SOL    HW130023   0.287   4.171   6.823 -0.4430 -1.3782  2.7723
 6129SOL    HW230024   0.421   4.109   6.844  0.8458 -1.7486  2.5871
 6130SOL     OW30025   1.321   1.042  11.699  0.1792 -0.2222  0.0231
 6130SOL    HW130026   1.381   0.967  11.706  0.8841  0.4782  1.3987
 6130SOL    HW230027   1.246   0.990  11.669 -0.6601 -0.1472  2.0226
 6131SOL     OW30028   2.798   1.592  14.409  0.1755  0.0051  0.5058
 6131SOL    HW130029   2.812   1.507  14.451 -2.1568 -0.8470 -0.4605
 6131SOL    HW230030   2.845   1.562  14.331 -2.2475 -0.9011 -0.5968
 6132SOL     OW30031   2.476   4.676  15.429 -0.2410  0.4290 -0.1450
 6132SOL    HW130032   2.512   0.013  15.481  1.3977 -1.6604  1.6129
 6132SOL    HW230033   2.515   4.595  15.461  2.5112  1.7183 -0.2632
 6133SOL     OW30034   3.876   2.288   8.103  0.5180 -0.5246 -0.2045
 6133SOL    HW130035   3.953   2.246   8.065  0.5856 -0.4699 -0.1294
 6133SOL    HW230036   3.898   2.289   8.196 -1.3743 -0.9008  0.2519
 6134SOL     OW30037   3.188   2.773   7.643  0.1883  0.0170  0.5776
 6134SOL    HW130038   3.225   2.837   7.581  1.3936 -0.5060  0.7411
 6134SOL    HW230039   3.097   2.798   7.631  0.6240  0.6738 -1.4468
 6135SOL     OW30040   4.144   0.983   8.051  0.0717  0.0346  0.2460
 6135SOL    HW130041   4.143   0.898   8.008 -1.9398  0.7180 -1.0536
 6135SOL    HW230042   4.178   0.964   8.138  0.5166 -1.1441 -0.1797
 6136SOL     OW30043   3.386   0.338   8.373 -0.3402 -0.2490  0.0691
 6136SOL    HW130044   3.380   0.412   8.313  2.0757  0.5253  0.7818
 6136SOL    HW230045   3.415   0.273   8.308 -1.9190  0.3828 -1.2706
 6137SOL     OW30046   0.222   1.371   1.517  0.0563  0.0562  0.1018
 6137SOL    HW130047   0.157   1.434   1.485  1.7914  0.3655 -2.8332
 6137SOL    HW230048   0.258   1.340   1.434 -2.3833 -0.0496 -0.8963
 6138SOL     OW30049   2.730   2.758   4.434  0.1936  0.8591  0.4903
 6138SOL    HW130050   2.784   2.686   4.401 -0.2879 -0.3064  2.2346
 6138SOL    HW230051   2.802   2.822   4.440 -0.1804  1.2904  0.3576
 6139SOL     OW30052   4.327   4.488   9.065  0.2986 -0.3432  0.0282
 6139SOL    HW130053   4.352   4.496   8.972  2.2022 -1.1902  0.4660
 6139SOL    HW230054   4.341   4.394   9.081 -0.8454 -0.9385 -2.4285
 6140SOL     OW30055   1.336   1.899  17.696 -0.5009 -0.3441  0.2383
 6140SOL    HW130056   1.303   1.965  17.635 -2.6116 -1.9625 -0.3514
 6140SOL    HW230057   1.317   1.818  17.649  2.3803 -0.2402 -1.1178
 6141SOL     OW30058   4.647   3.810   2.526 -0.1436 -0.3640 -0.4102
 6141SOL    HW130059   4.725   3.855   2.555  0.2512 -3.1889  2.9542
 6141SOL    HW230060   4.631   3.860   2.446  0.0454 -0.7832 -0.7109
 6142SOL     OW30061   4.002   1.478   2.162 -0.7909  0.1198  0.2131
 6142SOL    HW130062   3.978   1.392   2.125 -0.6056 -0.4607  1.4496
 6142SOL    HW230063   3.960   1.540   2.103 -0.3773 -0.0899 -0.3106
 6143SOL     OW30064   0.813   4.689   9.152 -0.6004 -0.5988 -0.1347
 6143SOL    HW130065   0.893   4.637   9.152  1.4629  2.6013  0.2508
 6143SOL    HW230066   0.757   4.641   9.215  1.2673 -0.2600  1.7879
 6144SOL     OW30067   3.250   2.912  17.023  0.8080 -0.1467  0.1044
 6144SOL    HW130068   3.248   2.857  16.945 -1.7246 -1.3298  1.0217
 6144SOL    HW230069   3.308   2.986  17.002  1.9420 -1.5732 -1.8438
 6145SOL     OW30070   3.003   1.604   4.860 -0.0536  0.2969  0.0750
 6145SOL    HW130071   3.013   1.564   4.774  0.3466 -0.1750  0.3416
 6145SOL    HW230072   3.082   1.575   4.905 -0.8399 -0.0416  1.2414
 6146SOL     OW30073   2.543   0.505  13.221 -0.4756 -0.1424  0.0619
 6146SOL    HW130074   2.458   0.470  13.197 -1.0729  1.9209 -0.8128
 6146SOL    HW230075   2.597   0.426  13.216 -1.8520 -1.1724  1.5129
 6147SOL     OW30076   0.701   4.074   7.496  0.1065 -0.0975 -0.0512
 6147SOL    HW130077   0.743   4.154   7.465  0.3461  0.0426  0.6402
 6147SOL    HW230078   0.607   4.090   7.486 -0.4660 -2.5650  1.2488
 6148SOL     OW30079   1.463   1.181   7.230  0.8533  0.2911  0.1572
 6148SOL    HW130080   1.416   1.165   7.149 -0.1868  0.7624  0.6755
 6148SOL    HW230081   1.405   1.226   7.291 -0.2312  0.0073 -0.6695
 6149SOL     OW30082   2.285   4.285  15.728 -0.4461  0.2580  0.1459
 6149SOL    HW130083   2.346   4.230  15.678  1.9096  2.4858  0.5644
 6149SOL    HW230084   2.355   4.330  15.775  1.1407  1.7208 -3.6256
 6150SOL     OW30085   0.527   0.359   1.769  0.3391 -0.0748  0.5900
 6150SOL    HW130086   0.515   0.266   1.753 -0.5011  0.2231 -0.4849
 6150SOL    HW230087   0.439   0.395   1.779  0.0929 -0.9309  1.5467
 6151SOL     OW30088   1.887   1.523   2.110  0.2636 -0.1767  0.4063
 6151SOL    HW130089   1.894   1.549   2.018 -0.6531 -1.4989 -0.0348
 6151SOL    HW230090   1.806   1.574   2.124  1.2314  1.2237  0.9280
 6152SOL     OW30091   0.286   3.828   1.510  0.0110 -0.0155 -0.5058
 6152SOL    HW130092   0.228   3.898   1.541 -0.2631 -0.4485 -0.0351
 6152SOL    HW230093   0.277   3.824   1.415 -2.3618 -0.5591 -0.2622
 6153SOL     OW30094   0.868   2.077   9.030  0.0985 -0.5152 -0.1708
 6153SOL    HW130095   0.919   2.156   9.012 -1.2443  0.4480  0.2419
 6153SOL    HW230096   0.874   2.033   8.946 -2.5317  0.2757 -0.7929
 6154SOL     OW30097   3.593   3.301   4.561  0.4505  0.2727 -0.0031
 6154SOL    HW130098   3.678   3.309   4.518  1.9935 -2.2069  2.5595
 6154SOL    HW230099   3.554   3.222   4.523  0.1672  0.7529 -0.6934
 6155SOL     OW30100   2.471   3.564  11.533  0.3142 -0.0196 -0.3270
 6155SOL    HW130101   2.514   3.534  11.614  0.8611 -0.2709 -0.7072
 6155SOL    HW230102   2.538   3.551  11.466 -0.8293 -1.8075 -1.1142
 6156SOL     OW30103   4.136   0.259   3.774  0.4367 -0.0066  0.1026
 6156SOL    HW130104   4.052   0.214   3.771 -0.0961  0.8314  1.9775
 6156SOL    HW230105   4.189   0.185   3.803  1.9043  0.8384 -0.4040
 6157SOL     OW30106   4.723   3.605   1.107  0.1750  0.2491  0.3151
 6157SOL    HW130107   4.701   3.574   1.195 -0.1068  2.1036  0.8915
 6157SOL    HW230108   4.717   3.525   1.055  0.2162 -1.0817  2.3543
 6158SOL     OW30109   0.165   4.321   1.543  0.3259 -1.1734  0.1899
 6158SOL    HW130110   0.098   4.349   1.480  0.1696  0.8585  1.2637
 6158SOL    HW230111   0.155   4.227   1.531 -0.2864 -1.1689  0.7020
 6159SOL     OW30112   3.967   1.854   8.909  0.2960 -0.3187  0.8345
 6159SOL    HW130113   3.891   1.851   8.967  0.1621 -0.2772  0.6633
 6159SOL    HW230114   4.026   1.797   8.959  3.2520  1.7583 -0.2842
 6160SOL     OW30115   2.123   1.515   2.654 -0.2653  0.1623 -0.3241
 6160SOL    HW130116   2.184   1.451   2.690  0.0088  1.1395  0.9493
 6160SOL    HW230117   2.186   1.583   2.631  0.5916 -0.8584 -0.9849
 6161SOL     OW30118   1.343   0.030   4.911  0.3721  1.1050 -0.1861
 6161SOL    HW130119   1.432   0.002   4.933 -0.5385 -0.6374  1.3498
 6161SOL    HW230120   1.335   4.725   4.824  0.6014 -0.1308  0.3362
 6162SOL     OW30121   0.704   2.700   7.705  0.6612 -0.5456  0.2494
 6162SOL    HW130122   0.636   2.743   7.653  1.2777 -0.3087 -0.3660
 6162SOL    HW230123   0.666   2.715   7.792 -1.0247  1.9896 -0.9401
 6163SOL     OW30124   1.132   2.009   4.302 -0.4472  0.1760  0.0019
 6163SOL    HW130125   1.194   1.953   4.350 -2.2129  0.3729  2.5022
 6163SOL    HW230126   1.069   1.941   4.278  1.2034 -0.9841 -1.0672
 6164SOL     OW30127   1.056   4.017  16.953  0.3843 -0.3172 -0.1324
 6164SOL    HW130128   1.040   4.102  16.911  0.5763  0.2209  0.8835
 6164SOL    HW230129   1.143   4.003  16.916  0.2885  0.9841 -0.8702
 6165SOL     OW30130   1.610   4.085  13.977  0.7411  0.3210  0.0910
 6165SOL    HW130131   1.564   4.111  13.897 -0.2111 -0.0397  0.5228
 6165SOL    HW230132   1.560   4.127  14.046  0.0018  0.1014 -0.3149
 6166SOL     OW30133   3.867   3.983   7.556 -0.3958 -0.3466  0.3055
 6166SOL    HW130134   3.819   3.907   7.589 -1.4710  0.2805  0.1846
 6166SOL    HW230135   3.932   3.993   7.626  1.0605  0.5764 -1.1858
 6167SOL     OW30136   4.147   0.706  14.812 -0.5809  0.1447 -0.6628
 6167SOL    HW130137   4.206   0.718  14.886 -1.7331  0.3348  0.2296
 6167SOL    HW230138   4.061   0.717  14.852 -0.7983  0.4548 -1.2166
 6168SOL     OW30139   1.507   0.237   4.434  0.0357 -0.4006  0.3852
 6168SOL    HW130140   1.507   0.325   4.396  0.6360 -0.7266 -0.3649
 6168SOL    HW230141   1.584   0.203   4.389 -0.4463 -0.3864 -0.4665
 6169SOL     OW30142   0.486   3.896   4.715 -0.2767 -0.8422  0.3689
 6169SOL    HW130143   0.558   3.838   4.689  0.0733 -0.9206  1.5195
 6169SOL    HW230144   0.517   3.984   4.693  2.0039 -1.5429  0.7739
 6170SOL     OW30145   1.183   1.215   5.765 -0.1083  0.3063  0.5489
 6170SOL    HW130146   1.107   1.232   5.709  0.0515 -0.5050  0.0770
 6170SOL    HW230147   1.210   1.137   5.715 -1.0375 -0.1138  0.7085
 6171SOL     OW30148   0.752   0.879   8.964 -0.1429 -0.2128  0.2053
 6171SOL    HW130149   0.665   0.849   8.938 -0.7764  1.6749  0.1152
 6171SOL    HW230150   0.736   0.845   9.052 -1.2301  1.4591  0.6554
 6172SOL     OW30151   3.566   2.314   8.335 -0.4248 -0.3054  0.2188
 6172SOL    HW130152   3.633   2.383   8.329  0.0874 -0.6936  1.4945
 6172SOL    HW230153   3.528   2.316   8.247 -0.4226 -0.4335  0.2160
 6173SOL     OW30154   4.181   2.782   3.621  0.1021  0.1827 -0.6227
 6173SOL    HW130155   4.143   2.695   3.603 -0.2959  0.6277 -1.9735
 6173SOL    HW230156   4.236   2.752   3.694 -1.3971 -0.2770  0.3237
 6174SOL     OW30157   1.040   2.534  17.601 -0.1916  0.6345 -0.3631
 6174SOL    HW130158   1.064   2.599  17.668  0.3911 -1.8604  1.8711
 6174SOL    HW230159   1.079   2.572  17.523  0.7333 -1.2066 -0.7801
 6175SOL     OW30160   1.473   3.323  11.668 -0.3281 -0.6462  0.1066
 6175SOL    HW130161   1.476   3.367  11.753  1.7998 -1.4958  0.4942
 6175SOL    HW230162   1.559   3.281  11.670 -0.5020 -1.0266 -0.5206
 6176SOL     OW30163   0.346   3.492   5.879 -0.0003  0.2831  0.1122
 6176SOL    HW130164   0.407   3.540   5.935  0.0000  0.1520  0.2231
 6176SOL    HW230165   0.287   3.563   5.853 -1.0445 -0.6154  0.0233
 6177SOL     OW30166   1.715   4.029   8.130 -0.8567  0.1875 -0.1937
 6177SOL    HW130167   1.746   4.118   8.151  2.0412 -0.9658  0.3915
 6177SOL    HW230168   1.744   4.018   8.040  0.2501 -0.3163  0.2189
 6178SOL     OW30169   4.688   2.744   2.084  0.0855 -0.4066 -0.0071
 6178SOL    HW130170   4.705   2.667   2.031 -1.4006 -0.5459 -0.2875
 6178SOL    HW230171   4.622   2.707   2.143 -1.3691 -0.7018 -1.8521
 6179SOL     OW30172   1.794   0.505  15.730 -0.2466 -0.8052  0.2205
 6179SOL    HW130173   1.796   0.571  15.661 -3.8809  0.8098  1.6671
 6179SOL    HW230174   1.727   0.539  15.789  1.8846 -1.9701  3.3246
 6180SOL     OW30175   1.693   1.038   7.126  0.1206  0.1158 -0.4896
 6180SOL    HW130176   1.634   1.109   7.150 -0.7115 -1.0820  1.0226
 6180SOL    HW230177   1.771   1.093   7.121  0.1319  0.2151  0.8385
 6181SOL     OW30178   3.045   0.035   3.760  0.2879 -0.2273  0.0141
 6181SOL    HW130179   3.067   0.114   3.811  3.4387 -1.3716  0.4267
 6181SOL    HW230180   2.970   0.072   3.712  1.3802  1.6514 -0.2736
 6182SOL     OW30181   2.208   4.033   2.202 -0.1694  0.1065  0.1528
 6182SOL    HW130182   2.215   4.109   2.144 -2.2568 -0.1838 -0.4759
 6182SOL    HW230183   2.239   3.967   2.139  2.6385  1.7884 -0.2335
 6183SOL     OW30184   3.947   2.323   5.304 -0.1331  0.6508 -0.2611
 6183SOL    HW130185   3.889   2.275   5.363  0.4524 -0.2018 -0.3779
 6183SOL    HW230186   3.896   2.320   5.222  0.7839 -1.3802 -0.7670
 6184SOL     OW30187   1.916   4.494   9.850  0.0268  0.3289 -0.2816
 6184SOL    HW130188   1.872   4.552   9.789  0.6358  0.2424 -0.7984
 6184SOL    HW230189   1.980   4.450   9.795  0.9563  1.5577 -0.1834
 6185SOL     OW30190   1.968   2.672   8.186 -0.3064  0.5400 -0.8444
 6185SOL    HW130191   2.053   2.630   8.170  0.7571  1.1836  3.1323
 6185SOL    HW230192   1.989   2.752   8.137 -1.6262  2.8516  2.3288
 6186SOL     OW30193   2.517   3.509   6.442  0.5929  0.0051 -0.2637
 6186SOL    HW130194   2.451   3.572   6.472 -0.3889 -1.8682  1.5062
 6186SOL    HW230195   2.492   3.423   6.476 -0.7695  0.5921  0.2061
 6187SOL     OW30196   0.541   3.897  13.363 -0.3381 -0.2189  0.3338
 6187SOL    HW130197   0.592   3.908  13.443 -1.7211  2.2830  0.8526
 6187SOL    HW230198   0.465   3.953  13.373 -0.6914 -0.9626  1.7678
 6188SOL     OW30199   1.761   3.650  11.092  0.1894  0.5505  0.3305
 6188SOL    HW130200   1.749   3.744  11.100 -1.8608  0.4848 -2.1767
 6188SOL    HW230201   1.820   3.650  11.016  0.9300  0.5911  0.9011
 6189SOL     OW30202   3.775   2.177   1.924  0.5238 -0.5308 -0.4743
 6189SOL    HW130203   3.788   2.257   1.873  0.6918 -1.1135 -1.3452
 6189SOL    HW230204   3.857   2.183   1.973 -0.2991 -2.0089  1.0741
 6190SOL     OW30205   0.662   0.893   5.225 -0.2927  0.7640 -0.3126
 6190SOL    HW130206   0.688   0.824   5.164 -0.8870 -0.0348  0.3487
 6190SOL    HW230207   0.725   0.965   5.215  0.3022  0.5908  2.2009
 6191SOL     OW30208   1.963   0.109   8.808 -0.4164 -0.0804  0.2277
 6191SOL    HW130209   1.930   0.196   8.832  2.2274  0.7920  0.6603
 6191SOL    HW230210   2.051   0.128   8.839 -0.1191  0.8335 -1.1620
 6192SOL     OW30211   4.400   1.960   3.545 -0.9532  0.3112  0.2925
 6192SOL    HW130212   4.422   1.910   3.466 -0.7263 -0.1684  0.6576
 6192SOL    HW230213   4.447   2.041   3.526 -0.1301 -0.3145 -0.3691
 6193SOL     OW30214   0.949   2.370   2.108  0.6692  0.4243 -0.4591
 6193SOL    HW130215   1.044   2.382   2.110  0.7881 -0.1338 -2.6393
 6193SOL    HW230216   0.923   2.392   2.197 -0.7068  0.4075 -0.8492
 6194SOL     OW30217   3.463   2.401   7.437  0.6936 -0.5478  0.7899
 6194SOL    HW130218   3.476   2.354   7.519  0.6231  0.8590  1.6129
 6194SOL    HW230219   3.508   2.484   7.452 -0.3909 -0.1956  2.1361
 6195SOL     OW30220   3.310   3.168   8.887 -0.0744 -0.4730 -0.1008
 6195SOL    HW130221   3.283   3.082   8.854 -0.8512 -0.0744 -0.5033
 6195SOL    HW230222   3.245   3.187   8.954 -0.2066  0.2032 -0.4258
 6196SOL     OW30223   1.385   4.454   1.760 -0.0095  0.4605 -0.7120
 6196SOL    HW130224   1.328   4.493   1.694 -3.0617 -2.0918  0.4149
 6196SOL    HW230225   1.364   4.363   1.741 -1.6012  0.4101  1.3095
 6197SOL     OW30226   3.565   4.263   8.759  0.4191  0.1101 -0.2433
 6197SOL    HW130227   3.559   4.253   8.854  0.2380  0.9246 -0.1663
 6197SOL    HW230228   3.480   4.231   8.729 -1.0857  4.6190 -0.8459
 6198SOL     OW30229   3.839   0.990  13.424  0.1062 -0.1924  0.5340
 6198SOL    HW130230   3.839   0.981  13.328  0.1654  0.5585  0.4649
 6198SOL    HW230231   3.854   1.084  13.431  0.1422 -0.3225  2.0330
 6199SOL     OW30232   4.021   0.780   6.904  0.2482 -0.2183  0.1966
 6199SOL    HW130233   3.973   0.798   6.823  1.8538 -0.0580 -0.7200
 6199SOL    HW230234   3.944   0.785   6.960  0.3374  2.0676  0.1235
 6200SOL     OW30235   1.434   3.303   8.662  0.0743 -0.3766  0.0345
 6200SOL    HW130236   1.360   3.288   8.603 -0.5740 -0.6555  0.9111
 6200SOL    HW230237   1.394   3.306   8.749  0.1024  2.2078 -0.0453
 6201SOL     OW30238   2.607   2.171  17.002 -0.7183  0.1495  0.0901
 6201SOL    HW130239   2.611   2.211  16.915 -4.1821 -1.1246 -0.6452
 6201SOL    HW230240   2.616   2.259  17.040 -0.3947 -0.3226  1.0872
 6202SOL     OW30241   1.870   1.240   3.913  0.0075  0.6062 -0.0056
 6202SOL    HW130242   1.895   1.165   3.859 -1.1672  1.0077 -1.1151
 6202SOL    HW230243   1.870   1.193   3.997  0.4146 -0.1991 -0.4596
 6203SOL     OW30244   1.231   0.877   0.735 -0.1408  0.1127  0.1208
 6203SOL    HW130245   1.161   0.848   0.793 -0.1860 -3.1843 -1.5962
 6203SOL    HW230246   1.302   0.821   0.768 -1.8976 -2.1670  0.0187
 6204SOL     OW30247   3.672   0.544   4.778  0.2460  0.1684  0.7187
 6204SOL    HW130248   3.754   0.534   4.730 -1.4256  2.9840 -2.7138
 6204SOL    HW230249   3.638   0.631   4.758  0.7362 -0.0344 -0.9536
 6205SOL     OW30250   1.833   1.206   2.318  0.4216 -0.0456 -0.0744
 6205SOL    HW130251   1.746   1.244   2.304 -0.4013 -1.9799 -0.2282
 6205SOL    HW230252   1.879   1.287   2.336  1.5121 -0.2847 -1.7376
 6206SOL     OW30253   3.369   0.297   3.717 -0.0069 -0.1533 -0.0366
 6206SOL    HW130254   3.455   0.319   3.682 -0.9653  2.7137 -0.5907
 6206SOL    HW230255   3.320   0.306   3.635  1.1686  0.3098 -0.6839
 6207SOL     OW30256   3.610   2.628   7.506  0.0138 -0.3941  0.1921
 6207SOL    HW130257   3.621   2.614   7.600  3.0700 -1.1903 -0.2869
 6207SOL    HW230258   3.699   2.638   7.471 -0.6234  0.1945 -1.2805
 6208SOL     OW30259   1.914   1.609   5.989 -0.2979 -0.0419  0.2978
 6208SOL    HW130260   1.933   1.515   5.983 -1.0614 -0.3121  2.3018
 6208SOL    HW230261   1.928   1.623   5.895 -2.7100  0.2344 -0.0069
 6209SOL     OW30262   3.400   3.998  12.492 -0.3986  0.2153 -0.2424
 6209SOL    HW130263   3.485   4.029  12.460 -0.5259  1.5615  0.7141
 6209SOL    HW230264   3.357   4.014  12.408 -1.6913 -0.0985  0.3667
 6210SOL     OW30265   4.001   4.553  13.778 -0.0632 -0.5265 -0.6875
 6210SOL    HW130266   4.090   4.539  13.811 -0.7668 -1.3525  0.7943
 6210SOL    HW230267   3.960   4.599  13.851  0.6473 -0.1704 -0.5088
 6211SOL     OW30268   0.710   2.167   5.074  0.2204 -0.1864  0.1698
 6211SOL    HW130269   0.685   2.105   5.142  0.6987  0.0344  0.5492
 6211SOL    HW230270   0.651   2.237   5.104  0.5870  0.2292 -0.0762
 6212SOL     OW30271   4.229   3.125  15.476 -0.2559 -0.0898  0.6278
 6212SOL    HW130272   4.215   3.064  15.403  2.0654 -0.8570  0.8176
 6212SOL    HW230273   4.264   3.202  15.432 -0.6354 -0.0661  0.3680
 6213SOL     OW30274   0.769   2.606   3.803  0.1077 -1.2514  0.0243
 6213SOL    HW130275   0.686   2.636   3.766 -0.3191 -0.4513  1.6085
 6213SOL    HW230276   0.742   2.596   3.895  0.8327  0.3193  0.4041
 6214SOL     OW30277   4.697   4.133  14.492  0.4870  0.2621 -0.2482
 6214SOL    HW130278   0.058   4.126  14.490  0.5404  0.6810  0.8051
 6214SOL    HW230279   4.683   4.062  14.555 -2.0901  1.2967  0.3257
 6215SOL     OW30280   0.244   2.583   4.685 -0.0476  0.0130  0.1501
 6215SOL    HW130281   0.288   2.649   4.632 -0.8942  1.5657  1.3884
 6215SOL    HW230282   0.174   2.566   4.622  0.6030  2.8326 -1.3131
 6216SOL     OW30283   4.699   3.248   3.278  0.0709  0.2517  0.4370
 6216SOL    HW130284   4.672   3.247   3.369 -1.4390  0.1447 -0.0094
 6216SOL    HW230285   0.055   3.217   3.277  1.0477  3.0820 -0.6084
 6217SOL     OW30286   0.490   3.514   6.296 -0.7412 -0.5251  0.6797
 6217SOL    HW130287   0.487   3.544   6.387 -2.0762  0.8080  0.1858
 6217SOL    HW230288   0.551   3.440   6.285 -1.7895 -1.3460  0.3962
 6218SOL     OW30289   3.693   4.592  10.072 -0.6078  0.4915  0.5091
 6218SOL    HW130290   3.636   4.634  10.136  0.7939  0.6558  1.6409
 6218SOL    HW230291   3.762   4.561  10.131  0.3004  0.9132 -0.3489
 6219SOL     OW30292   3.795   2.196  13.195  0.6258  0.2961 -0.5132
 6219SOL    HW130293   3.830   2.223  13.280  1.4823 -1.6845 -0.2326
 6219SOL    HW230294   3.719   2.254  13.196  0.4248  0.0185  1.3782
 6220SOL     OW30295   4.370   0.645   1.651 -0.5367 -0.2251 -0.6277
 6220SOL    HW130296   4.302   0.626   1.715  0.6752  1.1154  1.0553
 6220SOL    HW230297   4.355   0.573   1.590 -1.6214 -0.2835 -0.2864
 6221SOL     OW30298   4.111   2.502   6.648  0.0522  0.3164 -0.7982
 6221SOL    HW130299   4.171   2.564   6.607 -0.6682  0.9754 -0.8682
 6221SOL    HW230300   4.174   2.435   6.674 -0.7523  0.8922  2.6268
 6222SOL     OW30301   3.406   3.392   9.145 -0.2482 -0.4241 -0.0961
 6222SOL    HW130302   3.500   3.385   9.163 -0.5335  0.7388  1.7743
 6222SOL    HW230303   3.407   3.488   9.139  1.0424 -0.4115  0.2274
 6223SOL     OW30304   3.821   2.019   6.802  0.3617  0.1384  0.0354
 6223SOL    HW130305   3.830   2.071   6.882 -1.1071 -0.8504  0.8307
 6223SOL    HW230306   3.727   2.032   6.788  0.7546  2.9366 -0.0430
 6224SOL     OW30307   2.596   0.518   9.456 -0.0786 -0.1577 -0.3931
 6224SOL    HW130308   2.560   0.598   9.493  2.7140  1.1493 -0.5323
 6224SOL    HW230309   2.636   0.547   9.375  0.8819 -0.2468  0.0422
 6225SOL     OW30310   2.296   1.486   6.133  0.2131 -0.3365 -0.2519
 6225SOL    HW130311   2.311   1.404   6.086  0.5547  0.7143 -1.9716
 6225SOL    HW230312   2.290   1.448   6.221 -1.3701 -0.6104 -0.4913
 6226SOL     OW30313   1.071   1.447   2.250 -0.6914  0.0740  0.4660
 6226SOL    HW130314   1.041   1.369   2.297  1.0419 -2.5160 -2.7548
 6226SOL    HW230315   1.038   1.426   2.163  1.1803 -2.2498  0.2959
 6227SOL     OW30316   2.530   0.087   6.813 -0.4595  0.5977  0.1863
 6227SOL    HW130317   2.596   0.101   6.745 -2.6742  0.0039 -2.0396
 6227SOL    HW230318   2.504   4.729   6.817  1.8784 -0.1335 -1.0782
 6228SOL     OW30319   0.420   0.024   6.962 -0.2798 -0.1934  0.2481
 6228SOL    HW130320   0.421   0.004   7.056 -0.1726 -1.9400 -0.1239
 6228SOL    HW230321   0.511   0.012   6.933 -0.5637 -0.5698 -0.4845
 6229SOL     OW30322   0.133   0.151   8.835 -0.2151 -0.2437 -0.7302
 6229SOL    HW130323   0.154   0.161   8.742  1.7390  0.6957 -0.1838
 6229SOL    HW230324   0.050   0.197   8.846 -0.1701  0.4877 -3.4292
 6230SOL     OW30325   3.943   0.958   6.641 -0.1054  0.1194  0.5974
 6230SOL    HW130326   3.895   0.916   6.570  2.3423 -0.1715 -0.8834
 6230SOL    HW230327   4.033   0.959   6.609 -0.4761  2.3516 -0.3857
 6231SOL     OW30328   2.762   1.706   9.020 -0.8579 -0.0417  0.2726
 6231SOL    HW130329   2.670   1.692   9.002 -1.1651 -0.6670  2.3185
 6231SOL    HW230330   2.785   1.630   9.073 -1.0696 -0.8779 -0.8314
 6232SOL     OW30331   4.373   1.812   7.914  0.1664  0.2022  0.8254
 6232SOL    HW130332   4.349   1.883   7.974 -1.9885 -1.2931  1.7523
 6232SOL    HW230333   4.381   1.855   7.829  1.0000  0.6697  1.1486
 6233SOL     OW30334   2.622   1.547   7.341 -0.6227  0.8272  0.1114
 6233SOL    HW130335   2.590   1.614   7.280 -0.0714  0.2857 -0.7804
 6233SOL    HW230336   2.695   1.588   7.387 -2.5860  1.2529  2.8544
 6234SOL     OW30337   4.412   3.467   9.345  1.1076 -0.1440 -0.0623
 6234SOL    HW130338   4.494   3.465   9.395  0.2325 -0.3536  1.3928
 6234SOL    HW230339   4.443   3.422   9.267  1.3821  0.9276 -0.5567
 6235SOL     OW30340   2.316   1.665  11.916 -0.1682  0.2577 -0.1786
 6235SOL    HW130341   2.243   1.710  11.960 -1.1468  1.6871 -3.2404
 6235SOL    HW230342   2.372   1.737  11.885 -0.3765  0.6298  0.3009
 6236SOL     OW30343   2.352   1.232  14.782  0.7846  0.2198  0.0449
 6236SOL    HW130344   2.387   1.320  14.767 -1.2480  1.1789  0.8314
 6236SOL    HW230345   2.327   1.245  14.874 -1.1024 -3.1896  0.0033
 6237SOL     OW30346   2.989   2.704   8.456  0.5545 -0.0990 -0.4796
 6237SOL    HW130347   3.031   2.703   8.370  2.1101  2.2386  0.2583
 6237SOL    HW230348   3.031   2.780   8.496  0.6448 -0.2353 -0.3128
 6238SOL     OW30349   4.591   2.450   6.748  0.0905 -0.3405  0.3728
 6238SOL    HW130350   4.585   2.533   6.796  1.1376 -0.8151  1.3280
 6238SOL    HW230351   4.650   2.400   6.805  0.6281  0.2320  0.3240
 6239SOL     OW30352   3.573   0.886   2.193  0.6576  0.1892 -0.3265
 6239SOL    HW130353   3.618   0.848   2.268  0.5205 -0.0463 -0.3617
 6239SOL    HW230354   3.645   0.940   2.160 -0.9161  1.6520 -1.3176
 6240SOL     OW30355   4.700   3.971   2.314  0.1516 -0.2326  0.1695
 6240SOL    HW130356   0.022   3.900   2.282 -1.7607 -1.6581 -0.0399
 6240SOL    HW230357   0.031   4.017   2.367 -0.9741  1.0140  0.4594
 6241SOL     OW30358   0.244   1.156   3.633  0.2243 -0.3854  0.0980
 6241SOL    HW130359   0.179   1.086   3.628  0.4811 -0.7022  1.1217
 6241SOL    HW230360   0.177   1.218   3.663 -0.5973 -0.8155 -0.8389
 6242SOL     OW30361   1.452   4.282   6.930  0.4190 -0.0364  0.4833
 6242SOL    HW130362   1.458   4.271   7.025 -1.0730 -1.4730  0.4194
 6242SOL    HW230363   1.487   4.371   6.924  1.6636 -0.5369  0.4473
 6243SOL     OW30364   4.138   2.926   5.158 -0.4888 -0.2370  0.0149
 6243SOL    HW130365   4.198   2.878   5.215  0.5970  1.4390  0.2628
 6243SOL    HW230366   4.208   2.985   5.130 -1.9977  1.0748 -1.0240
 6244SOL     OW30367   1.996   3.383  12.429  0.3098 -0.5673 -0.4577
 6244SOL    HW130368   2.040   3.357  12.347  0.3858  0.0425 -0.6105
 6244SOL    HW230369   2.007   3.311  12.491 -1.0270  0.9122  1.5007
 6245SOL     OW30370   3.151   4.144   4.881 -0.0408  0.5661 -0.2186
 6245SOL    HW130371   3.156   4.144   4.785 -0.4667 -5.3724 -0.2363
 6245SOL    HW230372   3.115   4.233   4.883 -1.2781  0.1138 -1.8892
 6246SOL     OW30373   2.923   2.101   5.002 -0.1586 -0.2459  0.2524
 6246SOL    HW130374   2.919   2.005   4.993 -1.8404 -0.2354  0.8020
 6246SOL    HW230375   2.877   2.130   4.923  2.0203  3.2552  0.2981
 6247SOL     OW30376   2.918   4.282  14.667 -0.5487  0.2258 -0.2338
 6247SOL    HW130377   2.886   4.296  14.578  0.2310 -0.2812 -0.5997
 6247SOL    HW230378   2.856   4.222  14.708  0.5517  0.4807  1.7811
 6248SOL     OW30379   0.852   2.310  11.236 -0.4855 -0.0676  0.5130
 6248SOL    HW130380   0.929   2.269  11.274 -1.2713 -0.0142  2.1607
 6248SOL    HW230381   0.850   2.394  11.282 -0.9773  0.3194 -0.2195
 6249SOL     OW30382   3.185   3.380   4.347  0.2724  0.1776  0.3717
 6249SOL    HW130383   3.257   3.358   4.288 -0.2932 -1.3960  0.2843
 6249SOL    HW230384   3.184   3.476   4.342 -1.2623  0.0732 -1.4670
 6250SOL     OW30385   2.512   3.018   7.346  0.0239  0.3065  0.3391
 6250SOL    HW130386   2.593   3.069   7.345  0.6233 -0.6497  1.0276
 6250SOL    HW230387   2.547   2.943   7.300 -0.8782  1.0606 -1.5921
 6251SOL     OW30388   1.178   2.953  12.078  0.4418 -0.1600  0.1136
 6251SOL    HW130389   1.210   2.989  12.161 -0.3302 -2.5837  1.4449
 6251SOL    HW230390   1.095   2.923  12.115  0.9460  1.0749  2.2184
 6252SOL     OW30391   4.614   3.732   4.389 -0.0589  0.5192  0.6440
 6252SOL    HW130392   4.645   3.736   4.480 -1.1308 -0.3419  1.0412
 6252SOL    HW230393   4.526   3.765   4.406 -0.6906 -0.5357 -0.6066
 6253SOL     OW30394   3.764   2.479  15.300  0.0277  0.3979  0.7389
 6253SOL    HW130395   3.761   2.436  15.386 -1.2469 -1.6387 -0.3042
 6253SOL    HW230396   3.699   2.433  15.246  0.9248 -0.7233  0.6098
 6254SOL     OW30397   3.255   0.527  14.144  0.3462 -0.6089  0.7760
 6254SOL    HW130398   3.225   0.608  14.102  0.9435  0.0734  1.6662
 6254SOL    HW230399   3.213   0.463  14.086 -0.1582 -1.6908  2.3375
 6255SOL     OW30400   0.318   3.570  16.278  0.0167  0.1176 -0.4186
 6255SOL    HW130401   0.228   3.573  16.246  0.0988 -1.6189 -0.8563
 6255SOL    HW230402   0.366   3.601  16.201 -1.2690  4.6080  0.6374
 6256SOL     OW30403   0.149   3.092   5.412 -0.0320  0.0886  0.0373
 6256SOL    HW130404   0.237   3.055   5.421 -0.0139  0.2945  0.7114
 6256SOL    HW230405   0.133   3.078   5.319 -1.6727 -2.3308  0.6632
 6257SOL     OW30406   2.787   1.494   6.978 -0.0235 -0.1184  0.2989
 6257SOL    HW130407   2.848   1.524   7.045  2.8985  0.7666 -2.8018
 6257SOL    HW230408   2.715   1.555   6.995 -1.8842 -1.8507 -1.4157
 6258SOL     OW30409   0.832   4.187  11.628  0.5907 -0.2955  0.1888
 6258SOL    HW130410   0.798   4.121  11.567  3.7364 -1.4168 -0.3375
 6258SOL    HW230411   0.750   4.229  11.654  1.3537  1.4274 -0.2512
 6259SOL     OW30412   3.257   0.338  16.206 -0.4637  0.0523 -0.4431
 6259SOL    HW130413   3.269   0.345  16.111 -0.7892 -2.4892 -0.6564
 6259SOL    HW230414   3.175   0.386  16.216 -0.3025  0.4683 -1.0468
 6260SOL     OW30415   3.612   4.081   0.877  0.1030  1.5993 -0.1682
 6260SOL    HW130416   3.611   4.031   0.795  2.6105  0.7437  0.3327
 6260SOL    HW230417   3.564   4.157   0.845  1.4404  2.2272 -0.6569
 6261SOL     OW30418   4.306   4.109   5.640 -0.0386  0.3723 -0.0380
 6261SOL    HW130419   4.230   4.167   5.633 -0.0896  0.2283 -0.6507
 6261SOL    HW230420   4.369   4.153   5.582 -0.0738 -1.7072 -1.6300
 6262SOL     OW30421   0.857   2.276   8.307 -0.2926 -0.1289 -0.3588
 6262SOL    HW130422   0.850   2.211   8.237 -1.5742  0.9679 -1.2566
 6262SOL    HW230423   0.937   2.241   8.346 -0.1295  0.8388  0.1809
 6263SOL     OW30424   4.218   1.142   1.783 -0.5162  0.2769 -0.3841
 6263SOL    HW130425   4.243   1.112   1.696  1.8428  0.0569  0.3805
 6263SOL    HW230426   4.256   1.068   1.830  2.1538  0.9745 -1.4633
 6264SOL     OW30427   2.554   1.583  11.836 -0.1653  0.3328  0.3940
 6264SOL    HW130428   2.586   1.647  11.772 -1.6361  0.0041 -0.6748
 6264SOL    HW230429   2.465   1.614  11.854 -1.0261 -1.2607 -1.0530
 6265SOL     OW30430   3.861   0.249  15.785  0.7084 -0.1983 -0.1639
 6265SOL    HW130431   3.785   0.280  15.737  1.2938 -0.0641 -0.9995
 6265SOL    HW230432   3.918   0.240  15.709  0.6051 -0.4339 -0.2131
 6266SOL     OW30433   1.983   0.560   6.175 -0.4431 -0.1828  0.2988
 6266SOL    HW130434   1.983   0.631   6.112 -3.0953 -0.4066  0.0280
 6266SOL    HW230435   1.888   0.551   6.190 -0.4287  1.2573  1.2512
 6267SOL     OW30436   2.776   0.750   3.284 -0.3854  0.2749  0.3274
 6267SOL    HW130437   2.832   0.753   3.361 -1.5153 -0.9948  1.2069
 6267SOL    HW230438   2.717   0.681   3.315  0.9779  0.4834  3.3284
 6268SOL     OW30439   3.009   2.787   3.250  0.6547  0.4984  0.4209
 6268SOL    HW130440   3.031   2.863   3.197  0.4922  0.0587 -0.2736
 6268SOL    HW230441   2.981   2.834   3.329  0.4967  2.4958 -0.8460
 6269SOL     OW30442   2.177   4.465   6.109  0.4679 -0.2072  0.2582
 6269SOL    HW130443   2.232   4.406   6.057 -0.4840  1.5922 -2.8252
 6269SOL    HW230444   2.138   4.415   6.181 -0.1209  1.4955  1.1174
 6270SOL     OW30445   3.228   2.386  13.067  0.4692 -0.2506  0.0333
 6270SOL    HW130446   3.260   2.346  13.148  0.9572  0.5381  0.2263
 6270SOL    HW230447   3.160   2.324  13.042  1.4475 -1.4157  0.2467
 6271SOL     OW30448   0.261   4.655  12.309  0.5398 -0.5706  0.3867
 6271SOL    HW130449   0.215   4.572  12.294  1.6610 -0.9914 -0.7558
 6271SOL    HW230450   0.194   4.713  12.344  0.1701 -0.4877 -0.4568
 6272SOL     OW30451   2.039   3.455   3.011 -0.0144 -0.3642  0.2024
 6272SOL    HW130452   2.029   3.460   2.916  0.0998 -0.9959  0.1615
 6272SOL    HW230453   2.057   3.362   3.023  1.9564 -0.1011 -0.6517
 6273SOL     OW30454   2.078   2.760   3.627  0.2526  0.4560 -0.4084
 6273SOL    HW130455   2.133   2.707   3.569  2.1673  1.3942  0.5639
 6273SOL    HW230456   2.119   2.845   3.616  1.0691 -0.2242 -2.6842
 6274SOL     OW30457   0.276   3.451   1.857  0.9072 -0.0659  0.6559
 6274SOL    HW130458   0.365   3.425   1.881  0.7658 -1.9048 -0.8678
 6274SOL    HW230459   0.277   3.546   1.841  0.1869 -0.2341 -0.3409
 6275SOL     OW30460   0.685   2.142   4.525  0.3353  0.3226 -0.7252
 6275SOL    HW130461   0.659   2.054   4.499  0.2335  0.7989 -2.2074
 6275SOL    HW230462   0.715   2.123   4.614 -1.8095 -0.8437 -0.2343
 6276SOL     OW30463   3.563   2.874   8.425 -0.6487  0.6099 -0.1402
 6276SOL    HW130464   3.477   2.835   8.409  0.3539 -0.6435 -2.5307
 6276SOL    HW230465   3.531   2.952   8.471 -1.6643  0.2469 -0.2295
 6277SOL     OW30466   3.979   2.113  11.937  0.0777 -0.5444 -0.2820
 6277SOL    HW130467   4.063   2.157  11.944 -0.8093  1.0477  0.5808
 6277SOL    HW230468   3.983   2.059  12.016  1.7143  0.4012  0.2759
 6278SOL     OW30469   0.267   4.255   4.874 -0.0601  0.0398 -0.4339
 6278SOL    HW130470   0.241   4.177   4.824 -0.4939 -0.2022  0.1647
 6278SOL    HW230471   0.359   4.241   4.896  0.3762  0.4115 -2.0490
 6279SOL     OW30472   3.262   3.788   8.356  0.3892  0.1871 -0.4641
 6279SOL    HW130473   3.345   3.835   8.366  0.0351  0.3406  1.9591
 6279SOL    HW230474   3.201   3.853   8.324 -0.8276 -1.3819 -1.3405
 6280SOL     OW30475   0.521   3.931   6.041  0.1232  0.4439 -0.5077
 6280SOL    HW130476   0.611   3.948   6.015  0.3354  1.2989  0.8191
 6280SOL    HW230477   0.504   4.013   6.087 -0.5757  0.3206 -0.5366
 6281SOL     OW30478   2.043   3.738   4.101 -0.4059  0.3099  0.5746
 6281SOL    HW130479   2.095   3.680   4.045  0.2515 -0.2326  1.7324
 6281SOL    HW230480   2.077   3.717   4.188 -0.0549 -0.5691  0.2282
 6282SOL     OW30481   0.149   2.731  14.041  0.3617 -0.1366 -0.1978
 6282SOL    HW130482   0.245   2.736  14.048  0.1270  2.0666  1.2354
 6282SOL    HW230483   0.123   2.817  14.073 -0.5050 -0.9483  1.2886
 6283SOL     OW30484   4.364   4.612   5.078  0.3351  0.2703 -0.2266
 6283SOL    HW130485   4.298   4.543   5.074  1.5702 -0.9595  0.6222
 6283SOL    HW230486   4.411   4.600   4.996  1.0152  0.1909  0.1788
 6284SOL     OW30487   1.472   1.627   6.583  0.3614 -0.0810 -0.0700
 6284SOL    HW130488   1.462   1.575   6.503  0.6690  1.2826 -0.9926
 6284SOL    HW230489   1.557   1.588   6.602  0.5607  0.9025  1.0357
 6285SOL     OW30490   3.530   1.540  15.239 -0.9543 -0.3920 -0.5865
 6285SOL    HW130491   3.524   1.535  15.144 -0.5006  0.3601 -0.6586
 6285SOL    HW230492   3.443   1.571  15.263 -0.3154  2.0153 -1.3742
 6286SOL     OW30493   2.041   1.126   1.349 -0.6230  0.2227 -0.0575
 6286SOL    HW130494   2.079   1.050   1.391 -1.9236  1.0412  2.6106
 6286SOL    HW230495   2.117   1.184   1.339 -0.7173 -0.0510 -2.2856
 6287SOL     OW30496   2.781   1.870   5.623  0.1627 -0.2590 -0.2387
 6287SOL    HW130497   2.736   1.790   5.649 -1.2028  1.3637  2.4778
 6287SOL    HW230498   2.804   1.896   5.713  2.0605 -0.0995 -0.7593
 6288SOL     OW30499   0.352   4.711  17.587 -0.3545 -0.3176  0.0149
 6288SOL    HW130500   0.275   4.713  17.644  0.3673  1.5141  0.9360
 6288SOL    HW230501   0.372   0.070  17.582  0.3535 -0.5199 -0.9107
 6289SOL     OW30502   2.132   2.875   2.930  0.1356  0.1746  0.3921
 6289SOL    HW130503   2.178   2.916   2.857 -0.3315  0.7298  0.4110
 6289SOL    HW230504   2.197   2.808   2.952 -0.7287 -0.2677  1.5483
 6290SOL     OW30505   0.763   0.326   2.132  0.0905  0.0446  0.2922
 6290SOL    HW130506   0.774   0.231   2.129  2.2262  0.2736  0.7410
 6290SOL    HW230507   0.805   0.348   2.215 -1.3822 -2.5827  1.7290
 6291SOL     OW30508   1.142   2.786  17.729 -0.4087  0.0373  0.7881
 6291SOL    HW130509   1.159   2.871  17.687  2.1236 -1.1113 -0.4533
 6291SOL    HW230510   1.200   2.798   0.068  1.9809  0.5755 -1.1411
 6292SOL     OW30511   3.144   0.250   9.615  0.0717 -0.1932  0.3018
 6292SOL    HW130512   3.109   0.320   9.560  0.3047 -0.1042  0.2671
 6292SOL    HW230513   3.213   0.295   9.664 -0.0524 -0.2094  0.4948
 6293SOL     OW30514   0.705   2.711   5.600  0.0982 -0.5105  0.3256
 6293SOL    HW130515   0.625   2.754   5.631 -0.4199 -1.1491 -0.1230
 6293SOL    HW230516   0.690   2.617   5.605  0.0448 -0.6077 -1.8046
 6294SOL     OW30517   3.295   2.913   0.196 -0.0698 -0.3179  0.3378
 6294SOL    HW130518   3.357   2.939   0.128 -2.4819  0.2160 -1.6275
 6294SOL    HW230519   3.299   2.818   0.190 -1.8430 -0.4370  0.9640
 6295SOL     OW30520   0.914   0.396  10.736  0.2247 -0.2799  0.2127
 6295SOL    HW130521   0.968   0.474  10.721  0.0117 -0.1531  0.1029
 6295SOL    HW230522   0.828   0.433  10.715  1.1645  1.2453 -0.9122
 6296SOL     OW30523   4.712   1.655   2.034 -0.2634  0.5715  0.0363
 6296SOL    HW130524   4.645   1.649   1.967  0.0098  0.0412 -0.1848
 6296SOL    HW230525   0.003   1.565   2.055 -3.1654 -0.3618 -0.4688
 6297SOL     OW30526   0.424   2.430   8.951  0.2037 -0.4145 -0.2553
 6297SOL    HW130527   0.417   2.351   8.897 -1.3678  0.5515 -1.4229
 6297SOL    HW230528   0.333   2.449   8.971 -0.1110 -2.1705  0.0218
 6298SOL     OW30529   1.768   3.406   7.613  0.1038 -0.6307 -0.4678
 6298SOL    HW130530   1.799   3.460   7.686 -1.4148 -0.6629  0.1949
 6298SOL    HW230531   1.676   3.401   7.637  0.5738 -1.8021  1.0826
 6299SOL     OW30532   1.118   3.149   5.181  0.0446  0.4996  0.5260
 6299SOL    HW130533   1.110   3.055   5.195  0.1401  0.4717  0.3918
 6299SOL    HW230534   1.094   3.178   5.269 -1.7287  1.6725 -0.3364
 6300SOL     OW30535   0.194   1.239   1.781  0.3094  0.2496  0.1966
 6300SOL    HW130536   0.286   1.237   1.806  0.4510  0.1561 -0.3489
 6300SOL    HW230537   0.209   1.305   1.714  1.3313 -0.2348 -0.0487
 6301SOL     OW30538   1.458   3.540   2.166 -0.1033 -0.3734 -0.0721
 6301SOL    HW130539   1.543   3.522   2.205 -1.1536 -1.0737  1.9070
 6301SOL    HW230540   1.457   3.498   2.080 -3.0751  1.6697 -1.0580
 6302SOL     OW30541   4.559   4.328   9.501  0.0333  0.1294 -0.2865
 6302SOL    HW130542   4.464   4.315   9.501 -0.0140  0.4274 -1.1592
 6302SOL    HW230543   4.584   4.315   9.409  1.5249 -0.3427  0.1928
 6303SOL     OW30544   0.355   1.650   6.979  0.4782 -0.3060  0.0025
 6303SOL    HW130545   0.332   1.566   6.941 -1.0387  0.3696 -0.5746
 6303SOL    HW230546   0.332   1.627   7.069  1.3421 -1.6655 -0.1306
 6304SOL     OW30547   2.676   2.038   3.583 -0.5974 -0.4039 -0.1859
 6304SOL    HW130548   2.701   2.112   3.528  0.8241 -1.2007 -0.6198
 6304SOL    HW230549   2.628   2.079   3.654  1.9510  2.3390 -0.0619
 6305SOL     OW30550   0.544   1.871   7.500  0.4087  0.2041 -0.1298
 6305SOL    HW130551   0.534   1.938   7.433 -0.9703 -1.2525 -1.3876
 6305SOL    HW230552   0.636   1.846   7.499  0.0110 -1.1869 -1.2270
 6306SOL     OW30553   0.471   2.817   1.133 -0.2362 -0.0413 -0.0701
 6306SOL    HW130554   0.481   2.825   1.039  0.0254 -1.4044 -0.1633
 6306SOL    HW230555   0.505   2.898   1.170 -0.9713 -0.9502  2.6368
 6307SOL     OW30556   0.732   0.941   9.458  0.7253 -0.3028 -0.0166
 6307SOL    HW130557   0.676   0.934   9.535 -1.0535 -1.6156 -1.4151
 6307SOL    HW230558   0.788   1.015   9.483  0.7946 -1.0487  2.0255
 6308SOL     OW30559   1.156   3.652   6.630  0.2889 -0.2883  0.8061
 6308SOL    HW130560   1.221   3.720   6.643 -0.8010  0.8375  0.3704
 6308SOL    HW230561   1.154   3.615   6.718  0.2565  0.0893  0.9649
 6309SOL     OW30562   0.059   4.422  15.192 -0.3391  0.3084  0.1978
 6309SOL    HW130563   4.710   4.440  15.149 -0.2322  1.8859  0.6520
 6309SOL    HW230564   0.113   4.411  15.114 -1.0110 -1.8918  0.0399
 6310SOL     OW30565   2.475   3.300   5.986  0.2537  0.4874  0.8100
 6310SOL    HW130566   2.430   3.274   5.906  2.7028 -0.2358 -0.3041
 6310SOL    HW230567   2.441   3.243   6.056  0.1727  0.2375  0.5680
 6311SOL     OW30568   1.301   0.993   2.933 -0.0182 -0.1141  0.4872
 6311SOL    HW130569   1.379   0.938   2.940  0.0807  0.1071  1.0732
 6311SOL    HW230570   1.332   1.070   2.980  1.3018  0.5070 -1.3982
 6312SOL     OW30571   1.848   4.484   2.565 -0.4901  0.5222  0.0945
 6312SOL    HW130572   1.898   4.565   2.575  1.9618 -0.9570 -0.2819
 6312SOL    HW230573   1.868   4.430   2.641  1.7826 -0.3218 -1.1226
 6313SOL     OW30574   1.783   3.821   9.378 -0.3263  0.4138 -0.3894
 6313SOL    HW130575   1.857   3.769   9.347  1.0332  1.1419  1.6274
 6313SOL    HW230576   1.761   3.866   9.296 -2.4158  1.2172  0.6035
 6314SOL     OW30577   3.803   1.451   9.131 -0.2491 -0.1227 -0.5561
 6314SOL    HW130578   3.858   1.374   9.147 -0.8677 -0.5409 -0.4332
 6314SOL    HW230579   3.866   1.523   9.135 -1.5953  1.0030  0.4071
 6315SOL     OW30580   3.263   0.128   5.045  0.1821  0.0698 -0.1657
 6315SOL    HW130581   3.328   0.094   5.106 -0.8802 -0.4870  0.6545
 6315SOL    HW230582   3.186   0.073   5.057  0.1187 -0.3748 -2.5625
 6316SOL     OW30583   3.347   2.984   6.843  0.2504 -0.3546  0.3057
 6316SOL    HW130584   3.314   3.033   6.768  0.8646 -0.8535 -0.2909
 6316SOL    HW230585   3.428   2.942   6.813  0.4060 -0.1222  0.3966
 6317SOL     OW30586   1.485   4.319  17.275 -0.8048  0.1852  0.1101
 6317SOL    HW130587   1.492   4.228  17.247 -0.9596  0.3307 -0.3998
 6317SOL    HW230588   1.505   4.360  17.191 -0.8918 -0.0034 -0.0015
 6318SOL     OW30589   4.651   0.755   6.744  0.6935 -0.1388  0.2042
 6318SOL    HW130590   4.649   0.804   6.661 -0.6906 -0.3050  0.1379
 6318SOL    HW230591   4.572   0.798   6.777  0.1424  1.3547 -2.9500
 6319SOL     OW30592   3.770   2.271  12.822 -0.0852 -0.4327 -0.5768
 6319SOL    HW130593   3.819   2.190  12.835 -0.2436 -0.3172  0.7126
 6319SOL    HW230594   3.682   2.250  12.855  0.9343 -0.9626  1.8359
 6320SOL     OW30595   0.103   0.730   5.671 -0.1341  0.2776 -0.3634
 6320SOL    HW130596   0.031   0.702   5.727  1.2177 -1.4464  0.4939
 6320SOL    HW230597   0.156   0.650   5.672  2.5968  2.1027  2.6890
 6321SOL     OW30598   2.585   0.940   5.698  0.2984  0.2284  0.3194
 6321SOL    HW130599   2.670   0.908   5.669  0.0825 -2.2421  2.3465
 6321SOL    HW230600   2.532   0.859   5.695 -2.4561  1.9680  1.5584
 6322SOL     OW30601   0.978   0.330   4.796 -0.2375  0.2389 -0.0304
 6322SOL    HW130602   1.059   0.299   4.836 -0.5598 -1.2700 -0.5284
 6322SOL    HW230603   0.947   0.249   4.755 -1.0530 -0.9380  2.9509
 6323SOL     OW30604   2.617   1.424   4.806 -0.6412 -0.0242  0.3587
 6323SOL    HW130605   2.677   1.410   4.880  1.4316 -0.9576 -1.5003
 6323SOL    HW230606   2.529   1.397   4.830 -0.7686 -0.5812 -0.7622
 6324SOL     OW30607   3.966   3.200   4.765  0.2243  0.1980 -0.2146
 6324SOL    HW130608   3.965   3.262   4.839 -1.2517  0.1991 -0.2524
 6324SOL    HW230609   4.013   3.253   4.701  0.1983  1.2916  0.6568
 6325SOL     OW30610   0.010   2.513  10.326 -0.2007 -0.0917 -0.1255
 6325SOL    HW130611   0.078   2.510  10.393  0.1685  1.3244 -0.4262
 6325SOL    HW230612   0.008   2.604  10.295  0.1780 -0.1884 -0.4267
 6326SOL     OW30613   4.011   4.394   9.404  0.0242 -0.0945  0.5897
 6326SOL    HW130614   4.006   4.329   9.475 -0.6493  0.4793  1.0677
 6326SOL    HW230615   3.991   4.471   9.458  0.6645 -1.1315  2.3174
 6327SOL     OW30616   1.496   3.768   7.209  0.2854 -0.2679 -0.4205
 6327SOL    HW130617   1.539   3.813   7.137  2.4037  0.9477  1.6283
 6327SOL    HW230618   1.455   3.838   7.260  1.4120  0.4441 -0.5012
 6328SOL     OW30619   2.250   3.418   6.869  0.3368  0.0808  0.4452
 6328SOL    HW130620   2.205   3.409   6.953 -1.9201  0.7886 -0.6942
 6328SOL    HW230621   2.273   3.511   6.872 -1.0127  0.4642 -1.0928
 6329SOL     OW30622   0.325   2.336   7.331  0.1924 -0.2263  0.1336
 6329SOL    HW130623   0.238   2.356   7.364 -1.9864 -2.6500 -4.0359
 6329SOL    HW230624   0.320   2.246   7.296 -2.9242 -0.5423  1.4438
 6330SOL     OW30625   0.129   4.158   5.402 -0.3587  0.3323  0.3601
 6330SOL    HW130626   0.172   4.080   5.438 -0.0137  0.3627  0.0159
 6330SOL    HW230627   0.142   4.221   5.473 -0.9545  0.8612 -0.0001
 6331SOL     OW30628   2.315   0.625  13.446 -0.2246  0.1447 -0.3662
 6331SOL    HW130629   2.248   0.594  13.385 -2.2313 -0.3323  2.0664
 6331SOL    HW230630   2.268   0.689  13.499 -1.3077 -0.5872 -0.4259
 6332SOL     OW30631   1.743   4.491   8.100  0.1449  0.4353  0.5118
 6332SOL    HW130632   1.788   4.419   8.056 -1.8821 -2.0705  2.4832
 6332SOL    HW230633   1.683   4.446   8.160  1.0171 -1.2809  0.0851
 6333SOL     OW30634   2.047   0.489   0.376  0.2065 -0.3358 -0.4976
 6333SOL    HW130635   2.014   0.448   0.296  4.1613 -1.3535 -1.6164
 6333SOL    HW230636   2.081   0.418   0.430 -0.1434  0.7534  1.1564
 6334SOL     OW30637   3.461   2.862   2.538  0.9754  0.1852 -0.1078
 6334SOL    HW130638   3.540   2.809   2.539  0.3976 -0.5974  2.4079
 6334SOL    HW230639   3.411   2.820   2.468  0.3729  1.6907 -0.5917
 6335SOL     OW30640   3.035   0.463   2.238 -0.8371 -0.0736 -0.2308
 6335SOL    HW130641   3.062   0.448   2.148  0.0830  0.7107 -0.0872
 6335SOL    HW230642   3.055   0.556   2.249  1.6034 -0.6505  0.2477
 6336SOL     OW30643   2.209   2.438   7.801 -0.3375  0.2012  0.0361
 6336SOL    HW130644   2.279   2.419   7.864 -0.8027 -1.5588  0.0323
 6336SOL    HW230645   2.170   2.509   7.853 -1.2598 -0.1772 -0.1506
 6337SOL     OW30646   1.964   0.248   7.551 -0.4307 -0.1728 -0.5921
 6337SOL    HW130647   1.896   0.207   7.604  1.1354  0.9519  2.3132
 6337SOL    HW230648   1.941   0.339   7.566 -0.9844 -0.3235 -0.5308
 6338SOL     OW30649   0.127   2.641   6.255  0.7319  0.3875  0.0861
 6338SOL    HW130650   0.063   2.585   6.299  2.2494 -1.8479 -0.5542
 6338SOL    HW230651   0.074   2.719   6.240  2.7454  1.9695  1.0279
 6339SOL     OW30652   4.529   4.206   5.553  0.0857 -0.9228  0.1985
 6339SOL    HW130653   4.584   4.283   5.538 -2.9177  1.2949  0.3283
 6339SOL    HW230654   4.582   4.167   5.622  0.7453  0.3146  0.3838
 6340SOL     OW30655   2.654   1.718   8.053  0.2696  0.1596 -0.2261
 6340SOL    HW130656   2.732   1.670   8.026  0.3609 -1.0751  2.2768
 6340SOL    HW230657   2.675   1.746   8.142  0.4385  0.0464 -0.2305
 6341SOL     OW30658   1.842   3.000   5.830  0.4092  0.1612  0.6088
 6341SOL    HW130659   1.791   3.031   5.755  1.4386  0.7918  0.1570
 6341SOL    HW230660   1.807   3.057   5.898 -0.9301 -3.6987  3.1210
 6342SOL     OW30661   4.558   1.701   7.414  0.3688 -0.1649  0.3042
 6342SOL    HW130662   4.571   1.636   7.483 -2.7034 -0.1164  0.9288
 6342SOL    HW230663   4.617   1.775   7.429  3.2653 -2.4577  0.0452
 6343SOL     OW30664   3.332   0.430  15.951  0.4452 -0.7287  0.1719
 6343SOL    HW130665   3.419   0.468  15.944  1.0261 -2.0429  0.2554
 6343SOL    HW230666   3.284   0.485  15.889  1.9402 -2.2587 -2.3590
 6344SOL     OW30667   0.784   0.723   6.302  0.2139  0.1549 -0.4533
 6344SOL    HW130668   0.768   0.709   6.395 -1.8555  0.9633 -0.6969
 6344SOL    HW230669   0.754   0.814   6.296  1.0470  0.1498 -4.4711
 6345SOL     OW30670   2.675   3.760   8.153  0.1994  0.3641  0.0442
 6345SOL    HW130671   2.752   3.727   8.199  0.6377  0.3895 -0.6714
 6345SOL    HW230672   2.611   3.691   8.170 -1.4167  1.4412 -1.6107
 6346SOL     OW30673   1.468   2.580  10.299  0.4218 -0.2838 -0.0638
 6346SOL    HW130674   1.439   2.667  10.326  1.0168 -0.0540 -0.1494
 6346SOL    HW230675   1.469   2.521  10.374 -1.3016 -0.0074  0.1609
 6347SOL     OW30676   3.538   2.772  14.359  0.6885 -0.0153  0.3835
 6347SOL    HW130677   3.577   2.712  14.423  2.4792  0.4153 -0.2842
 6347SOL    HW230678   3.461   2.791  14.412  0.4906 -2.9610  1.1419
 6348SOL     OW30679   1.408   2.555   4.627  0.3510  0.0449  0.5519
 6348SOL    HW130680   1.340   2.489   4.638 -1.2661  1.4462 -0.8859
 6348SOL    HW230681   1.388   2.598   4.710  0.9015 -0.0693  0.7410
 6349SOL     OW30682   3.535   4.170   9.661 -0.2965 -0.2928  0.3700
 6349SOL    HW130683   3.536   4.160   9.757 -1.4040 -1.4939  0.2644
 6349SOL    HW230684   3.450   4.129   9.642 -1.1036  1.8360 -0.6053
 6350SOL     OW30685   4.369   1.967   7.683 -0.0230  0.4651  0.1204
 6350SOL    HW130686   4.293   2.021   7.662  0.8029  1.9116  0.9296
 6350SOL    HW230687   4.400   1.944   7.595 -0.4992  1.6611 -0.3526
 6351SOL     OW30688   3.936   2.855  13.458 -0.1611  0.3085  0.7376
 6351SOL    HW130689   3.959   2.795  13.528  0.4871  0.3645  0.5747
 6351SOL    HW230690   3.971   2.933  13.501  1.5881  0.2317 -0.5527
 6352SOL     OW30691   1.054   1.665   7.707 -0.3347 -0.1094 -0.2809
 6352SOL    HW130692   1.103   1.594   7.748 -0.4777 -0.7705 -1.2448
 6352SOL    HW230693   1.060   1.723   7.783 -0.2165 -0.9490  0.3418
 6353SOL     OW30694   1.932   3.127  16.323  0.3200  0.3849 -0.0357
 6353SOL    HW130695   1.955   3.206  16.274  0.9821  1.1923  1.5611
 6353SOL    HW230696   1.938   3.173  16.406  0.6434  0.3255 -0.0234
 6354SOL     OW30697   0.056   1.390  16.146 -0.7819 -0.5404  0.5619
 6354SOL    HW130698   0.008   1.344  16.077 -0.0968 -0.1497 -0.1770
 6354SOL    HW230699   4.721   1.451  16.171  0.1439  1.8942 -2.9554
 6355SOL     OW30700   0.234   0.171   6.818  0.4413  0.1802 -0.0807
 6355SOL    HW130701   0.231   0.137   6.729 -1.4837 -0.4089  0.1998
 6355SOL    HW230702   0.306   0.120   6.854 -0.1510 -0.4418  0.2123
 6356SOL     OW30703   3.639   3.138  14.478 -0.4335  0.3047 -0.2973
 6356SOL    HW130704   3.636   3.119  14.572 -0.0346  0.4564 -0.2550
 6356SOL    HW230705   3.716   3.088  14.452 -1.0507 -0.1832 -1.1746
 6357SOL     OW30706   2.741   4.471   4.370  0.7108 -0.0028 -0.5271
 6357SOL    HW130707   2.770   4.507   4.286 -1.8413  0.4149 -1.2345
 6357SOL    HW230708   2.820   4.427   4.401 -0.1217 -1.4332 -0.4479
 6358SOL     OW30709   2.329   2.430   7.287 -0.4246 -0.0555  0.1787
 6358SOL    HW130710   2.409   2.442   7.337 -0.3382  0.2708 -0.0429
 6358SOL    HW230711   2.262   2.447   7.354 -0.1107  0.3407  0.3879
 6359SOL     OW30712   0.070   2.066   6.038 -0.5974  0.0719  0.4956
 6359SOL    HW130713   0.125   2.007   5.986  0.6756  0.4089  1.4560
 6359SOL    HW230714   0.125   2.068   6.117 -0.9813  0.9724  0.7370
 6360SOL     OW30715   1.535   2.705   6.774 -0.0843  0.1571 -0.8831
 6360SOL    HW130716   1.540   2.800   6.783  1.0379  0.0296 -0.1336
 6360SOL    HW230717   1.455   2.687   6.821  1.3925 -0.7512  1.2764
 6361SOL     OW30718   4.676   4.444   5.528  0.3479 -0.4069  0.0231
 6361SOL    HW130719   4.691   4.455   5.622 -2.0545  0.1764  0.3193
 6361SOL    HW230720   4.706   4.532   5.508 -0.6305  0.0528  0.5911
 6362SOL     OW30721   1.332   1.027  10.564  0.2403 -0.0494  0.1049
 6362SOL    HW130722   1.382   0.953  10.598  1.2501  0.9024  0.7017
 6362SOL    HW230723   1.264   0.976  10.521 -0.0180  1.4445 -1.2712
 6363SOL     OW30724   0.155   3.918  11.487 -0.2226 -0.1909  0.7440
 6363SOL    HW130725   0.064   3.894  11.471  0.0928 -0.7409 -0.2016
 6363SOL    HW230726   0.160   3.917  11.583 -0.4388 -1.8180  0.7315
 6364SOL     OW30727   1.078   3.580   9.395  0.0845 -0.2609 -0.5392
 6364SOL    HW130728   1.139   3.649   9.423 -0.2829 -0.5144  0.8879
 6364SOL    HW230729   1.080   3.520   9.469 -0.9400  1.1675  0.6527
 6365SOL     OW30730   3.388   1.999   4.671 -0.1979  0.0183 -0.4115
 6365SOL    HW130731   3.443   2.042   4.605 -0.0382 -0.5503 -0.6476
 6365SOL    HW230732   3.438   2.016   4.751 -1.1034 -0.4859  0.2515
 6366SOL     OW30733   2.632   0.181   6.503  0.5442  0.5148 -0.3567
 6366SOL    HW130734   2.580   0.258   6.523  0.8493  0.4944  0.5224
 6366SOL    HW230735   2.570   0.131   6.450  1.2310  1.1972 -1.8203
 6367SOL     OW30736   1.770   3.126  14.434 -0.3533  0.1370  0.4747
 6367SOL    HW130737   1.685   3.170  14.425 -1.0902 -2.3845 -4.8237
 6367SOL    HW230738   1.728   3.047  14.469 -0.3517  0.6841  1.7120
 6368SOL     OW30739   1.018   1.881  12.123  0.4873  0.2064  0.0087
 6368SOL    HW130740   1.070   1.815  12.078 -1.5009 -0.6733 -0.9714
 6368SOL    HW230741   1.016   1.943  12.051  1.3255 -0.3946 -0.5294
 6369SOL     OW30742   2.265   2.695   5.723 -0.1432 -0.7081  0.4698
 6369SOL    HW130743   2.212   2.624   5.758 -0.4441 -0.8923 -0.3497
 6369SOL    HW230744   2.284   2.745   5.802  0.5964  0.0068 -0.1467
 6370SOL     OW30745   4.636   0.652   5.837  0.0595 -0.0602 -0.2027
 6370SOL    HW130746   4.643   0.563   5.804  2.9886  0.5045 -1.0722
 6370SOL    HW230747   4.590   0.634   5.918  0.3311  0.7287  0.1262
 6371SOL     OW30748   2.424   1.664   3.818 -0.9404  0.1125 -0.0416
 6371SOL    HW130749   2.335   1.699   3.804  0.2349  2.6228 -1.2017
 6371SOL    HW230750   2.428   1.673   3.913  2.9524 -3.1827  0.0975
 6372SOL     OW30751   1.469   3.324   3.203 -0.3769  0.2638  0.1410
 6372SOL    HW130752   1.518   3.241   3.207 -2.6413 -1.0540  0.9054
 6372SOL    HW230753   1.420   3.321   3.285  0.6726  0.8164  0.7928
 6373SOL     OW30754   3.106   3.169   6.237 -0.7008  0.0936 -0.1340
 6373SOL    HW130755   3.178   3.169   6.300 -0.3636  0.2716 -0.5247
 6373SOL    HW230756   3.033   3.173   6.299  0.5063 -0.7346  1.3564
 6374SOL     OW30757   3.650   2.193   6.536 -0.3321  0.0073  0.4241
 6374SOL    HW130758   3.713   2.133   6.496  1.4879  2.2982 -0.1289
 6374SOL    HW230759   3.699   2.269   6.568  2.2719 -0.6326 -2.0859
 6375SOL     OW30760   4.729   4.062   3.076 -0.7273 -0.0146 -0.3897
 6375SOL    HW130761   0.002   3.970   3.102 -2.0234 -0.5341 -1.8969
 6375SOL    HW230762   4.712   4.056   2.982  1.1717 -2.6732 -0.5759
 6376SOL     OW30763   3.680   4.187   1.443  0.5096 -0.1856 -0.2607
 6376SOL    HW130764   3.729   4.189   1.525  0.0485 -1.6821  0.0448
 6376SOL    HW230765   3.614   4.119   1.456  0.9111 -0.9612 -2.2885
 6377SOL     OW30766   2.554   4.597  17.680  0.0113  0.2887  0.1988
 6377SOL    HW130767   2.472   4.610  17.728  0.5196 -3.0362  1.9998
 6377SOL    HW230768   2.538   4.670  17.620  0.7811 -0.0546 -0.4233
 6378SOL     OW30769   1.332   4.725   6.412  0.5869 -0.1686 -0.0760
 6378SOL    HW130770   1.375   0.013   6.329 -0.2573 -0.6642 -0.6623
 6378SOL    HW230771   1.311   0.080   6.440  0.2125  0.3316 -1.9369
 6379SOL     OW30772   3.573   3.757   1.031  0.4400  0.1193 -0.2696
 6379SOL    HW130773   3.512   3.724   0.965 -0.5751  1.7013 -0.1064
 6379SOL    HW230774   3.652   3.713   1.000  1.2985  0.4166  1.4715
 6380SOL     OW30775   3.632   1.209   5.948 -0.1693  0.5766 -0.6001
 6380SOL    HW130776   3.695   1.169   5.888 -2.6491 -0.8644 -2.2838
 6380SOL    HW230777   3.690   1.234   6.020  0.1913  1.4478 -1.2020
 6381SOL     OW30778   2.540   0.458   7.403  0.0894  0.3024  0.4588
 6381SOL    HW130779   2.618   0.513   7.398  1.9173 -2.4332 -1.0905
 6381SOL    HW230780   2.502   0.497   7.481 -0.8762 -1.7121  0.9968
 6382SOL     OW30781   0.131   0.919   1.952 -0.4181 -0.2950  0.6612
 6382SOL    HW130782   0.169   0.865   2.021 -0.6098 -0.4894  0.6122
 6382SOL    HW230783   0.046   0.877   1.939 -0.3721  0.1304 -0.9496
 6383SOL     OW30784   0.975   4.138   7.628  0.3851  0.2936  1.2552
 6383SOL    HW130785   0.951   4.175   7.713 -0.6170 -1.6598  1.8182
 6383SOL    HW230786   0.946   4.200   7.560 -1.4914 -1.0456  0.8444
 6384SOL     OW30787   1.932   0.995   3.776  0.5385 -0.1535 -0.0019
 6384SOL    HW130788   1.847   0.952   3.770  0.6850 -0.6557  1.6652
 6384SOL    HW230789   1.986   0.921   3.750 -0.3230 -1.0431  0.7659
 6385SOL     OW30790   1.546   3.227  14.379 -0.5011  0.2145 -0.4510
 6385SOL    HW130791   1.545   3.319  14.404  0.2138 -0.1034  0.7449
 6385SOL    HW230792   1.452   3.223  14.360 -1.2591 -0.1916  3.4457
 6386SOL     OW30793   3.438   0.259   7.192 -0.1319 -0.5103 -0.0448
 6386SOL    HW130794   3.417   0.352   7.204  2.4265  0.2530 -1.2801
 6386SOL    HW230795   3.471   0.239   7.279  1.9287  0.4485 -0.5960
 6387SOL     OW30796   0.203   4.398   8.753 -0.1558 -0.3236  0.0620
 6387SOL    HW130797   0.295   4.376   8.768  0.1521  0.1749 -1.1459
 6387SOL    HW230798   0.200   4.490   8.779 -1.2223  0.4504 -2.8118
 6388SOL     OW30799   1.831   2.290  10.233  0.4467  0.2907  0.2021
 6388SOL    HW130800   1.924   2.297  10.212  0.3440  1.3235  0.0785
 6388SOL    HW230801   1.833   2.300  10.328 -3.4136 -0.1694  0.3200
 6389SOL     OW30802   2.085   1.896   2.156 -0.3345 -0.0144  0.1385
 6389SOL    HW130803   2.060   1.806   2.179  0.7034 -0.7387 -1.5680
 6389SOL    HW230804   2.150   1.872   2.090  0.5971  2.7618  0.0397
 6390SOL     OW30805   2.883   0.055   8.724 -0.2050  0.3960 -0.0972
 6390SOL    HW130806   2.947   4.721   8.742  0.5197  1.5142  1.6662
 6390SOL    HW230807   2.803   0.018   8.763  1.1959 -1.0861  1.3745
 6391SOL     OW30808   2.843   0.941   7.714 -0.2365  0.4721  0.2316
 6391SOL    HW130809   2.772   0.993   7.676 -0.7599  0.6386  1.4441
 6391SOL    HW230810   2.921   0.985   7.683  1.7830 -2.1905  1.5074
 6392SOL     OW30811   0.187   1.473   0.453 -0.0593 -0.2152  0.5444
 6392SOL    HW130812   0.191   1.543   0.519  0.7839  1.0242 -0.8037
 6392SOL    HW230813   0.115   1.504   0.398  0.4861 -1.5864 -0.9463
 6393SOL     OW30814   3.620   2.134  14.451  0.0022 -0.3680  0.0326
 6393SOL    HW130815   3.688   2.076  14.416 -0.1372  1.0693 -2.6052
 6393SOL    HW230816   3.554   2.073  14.485  0.4066  0.4344  2.2637
 6394SOL     OW30817   3.826   2.351   6.944  0.4917  0.3736  0.2987
 6394SOL    HW130818   3.917   2.321   6.939  0.2034  0.1490 -3.4606
 6394SOL    HW230819   3.812   2.367   6.851 -0.5666 -1.6619  0.1202
 6395SOL     OW30820   2.729   3.669   3.766  0.1836  0.0963  0.5027
 6395SOL    HW130821   2.752   3.588   3.721  0.0804 -0.3598  1.2880
 6395SOL    HW230822   2.772   3.660   3.851 -0.4209  0.1886  0.8216
 6396SOL     OW30823   0.794   1.159   0.415 -0.3861 -0.1187 -0.4311
 6396SOL    HW130824   0.762   1.083   0.464  2.2887 -0.4103  0.8221
 6396SOL    HW230825   0.777   1.129   0.325 -0.9321 -1.3210  0.0749
 6397SOL     OW30826   3.778   3.623   5.446 -0.9230  0.8917 -0.1957
 6397SOL    HW130827   3.703   3.618   5.506 -2.4086 -0.8025 -2.1805
 6397SOL    HW230828   3.755   3.555   5.383  1.0081  0.7266 -0.7191
 6398SOL     OW30829   4.342   0.756  11.601  0.8604 -0.9040  0.2688
 6398SOL    HW130830   4.403   0.811  11.649  0.4429 -0.4565  0.2924
 6398SOL    HW230831   4.267   0.760  11.661 -0.3526 -0.8889 -1.2142
 6399SOL     OW30832   1.997   4.137  14.523  0.4842  0.0345  0.2083
 6399SOL    HW130833   2.082   4.099  14.548  0.3497 -0.1874  0.3237
 6399SOL    HW230834   1.976   4.196  14.596 -1.4423 -0.9191  0.4030
 6400SOL     OW30835   2.492   1.020   5.133 -0.0627 -0.2490  0.4991
 6400SOL    HW130836   2.515   0.934   5.169  0.6705 -0.1678  0.2198
 6400SOL    HW230837   2.399   1.002   5.118 -0.4065  1.2361  0.8412
 6401SOL     OW30838   3.391   3.292   8.085 -0.2352  0.0731 -0.8816
 6401SOL    HW130839   3.328   3.245   8.031 -0.4422 -1.4598  0.7276
 6401SOL    HW230840   3.393   3.231   8.158  2.6681  0.8892 -0.2913
 6402SOL     OW30841   0.707   0.887  16.451  0.5034 -0.5580  0.1724
 6402SOL    HW130842   0.795   0.850  16.460 -0.0360 -1.2776  2.7359
 6402SOL    HW230843   0.723   0.962  16.394  0.7465  1.0011  2.3068
 6403SOL     OW30844   3.027   3.222   2.730  0.7826  0.5984  0.6555
 6403SOL    HW130845   3.051   3.142   2.684 -1.1047 -0.5722  1.7250
 6403SOL    HW230846   3.099   3.285   2.718  1.3613 -0.3824 -1.0704
 6404SOL     OW30847   2.795   1.123   3.332 -0.7170 -0.0513  0.3129
 6404SOL    HW130848   2.726   1.184   3.358  1.1368  1.0848  2.5044
 6404SOL    HW230849   2.789   1.067   3.409 -1.7387  0.1274  0.3746
 6405SOL     OW30850   2.187   2.563   6.405 -0.0560 -0.4422 -0.6167
 6405SOL    HW130851   2.270   2.610   6.399  0.6181 -1.6628 -0.8843
 6405SOL    HW230852   2.143   2.580   6.322 -0.1340 -2.7831 -1.0558
 6406SOL     OW30853   2.393   4.609   2.956 -0.3658  0.2692 -0.9668
 6406SOL    HW130854   2.456   4.544   2.987 -0.6205  0.1582 -0.6716
 6406SOL    HW230855   2.419   4.688   3.003 -1.6837  0.7273 -0.9900
 6407SOL     OW30856   3.775   2.050  15.965  0.2093  0.2890  1.1453
 6407SOL    HW130857   3.748   1.982  15.903  2.0915  1.2375 -0.6989
 6407SOL    HW230858   3.810   1.995  16.035 -0.8032 -0.2254  1.2540
 6408SOL     OW30859   2.869   0.216   3.651 -0.3827  0.1071  0.1041
 6408SOL    HW130860   2.918   0.291   3.616 -1.1125  0.1698 -0.7651
 6408SOL    HW230861   2.780   0.237   3.625 -0.6229  0.2330  1.0263
 6409SOL     OW30862   0.801   1.948   6.904  0.1922 -0.0947  0.7758
 6409SOL    HW130863   0.890   1.936   6.869  0.3567  0.7199  0.9071
 6409SOL    HW230864   0.804   1.877   6.967  1.6871 -1.5966 -0.9669
 6410SOL     OW30865   2.889   0.280   6.504  0.5354  0.4725  0.2262
 6410SOL    HW130866   2.880   0.226   6.425  4.6147  0.3426 -0.1641
 6410SOL    HW230867   2.815   0.246   6.555  0.3615  1.5106  0.6675
 6411SOL     OW30868   1.645   0.713   1.001  0.2877 -0.1872 -0.7951
 6411SOL    HW130869   1.670   0.623   1.021 -0.4913 -0.0646  0.7355
 6411SOL    HW230870   1.732   0.747   0.980 -0.0702  2.0731  1.3894
 6412SOL     OW30871   1.128   1.777   9.707 -0.5513 -0.0239  0.3396
 6412SOL    HW130872   1.189   1.735   9.767 -0.6569 -1.7007 -0.7165
 6412SOL    HW230873   1.077   1.707   9.666 -2.5537  1.3446  0.4833
 6413SOL     OW30874   4.724   1.737  12.526  0.3748  0.1566 -0.4622
 6413SOL    HW130875   0.007   1.684  12.604  0.0135 -0.5515 -0.8623
 6413SOL    HW230876   4.640   1.783  12.537  0.0706 -1.2151  3.0853
 6414SOL     OW30877   1.453   4.192  14.169 -0.2230 -0.6286 -0.3144
 6414SOL    HW130878   1.388   4.255  14.199 -2.3525 -2.7357 -0.5162
 6414SOL    HW230879   1.411   4.110  14.196 -1.5827  0.1408 -0.1184
 6415SOL     OW30880   0.481   4.098  11.201 -0.5941  0.5136 -0.0158
 6415SOL    HW130881   0.403   4.071  11.152 -2.3230  2.5922  1.6224
 6415SOL    HW230882   0.513   4.010  11.223  0.8495  1.5192  1.8580
 6416SOL     OW30883   4.383   2.524   9.126 -0.1873 -0.0079  0.1816
 6416SOL    HW130884   4.296   2.484   9.132  0.2779 -0.1970  5.2322
 6416SOL    HW230885   4.369   2.577   9.048 -0.0275  0.5860  0.5577
 6417SOL     OW30886   4.119   3.517   0.992 -0.3842  0.0567  0.2286
 6417SOL    HW130887   4.177   3.523   0.916 -0.4833  1.8153  0.2822
 6417SOL    HW230888   4.112   3.608   1.022  0.7654  0.7448 -1.5825
 6418SOL     OW30889   2.806   2.863   1.475 -0.4193 -0.0572 -0.1651
 6418SOL    HW130890   2.733   2.877   1.415  0.1551  2.3999 -0.2899
 6418SOL    HW230891   2.859   2.815   1.412 -0.2970  1.0640 -0.9232
 6419SOL     OW30892   1.312   4.173   2.956 -0.4394 -0.0175 -0.1425
 6419SOL    HW130893   1.324   4.176   3.051 -0.8096  0.0911 -0.0989
 6419SOL    HW230894   1.229   4.125   2.947 -0.7364  0.0658  2.0173
 6420SOL     OW30895   2.718   1.883   6.359 -0.1574 -0.2755  0.7902
 6420SOL    HW130896   2.654   1.926   6.302  0.8457 -0.9060 -0.8244
 6420SOL    HW230897   2.678   1.796   6.359 -1.1621  0.1932 -0.9847
 6421SOL     OW30898   2.136   3.319   0.159  0.1948 -0.2761  0.1614
 6421SOL    HW130899   2.220   3.283   0.130  0.0858 -1.6507  1.5300
 6421SOL    HW230900   2.075   3.246   0.155 -0.4275  0.1673  1.7464
 6422SOL     OW30901   3.758   1.900   1.885 -0.4763  0.2407 -0.1596
 6422SOL    HW130902   3.839   1.877   1.840 -0.1731 -1.6128  1.3722
 6422SOL    HW230903   3.781   1.988   1.915  1.6141 -0.8970  1.5243
 6423SOL     OW30904   3.255   2.783  11.455  0.3110 -0.1360  0.3293
 6423SOL    HW130905   3.248   2.858  11.395 -0.8174  0.2147  0.8951
 6423SOL    HW230906   3.160   2.779  11.464  0.5797 -0.3171  2.8801
 6424SOL     OW30907   2.010   1.414  14.191  0.3533  0.3305 -0.0106
 6424SOL    HW130908   1.931   1.435  14.240 -0.7058 -0.9028 -1.1992
 6424SOL    HW230909   2.054   1.352  14.248 -1.6097  0.6590  1.8685
 6425SOL     OW30910   0.673   2.623   6.820  0.1469  0.7461 -0.1715
 6425SOL    HW130911   0.620   2.693   6.858 -1.1267 -1.9391  2.9672
 6425SOL    HW230912   0.725   2.669   6.753  1.4804 -0.8491 -0.2367
 6426SOL     OW30913   0.585   4.571  16.153 -0.3203 -0.4054  0.0572
 6426SOL    HW130914   0.523   4.623  16.204  1.5525  2.2595 -0.4261
 6426SOL    HW230915   0.632   4.540  16.230  2.0057 -1.7001 -1.8585
 6427SOL     OW30916   3.817   4.051   4.370  0.1151  0.5412 -0.5277
 6427SOL    HW130917   3.741   4.093   4.328 -2.0161 -0.4796  2.3086
 6427SOL    HW230918   3.772   3.972   4.400 -0.8294  2.1379  2.2323
 6428SOL     OW30919   2.973   4.590   3.125 -0.1410  0.1069  0.1221
 6428SOL    HW130920   2.958   4.674   3.168 -0.9818 -0.4683  0.9446
 6428SOL    HW230921   2.996   4.526   3.192 -0.9482 -1.7527 -1.3861
 6429SOL     OW30922   3.768   4.383   7.659 -0.3403  0.5505  0.5892
 6429SOL    HW130923   3.716   4.322   7.712  1.0328 -0.7639  0.4315
 6429SOL    HW230924   3.721   4.462   7.685 -0.2838  0.9380 -0.4924
 6430SOL     OW30925   2.997   4.544  14.700 -0.5361 -0.4669 -0.4275
 6430SOL    HW130926   2.939   4.474  14.671 -1.7688 -1.4130  4.2809
 6430SOL    HW230927   3.011   4.522  14.792 -1.3812  0.0726 -0.1727
 6431SOL     OW30928   4.155   3.543  13.145 -0.1322  0.1490 -0.1716
 6431SOL    HW130929   4.121   3.455  13.132 -1.2526  0.3305  1.4679
 6431SOL    HW230930   4.153   3.548  13.241  2.2371  0.0895 -0.1021
 6432SOL     OW30931   3.606   4.023   0.285 -0.0034  0.2210  0.3288
 6432SOL    HW130932   3.571   3.934   0.295  1.3253 -0.2121  1.2468
 6432SOL    HW230933   3.541   4.076   0.331  1.0933  2.3053 -0.5245
 6433SOL     OW30934   2.751   3.339   7.766  0.1448 -0.2563  0.0959
 6433SOL    HW130935   2.675   3.280   7.763  0.5007 -0.7309  0.4280
 6433SOL    HW230936   2.815   3.282   7.722  0.3626 -0.4084  0.6142
 6434SOL     OW30937   4.625   0.821   2.024  0.4560 -0.6328  0.0450
 6434SOL    HW130938   4.561   0.890   2.008  0.4857 -0.6536 -0.1671
 6434SOL    HW230939   4.590   0.790   2.107  0.3986  0.2108  0.3359
 6435SOL     OW30940   1.001   2.012   8.323 -0.4299 -0.1753  0.2176
 6435SOL    HW130941   1.031   2.085   8.378 -0.7338 -0.8493  1.2753
 6435SOL    HW230942   1.045   2.031   8.240  1.6758  0.3018  1.4322
 6436SOL     OW30943   0.518   0.776  14.649 -0.3840 -0.1171  0.4865
 6436SOL    HW130944   0.503   0.864  14.613  1.3615  0.7262  1.7789
 6436SOL    HW230945   0.436   0.727  14.645 -0.3548 -0.0714 -0.8139
 6437SOL     OW30946   0.858   2.017  16.501 -0.2575 -0.0836  0.1280
 6437SOL    HW130947   0.944   2.053  16.476 -0.2753 -0.0022  0.1847
 6437SOL    HW230948   0.821   2.100  16.532 -0.2730  1.0652 -3.0180
 6438SOL     OW30949   1.449   1.276  11.135  0.0999  0.1365 -0.2310
 6438SOL    HW130950   1.488   1.257  11.221  1.7871  2.9269 -0.3446
 6438SOL    HW230951   1.355   1.278  11.149 -0.1189  0.7306 -1.7936
 6439SOL     OW30952   3.946   3.841   4.001 -0.1127 -0.6509  0.3663
 6439SOL    HW130953   3.992   3.874   4.079 -0.1348  0.1166  0.0508
 6439SOL    HW230954   3.854   3.843   4.025 -0.6145 -0.3895 -1.5787
 6440SOL     OW30955   2.118   4.289   3.369 -0.1881  0.2494 -0.5453
 6440SOL    HW130956   2.040   4.330   3.407 -0.7757 -0.7529 -0.6583
 6440SOL    HW230957   2.124   4.206   3.416 -0.4284  0.6042  0.1217
 6441SOL     OW30958   0.397   1.268   3.137  0.5075  0.4008 -0.3282
 6441SOL    HW130959   0.383   1.246   3.229 -0.3502 -0.3643 -0.6502
 6441SOL    HW230960   0.481   1.310   3.157  0.7633  0.3076 -1.2312
 6442SOL     OW30961   1.439   0.370   1.298 -0.4674 -0.3955  0.0670
 6442SOL    HW130962   1.409   0.453   1.262 -1.4356 -1.2265 -1.0571
 6442SOL    HW230963   1.351   0.333   1.308  0.4042 -2.6955 -0.6779
 6443SOL     OW30964   4.416   0.905   7.332 -0.5208 -0.6897 -0.2147
 6443SOL    HW130965   4.510   0.893   7.321 -0.2375  0.2556  1.1715
 6443SOL    HW230966   4.400   0.990   7.290 -2.3714 -0.1957  1.4959
 6444SOL     OW30967   4.378   2.082  11.889  0.5038 -0.1496 -0.0475
 6444SOL    HW130968   4.441   2.110  11.823  0.4075 -1.3090 -0.6399
 6444SOL    HW230969   4.318   2.029  11.837  1.6480 -3.1699  1.6934
 6445SOL     OW30970   1.259   2.251   4.373  0.3672 -0.1549 -0.3774
 6445SOL    HW130971   1.228   2.261   4.463  2.5904  3.4867  0.0356
 6445SOL    HW230972   1.216   2.171   4.343  1.5090 -0.2763 -1.6933
 6446SOL     OW30973   0.159   1.026   8.686 -0.1162 -0.2379  0.2666
 6446SOL    HW130974   0.127   1.037   8.597  0.5989  1.4294  0.1994
 6446SOL    HW230975   0.179   0.933   8.692  3.7420  0.4820 -0.7942
 6447SOL     OW30976   3.309   0.959  17.478  0.2444  0.5252  0.5185
 6447SOL    HW130977   3.391   0.920  17.448  0.4072  0.0440  1.5962
 6447SOL    HW230978   3.262   0.972  17.395 -0.2208  1.1550  0.8765
 6448SOL     OW30979   3.569   4.611   6.866  0.8044 -0.4724  0.3191
 6448SOL    HW130980   3.596   4.702   6.873  1.0741 -0.5759  0.6186
 6448SOL    HW230981   3.477   4.625   6.886  1.2437  0.2270  1.8360
 6449SOL     OW30982   3.348   0.511   7.080 -0.8818  0.1354  0.0488
 6449SOL    HW130983   3.388   0.533   6.996  0.5790  0.0713  0.7252
 6449SOL    HW230984   3.259   0.538   7.058 -0.4743  0.1177 -1.6340
 6450SOL     OW30985   2.663   0.895   4.294  0.1331  0.2095 -0.5514
 6450SOL    HW130986   2.571   0.911   4.272  0.4403  1.0738 -1.2245
 6450SOL    HW230987   2.691   0.978   4.256  0.2524  0.0289 -0.8564
 6451SOL     OW30988   3.646   3.135   9.742 -0.1063 -0.0688  0.5443
 6451SOL    HW130989   3.676   3.092   9.662  0.6241 -0.2306  0.9032
 6451SOL    HW230990   3.578   3.194   9.710 -0.6154 -1.3713 -0.7742
 6452SOL     OW30991   2.625   2.961   2.996 -0.1550  0.3634  0.5571
 6452SOL    HW130992   2.709   2.935   2.958 -0.3390  0.5337  0.0288
 6452SOL    HW230993   2.575   2.880   2.997 -0.1131  0.3252 -0.0329
 6453SOL     OW30994   4.193   0.320   1.246  0.4219  0.5330 -0.6690
 6453SOL    HW130995   4.147   0.236   1.254 -0.6169  1.0341 -1.4217
 6453SOL    HW230996   4.120   0.375   1.220 -0.0849  1.1510  1.9999
 6454SOL     OW30997   3.180   1.470  16.783 -0.4990 -0.7688 -0.0139
 6454SOL    HW130998   3.233   1.493  16.860 -0.3512  1.3175 -0.7418
 6454SOL    HW230999   3.141   1.555  16.760  0.2904  0.2572  2.3802
 6455SOL     OW31000   1.960   4.091  14.245 -0.1333  0.2281 -0.1485
 6455SOL    HW131001   1.987   4.094  14.336  0.4307 -0.7135 -0.2764
 6455SOL    HW231002   1.868   4.117  14.250 -0.6269 -1.9224  1.8490
 6456SOL     OW31003   3.732   3.049   7.100  0.2596 -0.2595 -0.4875
 6456SOL    HW131004   3.657   3.055   7.042 -0.8370 -0.7141  0.9007
 6456SOL    HW231005   3.789   2.983   7.061  1.0127  0.0562  0.0723
 6457SOL     OW31006   0.471   3.256  14.875 -0.4348 -0.3211  0.0743
 6457SOL    HW131007   0.493   3.258  14.968  0.2972 -2.2806 -0.0582
 6457SOL    HW231008   0.552   3.217  14.844 -0.3741 -1.3582  1.5465
 6458SOL     OW31009   3.823   4.157   5.200 -0.0289  0.5300  0.0034
 6458SOL    HW131010   3.766   4.097   5.248 -0.4926  0.9157 -0.0768
 6458SOL    HW231011   3.899   4.100   5.187 -1.3968 -0.7753 -2.2020
 6459SOL     OW31012   0.911   0.632   9.051  0.5896  0.1140  0.1528
 6459SOL    HW131013   0.961   0.709   9.024  2.3338 -0.6199  1.2507
 6459SOL    HW231014   0.855   0.679   9.113  1.1638 -1.6687  2.0441
 6460SOL     OW31015   4.417   0.793   6.170 -0.1043  0.3416  0.0384
 6460SOL    HW131016   4.439   0.722   6.111  0.5404  0.1181  0.5497
 6460SOL    HW231017   4.460   0.868   6.130 -0.4822  0.8325  0.5520
 6461SOL     OW31018   1.543   1.720   9.728 -0.1744  0.3073  0.0916
 6461SOL    HW131019   1.467   1.680   9.770 -0.5573 -2.5658 -3.3981
 6461SOL    HW231020   1.552   1.804   9.773  4.1249  0.6547 -1.4245
 6462SOL     OW31021   4.158   2.575   3.357 -0.4584 -0.6396 -0.5899
 6462SOL    HW131022   4.151   2.485   3.390 -3.6098 -0.7815 -1.6500
 6462SOL    HW231023   4.068   2.603   3.373  1.2641  3.1544  2.4653
 6463SOL     OW31024   2.735   0.331   7.225 -0.1768 -0.2208 -0.4585
 6463SOL    HW131025   2.681   0.295   7.155  0.2272 -2.5591  0.4435
 6463SOL    HW231026   2.667   0.353   7.288 -0.6946  1.3437 -1.5543
 6464SOL     OW31027   3.257   2.909   8.360 -0.2825 -0.6736 -0.1574
 6464SOL    HW131028   3.200   2.865   8.298 -1.3547  1.1222 -0.4292
 6464SOL    HW231029   3.190   2.946   8.417 -0.8206  0.8773 -1.7815
 6465SOL     OW31030   2.340   4.532  13.460  0.2348  0.2276  0.2934
 6465SOL    HW131031   2.370   4.522  13.369  0.7255 -0.1718  0.5002
 6465SOL    HW231032   2.408   4.594  13.486  1.2360 -0.6049 -0.3096
 6466SOL     OW31033   2.092   3.658   7.338 -0.2018  0.4504 -0.1476
 6466SOL    HW131034   2.050   3.640   7.254 -1.7608 -3.9077  1.5424
 6466SOL    HW231035   2.046   3.738   7.362  0.6739  0.8059  0.3518
 6467SOL     OW31036   0.571   1.542   1.721 -0.2782 -0.0991 -0.7725
 6467SOL    HW131037   0.542   1.454   1.697  0.3501 -0.4669 -0.1956
 6467SOL    HW231038   0.582   1.537   1.816 -2.4515 -2.3400 -0.6405
 6468SOL     OW31039   4.449   0.038  12.147 -0.0072 -0.1264  0.2814
 6468SOL    HW131040   4.495   0.103  12.201  2.2538 -0.0236 -1.7978
 6468SOL    HW231041   4.435   0.089  12.068  1.9658  0.2978  0.2268
 6469SOL     OW31042   1.796   4.222   3.981 -0.5491  0.5684  0.3873
 6469SOL    HW131043   1.834   4.136   3.962 -3.5922 -0.5200 -0.8194
 6469SOL    HW231044   1.713   4.211   4.027 -1.1689  4.3702  0.1753
 6470SOL     OW31045   0.858   0.455   3.109 -0.2920  0.3602  0.0762
 6470SOL    HW131046   0.773   0.420   3.136 -0.4923 -0.1948 -1.2884
 6470SOL    HW231047   0.850   0.550   3.118 -1.0618  0.2649  0.4082
 6471SOL     OW31048   3.884   0.172   9.433  0.1155 -0.0939  0.5338
 6471SOL    HW131049   3.792   0.159   9.410  0.9212 -1.1243 -2.1031
 6471SOL    HW231050   3.885   0.125   9.516 -0.0672 -0.0363  0.5686
 6472SOL     OW31051   2.375   3.666  13.787  0.4857 -0.3116 -0.2980
 6472SOL    HW131052   2.311   3.621  13.732  0.4443  1.0392 -1.3421
 6472SOL    HW231053   2.373   3.752  13.747 -3.5097  0.3134  1.2419
 6473SOL     OW31054   4.208   1.415   3.403  0.0348  0.3394  0.5133
 6473SOL    HW131055   4.166   1.347   3.455  0.5910 -0.5832 -0.2555
 6473SOL    HW231056   4.146   1.486   3.421 -2.3050 -1.5497 -0.1319
 6474SOL     OW31057   3.879   3.603  13.610  0.3083 -0.1339  0.1844
 6474SOL    HW131058   3.787   3.583  13.629  0.4956 -2.3913 -1.3018
 6474SOL    HW231059   3.923   3.549  13.677  1.7753  0.9887  0.1201
 6475SOL     OW31060   4.532   0.978   6.020  0.8348  0.4276 -0.3595
 6475SOL    HW131061   4.605   0.956   5.962  3.3497  0.5826  2.7688
 6475SOL    HW231062   4.526   1.074   6.018 -0.7888  0.3413 -0.0527
 6476SOL     OW31063   3.912   3.494   3.676  0.2862  0.2501 -0.0398
 6476SOL    HW131064   3.953   3.504   3.762  2.0241 -3.9422 -0.3949
 6476SOL    HW231065   3.824   3.526   3.697  0.6075  1.7619 -0.9644
 6477SOL     OW31066   4.175   1.001   5.738 -0.1168 -0.5044 -0.2425
 6477SOL    HW131067   4.234   0.926   5.734 -0.6550 -0.9628  0.7320
 6477SOL    HW231068   4.086   0.966   5.746 -0.0434 -0.8499 -0.9074
 6478SOL     OW31069   4.191   4.271   0.861  0.4197 -0.5285  0.4438
 6478SOL    HW131070   4.148   4.220   0.792 -0.5753  2.1715 -0.9316
 6478SOL    HW231071   4.185   4.358   0.821 -0.6809 -1.2992 -1.0977
 6479SOL     OW31072   3.290   3.115   3.736 -0.7572  0.1882 -0.2833
 6479SOL    HW131073   3.304   3.092   3.644  0.5823  0.3227 -0.1179
 6479SOL    HW231074   3.351   3.052   3.775  0.0845  1.0637 -0.2019
 6480SOL     OW31075   4.527   0.491   6.298  1.0228 -0.4679  0.1486
 6480SOL    HW131076   4.442   0.523   6.329  1.2751 -0.5290  0.9264
 6480SOL    HW231077   4.586   0.566   6.296 -0.4076  0.6633  0.4646
 6481SOL     OW31078   3.430   1.426   1.527  0.3935 -0.2823 -0.0992
 6481SOL    HW131079   3.389   1.512   1.517 -0.7290 -0.8321 -0.2262
 6481SOL    HW231080   3.373   1.393   1.596 -0.0865 -1.2413 -0.9456
 6482SOL     OW31081   1.586   4.437   2.190  0.4912 -0.5795  0.0687
 6482SOL    HW131082   1.505   4.392   2.164 -1.2870  1.0511  2.7368
 6482SOL    HW231083   1.578   4.447   2.285  2.8490 -0.6324  0.2623
 6483SOL     OW31084   1.197   3.473   9.087  0.8200 -0.0029  0.5254
 6483SOL    HW131085   1.179   3.379   9.089 -0.5831  0.2499 -0.4805
 6483SOL    HW231086   1.111   3.502   9.116  0.8199  1.0012 -0.4688
 6484SOL     OW31087   4.189   4.305   3.746  0.2093 -0.0406  0.4065
 6484SOL    HW131088   4.100   4.307   3.712  0.7379  1.9812 -0.8404
 6484SOL    HW231089   4.226   4.377   3.695 -1.9086 -0.5543 -1.7881
 6485SOL     OW31090   1.248   4.350   2.430  0.1330 -0.7710  0.4181
 6485SOL    HW131091   1.254   4.326   2.523 -0.4586  0.2005  0.7065
 6485SOL    HW231092   1.214   4.439   2.439 -0.8220 -1.4003  3.0134
 6486SOL     OW31093   0.342   3.599   4.014  0.2407  0.5220  0.2397
 6486SOL    HW131094   0.411   3.663   4.002 -0.3855  1.3993  1.2282
 6486SOL    HW231095   0.297   3.622   4.096 -0.3501 -1.5553  0.5107
 6487SOL     OW31096   0.158   4.062   8.332  0.3015 -0.3672 -0.8359
 6487SOL    HW131097   0.148   3.973   8.366 -0.0785 -0.8717 -2.2326
 6487SOL    HW231098   0.171   4.121   8.406 -0.5220 -0.9271 -0.2458
 6488SOL     OW31099   2.278   1.819   7.944 -0.0625 -0.0322 -0.1328
 6488SOL    HW131100   2.262   1.775   7.861 -2.1811  0.2201  0.1487
 6488SOL    HW231101   2.231   1.770   8.012 -1.2959  2.4555  0.7900
 6489SOL     OW31102   1.289   0.052   2.677  0.0215  0.2157  0.7210
 6489SOL    HW131103   1.381   0.065   2.654  0.3961 -2.4971  0.6856
 6489SOL    HW231104   1.243   0.054   2.593  0.9635  0.4513  0.2003
 6490SOL     OW31105   3.971   1.021   1.294 -0.4687  0.5232 -0.8943
 6490SOL    HW131106   4.010   1.080   1.229  0.8167 -0.6966 -1.2166
 6490SOL    HW231107   4.048   0.967   1.312 -0.6729  0.0609 -1.4046
 6491SOL     OW31108   1.464   3.126  10.609  0.1412  0.1903  0.0835
 6491SOL    HW131109   1.526   3.083  10.668 -0.6075 -0.0057  0.7259
 6491SOL    HW231110   1.517   3.129  10.529  0.9529 -1.6977  0.5535
 6492SOL     OW31111   0.699   1.673  10.205 -0.3566  0.1847  0.0035
 6492SOL    HW131112   0.612   1.634  10.196 -0.6127  0.8774 -0.5672
 6492SOL    HW231113   0.678   1.765  10.222 -0.3107 -0.0017  1.0257
 6493SOL     OW31114   4.498   1.131   4.645 -0.5324 -0.4994 -0.0481
 6493SOL    HW131115   4.533   1.220   4.654 -1.4693 -0.1419  0.0849
 6493SOL    HW231116   4.571   1.069   4.647 -1.0864 -1.1475  0.0601
 6494SOL     OW31117   4.428   3.728   5.804  0.1179 -0.0442  0.1703
 6494SOL    HW131118   4.394   3.686   5.726 -0.2110  0.5775 -0.0212
 6494SOL    HW231119   4.517   3.700   5.822 -0.1649 -0.9258  0.1672
 6495SOL     OW31120   1.337   1.859  12.949  0.5520 -0.4625 -0.3045
 6495SOL    HW131121   1.358   1.868  13.042 -0.2451  0.7080 -0.2367
 6495SOL    HW231122   1.366   1.769  12.937  1.8124 -0.0030 -0.7464
 6496SOL     OW31123   3.782   3.743   2.355  0.9827 -0.0816 -0.1959
 6496SOL    HW131124   3.845   3.677   2.327  0.9714  1.0309 -2.9110
 6496SOL    HW231125   3.722   3.698   2.415  0.8081  0.3471 -0.0473
 6497SOL     OW31126   2.256   4.529   4.565 -0.3489  0.5611  0.3290
 6497SOL    HW131127   2.327   4.567   4.616 -0.1421  1.3259 -0.5303
 6497SOL    HW231128   2.300   4.475   4.499  1.8751  2.3162  0.3959
 6498SOL     OW31129   4.012   2.582   8.857  0.2387  0.0267  0.0139
 6498SOL    HW131130   4.033   2.643   8.786  1.6315 -0.6006 -0.1099
 6498SOL    HW231131   4.091   2.570   8.910 -0.1403  2.1075  1.0593
 6499SOL     OW31132   4.201   1.557   8.611  0.6163 -0.1455  0.5463
 6499SOL    HW131133   4.254   1.522   8.539  1.9970 -1.2539  2.1024
 6499SOL    HW231134   4.221   1.650   8.626  0.0712 -0.0583  0.7154
 6500SOL     OW31135   3.652   2.020  12.669 -0.0862 -0.5235  0.3984
 6500SOL    HW131136   3.660   1.956  12.598  2.3172 -0.2169  0.4144
 6500SOL    HW231137   3.624   1.973  12.748 -1.3956 -1.2528 -0.4879
 6501SOL     OW31138   3.426   3.470   1.091 -0.1755  0.3620  0.1039
 6501SOL    HW131139   3.471   3.532   1.148  2.7657  0.1490 -1.9268
 6501SOL    HW231140   3.443   3.512   1.006 -0.3135 -0.9884 -0.6054
 6502SOL     OW31141   3.266   4.032   6.034  0.4144  0.3179  0.1455
 6502SOL    HW131142   3.249   4.111   6.085  2.7803  1.9821 -1.6807
 6502SOL    HW231143   3.240   3.958   6.090  0.9529 -0.9824 -1.3170
 6503SOL     OW31144   4.641   3.751   7.425 -0.0784  0.0433 -0.4470
 6503SOL    HW131145   4.678   3.761   7.338 -0.4022  1.4206 -0.4229
 6503SOL    HW231146   4.640   3.838   7.465 -1.3371 -1.3479  2.6246
 6504SOL     OW31147   3.711   2.548  11.519  0.1613  0.1649  0.3733
 6504SOL    HW131148   3.718   2.504  11.603 -2.5995 -0.1474  0.4429
 6504SOL    HW231149   3.704   2.637  11.553 -2.5898  0.3585 -0.6356
 6505SOL     OW31150   3.354   0.718   2.133  0.5452  0.1097  0.6578
 6505SOL    HW131151   3.302   0.786   2.089  0.3191 -1.3421 -1.2970
 6505SOL    HW231152   3.443   0.749   2.114  0.0556  0.0650 -1.6456
 6506SOL     OW31153   3.384   2.239   6.848  0.2908  0.0295  0.1689
 6506SOL    HW131154   3.439   2.162   6.860 -0.3579 -0.6179 -1.0089
 6506SOL    HW231155   3.441   2.315   6.834 -0.1545  0.5529  1.2424
 6507SOL     OW31156   0.907   2.563  11.350 -0.4048 -0.1986 -0.1536
 6507SOL    HW131157   0.833   2.624  11.351 -2.2464 -2.4244 -0.8747
 6507SOL    HW231158   0.972   2.606  11.405 -1.0792  1.0453 -0.3126
 6508SOL     OW31159   2.467   2.371   6.310 -0.3024  0.0004 -0.3226
 6508SOL    HW131160   2.499   2.410   6.391  0.1776  0.8558 -0.9264
 6508SOL    HW231161   2.441   2.450   6.263  0.2797 -0.9249 -2.2044
 6509SOL     OW31162   0.028   2.789  10.276 -0.1424  0.0546 -0.4676
 6509SOL    HW131163   0.017   2.803  10.182 -1.9561  0.7568 -0.1621
 6509SOL    HW231164   0.068   2.873  10.300 -0.8630  0.2010  0.2215
 6510SOL     OW31165   0.753   1.002   7.617 -0.1191  0.5243 -0.1581
 6510SOL    HW131166   0.692   1.028   7.687  0.6666  2.7463 -0.2776
 6510SOL    HW231167   0.711   0.932   7.568  0.2032 -0.1676  0.5511
 6511SOL     OW31168   3.963   2.200  15.591  0.0185  0.1741 -0.1272
 6511SOL    HW131169   4.007   2.209  15.676 -1.0852 -1.8010  0.6368
 6511SOL    HW231170   3.893   2.137  15.604 -0.8461  0.7729 -1.8363
 6512SOL     OW31171   1.440   1.756   1.812 -0.1930 -0.3427 -0.2170
 6512SOL    HW131172   1.405   1.778   1.726  1.1038 -1.0738 -0.9250
 6512SOL    HW231173   1.444   1.663   1.791  0.7026 -0.4831  0.6030
 6513SOL     OW31174   2.160   3.375   7.162 -0.4523  0.4368  0.6585
 6513SOL    HW131175   2.216   3.404   7.234 -1.8828  1.7264  1.2661
 6513SOL    HW231176   2.144   3.283   7.183 -0.4435  0.3508  0.2927
 6514SOL     OW31177   0.487   2.125  17.430  0.6358  0.8945  0.4521
 6514SOL    HW131178   0.548   2.066  17.475  1.6612  1.0747 -0.6838
 6514SOL    HW231179   0.536   2.207  17.437  0.0781  1.4200 -1.5298
 6515SOL     OW31180   3.990   3.585  10.787 -0.0929 -0.4941  0.1254
 6515SOL    HW131181   3.936   3.508  10.767  1.2977 -1.6135  0.6350
 6515SOL    HW231182   3.927   3.638  10.836 -0.0341 -1.7964  1.6033
 6516SOL     OW31183   2.868   2.183   4.096 -0.1954  0.3102  0.3218
 6516SOL    HW131184   2.920   2.257   4.064  0.6025  0.6620  2.4227
 6516SOL    HW231185   2.780   2.218   4.109 -0.8983 -1.3633  0.0868
 6517SOL     OW31186   1.042   1.276  15.296  0.6568 -0.0966 -0.0327
 6517SOL    HW131187   1.057   1.296  15.388  0.5739  0.2061 -0.0828
 6517SOL    HW231188   1.049   1.365  15.260 -2.5808 -0.3111 -1.1365
 6518SOL     OW31189   3.186   3.263   2.336 -0.5363 -0.1395  0.6791
 6518SOL    HW131190   3.214   3.348   2.368 -2.1919 -0.3305  2.7057
 6518SOL    HW231191   3.173   3.208   2.414  1.3287 -1.0351  0.3456
 6519SOL     OW31192   1.977   2.896   9.400 -0.1541 -0.7302 -0.3497
 6519SOL    HW131193   2.019   2.817   9.432  2.3514 -0.4190 -2.8456
 6519SOL    HW231194   2.022   2.960   9.456 -1.2864  0.2410 -0.5295
 6520SOL     OW31195   4.188   1.300   6.190 -0.1276 -0.3019  0.1156
 6520SOL    HW131196   4.249   1.226   6.187 -0.5347 -0.6904  1.6336
 6520SOL    HW231197   4.119   1.271   6.248 -0.3043  0.2226  0.1679
 6521SOL     OW31198   2.761   4.359  16.692 -0.2715 -0.1215 -0.2633
 6521SOL    HW131199   2.715   4.335  16.773  1.9761 -1.3531  0.6610
 6521SOL    HW231200   2.695   4.361  16.623  0.0819 -0.9721 -0.6245
 6522SOL     OW31201   3.580   0.767   3.170 -0.4657 -0.2889 -0.1073
 6522SOL    HW131202   3.561   0.784   3.078  0.1379 -1.6334 -0.4808
 6522SOL    HW231203   3.673   0.786   3.175 -0.1180 -2.1731  0.8526
 6523SOL     OW31204   4.257   0.724   6.404  0.4910  0.4539 -0.0282
 6523SOL    HW131205   4.170   0.714   6.367 -0.4927  0.5639  2.2327
 6523SOL    HW231206   4.310   0.759   6.333  0.5449 -2.3950 -1.3771
 6524SOL     OW31207   1.751   1.456   0.639 -0.2220 -0.2664  0.1964
 6524SOL    HW131208   1.752   1.548   0.666 -0.7708 -0.7348  1.7827
 6524SOL    HW231209   1.707   1.468   0.555 -1.8929 -1.2856  0.9208
 6525SOL     OW31210   4.699   2.289   3.935 -0.8029  0.1351 -0.2574
 6525SOL    HW131211   4.683   2.217   3.873 -2.0860  1.3850 -1.3713
 6525SOL    HW231212   0.059   2.287   3.921 -0.8713  1.7956 -0.8899
 6526SOL     OW31213   2.537   4.721   5.556  0.1702 -0.4573  0.3128
 6526SOL    HW131214   2.601   4.661   5.517 -0.0101 -0.1801 -0.4016
 6526SOL    HW231215   2.491   4.655   5.608  0.2015 -0.4889  0.3007
 6527SOL     OW31216   2.944   2.824  13.645 -0.3124  0.2630  0.4717
 6527SOL    HW131217   3.025   2.788  13.680  0.2820  0.5665 -0.5661
 6527SOL    HW231218   2.970   2.916  13.631 -2.1591  0.9446  1.4668
 6528SOL     OW31219   3.627   1.062   9.874  0.2116  0.0566 -0.2146
 6528SOL    HW131220   3.704   1.115   9.850  1.7377 -0.4939  3.5279
 6528SOL    HW231221   3.554   1.124   9.877  1.4096  1.5150 -0.7594
 6529SOL     OW31222   1.427   3.840   4.743 -0.4393  0.1398  0.5067
 6529SOL    HW131223   1.507   3.846   4.690 -1.3763 -0.3166 -0.9745
 6529SOL    HW231224   1.438   3.766   4.802 -0.2830  0.2815  0.6592
 6530SOL     OW31225   3.354   2.976  16.700 -0.3771  0.2012  0.9792
 6530SOL    HW131226   3.317   3.017  16.622 -2.0546  0.4798  1.9287
 6530SOL    HW231227   3.444   2.979  16.667 -1.2483  1.5047 -1.2782
 6531SOL     OW31228   4.337   0.095   3.842  0.5624 -0.5065  0.0136
 6531SOL    HW131229   4.420   0.061   3.876 -0.0502 -1.3343  0.6584
 6531SOL    HW231230   4.278   0.023   3.861  1.5132 -0.7887  1.8465
 6532SOL     OW31231   3.379   0.654  12.243  0.0560  0.5426 -0.3477
 6532SOL    HW131232   3.350   0.690  12.159 -0.4210  0.6519 -0.1383
 6532SOL    HW231233   3.461   0.699  12.262  1.4712 -2.5580  0.8231
 6533SOL     OW31234   0.990   4.087   3.584  0.0660 -0.3874  0.3422
 6533SOL    HW131235   0.990   4.016   3.520 -1.6554 -0.1822  0.1014
 6533SOL    HW231236   1.058   4.060   3.646 -0.9928 -0.8645  1.2999
 6534SOL     OW31237   3.045   3.930   9.431  0.3067 -0.6015 -1.0497
 6534SOL    HW131238   3.046   4.005   9.372 -1.8123  0.3898  0.1884
 6534SOL    HW231239   2.977   3.957   9.492  0.4219 -0.6456 -0.9025
 6535SOL     OW31240   2.824   0.725   1.366 -0.1590  0.3677  0.4516
 6535SOL    HW131241   2.894   0.704   1.428  0.8759 -2.5922 -1.7237
 6535SOL    HW231242   2.869   0.775   1.298 -2.2923  1.3375 -0.2565
 6536SOL     OW31243   1.031   2.156   0.298 -0.3219  0.0010 -0.2638
 6536SOL    HW131244   1.058   2.121   0.213  0.1322  0.8111 -0.4535
 6536SOL    HW231245   1.032   2.070   0.341  1.4943  0.6634  1.0012
 6537SOL     OW31246   1.301   4.665   4.664  0.0991  0.1963 -0.0512
 6537SOL    HW131247   1.392   4.650   4.638 -0.2167 -2.3247  0.2883
 6537SOL    HW231248   1.286   0.005   4.606 -0.5983 -0.3777 -0.6108
 6538SOL     OW31249   3.331   0.065  15.318 -0.1234  0.4833  0.0170
 6538SOL    HW131250   3.407   0.014  15.293  0.1838  1.1296 -0.3791
 6538SOL    HW231251   3.360   0.107  15.399  0.6502  2.2697 -1.1694
 6539SOL     OW31252   0.654   3.363   4.226 -0.2230 -0.1896 -0.3102
 6539SOL    HW131253   0.691   3.441   4.186 -0.5401  0.2557  0.2530
 6539SOL    HW231254   0.584   3.408   4.274  0.0737 -1.4378  1.2894
 6540SOL     OW31255   2.327   2.847   4.123  0.5534  0.2992  0.7629
 6540SOL    HW131256   2.252   2.884   4.171 -1.0942 -1.5241 -0.3937
 6540SOL    HW231257   2.387   2.811   4.188  0.9725 -0.2760  0.0510
 6541SOL     OW31258   1.206   4.107   8.112  0.2184 -0.4247  0.1716
 6541SOL    HW131259   1.140   4.038   8.099 -0.2009 -0.1294  0.6846
 6541SOL    HW231260   1.284   4.053   8.106  0.7259  0.7077 -3.3559
 6542SOL     OW31261   3.845   0.502   3.262  0.1013  0.1167  0.0185
 6542SOL    HW131262   3.910   0.571   3.273  1.2868 -1.3383  2.0369
 6542SOL    HW231263   3.899   0.433   3.223  0.7128  0.0626  0.9663
 6543SOL     OW31264   1.936   0.495   4.520 -0.6451  0.8301 -0.6657
 6543SOL    HW131265   2.020   0.520   4.482 -0.2305 -1.3550 -1.1548
 6543SOL    HW231266   1.969   0.435   4.587  0.7703  1.5080 -0.7387
 6544SOL     OW31267   0.999   2.275  12.929 -0.4696  0.3364  0.4006
 6544SOL    HW131268   0.975   2.304  13.017  0.9056 -0.0844  0.9218
 6544SOL    HW231269   1.042   2.190  12.941  0.3794  0.3178 -2.8191
 6545SOL     OW31270   3.175   2.709   6.519 -0.1897  0.2875 -0.0116
 6545SOL    HW131271   3.167   2.801   6.542  1.2582  0.7453 -1.4215
 6545SOL    HW231272   3.134   2.696   6.434 -0.5226  1.5135 -0.0351
 6546SOL     OW31273   1.913   2.603   2.644 -0.5839  0.6081 -0.3578
 6546SOL    HW131274   1.999   2.644   2.639 -0.8433  1.1755 -0.2144
 6546SOL    HW231275   1.879   2.663   2.577  0.2731 -0.6724 -1.9495
 6547SOL     OW31276   0.222   2.560   4.015 -0.4440  0.3934 -0.4311
 6547SOL    HW131277   0.302   2.602   3.984  0.1753 -1.3797 -1.2333
 6547SOL    HW231278   0.242   2.474   3.977 -0.1333  0.9490 -1.5149
 6548SOL     OW31279   4.319   2.890   6.375 -1.2231  0.2581  0.2198
 6548SOL    HW131280   4.307   2.985   6.368  4.3177  0.9800  0.8868
 6548SOL    HW231281   4.389   2.870   6.314 -1.9721 -2.3238  0.2090
 6549SOL     OW31282   4.067   3.837   6.735 -0.7861 -0.4110  0.3747
 6549SOL    HW131283   3.995   3.893   6.706 -0.1329  0.2814  0.0642
 6549SOL    HW231284   4.112   3.894   6.798 -0.4226 -0.4526  0.1548
 6550SOL     OW31285   3.165   2.225   7.050  0.6017  0.0949 -0.6850
 6550SOL    HW131286   3.239   2.239   6.991  1.0894 -0.8842 -0.3064
 6550SOL    HW231287   3.107   2.294   7.018  2.1824  1.0174 -1.5850
 6551SOL     OW31288   3.471   3.724   6.571 -0.1794  0.1403 -0.1918
 6551SOL    HW131289   3.451   3.795   6.632  1.3029 -1.5899  2.2403
 6551SOL    HW231290   3.559   3.747   6.542  0.2569 -0.4264  0.7276
 6552SOL     OW31291   4.514   4.633   8.188  0.2375 -0.0193 -0.5946
 6552SOL    HW131292   4.531   4.582   8.109  1.5895 -2.5411  1.3184
 6552SOL    HW231293   4.591   4.638   8.244 -0.2438  0.2916  0.0397
 6553SOL     OW31294   1.122   0.836   4.538 -0.2624  0.2735  0.3135
 6553SOL    HW131295   1.162   0.754   4.566  1.0122  0.1495 -1.8558
 6553SOL    HW231296   1.067   0.865   4.611  1.7498  0.1320  1.8467
 6554SOL     OW31297   2.285   2.475   2.655  0.3492  0.0928  0.1447
 6554SOL    HW131298   2.266   2.391   2.614  1.0913  0.6288 -1.3218
 6554SOL    HW231299   2.378   2.471   2.634  0.2533  0.8694 -0.4616
 6555SOL     OW31300   1.177   2.644  11.387  0.3081  0.2272 -0.1023
 6555SOL    HW131301   1.267   2.611  11.383  0.4121  0.3901  0.8441
 6555SOL    HW231302   1.186   2.733  11.353  3.0882  0.6332  1.6658
 6556SOL     OW31303   1.105   0.234  14.761 -0.7024 -0.0422 -1.4197
 6556SOL    HW131304   1.175   0.271  14.707  1.8488 -1.2206  1.0663
 6556SOL    HW231305   1.054   0.312  14.779  0.0387 -0.0083  0.5019
 6557SOL     OW31306   3.034   1.008   5.472 -0.8470  0.3583 -0.0290
 6557SOL    HW131307   3.013   0.942   5.405  4.1002 -1.6506  0.4366
 6557SOL    HW231308   3.045   0.941   5.540  0.1768 -0.3100 -0.8514
 6558SOL     OW31309   2.805   4.258   7.044 -0.4327  0.3756  0.1949
 6558SOL    HW131310   2.877   4.291   7.098  0.5436 -0.9858 -0.2763
 6558SOL    HW231311   2.808   4.169   7.077 -0.4321  0.1492 -0.4132
 6559SOL     OW31312   3.254   1.955  17.556  0.1957 -0.2694 -0.3763
 6559SOL    HW131313   3.326   1.918  17.504  1.1826  0.7951  0.2354
 6559SOL    HW231314   3.182   1.932  17.497  1.6010 -0.7328 -1.9262
 6560SOL     OW31315   3.506   4.335   3.987  0.1948  0.5119  0.0590
 6560SOL    HW131316   3.474   4.258   3.940 -1.5100 -0.2172  2.4120
 6560SOL    HW231317   3.592   4.304   4.015  0.4563 -0.3505 -1.7532
 6561SOL     OW31318   4.700   2.516   1.918  0.4828  1.0572 -0.1769
 6561SOL    HW131319   0.059   2.491   1.922  0.2426  0.2480  0.3595
 6561SOL    HW231320   4.669   2.461   1.847  0.0730  1.3592 -0.2292
 6562SOL     OW31321   2.351   0.478  11.045 -0.3761  0.0701 -0.1531
 6562SOL    HW131322   2.418   0.476  10.977 -0.9554  1.8519 -0.7778
 6562SOL    HW231323   2.291   0.549  11.022 -2.6419 -1.7165  0.2357
 6563SOL     OW31324   1.940   3.530   8.674  0.7208 -0.1302 -0.5258
 6563SOL    HW131325   1.849   3.500   8.669  0.8410 -0.7039  1.0907
 6563SOL    HW231326   1.952   3.521   8.768  0.2170  1.3695 -0.3225
 6564SOL     OW31327   0.959   3.261  16.091 -0.1916 -0.4040 -0.0742
 6564SOL    HW131328   0.900   3.189  16.065 -2.2953  0.5019  2.1553
 6564SOL    HW231329   0.979   3.297  16.005 -1.9976  0.7864  0.0052
 6565SOL     OW31330   1.645   3.090   2.699 -0.2904  0.6796 -0.0422
 6565SOL    HW131331   1.727   3.070   2.745 -0.5244 -0.6506 -0.1824
 6565SOL    HW231332   1.641   3.185   2.703 -1.4110  0.6190  0.3140
 6566SOL     OW31333   0.605   3.657  16.064 -0.4680  0.3479 -0.1582
 6566SOL    HW131334   0.576   3.655  15.973 -2.1721 -0.9990  0.4227
 6566SOL    HW231335   0.610   3.748  16.092 -1.0034  0.1917  0.4424
 6567SOL     OW31336   1.182   0.706   5.486 -0.1027 -0.0762 -0.1007
 6567SOL    HW131337   1.271   0.676   5.472 -0.4099 -0.5874 -1.0122
 6567SOL    HW231338   1.170   0.769   5.414  0.7380  1.1345  0.8208
 6568SOL     OW31339   0.241   1.586  15.502  0.3840 -0.1463  0.2382
 6568SOL    HW131340   0.281   1.550  15.581  0.4666 -0.5490  0.0145
 6568SOL    HW231341   0.219   1.509  15.448  2.0983  0.0274 -0.7087
 6569SOL     OW31342   2.633   4.707   4.537  0.3891  0.2046 -0.3014
 6569SOL    HW131343   2.712   0.016   4.573  0.4152 -0.3511  0.3025
 6569SOL    HW231344   2.676   4.642   4.481 -2.9099 -1.1789 -1.1744
 6570SOL     OW31345   1.700   1.713   2.054 -0.1563 -0.0099  0.2529
 6570SOL    HW131346   1.693   1.807   2.037 -0.0609 -0.4358 -2.2201
 6570SOL    HW231347   1.634   1.710   2.123 -1.2255 -0.1740 -0.7821
 6571SOL     OW31348   0.492   2.789   4.232 -0.4585  0.1856 -0.4166
 6571SOL    HW131349   0.581   2.812   4.261 -0.5652  1.0487 -0.7870
 6571SOL    HW231350   0.451   2.836   4.305 -0.0176  0.2688 -0.2213
 6572SOL     OW31351   2.598   0.882   2.862  0.1119 -0.4599 -0.2355
 6572SOL    HW131352   2.526   0.849   2.917 -1.1431  1.0260 -0.9879
 6572SOL    HW231353   2.658   0.920   2.926 -0.8562  2.1551 -0.8870
 6573SOL     OW31354   3.527   1.360   8.276  0.3935  0.1960  0.3166
 6573SOL    HW131355   3.593   1.342   8.209 -1.1227  0.8092 -1.3062
 6573SOL    HW231356   3.566   1.353   8.364 -2.0131 -4.4246  1.0436
 6574SOL     OW31357   2.374   2.397   4.768  0.0430 -0.0521 -0.1240
 6574SOL    HW131358   2.405   2.465   4.829 -1.0546  0.7129 -0.4294
 6574SOL    HW231359   2.318   2.344   4.824 -1.3191  1.5163 -0.0115
 6575SOL     OW31360   3.615   2.821   1.044  0.1386  0.4544 -0.0740
 6575SOL    HW131361   3.553   2.867   0.987 -1.2457  1.9437  2.6572
 6575SOL    HW231362   3.660   2.896   1.081  0.5921  0.1026  0.0851
 6576SOL     OW31363   4.703   0.530   7.029  0.3250 -0.5297 -0.4885
 6576SOL    HW131364   0.020   0.449   7.037  0.4530 -0.3404  0.6821
 6576SOL    HW231365   4.670   0.523   6.940  0.0834  2.6214 -0.6379
 6577SOL     OW31366   3.329   4.112   5.071 -0.1789 -0.3832  0.0843
 6577SOL    HW131367   3.263   4.122   5.002 -0.3953  1.3656  0.5375
 6577SOL    HW231368   3.410   4.131   5.023 -0.4615 -2.3384 -1.1351
 6578SOL     OW31369   4.098   3.793  11.012  0.1331  1.7047 -0.3207
 6578SOL    HW131370   4.027   3.739  11.047 -0.2647  2.4146 -0.0467
 6578SOL    HW231371   4.156   3.812  11.087 -0.2002  1.3390  0.0310
 6579SOL     OW31372   3.224   0.723   4.592  0.0745  0.0786 -0.4076
 6579SOL    HW131373   3.244   0.639   4.551 -3.1314 -1.3521  0.9214
 6579SOL    HW231374   3.134   0.733   4.560 -0.3298  0.4749  0.8840
 6580SOL     OW31375   0.427   0.082  14.738 -0.1215 -0.2976 -0.1616
 6580SOL    HW131376   0.449   0.104  14.648  0.8142 -2.9148 -0.5524
 6580SOL    HW231377   0.512   0.087  14.782  0.8475  0.0466 -2.0993
 6581SOL     OW31378   1.332   4.082   0.358 -0.3156 -0.0396  0.2175
 6581SOL    HW131379   1.313   4.088   0.264 -0.2864 -0.0873  0.2084
 6581SOL    HW231380   1.337   4.171   0.390  0.1894  0.6257 -1.6875
 6582SOL     OW31381   2.765   2.731   8.781  0.2322 -0.3907  0.4391
 6582SOL    HW131382   2.728   2.665   8.723  1.2579 -0.0227 -0.6435
 6582SOL    HW231383   2.690   2.771   8.825  0.5071  1.7434 -0.9805
 6583SOL     OW31384   4.057   2.456   1.639 -0.0217 -0.1051 -0.4868
 6583SOL    HW131385   4.011   2.448   1.722 -0.7130 -0.3404 -0.8992
 6583SOL    HW231386   4.102   2.541   1.635 -1.1401  0.4575 -0.9841
 6584SOL     OW31387   3.294   2.509   6.662 -0.6249  0.4933 -0.2036
 6584SOL    HW131388   3.252   2.438   6.615 -1.3868  2.2269 -2.1469
 6584SOL    HW231389   3.236   2.583   6.642 -0.3185  1.0294  0.8992
 6585SOL     OW31390   0.387   2.201  11.704  0.0957  0.8350  0.5918
 6585SOL    HW131391   0.364   2.129  11.762 -0.0368  0.9930  0.7376
 6585SOL    HW231392   0.463   2.245  11.743 -1.7657  3.9973  0.7304
 6586SOL     OW31393   4.059   1.607   9.142  0.7043 -0.2641  0.7334
 6586SOL    HW131394   4.086   1.516   9.158 -0.3135 -0.3912  1.7234
 6586SOL    HW231395   4.150   1.637   9.142  0.7792 -0.4830  0.4707
 6587SOL     OW31396   2.804   0.832  14.086 -0.0918  0.0111 -0.6012
 6587SOL    HW131397   2.776   0.827  13.994 -0.1496 -0.9409 -0.5385
 6587SOL    HW231398   2.823   0.739  14.099 -0.9951 -0.4153 -2.2634
 6588SOL     OW31399   4.277   4.730   2.370 -0.3653  0.4849 -0.2381
 6588SOL    HW131400   4.262   4.714   2.463  0.6619 -1.0508 -0.3463
 6588SOL    HW231401   4.187   4.732   2.337 -1.4790 -1.7321  2.6887
 6589SOL     OW31402   2.981   0.307   7.988 -0.0906 -0.3445 -0.3825
 6589SOL    HW131403   2.938   0.222   7.989 -0.0768 -0.3435  1.4901
 6589SOL    HW231404   2.909   0.359   8.022  0.6148  0.1041  0.4376
 6590SOL     OW31405   3.988   4.438   4.459 -0.4155  0.2437 -0.2036
 6590SOL    HW131406   3.971   4.523   4.420 -1.1155 -0.5612 -1.6347
 6590SOL    HW231407   4.065   4.405   4.413  1.3900  1.3801  1.9846
 6591SOL     OW31408   3.115   3.840  16.241  1.0066  0.2029  0.0034
 6591SOL    HW131409   3.201   3.800  16.230  1.2738  0.4901  0.9783
 6591SOL    HW231410   3.105   3.885  16.157  2.4464 -0.8642 -0.7234
 6592SOL     OW31411   1.126   0.530   4.360  0.2046  0.2408 -0.8574
 6592SOL    HW131412   1.111   0.607   4.305 -0.4829 -0.2243 -1.3241
 6592SOL    HW231413   1.198   0.553   4.419  0.3201 -0.7659 -0.6051
 6593SOL     OW31414   2.239   3.262   5.389  0.4759  0.3389  0.7114
 6593SOL    HW131415   2.155   3.268   5.345  0.7164 -3.0142 -0.2154
 6593SOL    HW231416   2.291   3.209   5.329  0.9396 -0.6920  2.0045
 6594SOL     OW31417   2.999   0.625  14.377 -0.3030  0.7248 -0.0925
 6594SOL    HW131418   3.046   0.692  14.327  0.4928 -0.2086 -0.6054
 6594SOL    HW231419   2.976   0.565  14.305  2.9540 -1.7351  0.9543
 6595SOL     OW31420   2.337   0.907   2.541 -0.3391 -0.1002 -0.1085
 6595SOL    HW131421   2.252   0.869   2.564 -0.8090  0.3647 -1.1106
 6595SOL    HW231422   2.384   0.828   2.515  1.2898  0.5622  0.7772
 6596SOL     OW31423   2.987   4.162  10.043 -0.1654 -0.1204 -0.3435
 6596SOL    HW131424   2.982   4.258  10.041 -1.3827 -0.1661  0.7997
 6596SOL    HW231425   2.904   4.146  10.089  0.6689 -1.3445  0.7435
 6597SOL     OW31426   2.472   0.862   5.996  0.1239 -0.2077 -0.6852
 6597SOL    HW131427   2.497   0.770   5.994  0.3796 -0.1720  0.8163
 6597SOL    HW231428   2.534   0.891   6.062  0.2060 -1.5397 -0.1823
 6598SOL     OW31429   1.780   0.967   1.675  0.2169  0.8286 -0.2925
 6598SOL    HW131430   1.695   0.949   1.715  1.6914 -1.9593  1.5952
 6598SOL    HW231431   1.755   0.955   1.584 -0.8572 -1.3126  0.2846
 6599SOL     OW31432   3.789   0.641   4.184 -0.2604 -0.1194 -0.2889
 6599SOL    HW131433   3.742   0.569   4.143  1.3075 -1.2524 -0.1200
 6599SOL    HW231434   3.862   0.653   4.123  0.4525  3.1238  1.1644
 6600SOL     OW31435   1.397   0.206   9.959 -0.3527 -0.5393  0.0325
 6600SOL    HW131436   1.422   0.141   9.894  0.4407 -0.2126  0.0092
 6600SOL    HW231437   1.455   0.180  10.030  1.4808  1.1080 -0.8730
 6601SOL     OW31438   3.738   3.420   3.212 -0.2788 -0.7426 -0.0379
 6601SOL    HW131439   3.727   3.478   3.137  2.8069 -1.6502 -1.1670
 6601SOL    HW231440   3.726   3.487   3.279 -0.4763 -1.7817  0.9764
 6602SOL     OW31441   1.315   1.707   0.437 -0.2920 -0.0472  0.2397
 6602SOL    HW131442   1.387   1.764   0.410 -0.2229  0.2407  1.0183
 6602SOL    HW231443   1.360   1.661   0.508 -1.1989  1.8180  2.0229
 6603SOL     OW31444   0.210   4.686   3.678 -0.3722  0.7421  0.4817
 6603SOL    HW131445   0.223   4.591   3.681 -0.0157  0.7513 -1.0963
 6603SOL    HW231446   0.303   4.708   3.674 -0.2105 -0.1044 -0.4097
 6604SOL     OW31447   3.131   4.601   5.263  0.0777 -0.2715 -0.5076
 6604SOL    HW131448   3.094   4.540   5.327 -0.7301  0.2886 -0.4373
 6604SOL    HW231449   3.184   4.655   5.322 -1.9086 -1.1787  2.0885
 6605SOL     OW31450   4.043   3.686   8.413  0.4491  0.4843  0.3965
 6605SOL    HW131451   4.036   3.595   8.382  1.0829  0.1936  1.1153
 6605SOL    HW231452   4.087   3.728   8.339  0.0708  0.7780  0.3383
 6606SOL     OW31453   1.498   0.995   1.888 -0.1041 -0.0933  0.1272
 6606SOL    HW131454   1.417   1.039   1.914 -0.0104  1.0899 -1.5919
 6606SOL    HW231455   1.459   0.926   1.835  0.5948 -0.2125 -0.2273
 6607SOL     OW31456   3.247   0.929   3.728  0.0475  0.5810 -0.2477
 6607SOL    HW131457   3.159   0.945   3.760 -0.1004 -1.3094  0.2873
 6607SOL    HW231458   3.266   0.999   3.665 -0.7444  2.1694  1.2749
 6608SOL     OW31459   3.386   3.404   2.986  0.3169  0.5831  0.0810
 6608SOL    HW131460   3.419   3.485   3.024 -1.7539  0.3551  2.3373
 6608SOL    HW231461   3.296   3.435   2.992  0.0816  0.0377 -0.5475
 6609SOL     OW31462   2.360   1.066  11.249  0.0379  0.0267  0.3277
 6609SOL    HW131463   2.276   1.085  11.207 -0.6359 -1.6373  0.9510
 6609SOL    HW231464   2.360   1.136  11.315 -0.3664  0.3460 -0.0053
 6610SOL     OW31465   3.436   1.822  17.397  0.0335 -0.0141  0.4583
 6610SOL    HW131466   3.521   1.808  17.438  0.4848  3.5175  0.6876
 6610SOL    HW231467   3.432   1.735  17.357 -0.1685 -0.0601  0.5755
 6611SOL     OW31468   3.221   3.747  13.091  0.5434 -0.4784 -0.0998
 6611SOL    HW131469   3.172   3.674  13.052  1.4152 -0.6576 -0.8622
 6611SOL    HW231470   3.190   3.823  13.041  0.5638 -1.7013 -1.9986
 6612SOL     OW31471   4.680   2.967   4.436 -0.1982  0.2961 -0.3495
 6612SOL    HW131472   4.613   2.978   4.369  0.1627  0.3506 -0.7025
 6612SOL    HW231473   4.626   2.961   4.515 -1.2220  0.9193 -0.9960
 6613SOL     OW31474   2.433   3.906  15.777  0.3859 -0.0414  0.1201
 6613SOL    HW131475   2.509   3.922  15.721  0.9786 -2.1121  0.3012
 6613SOL    HW231476   2.452   3.952  15.859  1.8017 -2.1571  1.0011
 6614SOL     OW31477   0.312   0.852   5.979 -0.6838 -0.4640 -0.6490
 6614SOL    HW131478   0.334   0.922   5.917 -1.0966  0.5936  0.4136
 6614SOL    HW231479   0.340   0.776   5.927 -0.8138 -0.3720 -0.8547
 6615SOL     OW31480   0.965   1.757  12.377 -0.1117 -0.2065 -0.2436
 6615SOL    HW131481   0.961   1.804  12.293  0.3951  0.2932  0.0101
 6615SOL    HW231482   0.942   1.827  12.438  0.4544 -1.0739  0.9496
 6616SOL     OW31483   2.370   0.587  10.352  0.1798 -0.2499 -0.3134
 6616SOL    HW131484   2.457   0.569  10.316 -0.7235 -3.1482 -1.0700
 6616SOL    HW231485   2.345   0.666  10.305  0.7720 -0.5323 -1.0856
 6617SOL     OW31486   3.966   0.215  15.519  0.4885 -0.0461  0.8600
 6617SOL    HW131487   3.932   0.162  15.447 -0.8533 -1.5729  2.6182
 6617SOL    HW231488   4.026   0.273  15.471 -1.3562  0.3130 -0.9777
 6618SOL     OW31489   1.460   4.684   3.643 -0.2216 -0.4861 -0.1884
 6618SOL    HW131490   1.461   0.037   3.602 -0.9284 -0.5748 -0.4103
 6618SOL    HW231491   1.379   4.649   3.605 -1.7541  0.9562  1.7209
 6619SOL     OW31492   1.407   0.822   8.563 -0.0681  0.0902  0.1834
 6619SOL    HW131493   1.427   0.729   8.568 -2.1794 -0.3544  0.1332
 6619SOL    HW231494   1.423   0.846   8.472 -2.3754 -0.7696 -0.4330
 6620SOL     OW31495   0.564   3.264   4.718  0.0496  0.3298  0.5916
 6620SOL    HW131496   0.619   3.341   4.734  0.4264  0.1532  0.1403
 6620SOL    HW231497   0.566   3.208   4.795  1.1169 -0.3461  0.0606
 6621SOL     OW31498   3.038   0.469   3.546 -0.1207 -0.1088 -0.0076
 6621SOL    HW131499   2.971   0.513   3.494 -0.7763 -2.0235 -0.8066
 6621SOL    HW231500   3.081   0.549   3.576 -0.2049  0.0716 -0.3679
 6622SOL     OW31501   2.348   2.807  17.178 -0.3654  0.2052  0.0813
 6622SOL    HW131502   2.368   2.716  17.157 -0.2506  0.4034 -0.6500
 6622SOL    HW231503   2.270   2.786  17.228 -0.2329  1.6242  0.8868
 6623SOL     OW31504   0.606   3.168   2.118 -0.2988 -0.2078 -0.4671
 6623SOL    HW131505   0.583   3.159   2.026 -0.5579 -2.0497 -0.2195
 6623SOL    HW231506   0.554   3.097   2.157  0.3539 -0.9632 -0.9786
 6624SOL     OW31507   4.385   0.437   4.677 -0.1755  0.3437  1.1288
 6624SOL    HW131508   4.338   0.383   4.613  1.2617  2.9280 -2.1588
 6624SOL    HW231509   4.476   0.413   4.658 -0.4866 -0.0367  0.1024
 6625SOL     OW31510   0.106   2.388   1.148 -0.2173  0.7059  0.2794
 6625SOL    HW131511   0.062   2.328   1.207  3.6230 -2.8975 -0.4987
 6625SOL    HW231512   0.112   2.457   1.214 -0.7219  0.8019  0.2208
 6626SOL     OW31513   2.388   4.484   2.442 -0.0896  0.5501 -0.2540
 6626SOL    HW131514   2.377   4.418   2.374  1.6588  1.1872 -1.1652
 6626SOL    HW231515   2.337   4.558   2.409 -2.2311 -0.3571  1.0176
 6627SOL     OW31516   4.101   1.244  11.932 -0.3484  0.4930  0.0836
 6627SOL    HW131517   4.119   1.267  11.841  1.2862 -0.7823  0.0977
 6627SOL    HW231518   4.044   1.317  11.959  1.3672  1.4394  1.1531
 6628SOL     OW31519   1.638   3.649   5.529 -0.2757  0.0608  0.0130
 6628SOL    HW131520   1.704   3.694   5.581  0.4227 -1.5845  0.5586
 6628SOL    HW231521   1.699   3.618   5.462  1.0088  2.1686  0.2090
 6629SOL     OW31522   4.164   3.480   9.071 -0.0361 -0.6079  0.2428
 6629SOL    HW131523   4.171   3.460   9.164  1.8842 -2.4251 -0.2779
 6629SOL    HW231524   4.195   3.570   9.067  1.0848 -0.9667  0.6828
 6630SOL     OW31525   2.818   3.164   5.969 -0.1954  0.4132 -0.0270
 6630SOL    HW131526   2.883   3.233   5.985  0.4462 -0.3027  0.4301
 6630SOL    HW231527   2.757   3.211   5.912  0.2086 -0.6141 -1.3006
 6631SOL     OW31528   0.520   2.708   3.757  0.1412  0.1473  0.4474
 6631SOL    HW131529   0.463   2.754   3.818 -1.2488 -0.5552 -0.3253
 6631SOL    HW231530   0.492   2.617   3.762 -0.5384  0.3307 -0.0133
 6632SOL     OW31531   3.718   1.654   7.908  0.2863  0.3244 -0.0058
 6632SOL    HW131532   3.775   1.581   7.931 -0.2885  0.7037  2.5991
 6632SOL    HW231533   3.774   1.708   7.852  2.4520 -0.1614  1.7213
 6633SOL     OW31534   4.732   0.280   9.695  0.0043 -0.2112  0.2234
 6633SOL    HW131535   0.007   0.192   9.733  1.7817  0.0878  0.4789
 6633SOL    HW231536   4.712   0.335   9.771  1.7331 -1.1603  1.3847
 6634SOL     OW31537   2.846   3.834  16.041 -0.2331  0.0437  0.0438
 6634SOL    HW131538   2.887   3.832  15.954 -3.6164  0.2177 -1.5383
 6634SOL    HW231539   2.818   3.925  16.049  2.3975  0.8066  0.5656
 6635SOL     OW31540   3.079   1.107   8.883  0.4365  0.2819  0.2715
 6635SOL    HW131541   3.017   1.120   8.955 -1.2185 -2.0452 -0.7652
 6635SOL    HW231542   3.092   1.194   8.844  1.3196  0.4224  0.8582
 6636SOL     OW31543   0.759   0.511   8.182  0.4950 -0.1995 -1.2138
 6636SOL    HW131544   0.793   0.531   8.095  3.8409 -1.7215 -0.2540
 6636SOL    HW231545   0.818   0.440   8.208 -0.9838 -1.1474 -0.3991
 6637SOL     OW31546   0.267   2.024   9.108 -0.0107  0.0390  0.4317
 6637SOL    HW131547   0.358   2.037   9.079  0.0674 -1.7204 -0.1186
 6637SOL    HW231548   0.244   1.941   9.066 -2.6831  0.4430  1.0920
 6638SOL     OW31549   3.982   0.334   4.925  0.5286  0.5468 -0.2546
 6638SOL    HW131550   4.042   0.278   4.973 -0.3198 -0.4241 -0.3246
 6638SOL    HW231551   4.038   0.411   4.934 -0.0175  0.8665  0.4902
 6639SOL     OW31552   4.149   2.469   3.103  0.9387  0.2112 -0.1611
 6639SOL    HW131553   4.184   2.513   3.181 -1.1404  0.7080  0.4812
 6639SOL    HW231554   4.079   2.414   3.137 -0.3360  1.3137 -0.9813
 6640SOL     OW31555   3.006   0.895   2.734 -0.7575 -0.3264 -0.6355
 6640SOL    HW131556   2.995   0.807   2.770 -1.6864 -1.2140 -3.0924
 6640SOL    HW231557   3.092   0.886   2.694 -0.7001  0.1206 -0.6114
 6641SOL     OW31558   4.524   4.074  12.760 -0.2638  0.1413 -0.3048
 6641SOL    HW131559   4.438   4.112  12.778 -0.6489  0.1357 -2.1442
 6641SOL    HW231560   4.568   4.145  12.712  1.0302  0.6602  1.6459
 6642SOL     OW31561   1.670   0.464   1.586  0.1900 -0.7516  0.9037
 6642SOL    HW131562   1.679   0.421   1.670  1.2130 -1.8809  0.2160
 6642SOL    HW231563   1.760   0.458   1.553 -0.5009  1.2299 -1.4200
 6643SOL     OW31564   1.419   0.361   4.700  0.2636 -0.1873 -0.7341
 6643SOL    HW131565   1.336   0.312   4.702 -0.2190  0.6243 -1.3220
 6643SOL    HW231566   1.463   0.318   4.626  0.7199  0.2973 -0.7432
 6644SOL     OW31567   4.572   4.593   7.239  0.3130 -0.7783  0.2246
 6644SOL    HW131568   4.486   4.560   7.263 -0.0055 -0.0881  0.0455
 6644SOL    HW231569   4.550   4.684   7.218  2.4042 -0.2190  0.3885
 6645SOL     OW31570   4.472   1.066   8.753  0.2536 -0.3006  0.5892
 6645SOL    HW131571   4.490   1.033   8.841 -1.8747 -1.1340  0.7126
 6645SOL    HW231572   4.462   0.990   8.695  2.2325  0.3345 -0.5895
 6646SOL     OW31573   2.188   2.452   3.747 -0.1116 -0.1576 -0.0136
 6646SOL    HW131574   2.262   2.430   3.691  0.2759 -1.6793  1.0831
 6646SOL    HW231575   2.118   2.483   3.689 -0.8823  0.6358  1.3571
 6647SOL     OW31576   1.167   4.009  13.164 -0.0758  0.0407  0.4251
 6647SOL    HW131577   1.203   4.005  13.075  1.2775 -1.6147  1.0429
 6647SOL    HW231578   1.109   3.934  13.160  1.4269 -1.0567 -0.8770
 6648SOL     OW31579   0.171   4.333   6.809 -0.3534  1.2546 -0.2192
 6648SOL    HW131580   0.159   4.319   6.903 -0.6649  1.3674 -0.2431
 6648SOL    HW231581   0.138   4.423   6.810 -0.2988  1.2863 -2.3020
 6649SOL     OW31582   4.096   1.688   3.796  0.0208  0.7190  0.5443
 6649SOL    HW131583   4.119   1.631   3.869  0.0278 -0.6345 -0.5344
 6649SOL    HW231584   4.179   1.737   3.799  0.2076  0.4043  0.4986
 6650SOL     OW31585   0.968   2.288   8.715 -0.3463 -0.0212  0.2880
 6650SOL    HW131586   1.009   2.321   8.795 -1.6041  0.4435  0.7449
 6650SOL    HW231587   0.897   2.352   8.708 -1.4224 -1.2918 -0.4170
 6651SOL     OW31588   1.925   2.308   4.766 -0.2065  0.2002  0.2601
 6651SOL    HW131589   1.953   2.229   4.719  1.0717  1.7438 -1.5765
 6651SOL    HW231590   1.994   2.303   4.832 -0.5346 -2.7189  0.3691
 6652SOL     OW31591   2.289   0.158   5.092 -0.6322  0.3241 -0.6278
 6652SOL    HW131592   2.330   0.200   5.016 -1.3733  0.6866 -0.8334
 6652SOL    HW231593   2.284   0.065   5.071  3.0372  0.1018 -0.3323
 6653SOL     OW31594   0.407   1.204   6.754  0.0712 -0.4694 -0.8799
 6653SOL    HW131595   0.322   1.174   6.720 -0.8458  0.7871  0.3279
 6653SOL    HW231596   0.462   1.137   6.713 -1.9461  0.2379 -4.7261
 6654SOL     OW31597   0.857   3.377   4.447 -0.1624 -0.0951 -0.1303
 6654SOL    HW131598   0.942   3.340   4.424 -0.4548 -0.7534 -0.1558
 6654SOL    HW231599   0.796   3.321   4.398 -1.7741  0.5469  1.1385
 6655SOL     OW31600   2.625   0.530   3.885  0.4677 -0.1455 -0.5876
 6655SOL    HW131601   2.634   0.619   3.919  1.3344  0.1649 -1.6735
 6655SOL    HW231602   2.708   0.487   3.906  2.0669  3.8709  1.3624
 6656SOL     OW31603   3.542   1.710  12.265  0.2890  0.0700 -0.1172
 6656SOL    HW131604   3.600   1.665  12.203  2.4303  1.8498  0.6027
 6656SOL    HW231605   3.481   1.758  12.209 -0.8770  0.4501  1.4840
 6657SOL     OW31606   1.138   2.028  16.949  1.0961  0.1613  0.3288
 6657SOL    HW131607   1.188   1.966  16.895  2.7421  1.8076 -0.0209
 6657SOL    HW231608   1.058   1.982  16.976  0.7084  0.1527 -0.8558
 6658SOL     OW31609   1.056   4.103   7.182 -0.2868 -0.7236 -0.2035
 6658SOL    HW131610   1.061   4.071   7.272 -1.4820 -0.1602  0.0589
 6658SOL    HW231611   1.065   4.024   7.128  0.4730 -0.8247  0.0689
 6659SOL     OW31612   2.393   0.572   7.608 -0.0696  0.1124 -0.0811
 6659SOL    HW131613   2.389   0.665   7.587  0.3007  0.1879  0.1972
 6659SOL    HW231614   2.442   0.588   7.688  0.4117  1.0129 -0.5563
 6660SOL     OW31615   4.549   2.424   4.680 -0.0116 -0.7332 -0.2911
 6660SOL    HW131616   4.611   2.394   4.613  0.5045 -0.0998 -0.1003
 6660SOL    HW231617   4.598   2.506   4.690 -0.6372 -0.4536  0.4827
 6661SOL     OW31618   3.892   2.494  14.973 -0.1978 -1.3217  0.4108
 6661SOL    HW131619   3.852   2.408  14.955 -1.6452 -0.9254  1.7822
 6661SOL    HW231620   3.828   2.550  14.929  2.3227 -1.4809 -3.4099
 6662SOL     OW31621   1.131   1.520  10.203 -0.5084 -0.6265  0.1418
 6662SOL    HW131622   1.175   1.504  10.287 -2.1733  0.2741  1.1935
 6662SOL    HW231623   1.162   1.602  10.165 -0.7771 -0.4866  0.2224
 6663SOL     OW31624   0.380   2.766   8.123 -0.7588 -0.8139  0.2510
 6663SOL    HW131625   0.340   2.731   8.202 -1.1813  2.6993  1.5807
 6663SOL    HW231626   0.370   2.859   8.144 -1.3941 -1.0327  0.8971
 6664SOL     OW31627   2.655   1.671   5.877  0.1878 -0.1410 -0.0617
 6664SOL    HW131628   2.687   1.587   5.845  0.1118 -1.3377  2.9732
 6664SOL    HW231629   2.562   1.649   5.884  0.2977 -0.0434  1.7994
 6665SOL     OW31630   0.577   1.438   9.299 -0.2639  0.3703  0.0185
 6665SOL    HW131631   0.555   1.493   9.224  1.3075 -0.6914 -1.2387
 6665SOL    HW231632   0.617   1.366   9.250  0.8692 -0.3045  1.9473
 6666SOL     OW31633   3.800   3.081   8.203  0.2100  0.0737  0.4890
 6666SOL    HW131634   3.850   3.159   8.180  0.8010 -0.2045  0.8509
 6666SOL    HW231635   3.807   3.081   8.298  0.3225  0.4172  0.4776
 6667SOL     OW31636   4.687   2.389   6.206  0.2482 -0.1573 -0.1407
 6667SOL    HW131637   4.704   2.422   6.117 -2.1449 -0.7430 -0.7979
 6667SOL    HW231638   4.600   2.425   6.219  0.8467  2.0626 -2.1504
 6668SOL     OW31639   0.211   1.971  15.863 -0.3543  0.4501 -0.4381
 6668SOL    HW131640   0.220   1.878  15.840  2.6364  0.3591  1.1310
 6668SOL    HW231641   0.159   2.004  15.790  0.8054 -0.5909 -1.7295
 6669SOL     OW31642   1.167   1.269  11.148  0.3713 -0.3207  0.2269
 6669SOL    HW131643   1.117   1.252  11.228 -0.5582  1.6346  0.0713
 6669SOL    HW231644   1.104   1.331  11.110  0.6102 -0.4335 -0.3404
 6670SOL     OW31645   0.150   3.561  11.800 -0.0497  0.3391 -0.3480
 6670SOL    HW131646   0.129   3.647  11.764 -0.2638  0.1791 -0.6097
 6670SOL    HW231647   0.076   3.535  11.855 -1.2968  1.6102 -1.4356
 6671SOL     OW31648   3.892   0.923   5.167 -0.3193  0.1783 -0.0800
 6671SOL    HW131649   3.944   0.845   5.185 -2.2576 -1.2348 -0.6100
 6671SOL    HW231650   3.811   0.882   5.137 -2.4630  1.3202  4.1648
 6672SOL     OW31651   0.404   4.661  13.569 -0.3192 -0.1858 -0.2945
 6672SOL    HW131652   0.390   4.710  13.650  3.7818 -1.0291  0.9361
 6672SOL    HW231653   0.319   4.679  13.529 -0.5826  2.6920  1.6118
 6673SOL     OW31654   1.527   2.990   4.728  0.3532 -0.4846 -0.0051
 6673SOL    HW131655   1.512   2.902   4.764  0.6139 -0.6633 -0.3369
 6673SOL    HW231656   1.462   3.042   4.775  0.3113 -0.4939 -0.0534
 6674SOL     OW31657   4.552   0.564   2.734  0.3516  0.5800  0.1724
 6674SOL    HW131658   4.607   0.613   2.674  1.1774  0.1729  0.5953
 6674SOL    HW231659   4.528   0.634   2.796 -2.6639 -0.4114  0.1476
 6675SOL     OW31660   3.576   3.936   2.429 -0.0716 -0.3982  0.1923
 6675SOL    HW131661   3.627   4.015   2.449  1.3607 -1.7980  2.1712
 6675SOL    HW231662   3.637   3.871   2.394 -0.8669 -0.1307 -1.6612
 6676SOL     OW31663   2.038   3.161   3.050  0.5730 -0.1934 -0.2002
 6676SOL    HW131664   2.053   3.114   3.132 -2.1022 -0.9438 -0.1330
 6676SOL    HW231665   2.126   3.157   3.013  0.5086  0.2258 -0.3989
 6677SOL     OW31666   2.653   3.456  11.313 -0.2706  0.4942 -0.4203
 6677SOL    HW131667   2.618   3.466  11.224  0.1125 -1.3542 -0.7813
 6677SOL    HW231668   2.729   3.403  11.288  0.2440  0.4598  1.2363
 6678SOL     OW31669   3.925   1.665   4.885  0.1212 -0.2321 -0.1669
 6678SOL    HW131670   3.843   1.652   4.838 -0.4803  1.6007  0.3657
 6678SOL    HW231671   3.901   1.649   4.976 -0.0652  0.6606 -0.0602
 6679SOL     OW31672   4.699   4.665   4.603  0.1391 -0.1759  0.2671
 6679SOL    HW131673   4.715   0.023   4.622  1.8230 -0.1515 -1.2345
 6679SOL    HW231674   0.049   4.625   4.623  1.1003  2.5143  1.6543
 6680SOL     OW31675   0.239   2.191   7.864 -0.3641 -0.4682 -0.6818
 6680SOL    HW131676   0.158   2.141   7.873 -0.3978 -0.6771 -2.0312
 6680SOL    HW231677   0.259   2.164   7.774 -0.5301  0.8291 -1.1210
 6681SOL     OW31678   3.290   4.062  12.183 -0.9946  0.0110  0.3818
 6681SOL    HW131679   3.217   4.073  12.245 -2.1394 -0.8431 -0.8195
 6681SOL    HW231680   3.270   4.127  12.115 -0.9605 -0.3134  0.0598
 6682SOL     OW31681   1.236   0.133   3.516  0.2402 -0.8788 -0.0466
 6682SOL    HW131682   1.239   0.221   3.478  0.2191 -2.1839 -3.0973
 6682SOL    HW231683   1.172   0.090   3.459  0.0974 -1.8627  0.8398
 6683SOL     OW31684   3.539   0.223   6.708  0.8067  0.0152 -0.1852
 6683SOL    HW131685   3.509   0.201   6.796 -1.3927 -1.3016 -1.2614
 6683SOL    HW231686   3.578   0.309   6.728 -2.0362  1.1829  0.2813
 6684SOL     OW31687   4.341   2.747   6.119  0.6838 -0.3585  0.0669
 6684SOL    HW131688   4.384   2.661   6.118  1.2845 -0.0505 -0.9702
 6684SOL    HW231689   4.378   2.776   6.036  0.1188 -0.1709 -0.1188
 6685SOL     OW31690   0.135   3.533   9.364  0.0080 -0.2788 -0.2109
 6685SOL    HW131691   0.061   3.495   9.411 -0.7409  1.1250 -0.2598
 6685SOL    HW231692   0.165   3.460   9.310  1.4849 -0.0023  0.2397
 6686SOL     OW31693   3.792   2.664   6.547 -0.1317 -0.5206 -0.5023
 6686SOL    HW131694   3.729   2.666   6.475 -0.3194 -0.1573 -0.3282
 6686SOL    HW231695   3.874   2.689   6.504 -1.2482  2.1845 -1.0521
 6687SOL     OW31696   3.078   1.695   2.738 -0.0735 -0.4935  0.0687
 6687SOL    HW131697   3.135   1.769   2.718  0.6092 -1.1971 -0.5892
 6687SOL    HW231698   3.036   1.689   2.652  1.8088  0.6487 -0.9296
 6688SOL     OW31699   2.991   1.432   2.863  0.1952  0.1739 -0.2876
 6688SOL    HW131700   3.045   1.364   2.825  0.3105 -1.6275  3.0982
 6688SOL    HW231701   3.015   1.501   2.801  1.0688  0.1003 -0.0330
 6689SOL     OW31702   2.589   4.255   9.617 -0.3349 -0.2497 -0.1689
 6689SOL    HW131703   2.592   4.181   9.677 -0.1339 -1.8252 -2.1340
 6689SOL    HW231704   2.495   4.259   9.601 -0.5222 -1.5440  0.5998
 6690SOL     OW31705   3.729   4.510   1.469 -0.3273  0.0781 -0.2362
 6690SOL    HW131706   3.785   4.433   1.457 -1.2450 -0.5063 -0.8272
 6690SOL    HW231707   3.796   4.565   1.510  0.7910 -2.0002  0.7418
 6691SOL     OW31708   2.072   3.169   5.139  0.1523  0.1658  0.2584
 6691SOL    HW131709   2.003   3.158   5.074  1.5185 -1.8756 -0.8521
 6691SOL    HW231710   2.102   3.080   5.155  0.3344 -0.4338 -3.3525
 6692SOL     OW31711   2.570   1.956   6.665  0.1629  0.0401 -0.1675
 6692SOL    HW131712   2.596   2.046   6.642 -0.0356  0.3496  0.8212
 6692SOL    HW231713   2.532   1.933   6.580 -0.0802 -2.1184  0.5308
 6693SOL     OW31714   3.235   0.212   7.021 -0.0480 -0.1537  0.4342
 6693SOL    HW131715   3.304   0.229   7.084  0.2383  0.6146 -0.0860
 6693SOL    HW231716   3.168   0.158   7.062 -0.5057  1.2277  1.5248
 6694SOL     OW31717   2.906   2.822   7.347 -0.5328  0.4892 -0.1711
 6694SOL    HW131718   2.913   2.800   7.440  0.9724  0.8095 -0.2080
 6694SOL    HW231719   2.964   2.763   7.300 -1.1041 -1.3455  1.4352
 6695SOL     OW31720   3.177   4.099  16.439 -0.8603  0.0153  0.1531
 6695SOL    HW131721   3.195   4.187  16.470  0.3942 -0.6818  1.4010
 6695SOL    HW231722   3.127   4.123  16.361 -0.2927  2.9485  0.7021
 6696SOL     OW31723   0.680   3.467   3.843 -0.2551  0.4443 -0.1294
 6696SOL    HW131724   0.710   3.377   3.834  1.0431  0.6495  2.4698
 6696SOL    HW231725   0.766   3.507   3.850 -0.0979 -0.3713  2.4726
 6697SOL     OW31726   0.224   0.761  10.499 -0.2298 -0.0920 -0.0694
 6697SOL    HW131727   0.163   0.723  10.435 -0.4317  0.0366  0.0450
 6697SOL    HW231728   0.305   0.789  10.457 -0.0778 -1.7917 -0.9217
 6698SOL     OW31729   1.167   0.116   7.567  0.1036  0.2703  0.4417
 6698SOL    HW131730   1.222   0.084   7.638  1.7694  2.4952  0.1469
 6698SOL    HW231731   1.146   0.032   7.526 -0.0271 -0.5046  2.1280
 6699SOL     OW31732   0.586   2.671   9.689  0.1803 -0.3777 -0.2716
 6699SOL    HW131733   0.668   2.705   9.725  1.5222 -1.9608 -1.8246
 6699SOL    HW231734   0.539   2.640   9.766 -0.3577  2.8511  0.7351
 6700SOL     OW31735   2.571   0.664  16.019  0.3991 -0.0480 -0.0194
 6700SOL    HW131736   2.485   0.631  16.047  0.1198  1.1629  0.5853
 6700SOL    HW231737   2.542   0.741  15.970 -1.4881 -0.2045  0.8163
 6701SOL     OW31738   3.565   1.452  16.049 -0.2871 -0.0144  0.1777
 6701SOL    HW131739   3.501   1.420  15.985  0.6724  1.0907 -1.3262
 6701SOL    HW231740   3.581   1.377  16.107  1.1657  1.2301  1.3802
 6702SOL     OW31741   0.390   1.869   3.187 -0.0522  0.2151 -0.4855
 6702SOL    HW131742   0.368   1.776   3.192  3.1269 -0.4419  1.7638
 6702SOL    HW231743   0.338   1.903   3.114  0.6032  0.9033 -0.6355
 6703SOL     OW31744   0.909   0.627   7.974  0.0958 -0.1584  0.1037
 6703SOL    HW131745   0.990   0.675   7.987  0.8402 -1.1292 -0.9975
 6703SOL    HW231746   0.912   0.601   7.882  2.6005 -0.0031  0.1685
 6704SOL     OW31747   4.075   1.713   7.954  0.4062 -0.3331  0.1285
 6704SOL    HW131748   4.155   1.693   7.906 -0.8426 -0.5628 -1.8556
 6704SOL    HW231749   4.108   1.771   8.022  1.0822  0.5369 -0.9340
 6705SOL     OW31750   2.209   0.627   5.828 -0.2402  0.0846  0.2388
 6705SOL    HW131751   2.297   0.598   5.849  0.5546  1.4711 -1.1454
 6705SOL    HW231752   2.180   0.545   5.788 -4.4636  0.8170  1.7655
 6706SOL     OW31753   0.371   2.439   7.910 -0.4238 -0.1229  0.2505
 6706SOL    HW131754   0.408   2.415   7.995 -0.6291 -0.1304  0.3379
 6706SOL    HW231755   0.330   2.356   7.884 -0.3370  0.1980 -0.9232
 6707SOL     OW31756   3.687   1.508   1.834 -0.1673 -0.3402  0.6605
 6707SOL    HW131757   3.779   1.484   1.840 -0.2702 -0.9301 -0.1603
 6707SOL    HW231758   3.671   1.478   1.745 -2.2754 -1.1415  1.3030
 6708SOL     OW31759   3.595   3.961   3.809 -0.4357 -0.7708  0.2624
 6708SOL    HW131760   3.662   3.952   3.877 -0.5954  0.4858  0.5956
 6708SOL    HW231761   3.527   4.022   3.840  0.3011  0.5810 -0.7955
 6709SOL     OW31762   1.611   0.181   2.148 -0.4572 -0.0537  0.8221
 6709SOL    HW131763   1.699   0.147   2.163  0.0691  0.9713  0.0334
 6709SOL    HW231764   1.592   0.206   2.238 -1.6051  0.9687  0.2996
 6710SOL     OW31765   3.158   0.275   3.943  0.3678 -0.0761 -0.1275
 6710SOL    HW131766   3.236   0.267   3.888  0.2205 -2.6597  0.0332
 6710SOL    HW231767   3.114   0.357   3.920  2.5333  1.2208  0.2608
 6711SOL     OW31768   2.769   2.508   8.612 -0.2109 -0.0376  0.4318
 6711SOL    HW131769   2.813   2.586   8.579  0.0071  0.2251  1.3347
 6711SOL    HW231770   2.674   2.520   8.610  0.0552  2.0778 -0.0931
 6712SOL     OW31771   0.615   1.798  17.055  0.2012  0.4932 -0.4209
 6712SOL    HW131772   0.574   1.878  17.089  2.1516 -0.0563  3.1898
 6712SOL    HW231773   0.707   1.821  17.064  0.7378 -1.8072 -0.2513
 6713SOL     OW31774   1.689   1.214   1.957 -0.2101 -0.2269  0.0045
 6713SOL    HW131775   1.616   1.175   1.909 -0.8527  0.8441  0.1013
 6713SOL    HW231776   1.656   1.201   2.046 -0.3832  1.7303  0.2470
 6714SOL     OW31777   2.622   0.500  10.340 -0.3093  0.8055  0.2747
 6714SOL    HW131778   2.707   0.477  10.301  0.0250 -1.4965  2.3600
 6714SOL    HW231779   2.639   0.480  10.432  1.4220 -1.5144 -0.5258
 6715SOL     OW31780   3.428   2.503   2.973  0.2632 -0.5065  0.0163
 6715SOL    HW131781   3.482   2.450   3.031  0.1702 -0.9750 -0.3303
 6715SOL    HW231782   3.488   2.546   2.912 -0.6425 -0.6240 -0.9708
 6716SOL     OW31783   0.779   3.671   8.617 -0.2104 -0.2575  0.2403
 6716SOL    HW131784   0.696   3.675   8.568  0.6755  0.0221 -1.2430
 6716SOL    HW231785   0.827   3.599   8.575  0.2861  0.2523 -0.0637
 6717SOL     OW31786   0.233   0.793  17.404 -0.2438 -0.3458 -0.0315
 6717SOL    HW131787   0.320   0.822  17.376 -0.1711  0.6384  1.2056
 6717SOL    HW231788   0.197   0.765  17.320 -1.9126  2.1401 -0.1490
 6718SOL     OW31789   3.413   0.931  16.352 -0.2259 -0.6880  0.4616
 6718SOL    HW131790   3.426   0.924  16.257  3.1790 -0.3317  0.8806
 6718SOL    HW231791   3.467   1.006  16.378  0.7411 -1.0292 -0.5420
 6719SOL     OW31792   3.420   0.134   6.179 -0.0411  0.5651 -0.6854
 6719SOL    HW131793   3.379   0.052   6.149  1.4391 -1.5251  3.0028
 6719SOL    HW231794   3.411   0.124   6.273 -0.8355  2.9541 -0.5276
 6720SOL     OW31795   1.716   2.721   6.190  0.7939 -1.0915 -0.1202
 6720SOL    HW131796   1.626   2.691   6.188  0.8176 -1.1966  0.4742
 6720SOL    HW231797   1.721   2.764   6.276  2.3414 -0.3069 -0.5856
 6721SOL     OW31798   2.553   3.570   0.097  0.3286  0.0538 -0.3778
 6721SOL    HW131799   2.539   3.600   0.187 -1.1808 -1.8378  0.0418
 6721SOL    HW231800   2.493   3.495   0.093  1.0644 -0.4798 -1.3386
 6722SOL     OW31801   1.582   1.964   6.607  0.1257  0.4573 -0.5949
 6722SOL    HW131802   1.542   1.916   6.679  1.0015 -0.0014 -0.4100
 6722SOL    HW231803   1.663   1.994   6.649  0.8112  1.0436 -2.3545
 6723SOL     OW31804   2.773   0.282   3.322 -0.0226  0.4430 -0.1190
 6723SOL    HW131805   2.829   0.208   3.298 -2.0057 -0.0194 -3.2670
 6723SOL    HW231806   2.806   0.346   3.260  0.3705  0.6452  0.3009
 6724SOL     OW31807   1.584   3.542   6.601  0.2465 -0.0965 -0.6016
 6724SOL    HW131808   1.522   3.493   6.655  1.4951 -2.0154 -0.9083
 6724SOL    HW231809   1.614   3.469   6.547  3.5055  1.1863 -0.5179
 6725SOL     OW31810   0.387   2.461   2.954 -0.4081 -0.5294 -0.0846
 6725SOL    HW131811   0.401   2.382   2.902 -0.3972 -0.9576  0.5682
 6725SOL    HW231812   0.467   2.465   3.006 -0.8219  1.4611  0.3776
 6726SOL     OW31813   2.086   4.112   8.381  0.3437  0.8717  0.4812
 6726SOL    HW131814   2.124   4.096   8.295 -0.9662 -1.3783  0.3110
 6726SOL    HW231815   2.052   4.201   8.374 -0.7340  0.3620 -0.7227
 6727SOL     OW31816   3.064   0.261  10.865 -0.0203  0.1265  0.1200
 6727SOL    HW131817   3.045   0.343  10.820  1.1244  0.6317  0.5578
 6727SOL    HW231818   3.012   0.191  10.826  0.5194 -0.1614 -0.0811
 6728SOL     OW31819   1.798   2.348   6.675  0.2398  0.2465  0.0616
 6728SOL    HW131820   1.777   2.441   6.668  1.6913  0.6375  0.8272
 6728SOL    HW231821   1.885   2.354   6.637  0.3441 -1.5472  0.0203
 6729SOL     OW31822   0.300   1.582   3.166 -0.0922 -0.3967  0.0717
 6729SOL    HW131823   0.206   1.577   3.150 -0.1330 -0.7568  0.4554
 6729SOL    HW231824   0.295   1.543   3.253  0.9749 -0.1284  0.2605
 6730SOL     OW31825   3.791   3.662  10.265  0.3377  0.3621 -0.4954
 6730SOL    HW131826   3.790   3.687  10.357 -1.1011  1.7012 -0.8708
 6730SOL    HW231827   3.710   3.612  10.254  0.6285 -0.2769  0.2421
 6731SOL     OW31828   3.448   1.895   3.276  0.3269 -0.1504 -0.2433
 6731SOL    HW131829   3.383   1.952   3.317 -1.0226 -1.7459 -0.1603
 6731SOL    HW231830   3.431   1.809   3.316  0.6345 -0.5637 -1.0057
 6732SOL     OW31831   0.677   1.060   1.719 -0.1730 -0.1715 -0.0921
 6732SOL    HW131832   0.704   1.002   1.647  1.4539 -0.9999  1.1784
 6732SOL    HW231833   0.659   1.000   1.791  1.8004 -0.9748 -0.2631
 6733SOL     OW31834   0.014   1.971  14.111  0.1827  0.4037  0.4764
 6733SOL    HW131835   0.018   2.044  14.172  2.6619  0.5208  0.1450
 6733SOL    HW231836   4.693   2.010  14.043 -2.3071  0.2904  2.4064
 6734SOL     OW31837   3.086   0.745  13.419  0.6505  0.1943  0.5422
 6734SOL    HW131838   3.046   0.680  13.362 -0.1506  1.2839 -0.1424
 6734SOL    HW231839   3.072   0.828  13.374  1.7096  0.5591  0.8663
 6735SOL     OW31840   4.137   3.313   3.960  0.1295 -0.0221  0.2763
 6735SOL    HW131841   4.150   3.228   3.917 -1.8903  0.4342 -1.2355
 6735SOL    HW231842   4.047   3.345   3.955 -0.6977 -2.4540 -0.7221
 6736SOL     OW31843   0.861   2.265  10.975  0.5174 -0.2774  0.4419
 6736SOL    HW131844   0.783   2.314  10.948  0.8114 -0.7343 -1.2610
 6736SOL    HW231845   0.867   2.277  11.070  0.9088 -2.5125  0.7022
 6737SOL     OW31846   0.743   1.156   8.206  0.0494  0.0030  0.3518
 6737SOL    HW131847   0.781   1.070   8.221 -1.3081 -0.5546  0.5342
 6737SOL    HW231848   0.773   1.202   8.285 -0.0796  1.4863 -0.4532
 6738SOL     OW31849   1.290   3.562   4.277 -0.1566  0.4141  0.2658
 6738SOL    HW131850   1.336   3.540   4.196  1.1100  1.7583  0.6055
 6738SOL    HW231851   1.203   3.576   4.239 -0.0201  0.7145  0.0570
 6739SOL     OW31852   3.939   4.593   3.770  0.0696  0.5411  0.7221
 6739SOL    HW131853   3.854   4.612   3.808  0.0044 -1.0096  1.3539
 6739SOL    HW231854   3.901   4.533   3.705  0.4491  0.5131  0.5237
 6740SOL     OW31855   4.664   4.343   1.359  0.2993  0.0906  0.0050
 6740SOL    HW131856   4.621   4.272   1.407 -2.0651  0.1301 -2.0437
 6740SOL    HW231857   4.626   4.339   1.271  0.6273  2.9662 -0.2739
 6741SOL     OW31858   0.637   1.218   9.145 -0.3891 -0.3947  0.1518
 6741SOL    HW131859   0.595   1.204   9.060 -0.3801  0.2590  0.0399
 6741SOL    HW231860   0.717   1.166   9.133  0.8263  1.6622 -0.5981
 6742SOL     OW31861   4.473   1.929   9.309  0.0363  0.2691 -0.2868
 6742SOL    HW131862   4.557   1.971   9.291  0.9226 -2.1926 -1.8994
 6742SOL    HW231863   4.454   1.902   9.219 -2.6153 -0.4015  0.4669
 6743SOL     OW31864   1.586   1.920  14.492 -0.3557  0.4528  0.1008
 6743SOL    HW131865   1.681   1.909  14.481 -0.8435 -3.0940 -0.5435
 6743SOL    HW231866   1.561   1.863  14.420  2.2508  0.7359 -1.0329
 6744SOL     OW31867   0.414   4.516  11.766  0.0430  0.3535  0.3591
 6744SOL    HW131868   0.458   4.562  11.838 -0.3929  0.7201  0.3891
 6744SOL    HW231869   0.385   4.592  11.715  0.1306  0.3848  0.3556
 6745SOL     OW31870   2.066   3.758   6.784  0.4116 -0.3821 -0.5291
 6745SOL    HW131871   2.022   3.765   6.869  0.9399  1.5295 -0.4106
 6745SOL    HW231872   2.156   3.750   6.814  0.3647 -1.2185 -0.6189
 6746SOL     OW31873   3.999   4.205   4.257  0.0331 -0.0919  0.3389
 6746SOL    HW131874   3.951   4.265   4.200  0.3713 -1.2672 -1.2131
 6746SOL    HW231875   3.936   4.135   4.277 -1.5728  0.5222 -2.4784
 6747SOL     OW31876   2.500   3.958  14.981 -0.4234  0.1783 -0.5582
 6747SOL    HW131877   2.428   4.020  14.971  0.8441  1.9074  1.1439
 6747SOL    HW231878   2.463   3.878  14.944 -3.6928  0.7450  1.5030
 6748SOL     OW31879   2.293   3.042  16.567 -0.4791 -0.0226 -0.3916
 6748SOL    HW131880   2.355   2.988  16.615 -1.1402 -0.0862  0.3856
 6748SOL    HW231881   2.307   3.007  16.479  1.7366 -1.7018  0.6454
 6749SOL     OW31882   1.442   2.525   5.696 -0.2956  0.0203 -0.3453
 6749SOL    HW131883   1.373   2.462   5.717 -0.5611  0.8502  1.3000
 6749SOL    HW231884   1.457   2.554   5.786  2.3382 -0.0057 -0.7977
 6750SOL     OW31885   2.345   4.406   7.912  0.4529 -0.2730  0.2800
 6750SOL    HW131886   2.363   4.316   7.938  0.6430 -0.4456 -0.4501
 6750SOL    HW231887   2.276   4.396   7.847  0.7355  3.2285 -0.5974
 6751SOL     OW31888   1.813   2.803   4.591  0.1790  0.1087 -0.1504
 6751SOL    HW131889   1.894   2.757   4.574 -1.4094 -2.6192 -0.3429
 6751SOL    HW231890   1.755   2.727   4.598  2.3533 -1.5163  0.1665
 6752SOL     OW31891   1.441   1.668   6.983  0.3622 -0.5223  0.9152
 6752SOL    HW131892   1.376   1.612   7.025  0.3523 -1.1997 -0.0046
 6752SOL    HW231893   1.492   1.600   6.939 -0.0313 -0.4938  0.4060
 6753SOL     OW31894   3.904   0.604  17.154  0.0554 -0.6631 -0.4015
 6753SOL    HW131895   3.980   0.626  17.207 -1.4847  0.1353  1.4921
 6753SOL    HW231896   3.847   0.674  17.185  1.3457  1.4397 -2.8107
 6754SOL     OW31897   2.444   3.654   5.915 -0.0308 -0.6435  0.0702
 6754SOL    HW131898   2.387   3.725   5.945  1.3493  0.1342  0.8080
 6754SOL    HW231899   2.459   3.604   5.995 -2.4004  1.1528  1.6538
 6755SOL     OW31900   2.085   2.260   4.168 -0.9025 -0.1739  0.4428
 6755SOL    HW131901   2.125   2.330   4.117  0.0073 -0.3248  0.9599
 6755SOL    HW231902   2.088   2.187   4.106  1.0983  1.0497 -0.8811
 6756SOL     OW31903   2.683   1.283   4.221 -0.7259  0.0855  0.1217
 6756SOL    HW131904   2.713   1.372   4.238 -2.2684  0.8306 -1.0753
 6756SOL    HW231905   2.684   1.235   4.303  1.3628  2.4472  1.4672
 6757SOL     OW31906   2.349   0.830   3.278 -0.2572  0.2570  0.4492
 6757SOL    HW131907   2.424   0.805   3.333 -1.2970 -1.0915  1.2417
 6757SOL    HW231908   2.336   0.916   3.319  1.9022  1.3204 -1.0980
 6758SOL     OW31909   1.461   4.152   3.858  0.1879 -0.1716 -0.1397
 6758SOL    HW131910   1.402   4.179   3.927 -0.6566 -0.7503 -0.6298
 6758SOL    HW231911   1.538   4.129   3.910  0.0728 -2.0587 -0.8129
 6759SOL     OW31912   1.175   1.807   7.476 -0.1975 -0.3378  0.4651
 6759SOL    HW131913   1.128   1.751   7.538  1.5947 -0.4919  1.6950
 6759SOL    HW231914   1.157   1.767   7.390 -0.5683 -2.1010  1.3567
 6760SOL     OW31915   3.627   3.893   8.218 -0.1823 -0.1002  0.2633
 6760SOL    HW131916   3.699   3.833   8.203 -0.1555 -0.2834  1.1491
 6760SOL    HW231917   3.686   3.967   8.233 -2.1219  1.2719  1.2165
 6761SOL     OW31918   0.677   1.107   2.828 -0.2208 -0.4450  0.3715
 6761SOL    HW131919   0.640   1.075   2.910  0.2973  1.1037  1.2256
 6761SOL    HW231920   0.636   1.049   2.765  0.2119 -1.0384  0.6401
 6762SOL     OW31921   1.031   0.630   7.068 -0.2748 -0.0881 -0.2154
 6762SOL    HW131922   1.048   0.628   7.162  1.0004 -2.3347 -0.5007
 6762SOL    HW231923   0.999   0.540   7.059  0.2968 -0.1508 -1.6358
 6763SOL     OW31924   1.033   4.358   3.276  0.4468  0.4027  0.6581
 6763SOL    HW131925   0.958   4.311   3.311 -2.2548  2.3976 -2.3759
 6763SOL    HW231926   1.041   4.427   3.342  0.7054  0.6680  0.3504
 6764SOL     OW31927   1.484   1.894   8.803  0.6546  0.2228  0.4264
 6764SOL    HW131928   1.557   1.949   8.831  0.3640  1.0537 -0.4650
 6764SOL    HW231929   1.477   1.903   8.708 -0.0579 -1.0592  0.3574
 6765SOL     OW31930   3.586   4.503   5.730  0.4467 -0.1244 -0.1639
 6765SOL    HW131931   3.547   4.576   5.681 -0.4655 -0.8298 -0.4918
 6765SOL    HW231932   3.606   4.438   5.662  0.9384 -0.6607  0.4968
 6766SOL     OW31933   2.036   4.232  13.506 -0.0238 -0.2915  0.3654
 6766SOL    HW131934   2.061   4.322  13.486 -2.9881  0.2508 -0.8877
 6766SOL    HW231935   1.942   4.225  13.491 -0.0296 -0.2340  0.3740
 6767SOL     OW31936   3.992   0.088   6.915  0.1419 -0.0769 -0.0359
 6767SOL    HW131937   3.953   0.124   6.995  1.8541  1.3064  0.1656
 6767SOL    HW231938   3.919   0.091   6.853  0.7078  0.7130 -0.6584
 6768SOL     OW31939   1.523   1.666  16.595  0.1798  0.0930 -0.6422
 6768SOL    HW131940   1.473   1.721  16.535  0.9800 -0.8539 -2.1657
 6768SOL    HW231941   1.613   1.675  16.563 -0.0274 -0.2414 -1.3125
 6769SOL     OW31942   0.555   0.326   7.034 -0.1090  0.4683 -0.7982
 6769SOL    HW131943   0.500   0.292   7.104  0.7837  1.3946  0.3465
 6769SOL    HW231944   0.541   0.419   7.049  0.0830  0.7163 -2.1567
 6770SOL     OW31945   2.332   1.030   6.288 -0.4798 -0.0937 -0.0496
 6770SOL    HW131946   2.350   1.063   6.376  1.2965  2.4188 -1.3657
 6770SOL    HW231947   2.423   1.037   6.258 -0.7296 -1.9315 -1.2357
 6771SOL     OW31948   3.466   0.929   2.636  0.1087  0.2196  0.3089
 6771SOL    HW131949   3.519   1.009   2.638 -1.2163  1.1071 -0.9574
 6771SOL    HW231950   3.433   0.935   2.546  0.6811 -0.2711  0.0614
 6772SOL     OW31951   3.003   4.006   2.423  0.4878  0.2648 -0.0044
 6772SOL    HW131952   3.090   4.046   2.419  1.1999 -1.2733  0.1540
 6772SOL    HW231953   2.994   3.976   2.513 -0.4938 -0.0443 -0.1960
 6773SOL     OW31954   2.687   0.420   5.591 -0.5534 -0.7745  0.3494
 6773SOL    HW131955   2.672   0.335   5.633 -1.8587 -0.9506 -0.4625
 6773SOL    HW231956   2.652   0.388   5.508  0.3036 -0.4645 -0.1301
 6774SOL     OW31957   3.990   1.221   3.459  0.5074  0.0890 -0.7752
 6774SOL    HW131958   3.903   1.233   3.495  0.9727 -1.8279  0.9936
 6774SOL    HW231959   3.984   1.164   3.382 -1.5033 -1.2098  0.3392
 6775SOL     OW31960   3.059   1.844  17.086  0.2333  0.1258  0.0619
 6775SOL    HW131961   3.155   1.853  17.083  0.3496 -1.0643  0.2249
 6775SOL    HW231962   3.033   1.934  17.067  0.4357  0.3421  0.8095
 6776SOL     OW31963   3.073   1.962  16.176 -0.3731  0.0650  0.4085
 6776SOL    HW131964   3.039   1.986  16.090  1.8172  2.3627  0.1720
 6776SOL    HW231965   3.055   1.868  16.180  0.5658 -0.1770 -1.0543
 6777SOL     OW31966   4.377   4.418  15.310 -0.5325  0.6223 -0.2658
 6777SOL    HW131967   4.438   4.484  15.276  1.7810 -0.3442  1.9309
 6777SOL    HW231968   4.421   4.335  15.294 -0.6809  0.4846  0.0319
 6778SOL     OW31969   0.897   2.353   4.708  0.5715 -0.6358 -0.4160
 6778SOL    HW131970   0.886   2.371   4.802  0.0295  1.8671 -0.9601
 6778SOL    HW231971   0.876   2.259   4.715 -1.3312 -0.3224 -1.8959
 6779SOL     OW31972   3.350   1.726   4.537 -0.8091 -0.2797 -0.1414
 6779SOL    HW131973   3.344   1.739   4.442 -1.3635  0.9347  0.0674
 6779SOL    HW231974   3.270   1.769   4.566  0.5964  1.5307  1.0549
 6780SOL     OW31975   1.290   2.458   0.524  0.1463 -0.0594 -0.7652
 6780SOL    HW131976   1.307   2.377   0.572 -0.5554  0.8349  1.0098
 6780SOL    HW231977   1.264   2.430   0.437  2.2521  2.1292 -2.0796
 6781SOL     OW31978   3.865   2.508   0.567 -0.1885 -0.2741  0.3021
 6781SOL    HW131979   3.933   2.508   0.633  1.1636  1.7497 -1.0821
 6781SOL    HW231980   3.793   2.532   0.625 -1.7826  1.2695 -2.3136
 6782SOL     OW31981   1.273   3.820  16.171 -0.3556  0.0881 -0.1395
 6782SOL    HW131982   1.247   3.729  16.190 -2.2609  1.2786  2.8848
 6782SOL    HW231983   1.203   3.856  16.117 -0.5188 -1.3590 -0.8933
 6783SOL     OW31984   2.977   0.101   9.164 -0.0514 -0.2122 -0.4548
 6783SOL    HW131985   2.999   0.182   9.118 -0.8183  1.0280  1.3322
 6783SOL    HW231986   3.059   0.053   9.175 -0.4650 -0.6149  0.8591
 6784SOL     OW31987   0.767   1.556   6.907  0.8067  0.4015  0.0056
 6784SOL    HW131988   0.706   1.494   6.948  0.6820  0.3072 -0.3186
 6784SOL    HW231989   0.704   1.612   6.862  1.9312  2.8929  1.5564
 6785SOL     OW31990   1.529   1.842  11.578  0.5010 -0.2250  0.1195
 6785SOL    HW131991   1.583   1.915  11.549  0.3665 -0.4635 -0.7283
 6785SOL    HW231992   1.455   1.892  11.613  1.0055 -0.9073  2.1932
 6786SOL     OW31993   1.934   1.418   4.921  0.2560  0.3802  0.2939
 6786SOL    HW131994   1.902   1.466   4.997  0.5225 -0.0511  0.6747
 6786SOL    HW231995   1.954   1.482   4.852  1.6269 -0.7433 -0.3519
 6787SOL     OW31996   2.366   3.961   9.346  0.4367  0.0295 -0.1520
 6787SOL    HW131997   2.278   3.925   9.346  1.1764 -1.7579  0.7862
 6787SOL    HW231998   2.356   4.027   9.277  1.0140 -0.3453 -0.5947
 6788SOL     OW31999   2.676   2.058   8.122 -0.0034 -0.0205  0.1777
 6788SOL    HW132000   2.757   2.091   8.085 -1.5143  0.8871 -2.3251
 6788SOL    HW232001   2.672   1.981   8.066 -0.3785  1.0000 -1.2085
 6789SOL     OW32002   4.390   3.191  16.134 -0.0067 -0.3725  0.2296
 6789SOL    HW132003   4.339   3.135  16.076  2.8485 -1.2276 -1.4622
 6789SOL    HW232004   4.410   3.140  16.212  1.0957 -0.6967 -0.2604
 6790SOL     OW32005   3.177   4.288   1.562  1.0404 -0.1212  0.3569
 6790SOL    HW132006   3.175   4.367   1.507  1.3917 -0.0288  0.4726
 6790SOL    HW232007   3.270   4.296   1.583  0.6303 -0.8553  2.4305
 6791SOL     OW32008   1.707   2.071  11.527  0.1809 -0.5669  0.0122
 6791SOL    HW132009   1.783   2.017  11.505 -0.3518 -0.9087 -0.9672
 6791SOL    HW232010   1.743   2.160  11.532 -0.3836 -0.4143  1.2846
 6792SOL     OW32011   3.770   4.373   0.884 -0.0852  0.7787  0.0249
 6792SOL    HW132012   3.714   4.374   0.806 -0.4562 -0.2155  0.2806
 6792SOL    HW232013   3.787   4.279   0.879 -0.1003  0.7609  0.3093
 6793SOL     OW32014   2.759   2.159   4.756 -0.0970  0.3196  0.8387
 6793SOL    HW132015   2.680   2.165   4.702 -0.7637  2.6368  2.0738
 6793SOL    HW232016   2.799   2.096   4.697 -2.3451 -2.0732  1.8672
 6794SOL     OW32017   2.669   4.576   1.634  0.8224 -0.4089  0.4328
 6794SOL    HW132018   2.738   4.550   1.694 -0.3942 -0.3274  1.8760
 6794SOL    HW232019   2.704   4.538   1.554 -2.8671  1.9807 -2.3250
 6795SOL     OW32020   0.684   0.618  17.403  0.3646  0.3321 -0.1421
 6795SOL    HW132021   0.594   0.646  17.418  0.0155 -1.1329  0.5015
 6795SOL    HW232022   0.730   0.681  17.458  0.7580 -0.6104  0.6007
 6796SOL     OW32023   4.070   3.434   3.110 -0.1004 -0.0918 -0.9505
 6796SOL    HW132024   4.107   3.345   3.111  1.1088  0.4486  2.3117
 6796SOL    HW232025   4.052   3.445   3.203  1.3208  0.1090 -0.6996
 6797SOL     OW32026   1.441   1.846  15.635 -0.1272  0.2510 -0.3563
 6797SOL    HW132027   1.347   1.840  15.616 -0.1692  2.2825 -0.7750
 6797SOL    HW232028   1.463   1.753  15.626 -1.4286  0.0341 -1.3928
 6798SOL     OW32029   1.883   4.363   4.382  0.0115  0.4367 -0.6294
 6798SOL    HW132030   1.925   4.292   4.431  0.1011 -0.4059 -1.9146
 6798SOL    HW232031   1.794   4.356   4.418  0.3762 -0.3200  0.1369
 6799SOL     OW32032   1.944   4.481   5.149 -0.1534  0.1262  0.1005
 6799SOL    HW132033   1.980   4.540   5.082  0.8706  1.6907  2.0299
 6799SOL    HW232034   1.930   4.545   5.219 -0.7056  0.8490 -0.6733
 6800SOL     OW32035   0.492   4.293   8.504 -0.1605  0.0054  0.0644
 6800SOL    HW132036   0.470   4.239   8.580  0.7051  2.1489  1.8411
 6800SOL    HW232037   0.408   4.324   8.470  0.0796 -0.1357 -0.6555
 6801SOL     OW32038   4.237   4.233   8.037 -0.6771  0.2309  0.5985
 6801SOL    HW132039   4.271   4.293   7.970 -2.6955  3.1742  2.2234
 6801SOL    HW232040   4.190   4.160   7.995 -0.1271 -0.5041  1.2520
 6802SOL     OW32041   2.535   0.584   6.037  0.0034 -0.0575 -0.1937
 6802SOL    HW132042   2.552   0.528   6.112  0.2179  1.1447  0.6492
 6802SOL    HW232043   2.476   0.535   5.979  1.3996  0.0343 -1.6750
 6803SOL     OW32044   2.040   0.684   4.847  0.1272  0.3569 -0.1838
 6803SOL    HW132045   2.094   0.742   4.794  0.9144  0.3361  0.5917
 6803SOL    HW232046   1.955   0.704   4.808 -0.0123  0.2824  0.0823
 6804SOL     OW32047   3.076   3.137  12.567  0.2409  0.7623  0.0611
 6804SOL    HW132048   3.026   3.069  12.521  1.1973  0.0417  0.0971
 6804SOL    HW232049   3.025   3.135  12.648  0.7293  1.1578  0.3733
 6805SOL     OW32050   3.271   1.539   4.000 -0.2325  0.3496 -0.5131
 6805SOL    HW132051   3.271   1.635   3.995 -2.1071  0.3732 -0.0790
 6805SOL    HW232052   3.334   1.523   3.929  0.3580  1.0694 -0.1554
 6806SOL     OW32053   1.856   4.204  15.368  0.3933 -0.0574  0.0780
 6806SOL    HW132054   1.947   4.226  15.388  0.3750  2.3586 -2.5745
 6806SOL    HW232055   1.831   4.145  15.440 -2.0866  0.6349 -0.2046
 6807SOL     OW32056   3.814   4.556   7.071 -0.1341 -0.1872  0.2248
 6807SOL    HW132057   3.744   4.621   7.083 -0.6480 -0.6641 -0.1960
 6807SOL    HW232058   3.775   4.498   7.005  0.3381 -0.9237  0.5955
 6808SOL     OW32059   4.580   1.531  10.682  0.1087 -0.5604 -0.1787
 6808SOL    HW132060   4.643   1.509  10.614  0.2769  0.8038 -0.4614
 6808SOL    HW232061   4.619   1.474  10.749  2.3529  0.8043 -0.3277
 6809SOL     OW32062   3.940   2.034  12.194 -0.6811 -0.1021 -0.1696
 6809SOL    HW132063   3.903   2.079  12.270  1.0241  1.5699 -0.3328
 6809SOL    HW232064   3.955   1.949  12.234  0.4002  1.1729  2.1528
 6810SOL     OW32065   2.164   4.462   5.589  0.1768  0.7525  1.1001
 6810SOL    HW132066   2.081   4.415   5.585  0.6885 -0.2738  2.7590
 6810SOL    HW232067   2.201   4.413   5.662 -0.2863 -0.2278  0.6795
 6811SOL     OW32068   3.811   3.479   4.172 -0.1667  0.0824 -0.4906
 6811SOL    HW132069   3.830   3.436   4.255  1.3978  1.3428 -0.2044
 6811SOL    HW232070   3.715   3.483   4.171 -0.1358  1.0062  0.1204
 6812SOL     OW32071   2.328   1.402   5.369  0.6047  0.3589 -0.2246
 6812SOL    HW132072   2.360   1.423   5.457  0.3627 -1.0988  0.2153
 6812SOL    HW232073   2.326   1.493   5.340 -0.9685  0.9537  1.7337
 6813SOL     OW32074   4.602   3.730   8.302  0.5262 -1.2965 -0.6966
 6813SOL    HW132075   4.541   3.662   8.273 -0.0358 -0.8129 -0.6494
 6813SOL    HW232076   4.544   3.776   8.363  0.5668 -1.5748 -0.4474
 6814SOL     OW32077   0.243   3.426  15.084 -0.6467 -0.7747 -0.1002
 6814SOL    HW132078   0.207   3.474  15.009 -1.2911  0.3658  0.9411
 6814SOL    HW232079   0.193   3.472  15.152  0.1424 -2.8087  1.8474
 6815SOL     OW32080   0.275   0.318   3.040  0.0040 -0.2811  0.5313
 6815SOL    HW132081   0.258   0.312   2.946  0.9854  0.0272  0.3407
 6815SOL    HW232082   0.218   0.248   3.071 -0.0230 -0.0107  1.0869
 6816SOL     OW32083   2.038   2.048   8.128 -0.2322  0.3126 -0.3740
 6816SOL    HW132084   2.018   2.141   8.117  3.0960  1.1928  1.2776
 6816SOL    HW232085   2.113   2.057   8.070 -1.0502  1.6831 -1.2187
 6817SOL     OW32086   0.257   3.177   6.713 -0.2695 -0.0200 -0.4146
 6817SOL    HW132087   0.258   3.088   6.749 -1.4114  0.3685  0.5819
 6817SOL    HW232088   0.293   3.167   6.625  0.5292 -2.0310  0.1457
 6818SOL     OW32089   1.439   1.636   4.418  0.4444 -0.0603 -0.6797
 6818SOL    HW132090   1.532   1.654   4.406  0.0887  2.7302  0.8060
 6818SOL    HW232091   1.447   1.565   4.482 -1.1552 -0.3808 -0.8350
 6819SOL     OW32092   1.831   4.390   7.434 -0.0624  0.4741 -0.0890
 6819SOL    HW132093   1.782   4.443   7.496 -0.4826 -1.3174  1.1030
 6819SOL    HW232094   1.798   4.424   7.351  2.1479  0.6621 -0.9125
 6820SOL     OW32095   4.493   1.549   2.262 -0.1237  0.4430 -0.1028
 6820SOL    HW132096   4.429   1.480   2.247 -1.6741  1.9991 -0.6085
 6820SOL    HW232097   4.460   1.630   2.225 -2.3560  1.0727  3.2899
 6821SOL     OW32098   3.243   3.533   4.941 -0.8234  0.5654 -0.1610
 6821SOL    HW132099   3.159   3.579   4.950 -1.3229  0.1051 -2.4909
 6821SOL    HW232100   3.225   3.465   5.005  1.9450  0.0044  0.0361
 6822SOL     OW32101   3.691   4.689   3.886  0.5036 -0.4977  0.2545
 6822SOL    HW132102   3.678   0.049   3.885  1.3910 -0.4408 -2.9266
 6822SOL    HW232103   3.598   4.665   3.889 -0.0999  1.7801 -0.1432
 6823SOL     OW32104   3.155   3.791  11.982 -0.1322  0.2746  1.1995
 6823SOL    HW132105   3.160   3.702  12.016  1.1883 -0.4339 -0.8120
 6823SOL    HW232106   3.142   3.773  11.889  1.3020  1.2923  0.8139
 6824SOL     OW32107   1.463   3.609   7.467  0.4730 -0.1603 -0.3907
 6824SOL    HW132108   1.472   3.662   7.387  0.0702  0.8347  0.2241
 6824SOL    HW232109   1.524   3.645   7.531  0.4438 -1.8367  0.5748
 6825SOL     OW32110   1.827   0.957  17.372  0.0213 -0.2331 -0.4187
 6825SOL    HW132111   1.764   0.975  17.441 -0.3180  0.8638 -1.0139
 6825SOL    HW232112   1.807   1.014  17.298 -0.2750 -0.1827 -0.2972
 6826SOL     OW32113   3.364   2.118   0.642 -0.4218 -0.2238 -0.3164
 6826SOL    HW132114   3.382   2.090   0.552  2.6663 -1.9922  0.8427
 6826SOL    HW232115   3.408   2.053   0.697 -0.4784 -0.4882 -0.5839
 6827SOL     OW32116   1.086   3.601   3.158  0.4931 -0.1930  0.3758
 6827SOL    HW132117   1.058   3.511   3.145 -1.8122  0.2656  2.3020
 6827SOL    HW232118   1.176   3.601   3.126 -0.0655  2.9364 -1.3277
 6828SOL     OW32119   3.053   1.218   3.346  0.3601  0.3125  0.4690
 6828SOL    HW132120   2.972   1.171   3.328  1.7240 -2.1213  0.5537
 6828SOL    HW232121   3.066   1.266   3.264  2.1188 -1.7264 -0.4639
 6829SOL     OW32122   1.214   2.010   5.317  0.3816  0.0321  0.2236
 6829SOL    HW132123   1.259   2.029   5.399  0.8031  1.7490 -0.4017
 6829SOL    HW232124   1.280   2.049   5.261  0.4267  0.5585  0.6353
 6830SOL     OW32125   2.148   0.274   0.551  0.1885  0.7592  0.0896
 6830SOL    HW132126   2.240   0.264   0.524 -0.5376 -2.3097 -1.2608
 6830SOL    HW232127   2.104   0.192   0.529  0.2511  0.5076  0.9045
 6831SOL     OW32128   1.804   3.084   9.310 -0.4670  0.0261 -1.0641
 6831SOL    HW132129   1.884   3.032   9.323 -0.4787  0.3019  0.1507
 6831SOL    HW232130   1.762   3.046   9.233 -1.5662 -1.1784  0.1310
 6832SOL     OW32131   3.217   0.436   5.657 -0.4159 -0.8136 -0.0356
 6832SOL    HW132132   3.175   0.350   5.657 -0.8244 -0.6132  1.2967
 6832SOL    HW232133   3.141   0.483   5.692 -0.2985 -0.4825 -0.2212
 6833SOL     OW32134   0.966   3.830   7.080  0.3838 -0.3814  0.2303
 6833SOL    HW132135   0.923   3.747   7.057 -0.1774 -0.5158  1.7439
 6833SOL    HW232136   1.041   3.793   7.126  0.9790  1.2321  0.5506
 6834SOL     OW32137   0.486   3.330   5.670  0.4860  0.2358 -0.6939
 6834SOL    HW132138   0.425   3.350   5.741  1.9143  0.6149  0.4205
 6834SOL    HW232139   0.562   3.360   5.720  1.0004  2.2598 -2.7025
 6835SOL     OW32140   4.270   2.344   8.681  0.0595  0.5579  0.6597
 6835SOL    HW132141   4.199   2.398   8.648  0.1456 -1.1843 -2.4332
 6835SOL    HW232142   4.241   2.338   8.772 -1.1889 -1.0696  0.1425
 6836SOL     OW32143   4.253   2.957   4.331  0.2332  0.4660  0.4976
 6836SOL    HW132144   4.327   2.902   4.358 -0.8114 -0.8140  0.7675
 6836SOL    HW232145   4.270   3.033   4.386 -0.8027  1.5210 -0.6454
 6837SOL     OW32146   3.151   4.495   8.225 -0.4080  0.4828  0.3205
 6837SOL    HW132147   3.187   4.505   8.137 -0.3717 -2.1811  0.0455
 6837SOL    HW232148   3.235   4.481   8.268 -0.3905  0.4202  0.2662
 6838SOL     OW32149   2.506   0.331   2.774 -0.0841  0.5336  0.2325
 6838SOL    HW132150   2.517   0.245   2.733  2.8046  0.6414  0.7845
 6838SOL    HW232151   2.587   0.335   2.824 -0.1323  2.7087  0.1322
 6839SOL     OW32152   3.777   2.235  10.653  0.3702  0.0249  0.1201
 6839SOL    HW132153   3.830   2.311  10.629  1.1449 -0.6006 -0.1030
 6839SOL    HW232154   3.689   2.264  10.628  1.8398  1.5754 -3.2141
 6840SOL     OW32155   4.130   3.548   1.660  0.0436  0.0842 -0.0565
 6840SOL    HW132156   4.110   3.593   1.742  1.1128  0.6966 -0.1240
 6840SOL    HW232157   4.043   3.520   1.630 -0.5120  0.9981  0.7162
 6841SOL     OW32158   1.085   0.214   6.042 -0.3410  0.1639  0.1229
 6841SOL    HW132159   1.066   0.211   5.948  2.1377 -0.2576 -0.3506
 6841SOL    HW232160   1.058   0.124   6.060 -1.7549  0.6953  0.6334
 6842SOL     OW32161   4.057   0.702   3.518  0.1298  0.1291  0.3829
 6842SOL    HW132162   4.149   0.720   3.541  1.2549 -2.6962 -1.9474
 6842SOL    HW232163   4.011   0.779   3.551 -1.1013 -0.4191 -0.0659
 6843SOL     OW32164   0.652   3.048   4.871  0.1757  0.2426 -0.1163
 6843SOL    HW132165   0.673   3.038   4.963  0.4650 -0.4543 -0.2555
 6843SOL    HW232166   0.594   2.973   4.861  1.9725 -1.2004  0.0987
 6844SOL     OW32167   3.151   2.359   5.366 -0.1589 -0.1299 -0.0056
 6844SOL    HW132168   3.196   2.333   5.285 -0.2031 -0.8633  0.2018
 6844SOL    HW232169   3.065   2.328   5.338 -0.8204  0.5091  1.3246
 6845SOL     OW32170   0.629   3.878   6.695 -0.2155  0.2641 -0.2792
 6845SOL    HW132171   0.708   3.825   6.702 -0.9993 -0.3952  3.5082
 6845SOL    HW232172   0.586   3.840   6.772  1.2492 -2.4903 -0.8500
 6846SOL     OW32173   1.684   2.449  15.312  0.3587 -0.4282 -0.4834
 6846SOL    HW132174   1.629   2.374  15.290 -0.2055 -0.0212 -0.4575
 6846SOL    HW232175   1.719   2.421  15.396  1.7678  2.0765 -0.2292
 6847SOL     OW32176   0.787   3.652   2.584  0.3300 -0.0432 -0.3534
 6847SOL    HW132177   0.725   3.645   2.511  0.2478 -2.7888 -0.0249
 6847SOL    HW232178   0.859   3.602   2.546 -0.5438 -0.9493 -0.8439
 6848SOL     OW32179   0.745   3.540  16.809 -0.2794 -0.2018 -0.0572
 6848SOL    HW132180   0.682   3.497  16.867 -2.3667 -0.8117 -2.7538
 6848SOL    HW232181   0.742   3.633  16.832 -0.8890  0.2609 -2.0158
 6849SOL     OW32182   4.707   4.352  17.617 -0.7880 -0.0048  0.2543
 6849SOL    HW132183   0.023   4.354  17.535 -1.4939 -2.3999 -0.2274
 6849SOL    HW232184   4.623   4.377  17.578 -1.3119 -1.7494  0.2967
 6850SOL     OW32185   0.186   1.910   8.296 -0.8314  0.0712 -0.0723
 6850SOL    HW132186   0.249   1.965   8.251 -0.1815  0.3455  1.1616
 6850SOL    HW232187   0.223   1.889   8.382  1.3604  2.0020 -0.5384
 6851SOL     OW32188   2.152   1.069   8.226  0.2197 -0.1070  0.1851
 6851SOL    HW132189   2.150   1.161   8.252  0.6179  0.0892 -0.4832
 6851SOL    HW232190   2.235   1.064   8.178  0.8662  2.5943  1.0435
 6852SOL     OW32191   2.345   0.858   4.340 -0.0778  0.1918  0.5019
 6852SOL    HW132192   2.400   0.795   4.388  0.9785  1.1074  0.4935
 6852SOL    HW232193   2.285   0.806   4.286  0.3842  1.2595 -1.0623
 6853SOL     OW32194   2.757   1.866   0.908 -0.4809 -0.7517  0.0949
 6853SOL    HW132195   2.684   1.883   0.968 -0.4791 -1.3082  0.2536
 6853SOL    HW232196   2.712   1.849   0.826 -0.5883  0.4322 -0.0877
 6854SOL     OW32197   2.842   3.233   4.731  0.0598  0.3045 -0.1820
 6854SOL    HW132198   2.885   3.315   4.707 -0.0306  0.3644 -0.1384
 6854SOL    HW232199   2.920   3.184   4.757 -0.9878 -1.7830 -0.9634
 6855SOL     OW32200   3.199   2.670   5.760  0.6080  0.1250 -0.2053
 6855SOL    HW132201   3.195   2.583   5.721  0.3097  0.7670 -1.5855
 6855SOL    HW232202   3.293   2.683   5.752  0.4973  2.4045  2.0766
 6856SOL     OW32203   3.988   2.549   3.640 -0.0723 -0.4195 -0.1041
 6856SOL    HW132204   3.980   2.547   3.735 -1.6100 -0.5108 -0.2323
 6856SOL    HW232205   3.947   2.467   3.613 -0.0298 -0.5196  0.1357
 6857SOL     OW32206   1.628   3.041   5.629 -0.7691  0.4987 -0.2447
 6857SOL    HW132207   1.662   2.994   5.553  1.2465 -0.8535  1.4626
 6857SOL    HW232208   1.568   2.984   5.678  0.1106 -1.6276 -1.6183
 6858SOL     OW32209   2.565   2.114   7.294 -0.2701 -0.4113 -0.2749
 6858SOL    HW132210   2.656   2.140   7.280 -0.6616  0.2701 -1.5388
 6858SOL    HW232211   2.569   2.021   7.316  0.5220 -0.2168  0.3997
 6859SOL     OW32212   3.827   1.650   4.067  0.0050 -0.0086  0.0056
 6859SOL    HW132213   3.813   1.652   4.162  2.0701 -0.1206  0.2996
 6859SOL    HW232214   3.736   1.648   4.036  0.3694  1.9743 -1.1611
 6860SOL     OW32215   2.247   3.388   7.932  0.2275 -0.5668  0.2131
 6860SOL    HW132216   2.338   3.375   7.958  0.4593 -0.1377 -0.4012
 6860SOL    HW232217   2.209   3.301   7.948 -2.4368  0.1565 -2.1127
 6861SOL     OW32218   0.195   3.011   7.894 -0.4382  0.7528  0.3682
 6861SOL    HW132219   0.178   3.052   7.979 -1.4758 -0.3950  0.7131
 6861SOL    HW232220   0.136   2.938   7.912 -0.9163  0.8832 -0.6753
 6862SOL     OW32221   2.199   4.017  11.347  0.3016 -0.1695 -0.0246
 6862SOL    HW132222   2.262   4.061  11.403  1.2519 -3.5957  1.5903
 6862SOL    HW232223   2.187   3.931  11.387 -2.0103 -0.7050 -1.8935
 6863SOL     OW32224   0.845   2.799   3.501 -0.2908  0.1566 -0.3008
 6863SOL    HW132225   0.909   2.817   3.432  1.9893 -1.2096  1.4360
 6863SOL    HW232226   0.898   2.816   3.578 -1.4337  0.9934  0.3019
 6864SOL     OW32227   1.634   3.627   6.169 -0.2920  0.1006  0.1367
 6864SOL    HW132228   1.580   3.706   6.169 -1.3912 -0.6651  1.7677
 6864SOL    HW232229   1.569   3.568   6.207  0.1940  0.2255  1.1504
 6865SOL     OW32230   3.156   0.148   7.486  0.1471 -0.3754 -0.0248
 6865SOL    HW132231   3.138   0.055   7.495 -1.0847 -0.0708  0.7132
 6865SOL    HW232232   3.215   0.161   7.560 -0.3032 -0.7027  0.3876
 6866SOL     OW32233   2.787   4.570  10.878  0.5043 -0.1314  0.4248
 6866SOL    HW132234   2.693   4.581  10.861 -0.0927 -0.8190  3.1442
 6866SOL    HW232235   2.806   4.492  10.826  0.1779 -1.0261  1.6495
 6867SOL     OW32236   0.800   2.058   2.673  0.1445  0.0274  0.5922
 6867SOL    HW132237   0.867   2.127   2.669  1.8385 -1.6666  0.1734
 6867SOL    HW232238   0.804   2.024   2.762  1.2148 -0.3253  0.4102
 6868SOL     OW32239   3.772   1.399   1.187  0.5098  0.1483 -0.0065
 6868SOL    HW132240   3.747   1.310   1.163  1.9731 -0.1200 -0.5176
 6868SOL    HW232241   3.821   1.386   1.268  0.3961  0.8987  0.1872
 6869SOL     OW32242   4.526   4.372   0.843 -0.0961  0.0261  0.4518
 6869SOL    HW132243   4.446   4.423   0.832 -0.6908 -0.9369  0.3219
 6869SOL    HW232244   4.568   4.412   0.767 -2.5669 -1.1258 -1.5050
 6870SOL     OW32245   4.691   0.782   2.576  0.3239  0.5595  0.2765
 6870SOL    HW132246   4.611   0.803   2.625 -0.5656 -0.2167 -0.8621
 6870SOL    HW232247   4.717   0.870   2.547 -0.8831  0.4788 -1.0143
 6871SOL     OW32248   3.206   3.140   3.439  0.2767  1.0786 -0.3166
 6871SOL    HW132249   3.296   3.109   3.447  0.1045  0.2858 -1.3722
 6871SOL    HW232250   3.213   3.201   3.365 -1.0505  0.2302 -1.1469
 6872SOL     OW32251   0.954   2.335  10.409  0.2217  0.3514 -0.0450
 6872SOL    HW132252   0.876   2.388  10.395 -0.4347 -0.0886  1.8272
 6872SOL    HW232253   1.020   2.392  10.448 -1.0845  1.4198  0.6344
 6873SOL     OW32254   3.040   1.579   4.330  0.8183  0.1416 -0.1991
 6873SOL    HW132255   3.110   1.635   4.298  1.2421  0.2709  0.9537
 6873SOL    HW232256   3.085   1.495   4.341  1.2704  0.5168  0.8448
 6874SOL     OW32257   1.247   0.176   3.202  0.1882  0.0620 -0.0825
 6874SOL    HW132258   1.216   0.241   3.264  1.7578  1.0834 -0.3611
 6874SOL    HW232259   1.166   0.179   3.151 -0.9269 -2.7835  1.5260
 6875SOL     OW32260   1.644   0.921   3.533  0.5381  0.4321 -0.0180
 6875SOL    HW132261   1.560   0.959   3.559 -0.3514 -1.5683  0.0125
 6875SOL    HW232262   1.705   0.979   3.579 -0.3971  1.7880 -0.4810
 6876SOL     OW32263   3.996   4.319   3.992 -0.4020  0.1702  0.0775
 6876SOL    HW132264   3.936   4.326   3.917 -1.2924  1.9508  0.9322
 6876SOL    HW232265   4.071   4.279   3.949 -0.9047  0.1166 -0.7601
 6877SOL     OW32266   4.643   0.169  12.541  0.5150  0.2219 -0.4971
 6877SOL    HW132267   4.642   0.164  12.446  1.3520 -4.1137 -0.2855
 6877SOL    HW232268   4.623   0.078  12.562 -1.4342  0.7438 -0.0686
 6878SOL     OW32269   1.040   3.885   5.412  0.5579  0.3090  0.5139
 6878SOL    HW132270   0.973   3.873   5.480 -1.1055  1.6784 -0.8986
 6878SOL    HW232271   1.000   3.831   5.344 -0.4325 -0.2862  1.5655
 6879SOL     OW32272   2.092   4.112   5.853  0.4581  0.7670 -0.0987
 6879SOL    HW132273   2.094   4.020   5.830 -2.8111  0.4280  1.0551
 6879SOL    HW232274   2.052   4.102   5.939 -1.5452 -1.0455 -1.2698
 6880SOL     OW32275   2.523   4.505   8.478  0.5627 -0.1236 -0.4524
 6880SOL    HW132276   2.617   4.520   8.467 -0.0987  3.9445 -0.6481
 6880SOL    HW232277   2.492   4.550   8.399 -2.1470  1.9167  1.7832
 6881SOL     OW32278   2.376   4.370   3.378  0.2125  0.8199  0.1551
 6881SOL    HW132279   2.358   4.399   3.467  1.3530 -0.3305  0.7612
 6881SOL    HW232280   2.291   4.329   3.362 -0.5385  2.8275 -0.9926
 6882SOL     OW32281   2.902   0.816   8.446 -0.0015  0.1499 -0.3732
 6882SOL    HW132282   2.903   0.727   8.409  0.8142  0.2963 -0.7246
 6882SOL    HW232283   2.829   0.854   8.398  0.6606  1.8256 -0.0671
 6883SOL     OW32284   0.618   2.404   5.925  0.5634  0.1309  0.1090
 6883SOL    HW132285   0.556   2.420   5.854 -1.7464  1.4253  2.4421
 6883SOL    HW232286   0.600   2.313   5.947  0.2224  0.2691  0.3925
 6884SOL     OW32287   1.738   2.905   9.123  0.4358  0.0899  0.7187
 6884SOL    HW132288   1.716   2.818   9.088 -1.4277  1.8215 -2.3629
 6884SOL    HW232289   1.833   2.895   9.111  0.4148 -0.9516  1.4167
 6885SOL     OW32290   4.715   4.171   9.069 -0.3413  0.6615 -0.1340
 6885SOL    HW132291   0.006   4.095   9.121 -2.3468  0.0096 -0.0923
 6885SOL    HW232292   0.060   4.172   9.016 -0.4237 -1.2528 -0.2959
 6886SOL     OW32293   0.807   1.110   5.212  0.1363 -0.3491 -0.0429
 6886SOL    HW132294   0.793   1.197   5.175 -2.0443 -0.4560  0.5349
 6886SOL    HW232295   0.902   1.106   5.200 -0.0571  0.7259 -1.8336
 6887SOL     OW32296   2.982   2.026  12.869  0.2878 -0.7334 -0.1937
 6887SOL    HW132297   3.030   2.075  12.936 -0.2608  1.3647 -1.3611
 6887SOL    HW232298   2.940   1.960  12.925  1.2980 -0.8137  0.4824
 6888SOL     OW32299   3.698   2.262   5.798  0.1718  0.1712 -0.3895
 6888SOL    HW132300   3.651   2.195   5.848  1.1421 -0.7479 -0.7233
 6888SOL    HW232301   3.665   2.344   5.835  1.6614  0.7584 -0.3598
 6889SOL     OW32302   2.782   4.464   7.931  0.1972 -1.4911 -0.4145
 6889SOL    HW132303   2.701   4.422   7.904 -1.3105  1.6812 -0.8883
 6889SOL    HW232304   2.756   4.553   7.905 -1.5311 -2.0597 -0.6091
 6890SOL     OW32305   3.544   0.118   7.902  0.0128  0.1073  0.5509
 6890SOL    HW132306   3.639   0.108   7.890  0.2085  0.5989  1.6816
 6890SOL    HW232307   3.539   0.156   7.989 -0.3086 -0.5978  0.8358
 6891SOL     OW32308   1.168   1.332   0.348  0.1091  0.1936  0.2989
 6891SOL    HW132309   1.097   1.300   0.405 -1.2467 -0.0783 -1.5235
 6891SOL    HW232310   1.218   1.372   0.418  0.1394 -0.2308  0.5229
 6892SOL     OW32311   0.988   4.682   6.105 -0.4476  0.4783  0.2610
 6892SOL    HW132312   0.941   4.615   6.155  0.9313  0.1699  1.1490
 6892SOL    HW232313   1.055   4.631   6.059  0.3460  1.1989  0.6264
 6893SOL     OW32314   1.518   0.788   3.975 -0.2766  0.0412  0.0423
 6893SOL    HW132315   1.464   0.744   3.909  0.2929 -0.7688  0.1131
 6893SOL    HW232316   1.464   0.864   3.997  0.9483  1.2610 -1.0922
 6894SOL     OW32317   4.472   0.915   9.241 -0.4793 -0.4240 -0.1733
 6894SOL    HW132318   4.511   0.927   9.328  0.4890  2.2527 -0.9841
 6894SOL    HW232319   4.480   0.820   9.230  2.5564  0.0066 -1.4273
 6895SOL     OW32320   3.153   0.219   8.989  0.0829 -0.6594 -0.5010
 6895SOL    HW132321   3.096   0.282   8.944  1.2669  0.3740 -0.5389
 6895SOL    HW232322   3.195   0.175   8.914 -0.4086 -0.1953 -1.0506
 6896SOL     OW32323   3.605   1.723   8.293  0.4982  0.3020  0.9000
 6896SOL    HW132324   3.652   1.643   8.317  0.9837 -0.2009 -1.7627
 6896SOL    HW232325   3.516   1.710   8.327  0.2338  1.5771  0.7091
 6897SOL     OW32326   3.092   1.847   2.970 -0.3230  0.2347  0.1285
 6897SOL    HW132327   3.024   1.893   2.921  0.3873  0.0259 -1.0642
 6897SOL    HW232328   3.101   1.766   2.919  0.1817  0.4947 -0.1928
 6898SOL     OW32329   3.822   4.337   5.528 -0.1906  0.0987  0.8303
 6898SOL    HW132330   3.730   4.342   5.503 -0.2446 -0.5760  0.8756
 6898SOL    HW232331   3.824   4.251   5.570 -2.3787 -0.5608 -0.4278
 6899SOL     OW32332   3.155   3.423   4.042 -0.8955 -0.1781 -0.2773
 6899SOL    HW132333   3.090   3.415   3.971  0.3803 -2.5689 -1.1582
 6899SOL    HW232334   3.182   3.332   4.048 -2.4365 -0.7131 -1.4164
 6900SOL     OW32335   0.195   1.222   0.316 -0.2372  0.1268  0.5142
 6900SOL    HW132336   0.190   1.318   0.324 -0.0566  0.4138 -2.8940
 6900SOL    HW232337   0.290   1.209   0.313 -0.4907 -1.0436 -1.6937
 6901SOL     OW32338   4.650   2.869   6.237  0.4566  0.0996  0.1304
 6901SOL    HW132339   4.638   2.868   6.332 -1.1146 -0.1085 -0.0801
 6901SOL    HW232340   4.649   2.963   6.220  0.8932  0.3339  1.3819
 6902SOL     OW32341   3.750   2.153   1.544 -0.9789  0.7521  0.2086
 6902SOL    HW132342   3.738   2.072   1.494 -4.0177  1.0609  0.4566
 6902SOL    HW232343   3.803   2.129   1.620 -1.5474 -0.3761  0.2457
 6903SOL     OW32344   3.300   3.181   6.453  0.7147 -0.2771 -0.5901
 6903SOL    HW132345   3.376   3.172   6.511 -0.8247  0.7565  1.5867
 6903SOL    HW232346   3.257   3.258   6.490  2.7597  1.7189 -2.4042
 6904SOL     OW32347   4.680   1.620   3.510 -0.5665 -0.1626  0.2159
 6904SOL    HW132348   4.684   1.712   3.485  1.5889 -0.0897  0.8177
 6904SOL    HW232349   4.598   1.604   3.556  0.5924  2.8166  3.2754
 6905SOL     OW32350   0.079   1.978   0.295 -0.3144 -0.1315 -0.6051
 6905SOL    HW132351   0.171   1.995   0.315 -0.4669 -0.1733  0.1371
 6905SOL    HW232352   0.074   1.982   0.200 -2.2768  0.7182 -0.4714
 6906SOL     OW32353   0.890   1.443  12.003  0.2147  0.1837  0.1350
 6906SOL    HW132354   0.981   1.440  11.973  0.3026  3.3741  0.0481
 6906SOL    HW232355   0.848   1.522  11.968  1.7010  0.6781 -0.5659
 6907SOL     OW32356   0.082   2.886   4.938 -0.5988 -0.1282  0.5371
 6907SOL    HW132357   0.172   2.913   4.917  0.0563 -3.0892 -0.4532
 6907SOL    HW232358   0.082   2.795   4.908  0.5827 -0.2132  0.7954
 6908SOL     OW32359   0.138   4.625   6.377 -0.2346  0.1764 -0.4272
 6908SOL    HW132360   0.081   4.565   6.330 -0.1445  0.5532 -1.0139
 6908SOL    HW232361   0.139   4.701   6.319 -0.1881  1.5803  1.3907
 6909SOL     OW32362   0.310   0.463   4.121 -0.3190 -0.1007  0.0602
 6909SOL    HW132363   0.268   0.409   4.053 -1.0203 -0.1487  0.5279
 6909SOL    HW232364   0.309   0.402   4.195 -3.5580 -1.6257 -1.2126
 6910SOL     OW32365   1.917   4.066   5.276 -0.6712  0.0327 -0.1220
 6910SOL    HW132366   1.831   4.025   5.290  0.2295 -1.7925  0.1069
 6910SOL    HW232367   1.961   3.982   5.261  2.6024  2.1823 -2.4113
 6911SOL     OW32368   0.805   1.929   3.317 -0.3296  0.3539 -0.3246
 6911SOL    HW132369   0.731   1.870   3.310  0.7458 -1.5111  4.2069
 6911SOL    HW232370   0.773   2.013   3.282 -0.3221  0.8906  0.9812
 6912SOL     OW32371   1.004   1.325   5.003  0.4577  0.0202  0.9649
 6912SOL    HW132372   0.989   1.372   4.921 -0.7338 -2.0384 -0.0124
 6912SOL    HW232373   0.956   1.377   5.068 -0.6995  0.9752 -0.6522
 6913SOL     OW32374   2.607   3.714   2.909 -0.1170  0.2823  0.0757
 6913SOL    HW132375   2.554   3.655   2.855 -1.1241  1.5263 -0.2906
 6913SOL    HW232376   2.644   3.661   2.980 -2.1686  0.1245  1.0130
 6914SOL     OW32377   1.444   2.328   6.147  0.2926 -0.8168 -0.3958
 6914SOL    HW132378   1.523   2.321   6.200  0.6988 -1.1198 -1.0348
 6914SOL    HW232379   1.399   2.251   6.182 -0.4314 -0.1635  0.1154
 6915SOL     OW32380   1.425   4.567   3.877  0.0699 -0.0311 -0.1760
 6915SOL    HW132381   1.511   4.526   3.865 -0.4529 -1.1654 -0.0233
 6915SOL    HW232382   1.421   4.620   3.797  3.8047 -1.1134 -1.0654
 6916SOL     OW32383   2.712   4.456   6.298  1.0892  0.2591  0.2878
 6916SOL    HW132384   2.721   4.379   6.242  0.3598  0.9649 -0.7795
 6916SOL    HW232385   2.800   4.494   6.293  1.3351 -0.1884  1.2748
 6917SOL     OW32386   3.934   3.750   0.841  0.2752 -0.0386 -0.2681
 6917SOL    HW132387   3.957   3.729   0.751  0.2292 -1.0017 -0.0566
 6917SOL    HW232388   3.903   3.663   0.868  2.4760 -0.4214  1.0776
 6918SOL     OW32389   1.027   1.763   4.262 -0.5325 -0.1550  0.1419
 6918SOL    HW132390   0.960   1.745   4.196  1.8139  0.1693 -2.3473
 6918SOL    HW232391   1.101   1.724   4.215  0.1546 -0.6521  1.6257
 6919SOL     OW32392   4.199   0.735  13.918  0.5748  0.1106  0.4027
 6919SOL    HW132393   4.167   0.722  14.007 -2.2212 -0.0548 -0.6340
 6919SOL    HW232394   4.132   0.706  13.856  0.6794  0.7205 -0.0010
 6920SOL     OW32395   1.015   3.416  15.117 -0.0962  0.4381 -0.2701
 6920SOL    HW132396   0.926   3.404  15.085  0.0918 -2.2407  0.2958
 6920SOL    HW232397   1.057   3.426  15.031 -0.4750 -1.5994 -0.6930
 6921SOL     OW32398   0.506   1.139  12.091  0.3376  0.2717 -0.1756
 6921SOL    HW132399   0.534   1.228  12.110 -0.7922  0.0953  2.4449
 6921SOL    HW232400   0.534   1.136  12.000  1.3355 -2.2081  0.1997
 6922SOL     OW32401   1.592   2.045  11.274  0.0698  0.7339  0.2880
 6922SOL    HW132402   1.593   2.134  11.238 -0.1042 -0.0559 -1.7037
 6922SOL    HW232403   1.631   2.060  11.360 -0.7041  1.4902  0.5094
 6923SOL     OW32404   4.307   2.625   0.918  0.5268 -0.0442 -0.7290
 6923SOL    HW132405   4.402   2.621   0.911  0.4507  0.0946 -1.8375
 6923SOL    HW232406   4.294   2.720   0.917 -2.0858 -0.3626  1.5119
 6924SOL     OW32407   4.227   4.102   7.636 -0.1428 -0.3346  0.9144
 6924SOL    HW132408   4.159   4.102   7.703  1.7245 -0.5025  2.8156
 6924SOL    HW232409   4.305   4.082   7.687  0.3084  3.4018  1.6855
 6925SOL     OW32410   2.775   2.278   5.637 -0.0979  0.2419  0.4336
 6925SOL    HW132411   2.696   2.298   5.688 -0.7271  1.1731 -0.8891
 6925SOL    HW232412   2.826   2.239   5.707  0.8990 -0.7164 -0.8264
 6926SOL     OW32413   0.112   3.585   2.412  0.1250 -0.1010  0.0038
 6926SOL    HW132414   0.079   3.521   2.349 -2.2707  0.0825  1.0544
 6926SOL    HW232415   0.133   3.653   2.349 -1.8092 -0.1820 -0.7311
 6927SOL     OW32416   3.497   0.868   1.280  0.4669  0.3437  0.0273
 6927SOL    HW132417   3.539   0.842   1.362 -0.1275  0.2302  0.2959
 6927SOL    HW232418   3.420   0.900   1.326 -0.2166  0.6742 -1.3429
 6928SOL     OW32419   1.815   0.330   6.366 -0.1981 -0.2227 -0.2496
 6928SOL    HW132420   1.722   0.307   6.361 -0.4181  1.3717 -3.2104
 6928SOL    HW232421   1.799   0.394   6.436 -3.0708 -0.7514 -0.3956
 6929SOL     OW32422   0.088   3.435   7.514 -0.0755 -0.0066 -0.1846
 6929SOL    HW132423   0.018   3.494   7.485 -2.0111 -1.8787  0.7130
 6929SOL    HW232424   0.131   3.413   7.431  3.1346 -0.0794  1.5276
 6930SOL     OW32425   3.949   2.970   9.255 -0.1465 -0.3077 -0.3790
 6930SOL    HW132426   4.038   2.972   9.220  0.5868  0.4045  1.5364
 6930SOL    HW232427   3.916   2.899   9.200 -0.9252  0.4349 -0.8824
 6931SOL     OW32428   0.555   2.238   1.625  0.7888 -0.2279  0.4262
 6931SOL    HW132429   0.497   2.184   1.679  0.3646  1.2882  1.4841
 6931SOL    HW232430   0.559   2.176   1.552 -2.2099 -0.8250  0.7422
 6932SOL     OW32431   3.402   0.168   6.473  0.2152 -0.0582  0.2336
 6932SOL    HW132432   3.456   0.192   6.548 -0.3798  1.4681  0.1696
 6932SOL    HW232433   3.330   0.230   6.489 -0.1709 -0.2335 -0.7752
 6933SOL     OW32434   0.593   3.186   3.104 -0.2407  0.0619  0.4585
 6933SOL    HW132435   0.688   3.192   3.098 -0.2882 -1.4802 -1.9741
 6933SOL    HW232436   0.584   3.092   3.089  1.2270  0.0598 -0.3874
 6934SOL     OW32437   4.322   1.216   3.925  0.3355  0.0118 -0.0592
 6934SOL    HW132438   4.393   1.167   3.966  0.6377  0.4294 -0.0907
 6934SOL    HW232439   4.261   1.221   3.999  0.6408 -1.7799  0.3328
 6935SOL     OW32440   2.750   0.646   6.544  0.1322 -0.1688 -0.3388
 6935SOL    HW132441   2.690   0.716   6.518 -2.1079 -2.9017 -2.5085
 6935SOL    HW232442   2.796   0.614   6.467 -0.8481  0.8332 -1.3396
 6936SOL     OW32443   3.054   1.744  12.774 -0.0570 -0.0420 -0.1979
 6936SOL    HW132444   2.987   1.691  12.818 -0.2436  1.1106  0.9300
 6936SOL    HW232445   3.029   1.830  12.808 -3.1159 -1.3775  0.9276
 6937SOL     OW32446   4.663   3.030  11.094 -0.4071  0.2049  0.1190
 6937SOL    HW132447   4.581   3.039  11.142 -0.9738 -0.6625 -0.6944
 6937SOL    HW232448   4.672   3.124  11.080 -1.0172  0.4794  1.5647
 6938SOL     OW32449   0.560   0.765   4.241 -0.3157  0.1917  0.0420
 6938SOL    HW132450   0.650   0.783   4.269  0.0760 -2.7698  0.6600
 6938SOL    HW232451   0.527   0.698   4.301  3.3456  1.6044  3.5768
 6939SOL     OW32452   0.492   1.751  17.337 -0.3281  0.1709 -0.5953
 6939SOL    HW132453   0.449   1.823  17.290 -2.5526 -1.3013 -0.8389
 6939SOL    HW232454   0.574   1.750  17.289  0.6800 -0.1063  1.1444
 6940SOL     OW32455   4.537   1.600   1.828  0.1545  0.3286 -0.1466
 6940SOL    HW132456   4.479   1.672   1.850  1.6004  1.1269  1.0558
 6940SOL    HW232457   4.567   1.614   1.738  1.8452  1.5925  0.6084
 6941SOL     OW32458   1.140   1.882   7.079  0.2038  0.4154 -0.0603
 6941SOL    HW132459   1.168   1.961   7.126 -0.6349  0.9251 -0.4220
 6941SOL    HW232460   1.115   1.814   7.141  0.0379  1.3641  0.9264
 6942SOL     OW32461   2.453   1.869   4.605 -0.2481 -0.1582  0.0130
 6942SOL    HW132462   2.369   1.834   4.635 -0.7096  2.0919  1.3406
 6942SOL    HW232463   2.471   1.942   4.663 -1.7535  1.5287 -1.6271
 6943SOL     OW32464   2.965   1.970   8.291  0.5325  0.3677  0.3455
 6943SOL    HW132465   3.059   1.983   8.299  0.8077 -1.6991  0.6011
 6943SOL    HW232466   2.956   1.881   8.255 -0.5372 -0.5622  2.9498
 6944SOL     OW32467   4.209   3.805   4.162 -0.7729 -0.3764  0.2786
 6944SOL    HW132468   4.230   3.780   4.072  0.0366  1.8957 -0.1648
 6944SOL    HW232469   4.152   3.732   4.186 -1.2972  0.1052  0.4896
 6945SOL     OW32470   1.736   3.780   2.157  0.2205  0.0614  0.4857
 6945SOL    HW132471   1.799   3.715   2.127  0.1222  1.2116 -2.1684
 6945SOL    HW232472   1.798   3.834   2.206  0.9348 -0.4125  0.0962
 6946SOL     OW32473   2.602   0.702   2.143 -0.0714  0.1672  0.1835
 6946SOL    HW132474   2.563   0.776   2.097  0.5413  0.5486  0.2928
 6946SOL    HW232475   2.601   0.633   2.076  1.0295  2.4001 -2.1555
 6947SOL     OW32476   3.446   4.424   9.552  0.1066  0.2268 -0.3334
 6947SOL    HW132477   3.502   4.347   9.549 -0.2887 -0.0581 -0.3117
 6947SOL    HW232478   3.494   4.474   9.485  2.0716  0.2565  1.1037
 6948SOL     OW32479   2.028   4.455  12.600  0.6959  0.1629 -0.3905
 6948SOL    HW132480   1.966   4.389  12.631  0.6212  1.0696  1.3956
 6948SOL    HW232481   1.972   4.507  12.541 -0.8934  0.9952  1.8559
 6949SOL     OW32482   0.716   0.163  13.705  0.3921  0.4134  0.3625
 6949SOL    HW132483   0.752   0.244  13.666  1.1172  0.1510  0.4796
 6949SOL    HW232484   0.683   0.199  13.787  1.1386  0.8752  0.4609
 6950SOL     OW32485   3.675   3.378   9.167  0.6282  0.0413 -0.4965
 6950SOL    HW132486   3.710   3.294   9.197  1.5764  0.1147 -1.4107
 6950SOL    HW232487   3.752   3.419   9.128 -0.2797 -0.1727 -2.4933
 6951SOL     OW32488   1.549   4.247   7.216  0.4512  0.4389  0.1428
 6951SOL    HW132489   1.493   4.231   7.292  3.5022  1.8361  2.6833
 6951SOL    HW232490   1.613   4.177   7.226  0.4028  0.2705 -0.6992
 6952SOL     OW32491   3.771   2.415   6.675 -0.5798  0.6183 -0.0343
 6952SOL    HW132492   3.688   2.455   6.700 -0.9584 -0.4355  0.4054
 6952SOL    HW232493   3.810   2.474   6.610 -0.5252  1.0537  0.3916
 6953SOL     OW32494   1.297   0.651   6.376  0.9789  0.0545  0.0893
 6953SOL    HW132495   1.295   0.734   6.423  3.1195 -0.5348  1.2545
 6953SOL    HW232496   1.215   0.612   6.404  0.6166  0.6667 -0.1140
 6954SOL     OW32497   0.113   4.005  10.695  0.0130  0.4006 -0.0027
 6954SOL    HW132498   0.104   3.920  10.653 -0.5091  0.5038 -0.0997
 6954SOL    HW232499   0.130   3.983  10.787 -2.3271  0.8419  0.5375
 6955SOL     OW32500   2.692   2.627   6.280  0.2778  0.1202 -0.5117
 6955SOL    HW132501   2.739   2.609   6.198 -0.0107 -1.3012 -0.3602
 6955SOL    HW232502   2.700   2.542   6.323 -2.0549 -0.2055 -0.7682
 6956SOL     OW32503   0.773   0.265   6.271  0.1806  0.0970 -0.2312
 6956SOL    HW132504   0.704   0.204   6.294  1.4886 -0.8788  1.1085
 6956SOL    HW232505   0.766   0.264   6.176  1.8683 -1.8739 -0.3304
 6957SOL     OW32506   1.474   3.515   8.098  1.0694 -0.0523 -0.0427
 6957SOL    HW132507   1.523   3.473   8.169  0.5062  2.4719  1.8348
 6957SOL    HW232508   1.478   3.440   8.039  0.2089  0.2152 -0.4291
 6958SOL     OW32509   1.262   0.794  13.596 -0.1937  0.1538 -0.2359
 6958SOL    HW132510   1.324   0.747  13.540 -0.0818  0.4155 -0.3283
 6958SOL    HW232511   1.199   0.803  13.524  0.6084  1.8243 -0.7321
 6959SOL     OW32512   1.804   3.164   3.199 -0.0302 -0.0327 -0.0266
 6959SOL    HW132513   1.824   3.188   3.109 -1.4103 -2.3276 -0.9534
 6959SOL    HW232514   1.715   3.130   3.191 -0.3655  0.7218  0.5282
 6960SOL     OW32515   4.589   1.120  14.957  0.3178 -0.0284  0.3854
 6960SOL    HW132516   4.682   1.099  14.952 -0.1337 -1.9641 -0.0230
 6960SOL    HW232517   4.566   1.094  15.046 -1.2726 -0.0457 -0.0319
 6961SOL     OW32518   4.030   3.435   8.312 -0.1631 -0.2482  0.3361
 6961SOL    HW132519   4.117   3.438   8.272 -0.3469 -1.5377 -0.1689
 6961SOL    HW232520   3.984   3.375   8.253 -0.4028 -0.8281  1.1223
 6962SOL     OW32521   4.700   3.643   7.800 -0.1943 -0.0335 -0.1198
 6962SOL    HW132522   0.046   3.672   7.843  0.8316 -2.6380 -0.2804
 6962SOL    HW232523   4.672   3.717   7.746 -3.1036 -1.4587 -0.5628
 6963SOL     OW32524   0.620   0.431   6.421 -0.1889 -0.4169  0.1783
 6963SOL    HW132525   0.702   0.403   6.379 -1.9463 -0.6214 -3.1618
 6963SOL    HW232526   0.633   0.383   6.502 -1.7000 -0.4556  0.3958
 6964SOL     OW32527   3.784   4.117   1.718  0.3623  0.3867 -0.1204
 6964SOL    HW132528   3.855   4.158   1.768  1.5442 -0.7348 -0.8454
 6964SOL    HW232529   3.811   4.025   1.729 -0.8277 -0.1054 -1.3149
 6965SOL     OW32530   3.449   1.039   7.087  0.0305 -0.2994  0.0625
 6965SOL    HW132531   3.356   1.063   7.082 -0.1746 -0.3690  3.5192
 6965SOL    HW232532   3.465   1.050   7.180 -1.5970 -1.9796  0.5326
 6966SOL     OW32533   4.084   0.218   5.400  0.2845  0.4594  0.4640
 6966SOL    HW132534   4.016   0.259   5.346 -2.4935 -1.1871  2.7061
 6966SOL    HW232535   4.135   0.298   5.414  0.1752 -0.2926  4.9781
 6967SOL     OW32536   2.030   4.659   4.971 -0.7605  0.0886 -0.5038
 6967SOL    HW132537   2.004   4.629   4.883  2.6113  2.4795 -2.3094
 6967SOL    HW232538   2.015   0.019   4.964  0.8581  0.4806  1.5114
 6968SOL     OW32539   3.039   2.850   6.780 -0.1222 -0.1458  0.0817
 6968SOL    HW132540   3.086   2.892   6.707 -2.6692  0.0446 -1.4445
 6968SOL    HW232541   2.974   2.803   6.728  1.0163 -1.1955 -0.3811
 6969SOL     OW32542   1.097   1.050   6.706  0.6056  0.1724 -0.3387
 6969SOL    HW132543   1.023   1.107   6.727  0.5990  0.3000 -0.7092
 6969SOL    HW232544   1.159   1.070   6.775 -0.5940  0.8769  0.5405
 6970SOL     OW32545   3.134   3.637   6.904 -0.4944  1.4809 -0.0792
 6970SOL    HW132546   3.148   3.641   6.998 -1.3724  0.4581  0.0916
 6970SOL    HW232547   3.039   3.648   6.891 -0.2091  1.9721 -1.8065
 6971SOL     OW32548   3.274   1.616   5.617 -0.3716  0.0074 -0.5025
 6971SOL    HW132549   3.348   1.644   5.564 -0.7029 -0.2239 -1.0839
 6971SOL    HW232550   3.303   1.531   5.651 -0.0982  0.0228 -0.7042
 6972SOL     OW32551   3.708   1.305   3.725 -1.0193 -0.4551 -0.4457
 6972SOL    HW132552   3.675   1.286   3.813 -1.8838  1.5506 -0.3518
 6972SOL    HW232553   3.644   1.256   3.673 -0.1876 -3.3668  1.2603
 6973SOL     OW32554   4.396   4.476   1.643 -0.0255  0.5715 -0.6216
 6973SOL    HW132555   4.468   4.454   1.702 -2.5228 -0.0961  2.1652
 6973SOL    HW232556   4.353   4.394   1.621 -0.5384  0.3298  1.2418
 6974SOL     OW32557   3.198   3.317   8.517  0.1965  0.1758  0.3661
 6974SOL    HW132558   3.172   3.398   8.472  0.4958  0.4874  0.7542
 6974SOL    HW232559   3.156   3.327   8.602  2.2139  0.6556  1.2907
 6975SOL     OW32560   3.673   0.639   8.469 -0.7077 -0.3533 -0.0240
 6975SOL    HW132561   3.581   0.665   8.477 -0.9858 -1.1820 -0.5111
 6975SOL    HW232562   3.700   0.676   8.385 -1.1961 -1.2362 -0.5593
 6976SOL     OW32563   2.985   1.261   9.216  0.6034 -0.1912 -0.1440
 6976SOL    HW132564   2.993   1.299   9.128  1.7389 -1.0419 -0.4060
 6976SOL    HW232565   2.931   1.185   9.194  0.7175 -0.7136  1.3902
 6977SOL     OW32566   3.342   0.156   8.795  0.4181  0.0725 -0.3894
 6977SOL    HW132567   3.409   0.201   8.846  0.6775 -0.1226 -0.5554
 6977SOL    HW232568   3.315   0.225   8.734 -1.8067  0.2859  0.8572
 6978SOL     OW32569   3.567   3.762   9.365  0.0399 -0.3117  0.9204
 6978SOL    HW132570   3.609   3.678   9.381  0.3770 -0.5224 -1.0306
 6978SOL    HW232571   3.549   3.786   9.456  1.1056  1.1425  0.7521
 6979SOL     OW32572   4.631   2.558   7.079  0.3903  0.4034 -0.7780
 6979SOL    HW132573   4.552   2.508   7.099  0.2860  1.2874  0.9737
 6979SOL    HW232574   4.601   2.648   7.085 -1.8854 -0.2511 -2.1725
 6980SOL     OW32575   3.646   2.964   3.658  0.2926 -0.2540 -0.4413
 6980SOL    HW132576   3.712   3.029   3.683 -0.7688  1.6206 -2.5101
 6980SOL    HW232577   3.700   2.886   3.657 -0.3878 -0.7229 -0.3495
 6981SOL     OW32578   0.251   1.714   5.201  0.0367 -1.0795 -0.0559
 6981SOL    HW132579   0.218   1.703   5.290 -0.7956 -0.9097 -0.3528
 6981SOL    HW232580   0.338   1.675   5.212  0.6700 -0.1237 -1.7025
 6982SOL     OW32581   3.947   4.581  11.928  0.2188  0.1387 -0.3346
 6982SOL    HW132582   3.939   4.676  11.936 -1.8057 -0.1322  0.7028
 6982SOL    HW232583   3.915   4.567  11.839  1.8260 -0.8086 -0.7730
 6983SOL     OW32584   3.732   2.878   2.094 -0.2792  0.9493  0.2696
 6983SOL    HW132585   3.730   2.898   2.001  1.2891 -1.2770 -0.2187
 6983SOL    HW232586   3.665   2.942   2.121  0.2617  1.4314  0.4540
 6984SOL     OW32587   1.109   2.024  17.273 -0.3846  0.5949 -0.4819
 6984SOL    HW132588   1.049   2.032  17.347  0.0033 -0.3310 -0.0712
 6984SOL    HW232589   1.067   1.977  17.202  0.4517  1.9180 -1.8613
 6985SOL     OW32590   1.278   0.446   6.632 -0.2354 -0.0898  0.2272
 6985SOL    HW132591   1.262   0.539   6.619 -1.1374 -0.1453  0.9966
 6985SOL    HW232592   1.221   0.421   6.704  0.1238 -0.1262  0.5012
 6986SOL     OW32593   3.720   2.926   5.295  0.4513 -0.1169  0.2632
 6986SOL    HW132594   3.744   3.015   5.323  4.8722 -0.9461 -0.9245
 6986SOL    HW232595   3.680   2.944   5.210  0.8934 -0.1493  0.0486
 6987SOL     OW32596   0.213   0.515   7.666 -0.3922 -0.1617  0.9052
 6987SOL    HW132597   0.257   0.442   7.710  0.2492 -0.7503 -0.7225
 6987SOL    HW232598   0.124   0.506   7.702 -0.0377 -0.8605  1.6120
 6988SOL     OW32599   3.569   0.798   4.803  0.1433 -0.0016 -0.5441
 6988SOL    HW132600   3.573   0.869   4.739  0.8387 -0.4721 -1.0269
 6988SOL    HW232601   3.619   0.841   4.873 -1.0128 -0.1919  0.3961
 6989SOL     OW32602   1.169   3.767   4.073  0.2536  0.1030 -0.2976
 6989SOL    HW132603   1.136   3.849   4.034  0.0465  1.0689  1.9147
 6989SOL    HW232604   1.262   3.774   4.053  0.7307  0.5609  2.1685
 6990SOL     OW32605   3.879   3.253   6.032  0.3604 -0.2723 -0.2593
 6990SOL    HW132606   3.934   3.262   5.954 -1.0523 -1.6832 -1.4115
 6990SOL    HW232607   3.797   3.253   5.983  0.3364 -2.4943 -0.1947
 6991SOL     OW32608   0.629   4.235   4.339 -0.6991 -0.0884  0.2912
 6991SOL    HW132609   0.713   4.269   4.369 -0.0593 -1.3831 -0.0289
 6991SOL    HW232610   0.590   4.314   4.301  1.4394  0.9137  0.1775
 6992SOL     OW32611   0.854   2.100   4.776 -0.9553 -0.1368  0.4743
 6992SOL    HW132612   0.891   2.014   4.753 -1.3183 -0.6026  1.6145
 6992SOL    HW232613   0.860   2.090   4.871  1.6327 -0.3223  0.2740
 6993SOL     OW32614   1.894   0.603   9.296  0.2548  0.3287  0.3857
 6993SOL    HW132615   1.935   0.638   9.218 -0.0153  3.1384  1.4784
 6993SOL    HW232616   1.885   0.687   9.342  0.4888  0.4297  0.2450
 6994SOL     OW32617   3.549   2.329   4.364  0.3805  0.0477  0.2901
 6994SOL    HW132618   3.615   2.364   4.303  0.2686 -1.8173 -0.9056
 6994SOL    HW232619   3.523   2.411   4.407  0.0452 -0.2942  0.7289
 6995SOL     OW32620   2.820   4.671   3.900 -0.3686 -0.3204 -0.1287
 6995SOL    HW132621   2.890   4.709   3.847 -2.5174 -0.6266 -3.1675
 6995SOL    HW232622   2.823   4.576   3.896 -1.2956 -0.3699  0.4311
 6996SOL     OW32623   0.165   3.093   1.162 -0.5852  0.4498 -0.4665
 6996SOL    HW132624   0.111   3.159   1.206 -0.3175 -0.3824  1.1131
 6996SOL    HW232625   0.168   3.133   1.076  1.8487  0.6391 -0.2837
 6997SOL     OW32626   1.796   4.312   0.471 -0.5407  0.0243  0.3975
 6997SOL    HW132627   1.751   4.228   0.476  0.0699 -0.1802  2.4910
 6997SOL    HW232628   1.883   4.276   0.455 -0.8842 -1.3589  1.7009
 6998SOL     OW32629   2.033   2.374   8.662  0.4256  0.0990 -0.1671
 6998SOL    HW132630   2.001   2.288   8.636  2.6077 -0.4434 -1.0935
 6998SOL    HW232631   2.040   2.371   8.757  0.8493  0.0461 -0.2001
 6999SOL     OW32632   4.595   2.939  16.032  0.6613  0.4528 -0.0321
 6999SOL    HW132633   4.522   2.891  16.072 -0.2486  0.9241 -1.1238
 6999SOL    HW232634   4.554   3.025  16.030  0.9981  0.5984 -0.5569
 7000SOL     OW32635   4.645   2.669   3.382  0.0752 -0.1909  0.5034
 7000SOL    HW132636   4.656   2.760   3.352  0.2313 -0.4179 -0.1216
 7000SOL    HW232637   4.550   2.677   3.376  0.3322  1.3463 -1.5737
 7001SOL     OW32638   0.023   2.486   8.003  0.2319  0.3587  0.2419
 7001SOL    HW132639   0.017   2.503   7.909 -1.9052  1.1772  0.5228
 7001SOL    HW232640   4.672   2.521   8.030  0.4658  0.5346  0.7533
 7002SOL     OW32641   2.578   2.275   0.078 -0.1053 -0.1993  0.5984
 7002SOL    HW132642   2.655   2.224   0.101  0.7837 -0.1449 -2.2811
 7002SOL    HW232643   2.619   2.354   0.044  2.0264 -1.8350 -0.6350
 7003SOL     OW32644   3.587   1.102   7.363 -0.1431  0.6016  0.6558
 7003SOL    HW132645   3.647   1.056   7.304 -2.7068 -0.2089 -1.2650
 7003SOL    HW232646   3.568   1.044   7.436  1.3076  0.7801  1.1959
 7004SOL     OW32647   2.852   3.666   4.006 -0.2131  0.7724  1.1362
 7004SOL    HW132648   2.896   3.751   3.996 -0.0320  0.4733 -0.5763
 7004SOL    HW232649   2.821   3.681   4.095 -1.4555  1.2209  0.6305
 7005SOL     OW32650   0.904   1.965   5.020  0.3197  0.0239  0.6262
 7005SOL    HW132651   0.819   1.953   5.063 -0.4185 -1.9225 -1.3539
 7005SOL    HW232652   0.950   1.882   5.024 -0.7143 -0.6417 -0.9656
 7006SOL     OW32653   3.831   2.833   6.997 -0.8200  0.3253 -0.2038
 7006SOL    HW132654   3.760   2.774   7.019  2.3133 -3.3740 -0.0064
 7006SOL    HW232655   3.897   2.765   6.988 -1.0888  0.1044 -0.4818
 7007SOL     OW32656   2.062   3.059   7.764  0.1669  0.3353 -0.3632
 7007SOL    HW132657   2.093   3.051   7.854 -0.4924  0.6071 -0.1142
 7007SOL    HW232658   2.072   2.972   7.726 -1.4445  0.5445 -1.2561
 7008SOL     OW32659   2.632   2.709  10.010  0.1454 -0.2088 -0.1462
 7008SOL    HW132660   2.617   2.803  10.007  1.6506  0.0722  0.8384
 7008SOL    HW232661   2.713   2.710   9.959  0.8760  0.0961  1.0250
 7009SOL     OW32662   2.174   1.850  10.573 -0.1162 -0.5248  0.2110
 7009SOL    HW132663   2.137   1.933  10.601  0.3729 -0.5328  0.8890
 7009SOL    HW232664   2.159   1.798  10.652  2.0944 -0.5308  0.6425
 7010SOL     OW32665   4.401   1.579  11.812  0.9976 -0.0485 -0.1636
 7010SOL    HW132666   4.307   1.597  11.812  0.9361 -0.3524 -1.0340
 7010SOL    HW232667   4.406   1.520  11.887 -1.5186 -1.3850 -1.0257
 7011SOL     OW32668   3.499   2.963  13.463 -0.1797  0.4830  0.1821
 7011SOL    HW132669   3.475   2.987  13.374  1.3282 -0.6625 -0.5424
 7011SOL    HW232670   3.579   2.912  13.448  1.1963  2.3449  1.1465
 7012SOL     OW32671   4.272   4.420   6.209  0.0874 -0.0252 -0.2902
 7012SOL    HW132672   4.249   4.511   6.226 -0.1634 -0.0853 -0.3126
 7012SOL    HW232673   4.205   4.409   6.143  0.1015  3.5086 -0.8715
 7013SOL     OW32674   4.446   4.114   5.290  0.5189 -0.3787 -1.3155
 7013SOL    HW132675   4.487   4.105   5.376 -0.5158 -0.3648 -0.8145
 7013SOL    HW232676   4.394   4.195   5.299  0.0962 -0.6189 -1.5859
 7014SOL     OW32677   4.561   2.042  15.891  0.0776  0.2555 -0.4687
 7014SOL    HW132678   4.626   2.083  15.948 -0.6376 -0.8682  1.1424
 7014SOL    HW232679   4.489   2.022  15.950  0.6120 -2.7811 -0.8765
 7015SOL     OW32680   2.645   2.793   0.006  0.4851  0.0700  0.2213
 7015SOL    HW132681   2.723   2.803  17.687 -1.8710  0.6705 -2.9858
 7015SOL    HW232682   2.678   2.739   0.078  4.1522  1.9314 -0.0477
 7016SOL     OW32683   3.752   2.778   8.804 -0.5405 -0.0178 -0.6564
 7016SOL    HW132684   3.667   2.810   8.834 -0.7721 -1.3967  0.1657
 7016SOL    HW232685   3.760   2.826   8.722 -0.0930  0.6262 -0.2315
 7017SOL     OW32686   1.396   2.147   5.468 -0.4149 -0.4443 -0.4021
 7017SOL    HW132687   1.449   2.145   5.547 -0.2490 -5.9520 -0.6401
 7017SOL    HW232688   1.385   2.241   5.458  0.1524 -0.3775 -0.3945
 7018SOL     OW32689   4.684   1.645   6.182  0.6298  0.7329  0.1215
 7018SOL    HW132690   4.731   1.574   6.138  0.3261 -0.0922  1.1320
 7018SOL    HW232691   4.610   1.599   6.222 -0.6268 -0.4242 -3.4967
 7019SOL     OW32692   1.676   3.430   5.199 -0.1506  0.0714 -0.1270
 7019SOL    HW132693   1.603   3.400   5.252  0.3616 -1.4912 -0.3083
 7019SOL    HW232694   1.635   3.508   5.160  0.4438 -1.3372 -3.5885
 7020SOL     OW32695   4.330   4.645   4.282 -0.7734 -0.1293  0.2455
 7020SOL    HW132696   4.262   4.580   4.265 -1.2488  0.6976 -1.1191
 7020SOL    HW232697   4.381   4.601   4.350 -1.3761  1.0490  1.4664
 7021SOL     OW32698   1.253   2.394   2.102  0.0933 -0.2473  0.0065
 7021SOL    HW132699   1.337   2.418   2.139 -0.5426  0.3775  1.0521
 7021SOL    HW232700   1.216   2.482   2.088 -0.3026 -0.2406  1.0859
 7022SOL     OW32701   2.404   1.425  14.146  0.6894 -0.3602 -0.3481
 7022SOL    HW132702   2.424   1.477  14.224  0.5398 -0.3831 -0.2963
 7022SOL    HW232703   2.488   1.429  14.100  0.6698 -0.5403 -0.3993
 7023SOL     OW32704   2.451   3.229   3.573  0.0145 -0.6495 -0.3409
 7023SOL    HW132705   2.411   3.146   3.600 -1.7643  0.8800  1.6841
 7023SOL    HW232706   2.426   3.235   3.480 -0.1604  2.2107 -0.1208
 7024SOL     OW32707   2.955   1.372   8.941 -0.2458 -0.5532  0.3881
 7024SOL    HW132708   3.031   1.384   8.883 -0.9482  2.0390 -0.0042
 7024SOL    HW232709   2.907   1.454   8.930 -0.7627 -1.0532 -1.0736
 7025SOL     OW32710   1.867   0.708  14.692 -0.1714 -0.0861  0.0932
 7025SOL    HW132711   1.829   0.641  14.749 -1.3200  1.0154  0.6108
 7025SOL    HW232712   1.793   0.768  14.694 -0.9006 -0.8784 -3.4258
 7026SOL     OW32713   0.799   1.268   1.862  0.2586  0.4431 -0.1435
 7026SOL    HW132714   0.830   1.289   1.774 -1.2380  1.4640 -0.4195
 7026SOL    HW232715   0.752   1.186   1.847  2.1252 -1.5543  4.8695
 7027SOL     OW32716   1.310   1.034   4.650 -0.5504 -0.4291 -0.2570
 7027SOL    HW132717   1.222   1.004   4.626 -0.7699  0.8141 -1.0242
 7027SOL    HW232718   1.315   1.105   4.586  0.9043 -0.9608 -0.7200
 7028SOL     OW32719   3.348   3.598  16.747  0.2949  0.1998  0.5536
 7028SOL    HW132720   3.399   3.676  16.728  0.8401 -1.1006 -3.2931
 7028SOL    HW232721   3.298   3.598  16.666 -0.9533  0.7497  1.3261
 7029SOL     OW32722   0.553   2.989  15.442 -0.6272  0.2874 -0.4523
 7029SOL    HW132723   0.561   3.005  15.348  0.6553  1.6649 -0.1062
 7029SOL    HW232724   0.639   3.013  15.475 -0.8435  0.3861  0.0478
 7030SOL     OW32725   3.042   2.100  13.983  0.4485 -0.1227  0.5106
 7030SOL    HW132726   3.095   2.156  14.040  1.4663 -0.9500  0.3889
 7030SOL    HW232727   3.092   2.118  13.902 -0.8427 -0.2302 -0.3031
 7031SOL     OW32728   1.777   0.739   4.793 -0.5230 -0.5431  0.5400
 7031SOL    HW132729   1.694   0.786   4.797 -1.1835 -1.6480 -0.0695
 7031SOL    HW232730   1.735   0.654   4.805  1.1007 -1.4986 -0.4396
 7032SOL     OW32731   0.746   0.677   5.067  0.6055 -0.4210 -0.0288
 7032SOL    HW132732   0.756   0.582   5.059 -1.2085 -0.7616  1.7120
 7032SOL    HW232733   0.670   0.688   5.010  2.5267  0.7787 -2.3635
 7033SOL     OW32734   4.304   1.022   4.491  0.1347  0.4585  0.5484
 7033SOL    HW132735   4.308   0.927   4.483 -0.5900  0.4601  0.2020
 7033SOL    HW232736   4.373   1.043   4.554  0.4164  0.8410  0.1157
 7034SOL     OW32737   0.611   3.134   2.785  0.3829  0.0684 -0.0438
 7034SOL    HW132738   0.607   3.214   2.732  0.6096 -1.6313 -2.6014
 7034SOL    HW232739   0.521   3.134   2.819  1.2424 -2.2440  2.2640
 7035SOL     OW32740   4.258   3.114  12.535 -0.4936  0.2172 -0.5522
 7035SOL    HW132741   4.225   3.107  12.445  0.4970  2.1702 -1.0619
 7035SOL    HW232742   4.192   3.168  12.579  0.0068  0.0415  0.4007
 7036SOL     OW32743   2.242   2.034   4.734 -0.2587  0.3100  0.8630
 7036SOL    HW132744   2.185   2.072   4.668 -1.0410 -2.4308 -0.0295
 7036SOL    HW232745   2.288   2.115   4.758 -3.3314  2.4056 -0.3133
 7037SOL     OW32746   1.471   4.361   8.664 -0.8506 -0.1267  0.0932
 7037SOL    HW132747   1.462   4.337   8.756 -0.2187 -0.5317  0.0465
 7037SOL    HW232748   1.565   4.344   8.657 -0.5365  1.5725  0.3012
 7038SOL     OW32749   4.561   1.343  17.450 -0.4577 -0.2832  0.2242
 7038SOL    HW132750   4.556   1.267  17.393  3.4357 -0.0253 -0.4704
 7038SOL    HW232751   4.589   1.296  17.529  1.9609  1.7788  0.6168
 7039SOL     OW32752   4.324   2.685   8.896  0.0824  0.0932 -0.2473
 7039SOL    HW132753   4.419   2.693   8.881  0.1668 -0.4558  0.0070
 7039SOL    HW232754   4.303   2.769   8.854  1.0127  1.1834  1.4788
 7040SOL     OW32755   1.511   4.466   9.879  0.0440 -0.4974 -0.3256
 7040SOL    HW132756   1.460   4.512   9.946 -0.2117 -1.1693 -0.0569
 7040SOL    HW232757   1.584   4.422   9.924 -1.8761 -1.3151  2.0000
 7041SOL     OW32758   4.709   1.828   8.180 -0.1128  0.1904 -0.2355
 7041SOL    HW132759   0.058   1.854   8.221 -0.9757  1.2594  0.8399
 7041SOL    HW232760   4.681   1.904   8.130  3.0261  1.7517  0.3747
 7042SOL     OW32761   1.296   1.304   7.415 -0.3737 -0.5842 -0.0870
 7042SOL    HW132762   1.209   1.313   7.377 -0.1147  1.9115 -0.1190
 7042SOL    HW232763   1.276   1.236   7.479 -0.0861  0.5871  1.2543
 7043SOL     OW32764   1.280   1.520  16.559  0.4281  0.2111 -0.0288
 7043SOL    HW132765   1.241   1.466  16.627  0.9471 -0.2858 -0.1264
 7043SOL    HW232766   1.371   1.536  16.585  1.0474  0.5027 -2.3304
 7044SOL     OW32767   1.913   0.698  11.755 -0.0751 -0.1155  0.1703
 7044SOL    HW132768   1.959   0.657  11.828 -0.6826 -1.3043 -0.1140
 7044SOL    HW232769   1.989   0.728  11.706 -0.0374 -0.5530 -0.0435
 7045SOL     OW32770   2.176   0.089   6.965 -0.3852  0.3129 -0.1493
 7045SOL    HW132771   2.106   0.071   6.903 -1.4894  2.3171  0.5182
 7045SOL    HW232772   2.230   0.147   6.911  0.0974 -0.2915 -0.3141
 7046SOL     OW32773   1.411   2.149   8.299 -0.0609  0.4660 -0.0881
 7046SOL    HW132774   1.388   2.181   8.212 -1.9818 -3.2911 -0.9579
 7046SOL    HW232775   1.422   2.056   8.279 -2.1362 -0.3580  2.5154
 7047SOL     OW32776   4.628   4.269  12.982  1.1564  0.1764 -0.6695
 7047SOL    HW132777   4.696   4.230  12.927  2.4324 -0.8826  1.6384
 7047SOL    HW232778   4.679   4.279  13.063 -1.2480  0.1154  0.8400
 7048SOL     OW32779   4.238   1.326   7.746  0.2218 -0.5636 -0.6285
 7048SOL    HW132780   4.192   1.325   7.662  0.9452 -1.2432 -1.0160
 7048SOL    HW232781   4.176   1.278   7.800 -0.2686  0.6446 -0.1077
 7049SOL     OW32782   4.084   3.967   3.785  0.3175 -0.0106 -0.3764
 7049SOL    HW132783   4.019   3.914   3.831  1.4182 -1.9207 -1.0286
 7049SOL    HW232784   4.028   4.003   3.717  0.2504 -0.3672 -0.5072
 7050SOL     OW32785   0.035   0.723   3.833  0.4133 -0.6784 -0.4569
 7050SOL    HW132786   0.019   0.628   3.837  0.7346 -0.7351 -0.5350
 7050SOL    HW232787   0.102   0.722   3.765  0.0885  2.0846 -0.8078
 7051SOL     OW32788   2.112   0.312   3.311  0.1206  0.6167  0.3745
 7051SOL    HW132789   2.148   0.262   3.237 -2.1802  2.9848 -2.3348
 7051SOL    HW232790   2.025   0.336   3.278  0.2189 -1.1896 -1.2084
 7052SOL     OW32791   3.171   0.213  15.513 -0.1065  0.4752 -0.0177
 7052SOL    HW132792   3.178   0.190  15.420 -1.3055 -0.0918  0.0314
 7052SOL    HW232793   3.171   0.308  15.517 -0.2472  0.5710 -2.1022
 7053SOL     OW32794   1.330   1.839   5.956 -0.1036 -0.0292  0.8818
 7053SOL    HW132795   1.356   1.767   6.014  0.1882  0.4185  1.3034
 7053SOL    HW232796   1.300   1.908   6.015  1.2275  1.2506  0.0846
 7054SOL     OW32797   4.385   2.736  16.144  0.8319  0.1007 -0.2286
 7054SOL    HW132798   4.363   2.746  16.237 -0.6190 -0.7486 -0.4949
 7054SOL    HW232799   4.333   2.660  16.121  2.0686 -0.8869  0.2222
 7055SOL     OW32800   3.556   1.747   1.818  0.0171 -0.1110  0.3547
 7055SOL    HW132801   3.622   1.815   1.830  1.0538 -1.3397  1.6240
 7055SOL    HW232802   3.595   1.670   1.859 -1.4293 -0.5785  0.8448
 7056SOL     OW32803   2.844   2.138   7.186  0.5888  0.5034 -0.2277
 7056SOL    HW132804   2.823   2.228   7.162 -0.2718  0.4910  0.4853
 7056SOL    HW232805   2.880   2.095   7.108  0.4496  0.3645 -0.2162
 7057SOL     OW32806   3.254   0.899   6.650  0.1465  0.6333 -0.0659
 7057SOL    HW132807   3.227   0.991   6.642 -1.2738  0.2357  0.1423
 7057SOL    HW232808   3.242   0.876   6.558 -1.4677 -0.4947  0.4190
 7058SOL     OW32809   4.645   3.253   4.792  0.1579 -0.0603 -0.3423
 7058SOL    HW132810   4.685   3.290   4.713 -0.2532  1.0752 -0.0319
 7058SOL    HW232811   4.692   3.298   4.862 -1.6725 -1.2358  1.6552
 7059SOL     OW32812   0.397   3.515   4.385  0.0690  0.0865 -0.2176
 7059SOL    HW132813   0.316   3.510   4.334 -0.3740 -1.6095  0.6500
 7059SOL    HW232814   0.378   3.452   4.454  0.2202 -1.6767 -1.7653
 7060SOL     OW32815   0.312   4.321   4.192  0.5295 -0.3958  0.6784
 7060SOL    HW132816   0.395   4.299   4.151  0.1224  0.5477 -0.6726
 7060SOL    HW232817   0.315   4.294   4.284 -0.0574 -1.9418  0.2510
 7061SOL     OW32818   2.391   1.509  14.775 -0.4806 -0.3584 -0.1357
 7061SOL    HW132819   2.359   1.539  14.859  3.5526 -2.4891  2.1681
 7061SOL    HW232820   2.331   1.556  14.717 -0.1979 -0.7634 -0.7718
 7062SOL     OW32821   2.193   3.566   3.943  0.1663 -0.1686 -0.0578
 7062SOL    HW132822   2.214   3.617   3.865 -0.3530 -1.3052 -0.9306
 7062SOL    HW232823   2.285   3.543   3.957  0.2186  1.6380  2.5820
 7063SOL     OW32824   3.124   3.761  10.580 -0.4981  0.0310  0.3749
 7063SOL    HW132825   3.101   3.828  10.644 -1.6710  1.8129 -1.8844
 7063SOL    HW232826   3.050   3.701  10.589 -0.6202  0.0288 -0.6110
 7064SOL     OW32827   2.089   2.877   6.498 -0.0510  0.0617  0.7254
 7064SOL    HW132828   1.997   2.860   6.478  0.5257 -0.6381 -1.3250
 7064SOL    HW232829   2.130   2.866   6.412 -0.2181  2.9462  0.2770
 7065SOL     OW32830   2.452   3.921   8.488 -0.5650 -0.1198  0.3189
 7065SOL    HW132831   2.398   3.996   8.515 -1.7746 -1.2148  0.9520
 7065SOL    HW232832   2.456   3.937   8.394 -0.5245  1.6411  0.6137
 7066SOL     OW32833   3.720   2.929   5.794 -0.0660  0.2768  0.0018
 7066SOL    HW132834   3.788   2.914   5.728  0.5116  1.4958  0.3285
 7066SOL    HW232835   3.689   3.014   5.763  1.5761  0.4544 -1.1572
 7067SOL     OW32836   1.597   2.786   3.460  0.8259 -0.2798 -0.5075
 7067SOL    HW132837   1.530   2.804   3.393 -2.1047 -1.3677  2.1343
 7067SOL    HW232838   1.560   2.704   3.493 -1.0377  1.3754  1.4738
 7068SOL     OW32839   0.385   4.726   7.257  0.1101 -0.4470 -0.5212
 7068SOL    HW132840   0.330   4.651   7.237  1.2499 -0.9914 -1.5605
 7068SOL    HW232841   0.344   0.006   7.343 -2.8557  1.3250 -2.2031
 7069SOL     OW32842   0.288   1.382  10.560 -0.0226  0.1559  0.4333
 7069SOL    HW132843   0.278   1.410  10.651  1.8607  0.8227  0.4414
 7069SOL    HW232844   0.378   1.403  10.534 -0.5004  0.7227 -0.7619
 7070SOL     OW32845   1.946   2.286   8.063 -0.1411  0.2341 -0.5323
 7070SOL    HW132846   1.878   2.321   8.120  0.7740 -0.4988  1.0081
 7070SOL    HW232847   1.931   2.342   7.987 -2.8359 -0.4098 -0.4858
 7071SOL     OW32848   1.681   0.339   1.826  0.1008 -0.2424  0.5735
 7071SOL    HW132849   1.609   0.331   1.888 -0.2474  0.6511  0.2888
 7071SOL    HW232850   1.718   0.251   1.826  0.7931  0.0480 -0.1703
 7072SOL     OW32851   4.152   4.654   3.959 -0.0233  0.0042 -0.1143
 7072SOL    HW132852   4.168   4.589   4.027  2.8505 -0.7438 -1.5137
 7072SOL    HW232853   4.103   4.606   3.892  1.2073  0.4337 -1.3339
 7073SOL     OW32854   0.128   3.784   2.193 -0.0362  0.6792  0.0750
 7073SOL    HW132855   0.221   3.768   2.211 -0.7905 -3.2566  0.4416
 7073SOL    HW232856   0.126   3.780   2.098  0.7380 -3.3960  0.2400
 7074SOL     OW32857   4.527   1.354   3.666  0.3069 -0.0592  0.0868
 7074SOL    HW132858   4.509   1.334   3.758 -0.5441 -2.6628 -0.6428
 7074SOL    HW232859   4.482   1.437   3.654 -0.3555 -0.7220 -2.0721
 7075SOL     OW32860   2.825   1.512   1.398  0.2242  0.0656 -0.5070
 7075SOL    HW132861   2.816   1.441   1.334 -1.8051  0.8628 -1.1058
 7075SOL    HW232862   2.732   1.534   1.407  0.1067 -0.9895  0.8489
 7076SOL     OW32863   0.078   0.818   6.096  0.0686 -0.5294  0.1206
 7076SOL    HW132864   0.047   0.780   6.013  0.4922 -1.6782  0.4878
 7076SOL    HW232865   0.170   0.825   6.071 -0.2505  0.6850 -0.7164
 7077SOL     OW32866   0.975   0.199   3.122  0.2338 -0.1726 -0.4652
 7077SOL    HW132867   0.936   0.283   3.145  0.2538 -0.4929  0.7198
 7077SOL    HW232868   0.920   0.160   3.054 -0.3399 -1.9449  1.0354
 7078SOL     OW32869   1.167   2.526  12.219 -0.7053 -0.3021  0.1717
 7078SOL    HW132870   1.235   2.584  12.185 -1.9048  2.1632  1.9445
 7078SOL    HW232871   1.215   2.466  12.276 -2.7579 -2.1700 -0.0613
 7079SOL     OW32872   1.639   0.152   3.188  0.4162 -0.0753 -0.6947
 7079SOL    HW132873   1.692   0.176   3.112  0.6039 -0.8413 -0.8107
 7079SOL    HW232874   1.623   0.237   3.229 -0.0037 -0.1849 -0.6395
 7080SOL     OW32875   0.953   3.605   5.743  0.3852 -0.8212  0.1045
 7080SOL    HW132876   0.871   3.611   5.793  0.3135 -0.1493 -0.0957
 7080SOL    HW232877   0.925   3.622   5.653 -1.1147 -2.6243  0.2097
 7081SOL     OW32878   1.096   3.529  13.221 -0.0789 -1.0084 -0.4634
 7081SOL    HW132879   1.077   3.490  13.306 -1.9772  0.8484 -0.0501
 7081SOL    HW232880   1.180   3.488  13.199  0.7330  0.3542  0.0834
 7082SOL     OW32881   1.904   0.463   1.417  0.2299 -0.3389  0.0607
 7082SOL    HW132882   1.924   0.371   1.430 -2.5587 -1.0035 -0.2834
 7082SOL    HW232883   1.929   0.475   1.325 -3.3793 -0.0655 -0.8829
 7083SOL     OW32884   4.071   3.167  16.334 -0.3098  0.3242  0.6035
 7083SOL    HW132885   4.015   3.140  16.262 -2.5180  0.2834  2.3347
 7083SOL    HW232886   4.042   3.106  16.403 -0.9702 -0.0818 -0.0337
 7084SOL     OW32887   2.338   2.075  10.780  0.1566 -0.5504 -0.0152
 7084SOL    HW132888   2.266   2.092  10.720 -0.6225 -1.5747  0.6297
 7084SOL    HW232889   2.395   2.024  10.722 -1.2347 -1.8971 -0.1926
 7085SOL     OW32890   2.064   0.770  13.969 -0.4499  0.7382 -0.1663
 7085SOL    HW132891   2.126   0.798  14.037  0.7452 -0.3816 -0.8057
 7085SOL    HW232892   2.061   0.843  13.907 -0.4604  0.2673 -0.7149
 7086SOL     OW32893   0.137   3.625  15.231 -0.1815 -0.0393  0.2943
 7086SOL    HW132894   0.170   3.699  15.181 -0.3983  0.9947  1.6654
 7086SOL    HW232895   0.125   3.641  15.325  1.0481 -0.2751  0.4900
 7087SOL     OW32896   2.904   0.094  15.447 -0.5249  0.2006 -0.5393
 7087SOL    HW132897   2.964   0.167  15.463 -1.6968  0.7203  1.5141
 7087SOL    HW232898   2.834   0.121  15.505  1.3604  0.3784  1.6635
 7088SOL     OW32899   0.711   2.939   5.926  1.1356 -1.0101  0.2221
 7088SOL    HW132900   0.798   2.934   5.885  1.6665 -1.6147  1.4016
 7088SOL    HW232901   0.710   2.859   5.978  0.3945  0.1631  1.9987
 7089SOL     OW32902   0.255   1.892   3.938 -0.0848 -0.4647 -0.6444
 7089SOL    HW132903   0.322   1.824   3.927 -0.0450 -0.9570  2.6802
 7089SOL    HW232904   0.308   1.965   3.970  1.7366 -1.2033 -1.9434
 7090SOL     OW32905   4.347   2.559   2.830 -0.1372  0.0566 -0.1540
 7090SOL    HW132906   4.287   2.620   2.873 -1.9102 -0.4988 -1.8634
 7090SOL    HW232907   4.426   2.588   2.876  0.0695  2.0299 -1.7200
 7091SOL     OW32908   3.215   3.756  11.706 -0.4741 -0.3619 -0.2706
 7091SOL    HW132909   3.300   3.711  11.700  0.3127  1.4708 -2.7472
 7091SOL    HW232910   3.223   3.821  11.636  1.4743 -1.3504 -0.9685
 7092SOL     OW32911   4.675   3.214   7.112  0.1810 -0.3823  0.1370
 7092SOL    HW132912   0.001   3.266   7.059  1.3884 -1.5468  0.3766
 7092SOL    HW232913   4.599   3.214   7.053  0.9117 -0.7922 -0.8093
 7093SOL     OW32914   2.777   1.449   2.292  0.0953 -0.0057 -0.1570
 7093SOL    HW132915   2.719   1.413   2.226  1.3298  0.0046 -1.2313
 7093SOL    HW232916   2.858   1.451   2.242  0.5877  0.0087  0.6412
 7094SOL     OW32917   0.570   1.485   8.489  0.0153  0.4184  0.3973
 7094SOL    HW132918   0.510   1.435   8.434  1.0358 -0.3168 -0.0637
 7094SOL    HW232919   0.654   1.439   8.482  1.2409  2.8887 -1.1158
 7095SOL     OW32920   0.114   3.996   2.576  0.2210  0.2590  0.0169
 7095SOL    HW132921   0.143   4.083   2.603 -1.3101  0.0277  2.3799
 7095SOL    HW232922   0.175   3.978   2.504  0.9718 -0.2245  0.7659
 7096SOL     OW32923   1.117   2.784   2.499  0.4966 -0.2991  0.1137
 7096SOL    HW132924   1.192   2.812   2.447  0.2081  1.1713  0.4916
 7096SOL    HW232925   1.133   2.690   2.492 -2.3787 -0.7053 -0.9392
 7097SOL     OW32926   3.670   1.636   6.754  0.2505  0.5540 -0.1357
 7097SOL    HW132927   3.622   1.717   6.738  0.7211  0.5420 -1.5559
 7097SOL    HW232928   3.710   1.652   6.840 -2.1156 -0.3618  1.1456
 7098SOL     OW32929   4.466   3.942   7.681 -0.1402  0.2630  0.2046
 7098SOL    HW132930   4.419   3.897   7.610 -0.9664 -0.1136  0.9878
 7098SOL    HW232931   4.542   3.982   7.638  0.5025 -0.0477  1.0468
 7099SOL     OW32932   1.652   2.308   1.742  0.2246 -0.5128  0.0305
 7099SOL    HW132933   1.660   2.244   1.672 -0.4504  0.1639 -0.6615
 7099SOL    HW232934   1.696   2.386   1.707  1.3040 -0.2000  2.0485
 7100SOL     OW32935   0.992   1.220   3.274  0.7419 -0.3251  0.4121
 7100SOL    HW132936   0.930   1.149   3.256 -1.3021  1.1914  1.5071
 7100SOL    HW232937   0.938   1.299   3.268 -1.4109 -1.6490  1.9776
 7101SOL     OW32938   0.562   3.301  17.011 -0.1019 -0.6914 -0.0534
 7101SOL    HW132939   0.589   3.220  16.969  0.9259 -0.0459 -0.6423
 7101SOL    HW232940   0.630   3.325  17.074 -0.7467  0.5371  0.1758
 7102SOL     OW32941   1.363   2.570  12.802  0.1641 -0.1804  0.0095
 7102SOL    HW132942   1.271   2.544  12.793 -0.2711  0.3146  2.9581
 7102SOL    HW232943   1.396   2.522  12.726  0.7667  2.3176 -1.2995
 7103SOL     OW32944   2.982   0.435   7.172  0.1211 -0.3007 -0.5307
 7103SOL    HW132945   2.902   0.416   7.221 -0.8323  0.7267 -1.6973
 7103SOL    HW232946   2.969   0.367   7.106 -0.6090 -0.1095 -0.5844
 7104SOL     OW32947   0.543   3.631   0.373  0.2121 -0.2175  0.4419
 7104SOL    HW132948   0.506   3.573   0.439 -1.5148  0.2597 -0.1162
 7104SOL    HW232949   0.501   3.717   0.382 -1.7802 -1.1387 -0.1568
 7105SOL     OW32950   1.585   1.536  12.138 -0.0627  0.1400  0.0420
 7105SOL    HW132951   1.602   1.603  12.072 -1.0222 -0.0947 -0.4425
 7105SOL    HW232952   1.532   1.585  12.201  0.8414  1.0179  0.1040
 7106SOL     OW32953   1.257   1.875   0.882 -0.3017 -0.2425 -0.0376
 7106SOL    HW132954   1.337   1.837   0.918 -1.0611 -2.4087 -0.6561
 7106SOL    HW232955   1.288   1.914   0.801  1.2353 -2.7087 -0.6365
 7107SOL     OW32956   3.617   3.319   7.472 -0.6361  0.3492 -0.0012
 7107SOL    HW132957   3.647   3.288   7.386  1.3762 -2.8935  1.9047
 7107SOL    HW232958   3.572   3.238   7.495 -0.1304 -0.7076 -2.6521
 7108SOL     OW32959   0.975   1.506   8.793 -0.9069 -0.0998  0.0934
 7108SOL    HW132960   0.948   1.596   8.776  2.7452  1.3893  2.1690
 7108SOL    HW232961   1.070   1.513   8.800 -0.8911 -0.0852 -0.1210
 7109SOL     OW32962   3.305   3.142   7.084 -0.2177 -0.6946  0.1268
 7109SOL    HW132963   3.329   3.112   6.996  0.3994 -1.3370  0.5197
 7109SOL    HW232964   3.291   3.056   7.124  0.9265 -0.5464  0.8321
 7110SOL     OW32965   2.217   1.849  14.977 -0.2974 -0.3445 -0.3595
 7110SOL    HW132966   2.175   1.911  15.037 -0.7025 -1.2140  0.2608
 7110SOL    HW232967   2.223   1.764  15.021 -1.4865 -1.7273 -2.8557
 7111SOL     OW32968   2.536   4.265  14.994  0.3435 -0.4692  0.4335
 7111SOL    HW132969   2.596   4.279  14.921  0.1457 -0.6219  0.2410
 7111SOL    HW232970   2.595   4.238  15.063  1.5744 -2.6191 -1.4803
 7112SOL     OW32971   4.443   1.078  12.914  0.2323 -0.1841  0.2114
 7112SOL    HW132972   4.450   1.132  12.835 -2.7250 -0.1561 -0.0165
 7112SOL    HW232973   4.525   1.102  12.956 -1.1620 -0.7620  3.2301
 7113SOL     OW32974   1.175   0.176  12.300 -0.3535 -0.0731  0.2530
 7113SOL    HW132975   1.261   0.201  12.267 -0.8894  0.6745 -0.5794
 7113SOL    HW232976   1.125   0.257  12.294 -1.8050 -0.9165  0.9276
 7114SOL     OW32977   4.481   2.320  12.786 -0.1042  0.1532 -0.7208
 7114SOL    HW132978   4.493   2.274  12.703  1.3693  0.7126 -0.8235
 7114SOL    HW232979   4.567   2.360  12.796  0.9938 -2.0933 -1.2256
 7115SOL     OW32980   1.330   3.238   5.639 -0.0137 -0.4503 -0.2153
 7115SOL    HW132981   1.291   3.302   5.699 -1.0055 -0.0767 -1.2529
 7115SOL    HW232982   1.420   3.250   5.669 -0.4317 -1.0611  1.3184
 7116SOL     OW32983   1.175   3.248   7.185  0.1510  0.1570 -0.1085
 7116SOL    HW132984   1.210   3.323   7.234 -0.4317 -0.3748  1.1430
 7116SOL    HW232985   1.185   3.166   7.234  1.4883  0.5850  0.3381
 7117SOL     OW32986   0.945   0.806   8.775  0.0542 -0.2121  0.4082
 7117SOL    HW132987   0.906   0.854   8.702  2.2200 -0.5419 -0.9804
 7117SOL    HW232988   0.879   0.828   8.840  0.5501 -1.2591  1.2561
 7118SOL     OW32989   4.337   1.799  14.005 -0.0980  0.2844 -0.0737
 7118SOL    HW132990   4.333   1.766  14.094  0.1258 -2.9988 -1.2941
 7118SOL    HW232991   4.297   1.884  14.023  1.3293  0.8956  0.2889
 7119SOL     OW32992   1.726   0.112   4.861 -0.3969 -0.0914 -0.1447
 7119SOL    HW132993   1.680   0.058   4.925  0.3870  1.3235  1.6141
 7119SOL    HW232994   1.717   0.056   4.784  0.5814 -1.9137  1.0638
 7120SOL     OW32995   0.562   4.327   7.397  0.1665  0.6251  0.0754
 7120SOL    HW132996   0.577   4.409   7.444  1.9118  0.4137 -0.0944
 7120SOL    HW232997   0.467   4.328   7.409  0.4732  1.6197  2.3315
 7121SOL     OW32998   4.731   2.295   6.886  0.3387  0.4325  0.2117
 7121SOL    HW132999   0.071   2.348   6.916 -0.2768  0.3845  1.8049
 7121SOL    HW233000   4.694   2.252   6.963 -0.4457  0.0704 -0.3644
 7122SOL     OW33001   2.864   3.831  16.354  0.0003  0.2251  0.0493
 7122SOL    HW133002   2.868   3.738  16.374 -1.1529  0.0098 -0.7689
 7122SOL    HW233003   2.957   3.838  16.332  0.7678  0.9894  3.5952
 7123SOL     OW33004   1.431   4.183   1.723  0.3367  0.1744 -0.3216
 7123SOL    HW133005   1.370   4.130   1.672  2.8865 -2.0436 -1.0766
 7123SOL    HW233006   1.433   4.132   1.804 -0.1463  0.2233 -0.2785
 7124SOL     OW33007   1.244   0.290   9.648  0.2739  0.3101 -0.4456
 7124SOL    HW133008   1.323   0.247   9.616 -0.7759 -2.8831  1.2042
 7124SOL    HW233009   1.281   0.349   9.713 -1.1847  0.1042  0.5738
 7125SOL     OW33010   3.973   4.151   0.089  0.5109  0.1345 -0.0954
 7125SOL    HW133011   3.985   4.165  17.731  1.0165  3.9808  0.5407
 7125SOL    HW233012   3.998   4.227   0.142  0.6260 -0.3155  0.5018
 7126SOL     OW33013   3.961   4.300   2.639  0.8807 -0.2122  0.9652
 7126SOL    HW133014   4.017   4.344   2.575 -0.9839  1.8688  0.7575
 7126SOL    HW233015   4.008   4.320   2.720 -0.3773  2.7789  0.9446
 7127SOL     OW33016   1.779   1.215   5.692  0.4576 -0.2617 -0.5363
 7127SOL    HW133017   1.845   1.149   5.710  1.8800  0.7453 -2.1144
 7127SOL    HW233018   1.833   1.294   5.695 -0.0297  0.0412  0.3325
 7128SOL     OW33019   0.209   4.362  11.842 -0.1704  0.1115 -0.0873
 7128SOL    HW133020   0.280   4.421  11.817 -1.3049  1.7476  0.5314
 7128SOL    HW233021   0.232   4.326  11.927  0.6032  1.1560  0.1332
 7129SOL     OW33022   1.188   1.917  10.325 -0.0436  0.2292  0.2191
 7129SOL    HW133023   1.159   1.851  10.388  0.9086 -0.8984 -0.5182
 7129SOL    HW233024   1.104   1.960  10.308 -0.2159 -0.4929 -0.7194
 7130SOL     OW33025   2.826   0.858   0.270  0.0429 -0.1373 -0.6030
 7130SOL    HW133026   2.739   0.884   0.239  0.6278  0.6582 -1.5780
 7130SOL    HW233027   2.811   0.774   0.313  1.4111 -1.3469 -2.4793
 7131SOL     OW33028   1.268   3.180   2.975  0.1961 -0.0554  0.3744
 7131SOL    HW133029   1.216   3.244   2.927 -1.0345  0.6222  2.5803
 7131SOL    HW233030   1.356   3.218   2.972 -0.2778  1.0026 -0.1544
 7132SOL     OW33031   4.626   0.707  17.424  0.6890  0.2393  0.5027
 7132SOL    HW133032   4.646   0.677  17.513 -1.0668 -1.1340  0.4462
 7132SOL    HW233033   4.693   0.656  17.378 -0.1821  0.6396 -1.1846
 7133SOL     OW33034   0.920   3.034   7.348 -0.2199 -0.6760 -0.0522
 7133SOL    HW133035   0.992   3.019   7.286 -0.9444 -2.4365 -0.4481
 7133SOL    HW233036   0.856   2.986   7.296  0.3321 -1.1515 -0.2972
 7134SOL     OW33037   2.964   0.393  17.639 -0.0576 -0.7633  0.6306
 7134SOL    HW133038   2.975   0.306  17.678 -0.0908 -0.3859  1.4742
 7134SOL    HW233039   2.972   0.451  17.714  0.0847  2.9283 -2.2483
 7135SOL     OW33040   1.073   1.119   0.173  0.3915  0.0836  0.0627
 7135SOL    HW133041   1.096   1.181   0.242  1.2862  1.3759 -1.4254
 7135SOL    HW233042   1.073   1.174   0.095 -1.1883 -1.8470 -1.2852
 7136SOL     OW33043   0.217   2.971   2.628  0.0662 -0.2325  0.4502
 7136SOL    HW133044   0.236   3.063   2.610  0.2449 -0.2288  0.6501
 7136SOL    HW233045   0.154   2.943   2.562  0.4149  2.6957 -1.1233
 7137SOL     OW33046   3.646   0.406   3.658  0.1243 -0.4315  0.2882
 7137SOL    HW133047   3.736   0.437   3.648 -0.3912  0.2613 -2.1767
 7137SOL    HW233048   3.634   0.375   3.568 -0.7550 -2.9155  1.2765
 7138SOL     OW33049   3.942   1.638   6.626  0.3103 -0.4096 -0.5343
 7138SOL    HW133050   3.859   1.643   6.673  0.7984  1.6262  0.1231
 7138SOL    HW233051   3.993   1.706   6.671  1.6621 -1.7053 -0.1011
 7139SOL     OW33052   2.033   4.074   1.785  0.5049  0.3443  0.2417
 7139SOL    HW133053   2.029   3.982   1.760 -3.2119  1.0550 -1.8158
 7139SOL    HW233054   2.106   4.105   1.731 -0.7354 -1.3022 -2.3590
 7140SOL     OW33055   0.252   0.618   2.347 -0.0536  0.0442  0.0269
 7140SOL    HW133056   0.158   0.603   2.354  0.1676 -1.7123 -0.7763
 7140SOL    HW233057   0.275   0.664   2.428 -1.3885  1.8528 -0.6120
 7141SOL     OW33058   3.254   0.317   3.472  0.1819  0.0303 -0.0646
 7141SOL    HW133059   3.235   0.273   3.389  0.4183 -0.0863 -0.0569
 7141SOL    HW233060   3.185   0.382   3.479 -0.5177 -0.4484 -2.4622
 7142SOL     OW33061   1.811   0.427   4.249 -0.6948  0.3857  0.6138
 7142SOL    HW133062   1.723   0.397   4.269 -0.3069 -0.6824  0.7393
 7142SOL    HW233063   1.832   0.481   4.325 -1.3398  0.4725  0.7295
 7143SOL     OW33064   2.784   1.805   6.840 -0.4515 -0.5536  0.0993
 7143SOL    HW133065   2.720   1.767   6.900 -0.5880 -1.4925 -0.6240
 7143SOL    HW233066   2.727   1.859   6.785  0.6740 -1.0133 -1.5388
 7144SOL     OW33067   2.648   1.017  16.822  0.4034  0.3367 -0.0697
 7144SOL    HW133068   2.557   1.036  16.842  0.2591 -1.6593  1.1256
 7144SOL    HW233069   2.652   0.922  16.835 -0.3090  0.3089 -0.0510
 7145SOL     OW33070   2.201   2.557   8.981 -0.2455 -0.3401 -0.2865
 7145SOL    HW133071   2.253   2.605   8.916 -0.3900 -0.6313 -0.6186
 7145SOL    HW233072   2.261   2.560   9.055 -0.0541 -2.0220 -0.3699
 7146SOL     OW33073   2.304   2.759   3.844 -0.7306  0.0217 -0.1220
 7146SOL    HW133074   2.215   2.723   3.852 -1.2048  1.1053 -0.5290
 7146SOL    HW233075   2.326   2.760   3.937 -0.0990  1.3073 -0.2833
 7147SOL     OW33076   4.010   1.065  17.684 -0.4146  0.7967 -0.6119
 7147SOL    HW133077   4.000   1.111   0.031 -0.1550 -0.9558  0.3809
 7147SOL    HW233078   4.085   1.119  17.660 -0.6478  1.3279 -0.1472
 7148SOL     OW33079   4.633   1.781  15.855 -0.5046  0.1742  0.3297
 7148SOL    HW133080   4.589   1.867  15.858 -1.4957 -0.2924 -1.0679
 7148SOL    HW233081   4.570   1.741  15.796  0.2998 -1.3527  0.5240
 7149SOL     OW33082   4.610   1.453  15.450 -0.3033  0.1282  0.3265
 7149SOL    HW133083   4.599   1.429  15.358  0.0483  1.7551 -0.1323
 7149SOL    HW233084   4.694   1.412  15.469  0.3473  0.5611 -1.6635
 7150SOL     OW33085   2.301   2.660   3.123  0.7409 -0.4848 -0.6711
 7150SOL    HW133086   2.207   2.647   3.110  0.5627  1.6494 -1.4727
 7150SOL    HW233087   2.329   2.596   3.058 -0.9824 -1.1283 -0.7832
 7151SOL     OW33088   3.810   1.126   5.634  0.3462  0.4763  0.0307
 7151SOL    HW133089   3.725   1.084   5.618 -0.1315  1.5651 -0.2670
 7151SOL    HW233090   3.865   1.060   5.592 -0.2260 -0.1477  0.2536
 7152SOL     OW33091   1.047   0.528   0.966 -0.0877 -0.6256  0.4869
 7152SOL    HW133092   1.113   0.561   1.026 -0.6429 -0.3048  0.9262
 7152SOL    HW233093   1.042   0.441   1.004 -0.4974 -0.5901  0.5171
 7153SOL     OW33094   3.671   1.299   1.582 -0.2923  0.1932  0.2100
 7153SOL    HW133095   3.703   1.246   1.509 -0.3528  1.9300 -1.1033
 7153SOL    HW233096   3.603   1.344   1.531 -1.7244 -0.7162  1.3220
 7154SOL     OW33097   2.442   2.459   3.619  0.1468  0.1807 -0.2459
 7154SOL    HW133098   2.504   2.480   3.689 -1.2666  4.8398 -0.3445
 7154SOL    HW233099   2.501   2.425   3.552  0.5626  0.5824 -0.0890
 7155SOL     OW33100   3.950   0.867   8.919  0.1294 -0.7905  0.5887
 7155SOL    HW133101   3.936   0.775   8.938 -1.5171 -0.4200  1.1331
 7155SOL    HW233102   3.889   0.873   8.845 -0.3111  4.1901  1.3675
 7156SOL     OW33103   4.177   1.756   4.991  0.6061 -0.3098  0.6677
 7156SOL    HW133104   4.149   1.820   5.057 -2.0422 -1.4754  0.6254
 7156SOL    HW233105   4.094   1.724   4.957  0.4619  0.5000  0.2492
 7157SOL     OW33106   1.229   2.740   8.846  0.1804  0.2449 -0.3736
 7157SOL    HW133107   1.279   2.817   8.871  1.7301 -1.1065  0.6529
 7157SOL    HW233108   1.247   2.739   8.752  1.4809  1.9950 -0.1511
 7158SOL     OW33109   2.343   4.404  13.694 -0.0519 -0.1199  0.2477
 7158SOL    HW133110   2.323   4.458  13.617  0.3588 -0.3170  0.0037
 7158SOL    HW233111   2.421   4.358  13.665 -0.0040 -0.7412  1.3726
 7159SOL     OW33112   3.043   4.437   5.468 -0.2295 -0.2092  0.3678
 7159SOL    HW133113   3.069   4.360   5.417 -1.6888  0.0132 -0.7065
 7159SOL    HW233114   3.074   4.413   5.556  0.2305 -0.7705  0.0509
 7160SOL     OW33115   0.629   0.947  14.016  0.1217  0.1044  0.1677
 7160SOL    HW133116   0.714   0.907  14.001 -0.1482 -0.3379 -0.1898
 7160SOL    HW233117   0.631   1.011  13.945  0.1734  1.8822  1.7561
 7161SOL     OW33118   0.049   4.661   5.124 -0.3574 -0.1907 -0.2336
 7161SOL    HW133119   0.082   4.592   5.067 -1.5806 -1.2842  0.3770
 7161SOL    HW233120   4.717   4.610   5.172  1.8333 -0.2858  2.7243
 7162SOL     OW33121   0.737   2.758   2.611  0.1177 -0.5718  0.2158
 7162SOL    HW133122   0.802   2.722   2.671 -0.3221 -3.3881 -1.0226
 7162SOL    HW233123   0.660   2.704   2.623 -0.9343  1.6601  3.5221
 7163SOL     OW33124   3.196   1.142   7.304 -0.1812 -0.2218  0.3980
 7163SOL    HW133125   3.198   1.080   7.231 -0.9908 -0.5910  0.6807
 7163SOL    HW233126   3.177   1.226   7.264 -0.1002  0.8707  2.6281
 7164SOL     OW33127   3.670   3.571   7.885  0.4153  0.3400 -0.6413
 7164SOL    HW133128   3.580   3.582   7.856  0.9632 -1.9816 -3.1820
 7164SOL    HW233129   3.672   3.478   7.907 -1.2417  0.3061 -0.6712
 7165SOL     OW33130   0.547   4.136  15.582 -0.8549  0.2779  0.3150
 7165SOL    HW133131   0.588   4.116  15.666  0.9010  1.3617 -0.2832
 7165SOL    HW233132   0.509   4.220  15.605 -0.3339  0.0443  2.0119
 7166SOL     OW33133   4.597   1.596   8.619  0.1576  0.0364 -0.7693
 7166SOL    HW133134   4.562   1.507   8.631  1.7239 -0.4553  0.0196
 7166SOL    HW233135   4.682   1.588   8.577  1.0754  0.7499  0.9899
 7167SOL     OW33136   1.800   1.299   7.867 -0.1022  0.5304  0.1101
 7167SOL    HW133137   1.771   1.379   7.824 -0.9954 -0.8337 -1.8500
 7167SOL    HW233138   1.856   1.257   7.802 -0.7893 -2.4246  1.4195
 7168SOL     OW33139   4.217   4.561  15.501 -0.0028  0.5274 -0.0588
 7168SOL    HW133140   4.151   4.550  15.432  2.3439 -1.6460 -2.0174
 7168SOL    HW233141   4.294   4.544  15.446  1.5221  1.2224  1.8507
 7169SOL     OW33142   1.328   2.719  12.124  0.0383 -0.5151 -0.2067
 7169SOL    HW133143   1.267   2.793  12.123  0.1459 -0.4290 -0.9837
 7169SOL    HW233144   1.392   2.745  12.189 -0.0748 -0.7575  0.0004
 7170SOL     OW33145   2.627   1.064  11.198  0.7091 -0.2225 -0.2362
 7170SOL    HW133146   2.532   1.066  11.214  0.2048  0.8608 -3.3380
 7170SOL    HW233147   2.641   0.992  11.259  1.0861 -0.9710 -1.2041
 7171SOL     OW33148   0.160   0.062  13.658  0.0792  0.0019  0.9236
 7171SOL    HW133149   0.121   0.024  13.580 -1.5970  0.1807  1.6615
 7171SOL    HW233150   0.078   0.086  13.702  0.7620  3.0312  0.5350
 7172SOL     OW33151   1.563   3.459   3.720  0.5314 -0.1951  0.1088
 7172SOL    HW133152   1.484   3.445   3.772  0.7289 -0.7548  0.2643
 7172SOL    HW233153   1.523   3.489   3.639 -0.9109  1.4735  1.4517
 7173SOL     OW33154   3.878   4.481   6.732 -0.5407 -0.6979  0.0140
 7173SOL    HW133155   3.890   4.519   6.819 -2.1529 -1.3492  0.5320
 7173SOL    HW233156   3.918   4.552   6.683  0.6675 -0.1640  1.7829
 7174SOL     OW33157   2.045   0.781   7.831 -0.6828  0.3446 -0.1973
 7174SOL    HW133158   1.959   0.805   7.796 -0.7540 -0.3622 -0.5100
 7174SOL    HW233159   2.092   0.811   7.753  1.5563  0.2421  1.0897
 7175SOL     OW33160   2.388   2.443  11.222 -0.5733  0.1514  0.1241
 7175SOL    HW133161   2.472   2.482  11.244 -1.2575  1.4955  0.3713
 7175SOL    HW233162   2.374   2.378  11.291 -1.7506  0.1534 -0.1135
 7176SOL     OW33163   2.859   0.442  10.202  0.0331 -0.1749  0.0388
 7176SOL    HW133164   2.915   0.477  10.271 -1.6475  0.6716  0.9641
 7176SOL    HW233165   2.881   0.348  10.196 -0.3704 -0.1233 -2.0115
 7177SOL     OW33166   2.840   0.680   2.936 -0.5279 -0.1227 -0.2361
 7177SOL    HW133167   2.765   0.738   2.923  1.3974  2.7502  1.4363
 7177SOL    HW233168   2.830   0.602   2.881 -1.0463  0.5620 -1.1166
 7178SOL     OW33169   1.961   1.821   8.012 -0.2662  0.4044 -0.0173
 7178SOL    HW133170   1.992   1.896   8.062  0.6703  1.0067 -1.5145
 7178SOL    HW233171   1.956   1.868   7.929  0.3297  1.0879  0.3399
 7179SOL     OW33172   4.245   1.934   4.060 -0.3072  0.1398  0.0746
 7179SOL    HW133173   4.247   1.838   4.069 -1.0326  0.2396  1.4174
 7179SOL    HW233174   4.297   1.947   3.982  0.3050  0.1009  0.4783
 7180SOL     OW33175   4.687   2.717   8.365 -0.1057  0.5546 -0.4071
 7180SOL    HW133176   4.709   2.706   8.457  2.9221  0.0246 -1.2038
 7180SOL    HW233177   0.029   2.676   8.324 -0.1657 -0.5152  0.5571
 7181SOL     OW33178   2.429   4.004   3.334  0.4048 -0.6805  0.3480
 7181SOL    HW133179   2.520   3.993   3.305 -0.0755 -0.1447 -1.3650
 7181SOL    HW233180   2.390   4.056   3.265 -1.1896 -1.0336  0.9854
 7182SOL     OW33181   4.409   2.028   7.148 -0.0066  0.0881 -0.1181
 7182SOL    HW133182   4.441   1.964   7.084  0.1473  1.4389 -1.3961
 7182SOL    HW233183   4.466   2.101   7.121  1.8978 -1.1545  0.5218
 7183SOL     OW33184   0.294   4.386  13.743  0.2515  0.5089 -0.1716
 7183SOL    HW133185   0.329   4.475  13.741  0.2441  0.5186  0.2234
 7183SOL    HW233186   0.362   4.346  13.797  1.1064  3.1558  0.7130
 7184SOL     OW33187   2.277   1.801   1.928  0.1674  0.8103  0.1966
 7184SOL    HW133188   2.285   1.760   1.841  2.6405  0.4292  0.5872
 7184SOL    HW233189   2.242   1.727   1.977  1.9685 -1.1226 -1.4046
 7185SOL     OW33190   1.177   2.300   3.308 -0.1019 -0.7466  0.4920
 7185SOL    HW133191   1.183   2.395   3.298 -1.2098 -0.7236  0.1170
 7185SOL    HW233192   1.148   2.285   3.398  1.7227 -0.8954  1.0715
 7186SOL     OW33193   2.800   3.964   8.305  0.0279 -0.7738 -0.4037
 7186SOL    HW133194   2.755   4.047   8.288 -0.8149 -1.5168 -1.8109
 7186SOL    HW233195   2.759   3.902   8.245 -2.6332  1.1334 -0.5907
 7187SOL     OW33196   2.722   0.530   9.199 -0.1998  0.2143  0.6042
 7187SOL    HW133197   2.714   0.434   9.198 -2.3990  0.3944  0.1329
 7187SOL    HW233198   2.719   0.556   9.107  1.2782  0.2646  0.5704
 7188SOL     OW33199   2.640   1.185   4.459  0.0661 -1.0303  0.0719
 7188SOL    HW133200   2.619   1.117   4.524 -2.0761 -1.5825 -1.1727
 7188SOL    HW233201   2.681   1.250   4.516  2.1467 -2.0359 -0.2878
 7189SOL     OW33202   1.665   4.714   6.349 -0.2352  0.1239  0.4357
 7189SOL    HW133203   1.616   4.676   6.276  0.7067  0.0771 -0.1794
 7189SOL    HW233204   1.731   4.647   6.367  0.3818  0.6466  0.0994
 7190SOL     OW33205   0.595   0.960  14.278  0.2268  0.1973  0.0157
 7190SOL    HW133206   0.651   0.883  14.291 -2.1629 -1.4050  0.8015
 7190SOL    HW233207   0.582   0.961  14.183  0.9234  0.2516 -0.0783
 7191SOL     OW33208   3.875   3.462   0.276  0.4958  0.0022 -0.3995
 7191SOL    HW133209   3.931   3.417   0.339 -1.0851 -3.1812 -1.3179
 7191SOL    HW233210   3.925   3.541   0.251  1.4099 -0.1527  0.9698
 7192SOL     OW33211   4.140   0.815  11.768 -0.4957  0.1882  0.1924
 7192SOL    HW133212   4.134   0.891  11.826 -2.1322 -1.2375  1.8795
 7192SOL    HW233213   4.100   0.744  11.817  0.9816 -1.2578 -0.7034
 7193SOL     OW33214   0.885   1.917  12.571  0.3384  0.5892  0.6149
 7193SOL    HW133215   0.813   1.980  12.581  0.7172  1.4211 -1.7318
 7193SOL    HW233216   0.868   1.853  12.640  0.5387  0.5243  0.6030
 7194SOL     OW33217   2.161   3.086   3.283  0.1015  0.0178 -0.2497
 7194SOL    HW133218   2.158   3.108   3.376  0.4520 -0.0592 -0.2219
 7194SOL    HW233219   2.199   2.998   3.294  0.0311  0.0895  0.5750
 7195SOL     OW33220   0.339   1.484   4.963  0.3363 -0.0977 -0.2485
 7195SOL    HW133221   0.348   1.550   5.031  2.3019  0.5616 -1.1230
 7195SOL    HW233222   0.431   1.456   4.963  0.9310  1.8722 -0.8197
 7196SOL     OW33223   1.814   1.180   8.433  0.5217  0.2332  0.0388
 7196SOL    HW133224   1.744   1.198   8.371  0.4168  1.0998  0.4015
 7196SOL    HW233225   1.841   1.101   8.387  1.2460  1.4773 -1.6953
 7197SOL     OW33226   0.969   2.125   1.495 -0.5786  0.0909 -0.0977
 7197SOL    HW133227   1.008   2.077   1.568 -2.2598 -0.6546  0.3227
 7197SOL    HW233228   0.877   2.107   1.513  0.1697 -2.9448  0.7112
 7198SOL     OW33229   0.295   2.151   1.155  0.1822  0.7241 -0.1898
 7198SOL    HW133230   0.244   2.231   1.149 -4.2583 -1.9392  1.6049
 7198SOL    HW233231   0.382   2.190   1.158  0.1859  0.7085 -0.0712
 7199SOL     OW33232   2.366   1.902  14.370  0.9078  0.3532  0.5237
 7199SOL    HW133233   2.426   1.879  14.441 -0.9404 -0.3618  1.8503
 7199SOL    HW233234   2.363   1.816  14.326 -1.0615  1.1576 -0.9288
 7200SOL     OW33235   0.388   2.781   5.133  0.0734  0.2418  0.0072
 7200SOL    HW133236   0.308   2.736   5.163  0.5080 -0.1556  0.5914
 7200SOL    HW233237   0.419   2.807   5.220  1.7752 -0.6112 -0.3474
 7201SOL     OW33238   0.535   0.276   8.169  0.8363 -0.3812  0.0940
 7201SOL    HW133239   0.556   0.270   8.263 -1.2284 -1.7110  0.4661
 7201SOL    HW233240   0.490   0.193   8.158  0.3109 -0.0367 -0.3198
 7202SOL     OW33241   1.053   3.232   9.126 -0.4352  0.1023  0.6229
 7202SOL    HW133242   1.063   3.191   9.212  2.3415  1.7113  1.0524
 7202SOL    HW233243   0.959   3.250   9.122 -0.3172  0.4841 -0.4240
 7203SOL     OW33244   2.829   0.981   2.230  0.5311  1.3098 -0.1217
 7203SOL    HW133245   2.742   1.011   2.204  0.2146 -0.6816 -1.3668
 7203SOL    HW233246   2.821   0.887   2.247 -0.2166  1.7268  1.7966
 7204SOL     OW33247   4.188   0.139  16.361 -0.7331 -0.4257 -0.6472
 7204SOL    HW133248   4.203   0.144  16.456 -0.7807  0.4913 -0.6913
 7204SOL    HW233249   4.248   0.208  16.335 -1.4101 -0.1761 -1.5577
 7205SOL     OW33250   4.657   4.018   1.809 -0.2641 -0.0052 -0.4996
 7205SOL    HW133251   4.700   4.103   1.796 -2.5010  1.2258  0.0857
 7205SOL    HW233252   4.612   4.017   1.893  0.4100 -0.3000 -0.1401
 7206SOL     OW33253   1.672   2.577   4.635  0.4360  0.2844  0.4542
 7206SOL    HW133254   1.691   2.484   4.652  0.3237 -0.1941 -2.0838
 7206SOL    HW233255   1.576   2.571   4.626  0.6132 -0.6651 -0.8874
 7207SOL     OW33256   1.587   2.515   7.189  0.0361  0.7436  0.0089
 7207SOL    HW133257   1.500   2.481   7.166  0.8997 -0.9743 -0.6950
 7207SOL    HW233258   1.577   2.527   7.284 -0.1849 -0.7878  0.1761
 7208SOL     OW33259   0.365   3.088   7.352 -0.0200 -0.8103 -0.3452
 7208SOL    HW133260   0.339   3.085   7.260  1.3993  0.7314 -0.7814
 7208SOL    HW233261   0.401   2.999   7.361 -0.7731 -1.0611  0.1266
 7209SOL     OW33262   3.638   2.532   4.211  0.0906 -0.1920 -0.1614
 7209SOL    HW133263   3.635   2.616   4.257 -1.4481 -0.6241  0.5369
 7209SOL    HW233264   3.732   2.517   4.220  0.2641  1.0204  0.0953
 7210SOL     OW33265   3.723   3.122   1.539  0.1889 -0.3128 -0.4539
 7210SOL    HW133266   3.769   3.156   1.615 -0.1086  2.2526 -1.4267
 7210SOL    HW233267   3.631   3.112   1.566  0.5172  0.0514  0.8075
 7211SOL     OW33268   4.468   2.319  11.104  0.2690  0.3618  0.3120
 7211SOL    HW133269   4.495   2.306  11.195 -0.3230 -1.0877  0.2745
 7211SOL    HW233270   4.445   2.411  11.108  1.9287  0.7949  0.1911
 7212SOL     OW33271   2.826   0.951   8.002 -0.0551 -0.5833  0.4285
 7212SOL    HW133272   2.754   0.896   8.033 -0.3450  0.5403  1.7205
 7212SOL    HW233273   2.790   0.994   7.925 -0.1082 -0.0484  0.7518
 7213SOL     OW33274   2.142   3.575   0.725 -0.7105  0.3565 -0.1590
 7213SOL    HW133275   2.134   3.601   0.817  0.9265  0.4954 -0.0474
 7213SOL    HW233276   2.238   3.571   0.722 -0.6416  1.0072  0.9163
 7214SOL     OW33277   3.303   0.699   6.850  1.0118  0.1120  0.1871
 7214SOL    HW133278   3.279   0.743   6.768  1.6273 -1.1775 -0.6860
 7214SOL    HW233279   3.219   0.672   6.886  1.4764 -0.5010  0.7936
 7215SOL     OW33280   4.450   3.889  15.368 -0.2282 -0.0848  0.0816
 7215SOL    HW133281   4.473   3.823  15.302  1.2875 -1.4293  1.9579
 7215SOL    HW233282   4.443   3.836  15.447  0.5559 -3.3697 -2.0643
 7216SOL     OW33283   1.376   3.512  16.451  0.1541 -0.2504  0.1806
 7216SOL    HW133284   1.281   3.512  16.448  0.0974  0.7361  2.1249
 7216SOL    HW233285   1.390   3.423  16.419  2.5428  0.4139 -0.6589
 7217SOL     OW33286   2.371   4.412   3.676 -0.2441 -0.5063  0.2635
 7217SOL    HW133287   2.367   4.487   3.736 -1.3892 -0.1039 -0.3125
 7217SOL    HW233288   2.420   4.348   3.727  1.3109  1.1456  0.8432
 7218SOL     OW33289   1.869   1.913  16.017 -0.1661 -0.4810  0.2598
 7218SOL    HW133290   1.837   1.853  15.950  0.7746 -1.1449  0.3923
 7218SOL    HW233291   1.904   1.984  15.964 -0.8794  0.3006  0.8353
 7219SOL     OW33292   1.985   1.558   7.413 -0.1393  0.1617 -0.0354
 7219SOL    HW133293   1.950   1.641   7.382  0.2436  0.0159 -0.8795
 7219SOL    HW233294   1.983   1.586   7.504 -1.0477 -0.8136  0.2424
 7220SOL     OW33295   3.557   3.475   9.795 -0.6990  0.1755 -0.0837
 7220SOL    HW133296   3.562   3.552   9.852 -2.6454 -0.0074  0.3395
 7220SOL    HW233297   3.639   3.481   9.745  0.9720 -1.9808  2.3910
 7221SOL     OW33298   0.157   1.581   8.553  0.0849 -0.6843 -0.2733
 7221SOL    HW133299   0.200   1.666   8.539  1.5123 -1.7553 -2.4049
 7221SOL    HW233300   0.159   1.567   8.648 -0.3982  1.2477  0.0317
 7222SOL     OW33301   3.004   2.300   3.403 -0.3830 -0.2840 -0.2394
 7222SOL    HW133302   3.046   2.243   3.468  0.4190 -0.9091 -1.2972
 7222SOL    HW233303   3.014   2.235   3.333  0.7556  1.3362 -1.5703
 7223SOL     OW33304   3.621   3.550   2.455 -0.0286  0.2071 -0.1062
 7223SOL    HW133305   3.577   3.517   2.533  0.1654 -0.2150 -0.1745
 7223SOL    HW233306   3.614   3.469   2.406 -0.9716  0.6773 -0.7351
 7224SOL     OW33307   3.918   2.542   4.608 -0.4339  0.1244  0.1764
 7224SOL    HW133308   3.991   2.599   4.584 -0.2870  0.0990  0.5670
 7224SOL    HW233309   3.945   2.463   4.560 -1.4949  0.6789 -1.3346
 7225SOL     OW33310   2.094   1.968  11.290  0.4016 -0.5512 -0.3679
 7225SOL    HW133311   2.008   1.968  11.333  0.3072  1.0535 -0.5474
 7225SOL    HW233312   2.082   2.035  11.223 -1.1814 -1.8882 -1.4283
 7226SOL     OW33313   4.413   1.588   3.595  0.4073  0.4142  0.0938
 7226SOL    HW133314   4.337   1.554   3.549  0.5186  0.2727  0.0151
 7226SOL    HW233315   4.383   1.669   3.636 -1.0744  1.3088 -2.7903
 7227SOL     OW33316   4.261   2.014   5.827 -0.0868  0.2947 -0.6979
 7227SOL    HW133317   4.344   1.998   5.782  0.9034  1.2724  0.7834
 7227SOL    HW233318   4.263   1.950   5.898  1.1341  0.7936 -0.2927
 7228SOL     OW33319   1.190   4.444  17.412 -0.2339  0.1794 -0.3143
 7228SOL    HW133320   1.178   4.459  17.506  0.9481 -0.1894 -0.1059
 7228SOL    HW233321   1.144   4.362  17.394  0.9037 -0.5166 -0.0637
 7229SOL     OW33322   1.456   1.430   6.397  0.0250 -0.0888 -0.5600
 7229SOL    HW133323   1.420   1.478   6.322  0.6780 -1.2380 -1.6034
 7229SOL    HW233324   1.478   1.346   6.358  2.7854 -0.3156  1.4513
 7230SOL     OW33325   0.022   1.479  15.713 -0.0910  0.2540 -0.3347
 7230SOL    HW133326   0.064   1.420  15.650 -0.5484  1.2842 -1.6052
 7230SOL    HW233327   0.004   1.555  15.657  1.0819 -0.5401 -1.7877
 7231SOL     OW33328   1.753   1.273   2.789  0.1439  0.1788 -0.5529
 7231SOL    HW133329   1.792   1.199   2.743 -1.3954  1.4469 -3.8967
 7231SOL    HW233330   1.778   1.259   2.881 -0.1920  0.9166 -0.3464
 7232SOL     OW33331   0.690   2.254   0.636  0.2878  0.1820 -0.0995
 7232SOL    HW133332   0.738   2.320   0.686  0.6499  0.4102 -0.7471
 7232SOL    HW233333   0.701   2.282   0.546 -1.8516  0.9721 -0.1168
 7233SOL     OW33334   4.464   1.375  14.719 -0.3301 -0.1586 -0.4605
 7233SOL    HW133335   4.453   1.461  14.678  0.3560 -1.1198 -2.6058
 7233SOL    HW233336   4.546   1.348  14.679  0.1843 -2.4662  2.1125
 7234SOL     OW33337   3.764   1.291   8.848 -0.2406 -0.5249 -0.3178
 7234SOL    HW133338   3.855   1.304   8.819  0.3959  0.5681  2.2369
 7234SOL    HW233339   3.775   1.279   8.942  1.5382  0.8309 -0.3379
 7235SOL     OW33340   3.680   2.299  14.864 -1.0111 -0.3019  0.2210
 7235SOL    HW133341   3.623   2.320  14.790  1.0442  1.4725 -0.8461
 7235SOL    HW233342   3.618   2.266  14.929  2.2928  2.6997  4.8710
 7236SOL     OW33343   3.310   2.254  15.298  0.5633 -0.4316  0.0679
 7236SOL    HW133344   3.279   2.209  15.220 -0.7928 -0.9856  0.9201
 7236SOL    HW233345   3.232   2.277  15.348 -0.1915  0.9034 -1.7375
 7237SOL     OW33346   3.153   0.707   8.576 -0.4964  0.1471 -0.0623
 7237SOL    HW133347   3.240   0.746   8.574 -0.5704  0.4178  2.1129
 7237SOL    HW233348   3.145   0.729   8.483 -3.8178  1.6975  0.5893
 7238SOL     OW33349   2.820   3.939  10.909  0.3918 -0.0823  0.4868
 7238SOL    HW133350   2.751   3.945  10.976 -1.1641  1.5521 -1.2784
 7238SOL    HW233351   2.761   3.900  10.845 -0.4375  0.4343  0.9367
 7239SOL     OW33352   1.471   4.160   4.792  0.0690 -0.7070 -0.6728
 7239SOL    HW133353   1.509   4.123   4.871 -0.0809  0.9747  0.1877
 7239SOL    HW233354   1.384   4.123   4.807 -0.0084 -1.1792 -2.2173
 7240SOL     OW33355   3.370   1.573   8.309 -0.0532 -0.0214  1.0379
 7240SOL    HW133356   3.290   1.547   8.353 -1.7362 -1.2502 -2.7818
 7240SOL    HW233357   3.420   1.491   8.308  0.1246  0.0842  1.9669
 7241SOL     OW33358   4.012   1.807   3.426 -0.3419 -0.3285  0.2423
 7241SOL    HW133359   4.015   1.730   3.482 -1.6914 -0.2213  0.4577
 7241SOL    HW233360   3.918   1.825   3.417 -0.0125  3.0226  3.3425
 7242SOL     OW33361   2.910   0.179  10.166  0.8291  0.1593 -0.2596
 7242SOL    HW133362   2.862   0.101  10.192 -1.2765  1.4604 -0.2427
 7242SOL    HW233363   2.971   0.140  10.103 -0.7530  0.5386 -2.0304
 7243SOL     OW33364   3.426   0.260   5.779 -0.1116 -0.0454 -0.0140
 7243SOL    HW133365   3.376   0.178   5.787  0.9430 -0.6424  0.4230
 7243SOL    HW233366   3.368   0.320   5.733 -0.6184 -0.4724  0.0565
 7244SOL     OW33367   2.522   1.655   6.312  0.1565 -0.2248  0.2177
 7244SOL    HW133368   2.428   1.642   6.304  0.3754 -1.3393 -0.5364
 7244SOL    HW233369   2.548   1.585   6.252  0.4054  1.8657 -2.0921
 7245SOL     OW33370   3.288   4.449   7.075  0.3445  0.0836  0.0844
 7245SOL    HW133371   3.356   4.418   7.133  0.8201  0.2257 -0.3979
 7245SOL    HW233372   3.277   4.532   7.121 -1.8775 -1.2506  1.9771
 7246SOL     OW33373   1.862   2.594   3.654 -0.0707  0.1325  0.4782
 7246SOL    HW133374   1.847   2.621   3.563 -1.4730  0.5102  0.8135
 7246SOL    HW233375   1.903   2.676   3.680  1.5906 -0.4845 -0.2012
 7247SOL     OW33376   2.673   0.156  10.569 -0.1082  0.3490 -0.4333
 7247SOL    HW133377   2.694   0.250  10.576 -2.8450  0.9128  0.0472
 7247SOL    HW233378   2.589   0.156  10.524  1.1107 -0.8031 -2.6764
 7248SOL     OW33379   1.591   3.392  11.950  0.0908 -0.5203 -0.8402
 7248SOL    HW133380   1.633   3.415  12.033 -1.6900 -0.0889 -0.0736
 7248SOL    HW233381   1.541   3.472  11.937  2.7071  1.0871 -1.1230
 7249SOL     OW33382   1.078   3.663  10.189 -0.0882 -1.0558  0.1958
 7249SOL    HW133383   1.158   3.660  10.241 -1.3750 -0.2301  2.2202
 7249SOL    HW233384   1.012   3.620  10.244 -0.7605 -0.0418  0.1759
 7250SOL     OW33385   0.169   4.081   3.735 -0.2717 -0.3674 -0.1083
 7250SOL    HW133386   0.089   4.102   3.782  1.4633  1.5750  1.9869
 7250SOL    HW233387   0.141   4.060   3.646 -0.7259 -0.9158  0.1665
 7251SOL     OW33388   0.631   0.225   8.437 -0.4547 -0.1916  0.6238
 7251SOL    HW133389   0.706   0.186   8.391 -1.6314 -0.1925 -1.2820
 7251SOL    HW233390   0.685   0.266   8.505 -0.0441  3.1294 -1.6897
 7252SOL     OW33391   2.959   2.202   6.770 -1.3681  0.1352 -0.1787
 7252SOL    HW133392   3.047   2.238   6.782 -2.0205  0.8580  2.2575
 7252SOL    HW233393   2.948   2.221   6.676 -2.3644  1.9273  0.3042
 7253SOL     OW33394   0.907   1.316   6.332  0.1643  0.1896  0.4524
 7253SOL    HW133395   0.848   1.332   6.406 -0.2096  1.7678 -0.1795
 7253SOL    HW233396   0.990   1.347   6.368 -0.8225  1.0623  1.9808
 7254SOL     OW33397   3.600   4.171   4.266 -0.0999  0.2615 -0.0453
 7254SOL    HW133398   3.617   4.264   4.277  1.0934  0.2131 -1.5822
 7254SOL    HW233399   3.509   4.178   4.236  0.0281 -1.8339 -0.9069
 7255SOL     OW33400   1.086   1.558   0.547 -0.1460  0.0618 -0.0303
 7255SOL    HW133401   1.047   1.570   0.461 -0.6723 -0.8718  0.0752
 7255SOL    HW233402   1.147   1.631   0.554  0.3457 -0.3087 -0.4315
 7256SOL     OW33403   3.219   3.393   2.638 -0.1911 -0.1127  0.1761
 7256SOL    HW133404   3.222   3.486   2.615 -2.8778  0.7913  3.3653
 7256SOL    HW233405   3.307   3.358   2.627 -0.8574 -1.5571 -0.5623
 7257SOL     OW33406   2.493   3.585  14.723  0.0824 -0.5566  0.5960
 7257SOL    HW133407   2.573   3.634  14.745 -0.5207 -0.4381  2.5486
 7257SOL    HW233408   2.512   3.505  14.675 -0.1817 -0.5329  0.4573
 7258SOL     OW33409   1.887   2.559   3.947  0.2648  0.0598  0.4750
 7258SOL    HW133410   1.871   2.575   3.854  0.1672  2.0145  0.8221
 7258SOL    HW233411   1.880   2.647   3.984  0.2830  0.3457 -0.2189
 7259SOL     OW33412   3.072   2.002  11.291  0.1146 -0.4382  0.0799
 7259SOL    HW133413   3.106   2.067  11.353 -1.0611  0.5340 -0.2943
 7259SOL    HW233414   3.011   2.051  11.235 -1.0196 -0.2763  1.4705
 7260SOL     OW33415   3.970   3.500   7.539  0.1833 -0.0196  0.1066
 7260SOL    HW133416   3.955   3.417   7.494 -1.7433  0.1814  0.3525
 7260SOL    HW233417   3.990   3.568   7.475  0.5621 -0.5809 -0.3701
 7261SOL     OW33418   1.231   0.929   6.459  0.1335 -0.2007  0.0891
 7261SOL    HW133419   1.197   0.939   6.548 -0.6140 -1.2868 -0.0796
 7261SOL    HW233420   1.193   1.010   6.426  1.8194  0.3227 -0.5752
 7262SOL     OW33421   3.359   3.652  12.844  0.1237 -0.4670  0.0393
 7262SOL    HW133422   3.352   3.566  12.885  0.9804 -0.5034  0.1051
 7262SOL    HW233423   3.319   3.711  12.907  1.2494  0.2830  0.0352
 7263SOL     OW33424   3.316   1.644   3.320  0.1200  0.1596 -0.1938
 7263SOL    HW133425   3.231   1.664   3.282 -0.6648  0.2029  1.5698
 7263SOL    HW233426   3.352   1.587   3.253 -0.1444  0.5141 -0.6390
 7264SOL     OW33427   0.277   0.436  16.549 -0.3778 -0.3793 -0.2618
 7264SOL    HW133428   0.277   0.526  16.515  0.2770 -1.0387 -1.9931
 7264SOL    HW233429   0.349   0.393  16.503 -0.1742 -0.6455  0.3115
 7265SOL     OW33430   1.214   2.592   0.764 -0.3339 -0.6550 -0.6380
 7265SOL    HW133431   1.141   2.653   0.775 -0.4632 -0.6184 -1.6839
 7265SOL    HW233432   1.203   2.549   0.679 -0.8211 -1.3539 -0.2266
 7266SOL     OW33433   0.199   1.841   3.630 -0.0022  0.5189 -0.1254
 7266SOL    HW133434   0.188   1.776   3.698  1.8849  0.3261 -0.0014
 7266SOL    HW233435   0.146   1.805   3.559  1.3038  0.9569 -1.3315
 7267SOL     OW33436   0.410   4.484   6.359  0.0904  0.2172  0.1633
 7267SOL    HW133437   0.398   4.421   6.430 -0.2316  0.6029  0.4535
 7267SOL    HW233438   0.333   4.540   6.366 -0.2794 -0.4170  1.2678
 7268SOL     OW33439   0.661   1.768   7.226 -0.1772 -0.4028  0.2511
 7268SOL    HW133440   0.583   1.821   7.213  0.4295  0.5407  0.4718
 7268SOL    HW233441   0.731   1.831   7.211  0.5240 -1.1346  0.4849
 7269SOL     OW33442   1.537   3.921  11.186 -0.0651 -0.4242  0.6433
 7269SOL    HW133443   1.580   3.968  11.258 -0.9740  3.0307 -1.1116
 7269SOL    HW233444   1.507   4.002  11.146 -1.8047 -1.1700  0.4493
 7270SOL     OW33445   1.523   0.461   0.123  0.3556  0.4192  0.4803
 7270SOL    HW133446   1.557   0.395   0.184  1.1148  0.4818  0.1170
 7270SOL    HW233447   1.597   0.459   0.063 -0.2204  0.9311 -0.2560
 7271SOL     OW33448   3.905   3.470   2.641 -0.1205 -0.1065  0.0568
 7271SOL    HW133449   3.827   3.510   2.601 -0.3114  0.2125  0.7338
 7271SOL    HW233450   3.978   3.531   2.634 -0.3887  0.1275 -0.7373
 7272SOL     OW33451   1.313   3.244   8.892  0.3629  0.8943 -0.6328
 7272SOL    HW133452   1.220   3.256   8.910  0.3895  1.5203 -0.9024
 7272SOL    HW233453   1.351   3.284   8.971 -2.2088  0.6600  0.7464
 7273SOL     OW33454   4.266   2.851   9.362 -0.7251 -0.2557  0.2540
 7273SOL    HW133455   4.302   2.936   9.387 -1.0642 -0.9581  3.1723
 7273SOL    HW233456   4.214   2.875   9.286 -1.4126  2.8262  1.7305
 7274SOL     OW33457   3.223   0.370  17.010 -0.0320  0.3600 -0.1068
 7274SOL    HW133458   3.133   0.401  17.027 -0.7513 -0.8136 -1.8255
 7274SOL    HW233459   3.209   0.275  17.008 -1.1362  0.4965  0.6206
 7275SOL     OW33460   3.398   4.598   0.134 -0.4633  0.1722 -0.0051
 7275SOL    HW133461   3.421   4.623   0.044  2.4540  1.0107  0.9688
 7275SOL    HW233462   3.339   4.671   0.153 -0.4862  0.4882 -1.2431
 7276SOL     OW33463   1.796   3.649   5.953 -0.4095 -0.2782  0.2071
 7276SOL    HW133464   1.742   3.611   6.022 -1.9598 -0.3759 -1.0454
 7276SOL    HW233465   1.742   3.726   5.935 -1.3021 -0.7208  0.9921
 7277SOL     OW33466   1.316   3.362   9.755 -0.3889  0.3244 -0.5889
 7277SOL    HW133467   1.393   3.304   9.763 -0.7790 -0.6138 -3.5820
 7277SOL    HW233468   1.367   3.442   9.743  1.8643 -1.1872 -1.1902
 7278SOL     OW33469   3.030   1.748   5.834  0.1277  0.1071  0.3452
 7278SOL    HW133470   3.048   1.715   5.922  1.2065 -0.6513 -0.1577
 7278SOL    HW233471   3.009   1.663   5.798  1.4155  0.6214 -1.6284
 7279SOL     OW33472   3.430   1.310   2.869  0.0281  0.0487  0.1161
 7279SOL    HW133473   3.371   1.385   2.877 -1.3893 -1.0192 -0.1747
 7279SOL    HW233474   3.515   1.352   2.859 -0.0254  0.5924  1.9288
 7280SOL     OW33475   0.149   1.592   4.242  0.0879 -0.1421 -0.0476
 7280SOL    HW133476   0.196   1.674   4.258 -2.4934  1.2918  0.2227
 7280SOL    HW233477   0.221   1.531   4.259  1.0660  0.3086 -2.6141
 7281SOL     OW33478   0.544   2.489   9.241  0.1594 -0.0147 -0.2999
 7281SOL    HW133479   0.609   2.558   9.251  1.5644 -1.5214  0.9187
 7281SOL    HW233480   0.532   2.444   9.325  2.7410 -1.5170 -0.7635
 7282SOL     OW33481   2.870   2.694   9.885 -0.1693 -0.0650  0.3476
 7282SOL    HW133482   2.926   2.641   9.828  1.0426  3.5387 -1.7466
 7282SOL    HW233483   2.909   2.778   9.862  1.1486 -1.2128 -1.6302
 7283SOL     OW33484   3.212   2.264   2.761  0.3208  0.4592  0.6178
 7283SOL    HW133485   3.139   2.316   2.794  0.3120  1.2757 -0.6896
 7283SOL    HW233486   3.177   2.215   2.687 -0.3844  1.7537  0.1041
 7284SOL     OW33487   1.132   4.616   2.907  0.1555  0.0933 -0.4259
 7284SOL    HW133488   1.225   4.611   2.929  0.5170  1.4769 -1.6414
 7284SOL    HW233489   1.117   4.710   2.897  1.0399  0.3776  1.0021
 7285SOL     OW33490   2.412   1.332  11.870 -0.0127 -0.1823  0.0292
 7285SOL    HW133491   2.476   1.390  11.828  1.2595  1.8189  4.6808
 7285SOL    HW233492   2.330   1.344  11.823  1.2152  0.7280 -1.8918
 7286SOL     OW33493   4.655   4.479   6.987  0.4542  0.4045 -0.7219
 7286SOL    HW133494   4.637   4.484   7.081  0.0730 -0.7789 -0.7380
 7286SOL    HW233495   4.607   4.404   6.953  1.2060 -0.5595  0.3543
 7287SOL     OW33496   1.023   2.635  11.654  0.1686  0.3559  0.4727
 7287SOL    HW133497   1.096   2.622  11.594  0.5543  1.5209  0.6687
 7287SOL    HW233498   1.068   2.624  11.738  0.4509  2.1656  0.5725
 7288SOL     OW33499   1.524   2.127   2.299 -0.1398  0.0874  0.0832
 7288SOL    HW133500   1.443   2.101   2.256 -0.9559 -1.9930  2.8927
 7288SOL    HW233501   1.586   2.121   2.226 -1.4166 -0.5339 -0.9485
 7289SOL     OW33502   2.471   2.594   5.369  0.3155  0.5679  0.2916
 7289SOL    HW133503   2.501   2.503   5.376 -0.3224  0.2344 -1.5069
 7289SOL    HW233504   2.420   2.597   5.288 -0.5494  0.6130  0.8373
 7290SOL     OW33505   0.779   3.791   3.195  0.5012  0.1726  0.2647
 7290SOL    HW133506   0.758   3.708   3.237  1.1594  0.1592  0.5744
 7290SOL    HW233507   0.734   3.855   3.250 -0.4744  1.3742 -1.9278
 7291SOL     OW33508   4.334   2.096  11.589 -0.4078 -0.0561  0.3558
 7291SOL    HW133509   4.363   2.027  11.530 -1.4335 -0.6565  0.5679
 7291SOL    HW233510   4.241   2.111  11.576 -0.2789  1.4898  1.1262
 7292SOL     OW33511   0.795   1.405   6.090  0.0544  0.3340  0.7676
 7292SOL    HW133512   0.827   1.388   6.178  1.3796 -0.1426  0.1990
 7292SOL    HW233513   0.700   1.404   6.096  0.1567  2.1179  2.6037
 7293SOL     OW33514   0.972   0.621   3.665 -0.5953  0.5884 -0.2452
 7293SOL    HW133515   0.967   0.574   3.748  0.5931  2.8327  1.0891
 7293SOL    HW233516   0.934   0.703   3.697 -2.2562 -0.8309  1.4068
 7294SOL     OW33517   2.708   0.035   5.959  0.1272 -0.7513  0.0421
 7294SOL    HW133518   2.784   4.711   5.958 -0.7324 -1.8491 -0.2859
 7294SOL    HW233519   2.641   4.710   5.992 -2.2425  2.6197  1.2985
 7295SOL     OW33520   1.191   2.365   8.916  0.5049 -0.1372  0.4129
 7295SOL    HW133521   1.201   2.271   8.928  1.3724  0.0908  1.4385
 7295SOL    HW233522   1.100   2.377   8.945  0.6569  1.6769  0.1379
 7296SOL     OW33523   1.410   0.022   7.682  0.6983  0.3392 -0.2305
 7296SOL    HW133524   1.430   0.116   7.677 -0.1237  0.5716  0.7166
 7296SOL    HW233525   1.434   0.005   7.774  2.3260  0.4970 -0.6198
 7297SOL     OW33526   2.177   4.308   4.075 -0.7883 -0.0309 -0.1913
 7297SOL    HW133527   2.128   4.302   3.993 -0.0055  0.4750 -0.6993
 7297SOL    HW233528   2.127   4.237   4.114  0.6546 -1.4431 -0.9386
 7298SOL     OW33529   3.122   0.556   3.929 -0.8529  0.3455 -0.5120
 7298SOL    HW133530   3.065   0.632   3.937  0.9399  1.8742 -2.1502
 7298SOL    HW233531   3.163   0.582   3.846  1.7789 -0.9496  0.3830
 7299SOL     OW33532   1.168   2.197   1.273 -0.1766 -0.4627  0.4799
 7299SOL    HW133533   1.133   2.208   1.361 -0.0263  0.6042  0.4121
 7299SOL    HW233534   1.093   2.227   1.220  1.4396  0.7803 -1.1275
 7300SOL     OW33535   0.015   3.777   7.143  0.1727  0.3171  0.3089
 7300SOL    HW133536   0.069   3.856   7.133  3.1676 -1.6103  1.3000
 7300SOL    HW233537   0.020   3.730   7.059  0.9573 -0.9940  1.0897
 7301SOL     OW33538   0.199   1.371  12.896  0.2796  0.5591 -0.0907
 7301SOL    HW133539   0.239   1.335  12.974 -0.9270 -0.6060 -0.0098
 7301SOL    HW233540   0.276   1.396  12.846  0.7699  2.1308  1.4676
 7302SOL     OW33541   0.703   4.458   7.710  0.8527  0.2136  0.4313
 7302SOL    HW133542   0.638   4.423   7.770  2.2787  0.0451  1.8648
 7302SOL    HW233543   0.788   4.415   7.725  0.5296  0.3035  2.5203
 7303SOL     OW33544   4.159   1.167   5.520 -0.1754  0.4643  0.2430
 7303SOL    HW133545   4.159   1.108   5.595 -0.0234 -0.1563 -0.2391
 7303SOL    HW233546   4.253   1.188   5.515 -0.2550  0.8080  0.1947
 7304SOL     OW33547   3.956   2.921   2.841 -0.0052 -0.2720 -0.1695
 7304SOL    HW133548   3.931   2.997   2.788 -1.0220 -2.2023 -2.4570
 7304SOL    HW233549   3.903   2.925   2.920 -3.9137 -0.4019 -2.8100
 7305SOL     OW33550   3.135   1.414   2.604  0.0089 -0.3976  0.2288
 7305SOL    HW133551   3.196   1.403   2.530  2.4947 -2.3704  2.5875
 7305SOL    HW233552   3.060   1.460   2.566  0.9577  3.1052  2.5749
 7306SOL     OW33553   2.849   3.180   7.020 -0.3295  0.4609 -0.0084
 7306SOL    HW133554   2.901   3.127   7.080 -0.5287 -1.2581 -1.3456
 7306SOL    HW233555   2.774   3.128   6.991 -1.2851  3.0417 -2.2773
 7307SOL     OW33556   3.707   2.558   8.046 -0.1693  0.0936 -0.6600
 7307SOL    HW133557   3.633   2.600   8.090 -0.2927 -0.8155  0.0083
 7307SOL    HW233558   3.756   2.536   8.125  1.5617  1.4609 -1.3369
 7308SOL     OW33559   3.706   2.789   4.320  0.1597 -0.1752  0.1819
 7308SOL    HW133560   3.798   2.810   4.301 -0.2730  1.1700 -0.3833
 7308SOL    HW233561   3.699   2.784   4.416 -0.5646 -0.0985  0.1256
 7309SOL     OW33562   0.989   0.776   7.356  0.9312  0.0268  0.4753
 7309SOL    HW133563   0.990   0.871   7.368 -0.5618  0.1779 -0.5783
 7309SOL    HW233564   0.907   0.762   7.404  1.1305  0.1362  0.8455
 7310SOL     OW33565   0.516   2.255  15.541 -0.1657 -0.3120  0.2611
 7310SOL    HW133566   0.494   2.178  15.593  0.7759  1.0987  2.7490
 7310SOL    HW233567   0.585   2.219  15.486  0.9505  0.7977  0.9298
 7311SOL     OW33568   2.825   0.110   9.769 -0.1893  0.0851 -0.4160
 7311SOL    HW133569   2.782   0.186   9.730 -1.0037  0.6715  1.6195
 7311SOL    HW233570   2.870   0.068   9.696  1.0120  0.2704  0.2265
 7312SOL     OW33571   3.193   2.061  11.851 -0.4482 -0.0125  0.8895
 7312SOL    HW133572   3.109   2.078  11.808 -0.0533  0.5375  0.3427
 7312SOL    HW233573   3.182   1.971  11.882  2.0277 -0.6815 -0.1929
 7313SOL     OW33574   0.538   1.827   6.084  0.1493  0.1775  0.4187
 7313SOL    HW133575   0.566   1.764   6.018  3.4386  0.2372  1.7860
 7313SOL    HW233576   0.606   1.799   6.146  0.1954 -0.5126  0.0580
 7314SOL     OW33577   2.394   0.493   4.964 -0.3279  0.1604  0.3444
 7314SOL    HW133578   2.423   0.583   4.952  0.4828  0.0395  1.4219
 7314SOL    HW233579   2.326   0.509   5.029  0.5751 -0.6207  1.4919
 7315SOL     OW33580   0.116   3.961   3.472  0.1176  0.0538 -0.0060
 7315SOL    HW133581   0.140   3.914   3.392 -0.9046 -0.6921  0.1298
 7315SOL    HW233582   0.072   3.895   3.525 -0.0335 -0.1786 -0.4218
 7316SOL     OW33583   2.848   1.805   3.260 -0.1685  0.1340  0.0834
 7316SOL    HW133584   2.834   1.711   3.252  3.2471 -0.5368  2.0633
 7316SOL    HW233585   2.785   1.823   3.330 -2.4013 -0.4699 -1.7483
 7317SOL     OW33586   1.878   4.012   6.013 -0.2942 -0.0753 -0.2820
 7317SOL    HW133587   1.794   4.001   5.968 -0.4404  1.5408 -0.4193
 7317SOL    HW233588   1.884   3.938   6.074  3.4427 -0.9855 -1.7375
 7318SOL     OW33589   3.659   0.559   9.120 -0.2395 -0.1679 -0.2834
 7318SOL    HW133590   3.629   0.581   9.208  2.3363 -0.2784  0.6402
 7318SOL    HW233591   3.646   0.464   9.124 -1.0638 -0.0440 -0.2110
 7319SOL     OW33592   2.462   3.697   0.339  0.2696  0.4801 -0.2809
 7319SOL    HW133593   2.417   3.624   0.381 -0.6591 -0.1556 -2.3652
 7319SOL    HW233594   2.385   3.751   0.320  0.8414  2.4906  3.1655
 7320SOL     OW33595   0.368   3.993  17.364  0.4404 -0.1773  0.1863
 7320SOL    HW133596   0.416   3.912  17.350 -2.0150 -1.3465 -1.5360
 7320SOL    HW233597   0.305   3.972  17.295  0.8620 -0.2154 -0.1897
 7321SOL     OW33598   3.125   1.112   2.153 -0.4394 -0.3621 -0.0247
 7321SOL    HW133599   3.084   1.195   2.129  0.6254 -0.1765 -1.2044
 7321SOL    HW233600   3.068   1.089   2.226 -0.7478 -2.8526 -1.0521
 7322SOL     OW33601   1.128   2.689   4.566  0.0785 -0.1206  0.0014
 7322SOL    HW133602   1.033   2.700   4.556  0.2383  1.5466  0.2582
 7322SOL    HW233603   1.170   2.675   4.481 -1.0983  0.5142 -0.6984
 7323SOL     OW33604   2.951   2.763   1.693  0.2819  0.2691 -0.6495
 7323SOL    HW133605   2.881   2.805   1.644  0.0702  0.9917  0.2779
 7323SOL    HW233606   2.977   2.688   1.640 -0.9121 -0.0439 -0.7841
 7324SOL     OW33607   3.896   2.195  12.406  0.5135 -0.1005 -0.3931
 7324SOL    HW133608   3.844   2.240  12.472  0.3712 -1.5813  0.5200
 7324SOL    HW233609   3.969   2.257  12.404  1.5039 -1.3299 -2.4348
 7325SOL     OW33610   0.947   0.832   6.003 -0.0477 -0.0074  0.4712
 7325SOL    HW133611   1.023   0.799   6.051 -0.6191 -1.9587  0.0319
 7325SOL    HW233612   0.875   0.774   6.028 -0.7379  0.4635 -0.4106
 7326SOL     OW33613   4.695   0.801   7.375 -0.6683 -0.1586  0.9642
 7326SOL    HW133614   0.025   0.799   7.304 -1.2654 -0.7170  0.4432
 7326SOL    HW233615   4.673   0.709   7.382 -1.4466  0.0037  0.6719
 7327SOL     OW33616   1.318   3.709   9.114 -0.2525 -1.2454 -0.3507
 7327SOL    HW133617   1.288   3.618   9.111 -0.5378 -1.1686  0.0278
 7327SOL    HW233618   1.364   3.700   9.198  1.5315 -0.2347 -1.2369
 7328SOL     OW33619   0.973   2.146   0.617 -0.4412 -0.0604  0.2422
 7328SOL    HW133620   0.881   2.138   0.594 -0.4526 -1.5428  0.8151
 7328SOL    HW233621   1.016   2.093   0.550 -0.3369 -0.9993  1.0550
 7329SOL     OW33622   2.806   3.668   6.136 -0.2738 -0.0378  0.2169
 7329SOL    HW133623   2.733   3.607   6.131 -1.6938  1.7859 -1.1227
 7329SOL    HW233624   2.854   3.625   6.207  0.2766  1.5760  0.8270
 7330SOL     OW33625   2.974   3.991  15.068  0.2871 -0.0136 -0.0041
 7330SOL    HW133626   2.944   4.082  15.063  1.6923  0.6726  4.3879
 7330SOL    HW233627   2.894   3.946  15.092 -0.6320  0.5843 -1.9274
 7331SOL     OW33628   2.007   1.066   2.453  0.3273 -0.4315 -0.3059
 7331SOL    HW133629   1.990   0.982   2.411  0.9799 -1.5051  1.5507
 7331SOL    HW233630   1.949   1.126   2.405  1.1824  1.1294  0.5916
 7332SOL     OW33631   1.361   1.212   4.424  0.4102 -0.0359 -0.2222
 7332SOL    HW133632   1.362   1.179   4.335  0.7834  1.6890 -0.8491
 7332SOL    HW233633   1.448   1.251   4.414 -0.1694  1.4516  0.4891
 7333SOL     OW33634   4.125   2.605   7.811  0.4510 -0.1638 -0.2767
 7333SOL    HW133635   4.123   2.513   7.786 -0.1131  0.0630 -1.0643
 7333SOL    HW233636   4.173   2.600   7.894  1.4432  1.4312 -0.7466
 7334SOL     OW33637   4.417   0.036  15.457 -0.2972  0.6037  0.2794
 7334SOL    HW133638   4.323   0.033  15.473 -0.0830  0.2049  1.4594
 7334SOL    HW233639   4.421   0.104  15.390  0.1484 -3.0271 -3.3895
 7335SOL     OW33640   0.863   4.369   4.456 -0.5401 -0.1343 -0.1059
 7335SOL    HW133641   0.958   4.374   4.444 -0.8531  0.0220 -2.6716
 7335SOL    HW233642   0.853   4.350   4.549 -1.0130 -0.3250 -0.1941
 7336SOL     OW33643   0.992   3.794  13.150 -0.4317  0.1411  0.2399
 7336SOL    HW133644   1.031   3.712  13.180 -2.2059 -1.6536 -2.2958
 7336SOL    HW233645   0.908   3.763  13.115  1.5539 -0.0217 -4.3463
 7337SOL     OW33646   2.305   2.190  12.582 -0.3287  0.3297 -0.4053
 7337SOL    HW133647   2.398   2.187  12.603 -0.4049 -1.5194 -0.3151
 7337SOL    HW233648   2.259   2.163  12.661  0.4541  1.0304  0.2800
 7338SOL     OW33649   1.978   1.597  16.281 -0.5641 -0.6107 -0.1375
 7338SOL    HW133650   1.973   1.524  16.219 -2.4705 -2.1437  1.8214
 7338SOL    HW233651   2.001   1.672  16.227 -1.0501  0.4306  1.1095
 7339SOL     OW33652   1.519   0.838   2.996  0.7107  0.6815  0.2625
 7339SOL    HW133653   1.593   0.840   3.057  1.7095 -1.4279 -0.8856
 7339SOL    HW233654   1.556   0.813   2.912 -0.6035 -1.5819  0.3573
 7340SOL     OW33655   2.913   0.287   6.164 -0.1694  0.7665 -0.1610
 7340SOL    HW133656   3.005   0.278   6.141 -0.2021 -1.2689  0.4856
 7340SOL    HW233657   2.876   0.247   6.086 -1.5394  1.3195  0.2033
 7341SOL     OW33658   1.335   1.085   2.604  0.0203 -0.4069  0.0697
 7341SOL    HW133659   1.257   1.058   2.653 -0.1448  0.7641  0.4442
 7341SOL    HW233660   1.388   1.119   2.676  0.0879  1.4668 -0.8623
 7342SOL     OW33661   1.306   1.917   4.876  0.3568  0.0376 -0.3351
 7342SOL    HW133662   1.289   1.899   4.968  2.0932  0.9684  0.1838
 7342SOL    HW233663   1.361   1.843   4.851  0.3205 -0.3869  0.8502
 7343SOL     OW33664   1.255   0.719   7.419 -0.5090  0.3557 -0.0520
 7343SOL    HW133665   1.261   0.625   7.403 -1.8051  0.1307  0.8349
 7343SOL    HW233666   1.160   0.732   7.420 -0.6490 -0.7702  1.1770
 7344SOL     OW33667   4.414   0.888   6.829  0.4280  0.1290  0.6239
 7344SOL    HW133668   4.383   0.831   6.758 -1.0830  0.1851  1.2460
 7344SOL    HW233669   4.348   0.855   6.889  0.1927  0.0660  0.3292
 7345SOL     OW33670   2.886   1.827   8.636  0.3661 -0.5091 -0.6049
 7345SOL    HW133671   2.919   1.905   8.682  0.1764 -0.3727 -0.7024
 7345SOL    HW233672   2.954   1.814   8.570  0.4473 -2.3722 -0.1550
 7346SOL     OW33673   4.594   3.839   6.549 -0.6636  0.5703  0.2672
 7346SOL    HW133674   4.683   3.844   6.513 -0.7309  4.1790  0.6486
 7346SOL    HW233675   4.590   3.933   6.562  1.0570  0.9196 -1.6940
 7347SOL     OW33676   2.886   3.901   1.072  0.4570  0.5108 -0.1818
 7347SOL    HW133677   2.829   3.917   1.146 -0.5973 -0.5368 -0.7500
 7347SOL    HW233678   2.948   3.973   1.076 -0.5026  1.3708 -0.9102
 7348SOL     OW33679   0.810   4.290  15.662 -0.3898  0.0396  0.0114
 7348SOL    HW133680   0.875   4.230  15.697  1.3038  1.2859 -0.9724
 7348SOL    HW233681   0.796   4.259  15.573 -0.8702  2.4921 -0.7785
 7349SOL     OW33682   2.177   2.630  14.750 -0.5579  0.2041 -0.4877
 7349SOL    HW133683   2.118   2.698  14.716 -1.2155 -0.9397 -1.6111
 7349SOL    HW233684   2.119   2.554  14.746 -0.8972  0.5814 -2.6984
 7350SOL     OW33685   2.617   3.669   8.509 -0.4410  0.7174 -0.2638
 7350SOL    HW133686   2.604   3.634   8.597 -0.1289  1.1899 -0.0299
 7350SOL    HW233687   2.572   3.753   8.517 -0.7517  0.3855  1.4107
 7351SOL     OW33688   4.618   1.841  14.314 -0.1094 -0.3014  0.6345
 7351SOL    HW133689   4.654   1.888  14.239 -0.3260 -0.8714  0.1765
 7351SOL    HW233690   4.526   1.867  14.314  0.3099  1.2298  0.8387
 7352SOL     OW33691   3.665   1.329   3.310  0.1426  0.2351  0.0497
 7352SOL    HW133692   3.696   1.416   3.284 -1.5203  1.9064  3.5879
 7352SOL    HW233693   3.592   1.356   3.365  0.4496  1.4697 -0.1462
 7353SOL     OW33694   2.498   0.359   5.396 -0.6189  0.9348  0.2640
 7353SOL    HW133695   2.405   0.374   5.378 -0.6167  2.6295  1.7088
 7353SOL    HW233696   2.526   0.332   5.308 -0.2989 -0.4781  0.8004
 7354SOL     OW33697   1.336   2.655   4.877  0.9156 -0.4712  0.3923
 7354SOL    HW133698   1.385   2.728   4.915  0.1335  0.1018  0.2990
 7354SOL    HW233699   1.300   2.626   4.960  1.3527  0.8264  1.0364
 7355SOL     OW33700   3.475   2.327   2.378  0.2527  0.0601 -0.1884
 7355SOL    HW133701   3.517   2.393   2.323  0.9912 -1.6673 -1.6962
 7355SOL    HW233702   3.467   2.379   2.458 -1.3459  0.0615 -0.3471
 7356SOL     OW33703   3.461   3.018   0.947  1.1159 -0.0433  0.1302
 7356SOL    HW133704   3.409   3.058   0.878 -0.7672 -0.2845  1.4109
 7356SOL    HW233705   3.452   3.072   1.026 -2.4472 -2.3205  1.2696
 7357SOL     OW33706   0.221   2.304   5.955  0.2262  0.3877  0.0884
 7357SOL    HW133707   0.179   2.223   5.985  0.4337 -0.0404 -0.7676
 7357SOL    HW233708   0.143   2.356   5.938  0.6010  0.3178 -1.8532
 7358SOL     OW33709   4.269   1.433   6.508  0.6617 -0.0991 -0.7940
 7358SOL    HW133710   4.208   1.383   6.453 -1.5471  0.2066  1.3896
 7358SOL    HW233711   4.219   1.429   6.589 -0.2611 -0.0112 -1.3578
 7359SOL     OW33712   1.021   0.930  12.626  0.6349 -0.0761  0.5012
 7359SOL    HW133713   1.029   0.857  12.565 -0.6133  0.7589 -0.6552
 7359SOL    HW233714   1.067   1.005  12.587 -2.2107  1.1513 -0.4658
 7360SOL     OW33715   4.651   3.450   9.491 -0.1827 -0.7890  0.8579
 7360SOL    HW133716   4.650   3.372   9.546 -0.1888 -0.8187  0.8159
 7360SOL    HW233717   4.646   3.516   9.560 -0.7352 -2.1060  2.0636
 7361SOL     OW33718   3.486   4.714   2.903 -0.8343  0.4002 -0.3746
 7361SOL    HW133719   3.420   4.693   2.970 -0.8545 -0.3667 -0.6296
 7361SOL    HW233720   3.478   4.647   2.835  0.0343 -2.2093  2.0749
 7362SOL     OW33721   3.885   1.104   5.892  0.1395  0.1589 -0.0917
 7362SOL    HW133722   3.896   1.011   5.875 -0.8451  0.0131  0.0339
 7362SOL    HW233723   3.884   1.126   5.799  0.3287 -1.1916 -0.4147
 7363SOL     OW33724   2.116   3.958   5.574 -0.3827 -0.1237  0.1916
 7363SOL    HW133725   2.112   4.049   5.546  1.3879 -1.1452 -3.3713
 7363SOL    HW233726   2.037   3.920   5.536  0.5172 -2.0760  0.2669
 7364SOL     OW33727   3.411   0.850   4.416 -0.2723  0.4459  0.2938
 7364SOL    HW133728   3.421   0.938   4.452 -0.5768  1.0620 -1.1384
 7364SOL    HW233729   3.359   0.805   4.482  0.5938 -1.1055 -0.0924
 7365SOL     OW33730   3.980   1.126   4.904 -0.1266  0.3614 -0.0948
 7365SOL    HW133731   3.983   1.051   4.844  0.0242 -0.5895  1.0966
 7365SOL    HW233732   4.059   1.165   4.867  0.1005 -2.1154 -2.2444
 7366SOL     OW33733   0.869   3.686   6.688 -0.0131 -0.3980  0.8613
 7366SOL    HW133734   0.937   3.730   6.739  1.3296  1.2850 -2.3822
 7366SOL    HW233735   0.912   3.601   6.682  0.8237 -0.0345  1.6675
 7367SOL     OW33736   0.504   1.220   7.401  0.4189  0.4295  0.6437
 7367SOL    HW133737   0.503   1.274   7.322  1.3674  0.0874  0.4039
 7367SOL    HW233738   0.517   1.141   7.349 -0.0019  2.1108 -1.9973
 7368SOL     OW33739   1.999   4.529  13.770 -0.6554  0.1263  0.2173
 7368SOL    HW133740   2.043   4.453  13.807 -1.3415  0.2237  1.2394
 7368SOL    HW233741   2.014   4.513  13.677  1.4707  0.9138  0.4160
 7369SOL     OW33742   1.343   4.320   8.046 -0.2098  0.6710 -0.0381
 7369SOL    HW133743   1.297   4.236   8.051  1.0279 -0.0193 -0.0733
 7369SOL    HW233744   1.408   4.316   8.116  1.7406 -1.5195 -1.9576
 7370SOL     OW33745   1.079   3.499  11.706 -0.0634 -0.4206  0.0749
 7370SOL    HW133746   1.109   3.466  11.790  2.8620 -0.0423 -0.7965
 7370SOL    HW233747   1.148   3.459  11.653 -0.8970 -2.8583  0.8724
 7371SOL     OW33748   0.026   0.202   8.160 -0.0021  0.2784  0.1410
 7371SOL    HW133749   4.724   0.234   8.243 -2.0721 -1.9184  0.0888
 7371SOL    HW233750   0.044   0.117   8.200  1.2612 -0.2053 -1.4635
 7372SOL     OW33751   0.677   0.147  14.845 -0.0316 -0.2198  0.0962
 7372SOL    HW133752   0.725   0.101  14.777  1.0917  0.5838  0.3400
 7372SOL    HW233753   0.714   0.117  14.928  1.6798  1.6571 -0.0083
 7373SOL     OW33754   4.012   1.188   7.913  0.4730 -0.1080 -0.8366
 7373SOL    HW133755   3.975   1.140   7.839 -2.6165  3.4825 -1.6214
 7373SOL    HW233756   4.063   1.119   7.956  2.4432  2.5323  1.0347
 7374SOL     OW33757   0.610   0.264   5.258 -0.3613 -0.6810 -0.2018
 7374SOL    HW133758   0.703   0.267   5.282 -0.4014  0.9131 -0.2446
 7374SOL    HW233759   0.568   0.343   5.293 -0.2266 -0.5447 -0.3450
 7375SOL     OW33760   0.164   4.720  15.437  0.6597 -0.2418  0.0067
 7375SOL    HW133761   0.233   4.665  15.400  0.6986 -0.8302  0.9639
 7375SOL    HW233762   0.184   4.705  15.529 -2.4828 -1.1569  0.5611
 7376SOL     OW33763   2.844   0.946   6.130 -0.0373 -0.2768 -0.1498
 7376SOL    HW133764   2.879   0.857   6.129 -0.1692 -0.3253 -0.5006
 7376SOL    HW233765   2.906   0.985   6.068 -0.7664 -0.3949 -0.9443
 7377SOL     OW33766   1.392   1.811   5.477  0.3677 -0.0807  0.2208
 7377SOL    HW133767   1.410   1.738   5.418  0.4827  0.3138 -0.2321
 7377SOL    HW233768   1.463   1.870   5.452  0.2588 -0.1546 -0.2490
 7378SOL     OW33769   1.965   1.342   8.577  0.0032 -0.0539  0.4217
 7378SOL    HW133770   1.910   1.355   8.655 -0.1381  2.0249 -0.0449
 7378SOL    HW233771   1.915   1.274   8.531  3.1958 -2.0715 -0.1444
 7379SOL     OW33772   0.720   0.035   0.271  0.1940  0.1256 -0.1051
 7379SOL    HW133773   0.806   0.040   0.230  0.4949  1.5249  0.7371
 7379SOL    HW233774   0.733   4.716   0.349 -0.3564 -1.2888 -0.9608
 7380SOL     OW33775   2.495   2.452   8.262 -0.3490 -0.0426 -0.8501
 7380SOL    HW133776   2.534   2.365   8.273 -0.2690  0.3659  2.0387
 7380SOL    HW233777   2.411   2.429   8.221 -1.3033  3.6874 -0.9837
 7381SOL     OW33778   3.368   0.100   9.525 -0.3412  0.0868  0.1133
 7381SOL    HW133779   3.298   0.155   9.560  1.1704  2.1992 -0.1973
 7381SOL    HW233780   3.354   0.024   9.582 -0.0757 -0.7879 -0.9960
 7382SOL     OW33781   2.710   3.717   5.807  0.3216  0.3825 -0.2846
 7382SOL    HW133782   2.633   3.692   5.755  0.7322  0.2800 -0.8418
 7382SOL    HW233783   2.689   3.655   5.877  1.1969  0.8332  0.3636
 7383SOL     OW33784   3.885   1.993  12.864  0.4494 -0.2524  0.5062
 7383SOL    HW133785   3.856   1.953  12.782  0.8054 -1.0698  0.7840
 7383SOL    HW233786   3.980   1.981  12.862  0.0503 -3.8864  4.0437
 7384SOL     OW33787   2.283   4.472   9.126  0.0752 -0.2881  0.7275
 7384SOL    HW133788   2.298   4.419   9.205  0.0750 -0.3389  0.6930
 7384SOL    HW233789   2.367   4.470   9.082 -0.8989  1.0348 -1.1893
 7385SOL     OW33790   2.776   3.044   3.545  0.2269 -0.7267  0.0142
 7385SOL    HW133791   2.701   2.994   3.514  1.5215 -0.9182 -2.8199
 7385SOL    HW233792   2.842   2.975   3.540  1.0828  0.0467  0.5565
 7386SOL     OW33793   3.430   0.597   3.495 -0.6605 -0.3099  0.2728
 7386SOL    HW133794   3.458   0.584   3.404  0.2384  2.8792  0.0932
 7386SOL    HW233795   3.507   0.571   3.546  0.5130 -1.2067 -1.9600
 7387SOL     OW33796   2.685   0.469   4.464  0.8813 -0.3931 -0.0819
 7387SOL    HW133797   2.752   0.434   4.522 -0.8633 -2.7869  0.4610
 7387SOL    HW233798   2.708   0.418   4.386  0.3303  0.8214 -1.0635
 7388SOL     OW33799   2.495   1.467   8.363  0.3532 -0.3798 -0.3527
 7388SOL    HW133800   2.511   1.492   8.454 -2.7124  1.6444 -0.3442
 7388SOL    HW233801   2.583   1.442   8.335  0.2989  1.8136 -2.5351
 7389SOL     OW33802   2.698   0.708   4.079 -0.4101  0.2707 -0.0367
 7389SOL    HW133803   2.703   0.761   4.159 -2.6196 -0.4524  0.5721
 7389SOL    HW233804   2.749   0.633   4.111  0.9181  0.9304 -0.5942
 7390SOL     OW33805   1.901   4.494   2.189  0.0002  0.7308  0.3406
 7390SOL    HW133806   1.989   4.519   2.216 -0.5097  2.2229  0.6085
 7390SOL    HW233807   1.853   4.554   2.245  0.4382 -0.7609  2.3125
 7391SOL     OW33808   1.428   3.779   6.487 -0.4627 -0.0058 -0.6789
 7391SOL    HW133809   1.500   3.837   6.512 -0.5600 -0.9790  1.9024
 7391SOL    HW233810   1.460   3.694   6.518  0.8845  0.9655  0.6082
 7392SOL     OW33811   1.265   0.240  17.095  0.0699 -0.2542 -0.0845
 7392SOL    HW133812   1.310   0.165  17.057 -2.9100 -1.1886 -1.7791
 7392SOL    HW233813   1.173   0.213  17.087  0.3884 -1.2774 -0.2263
 7393SOL     OW33814   4.014   1.846   7.032 -0.2541 -0.9971  0.1930
 7393SOL    HW133815   4.005   1.919   7.093 -0.3122 -0.1360 -0.8460
 7393SOL    HW233816   3.924   1.813   7.030 -0.0973 -1.2556 -1.9304
 7394SOL     OW33817   0.998   3.206   5.911  0.1215  0.3897 -0.4488
 7394SOL    HW133818   1.079   3.236   5.951  1.2638 -0.4616 -2.1341
 7394SOL    HW233819   0.985   3.154   5.990 -2.7795  1.1835 -0.3993
 7395SOL     OW33820   2.018   1.777   6.761 -0.4189 -0.2881  0.5005
 7395SOL    HW133821   2.088   1.817   6.814 -0.1518  0.2956 -0.2805
 7395SOL    HW233822   2.062   1.713   6.705  0.3367  1.5348 -1.0013
 7396SOL     OW33823   1.524   2.255  13.079 -0.0828 -0.0294  0.6107
 7396SOL    HW133824   1.469   2.187  13.119  0.0959 -1.8567 -2.2641
 7396SOL    HW233825   1.611   2.227  13.107 -0.5410 -2.6267 -0.5416
 7397SOL     OW33826   2.608   1.830   8.665  0.1025 -0.3759  0.4487
 7397SOL    HW133827   2.610   1.925   8.658  2.6396 -0.4962 -0.4556
 7397SOL    HW233828   2.696   1.812   8.631 -0.3382  2.7586 -2.2974
 7398SOL     OW33829   3.120   2.131   2.551  0.5248 -0.2100 -0.2799
 7398SOL    HW133830   3.096   2.067   2.484 -1.4904 -1.3984  1.5655
 7398SOL    HW233831   3.140   2.213   2.506 -3.1912  2.1420  2.3895
 7399SOL     OW33832   3.957   4.594   7.321  0.0452  0.1886  0.1991
 7399SOL    HW133833   3.929   4.585   7.230  0.6104  0.4377 -0.0033
 7399SOL    HW233834   3.884   4.639   7.365  1.3736  1.6335  0.9224
 7400SOL     OW33835   3.397   3.819   8.906 -0.3128  0.2368  0.6824
 7400SOL    HW133836   3.486   3.845   8.880  0.3302 -1.3281  1.3197
 7400SOL    HW233837   3.408   3.784   8.994  0.0274 -0.8008  0.2310
 7401SOL     OW33838   0.200   3.755   8.845 -0.2831  0.0198 -0.1012
 7401SOL    HW133839   0.293   3.749   8.868 -1.5927  1.1138  5.4995
 7401SOL    HW233840   0.148   3.762   8.926  0.1152 -0.6711  0.2151
 7402SOL     OW33841   3.575   1.632   3.941 -0.3891 -0.6361 -0.6936
 7402SOL    HW133842   3.548   1.602   3.854  1.0356  0.9091 -1.6599
 7402SOL    HW233843   3.556   1.726   3.947  0.3585 -0.4568 -1.1804
 7403SOL     OW33844   1.680   1.672   1.375 -0.4383 -0.5995 -0.4067
 7403SOL    HW133845   1.710   1.624   1.452 -0.7434 -2.1670 -1.2548
 7403SOL    HW233846   1.643   1.607   1.315  1.8739 -0.9665 -1.4398
 7404SOL     OW33847   0.385   3.910   3.363 -0.3368  0.3249 -0.0800
 7404SOL    HW133848   0.378   3.846   3.433  0.1585 -0.9816 -1.2308
 7404SOL    HW233849   0.347   3.864   3.288 -0.0268  1.1155 -0.7196
 7405SOL     OW33850   2.097   2.946   5.319 -0.2881  0.3204  0.3482
 7405SOL    HW133851   2.183   2.981   5.294 -0.2837  0.0732  0.0136
 7405SOL    HW233852   2.124   2.880   5.383  1.3473  0.4218 -0.2332
 7406SOL     OW33853   1.549   4.305   8.214  0.3140 -0.4125  0.0244
 7406SOL    HW133854   1.549   4.223   8.264 -0.2464 -1.7903 -2.2452
 7406SOL    HW233855   1.562   4.369   8.284  1.5173  2.6437 -2.9772
 7407SOL     OW33856   3.437   1.283   1.243 -0.4967  0.1064  0.2054
 7407SOL    HW133857   3.363   1.226   1.263 -1.0515  0.4761 -0.7683
 7407SOL    HW233858   3.443   1.344   1.316 -2.1833  1.4936 -0.8123
 7408SOL     OW33859   3.425   3.968   3.545 -0.2224 -0.2945  0.0447
 7408SOL    HW133860   3.342   3.922   3.555 -0.0868  0.3439  3.8402
 7408SOL    HW233861   3.445   4.006   3.631 -2.3128  0.8687  0.0020
 7409SOL     OW33862   0.820   0.764   4.310  0.0974 -0.0103 -0.0354
 7409SOL    HW133863   0.800   0.675   4.339  0.3467 -0.2473 -0.5850
 7409SOL    HW233864   0.886   0.740   4.244 -0.3642 -0.4937 -0.3294
 7410SOL     OW33865   4.390   2.152   8.509  0.2381  0.6528 -0.0104
 7410SOL    HW133866   4.345   2.207   8.574  0.0464 -1.8676  2.0129
 7410SOL    HW233867   4.324   2.085   8.490 -1.5976  2.4627  0.0189
 7411SOL     OW33868   4.543   3.441  14.977  0.0302 -0.1575 -0.2911
 7411SOL    HW133869   4.509   3.502  14.913 -2.2386 -1.0924  0.0189
 7411SOL    HW233870   4.547   3.368  14.915 -0.6354  0.7508 -1.3960
 7412SOL     OW33871   4.576   4.234   1.079  0.2800  0.0515  0.3933
 7412SOL    HW133872   4.660   4.194   1.056 -0.3428 -0.9456 -0.1345
 7412SOL    HW233873   4.553   4.247   0.987  0.4784  1.6484  0.5657
 7413SOL     OW33874   3.244   0.721   5.065 -0.2948 -0.2572  0.1264
 7413SOL    HW133875   3.304   0.677   5.005 -1.5798 -2.3634  0.3728
 7413SOL    HW233876   3.163   0.747   5.022  0.5912  0.2756 -1.1935
 7414SOL     OW33877   2.940   1.609   5.260 -0.5236  1.0917  0.3188
 7414SOL    HW133878   2.980   1.695   5.250 -0.0661  1.0780  2.0139
 7414SOL    HW233879   3.019   1.556   5.254 -0.0150  1.7143  1.6148
 7415SOL     OW33880   1.441   3.502   6.330  0.5021 -0.0787 -0.0926
 7415SOL    HW133881   1.361   3.554   6.339  1.7127  1.6893  0.3993
 7415SOL    HW233882   1.408   3.414   6.349 -1.0812  0.0623 -2.1533
 7416SOL     OW33883   0.895   3.645   8.293  0.3117  0.1299  0.5042
 7416SOL    HW133884   0.829   3.606   8.350  0.9281  0.4691  1.4555
 7416SOL    HW233885   0.966   3.581   8.303  0.8317  0.7424  0.8011
 7417SOL     OW33886   0.559   1.981   3.695  0.1083 -0.5347  0.2236
 7417SOL    HW133887   0.639   2.033   3.703 -0.7476  1.0611 -1.6135
 7417SOL    HW233888   0.497   2.040   3.652 -0.8435 -1.8918 -0.2520
 7418SOL     OW33889   3.063   4.114   9.781  0.5859 -0.2372  0.0287
 7418SOL    HW133890   3.054   4.123   9.876 -2.9344 -1.5433 -0.1818
 7418SOL    HW233891   3.036   4.196   9.740  0.0499 -1.1895 -1.5223
 7419SOL     OW33892   2.291   4.282  11.763 -0.3303 -0.1307  0.1838
 7419SOL    HW133893   2.364   4.253  11.817 -0.0752  0.9003  0.4028
 7419SOL    HW233894   2.267   4.351  11.825  0.2750  0.7614 -0.5757
 7420SOL     OW33895   1.447   0.585  11.260 -0.1176 -0.2511 -0.3026
 7420SOL    HW133896   1.377   0.521  11.246 -0.7758  0.4733 -0.2859
 7420SOL    HW233897   1.441   0.651  11.192 -0.7327  0.8728  0.8375
 7421SOL     OW33898   2.028   2.785  14.572 -0.0635  0.1132 -0.2071
 7421SOL    HW133899   1.936   2.791  14.597  0.0948  1.0188  0.1415
 7421SOL    HW233900   2.051   2.877  14.578  0.3414 -0.0982  1.4166
 7422SOL     OW33901   4.441   4.181   5.911 -0.5267 -0.4779 -0.4176
 7422SOL    HW133902   4.404   4.164   5.824 -1.1608 -1.7483  0.1105
 7422SOL    HW233903   4.389   4.116   5.958 -0.2072 -0.7781 -0.4827
 7423SOL     OW33904   1.566   2.137   3.543  0.0413  0.1102  0.5564
 7423SOL    HW133905   1.564   2.228   3.574 -1.7743  0.0066  0.7784
 7423SOL    HW233906   1.525   2.094   3.618  0.1509  0.8572  1.0503
 7424SOL     OW33907   1.350   1.254   8.647 -0.3303 -0.4522  0.0932
 7424SOL    HW133908   1.333   1.160   8.640 -1.7953 -0.1258 -0.7185
 7424SOL    HW233909   1.376   1.262   8.739 -3.1365  0.5872  0.8064
 7425SOL     OW33910   0.391   1.454   4.320 -0.7452 -0.5094  0.1845
 7425SOL    HW133911   0.356   1.461   4.409 -0.1322  1.2153  0.2902
 7425SOL    HW233912   0.469   1.403   4.341 -0.1522 -1.0693 -3.3791
 7426SOL     OW33913   0.490   2.993  17.109 -0.2008 -0.0999  0.2769
 7426SOL    HW133914   0.527   2.982  17.021  0.4604 -0.5100  0.6049
 7426SOL    HW233915   0.510   2.909  17.149 -3.3568  0.3534  2.7796
 7427SOL     OW33916   4.629   0.571   8.796  0.4883  0.9266 -0.6714
 7427SOL    HW133917   4.607   0.584   8.703 -0.1589 -1.7699 -0.9097
 7427SOL    HW233918   4.562   0.509   8.825  1.3606  0.9929  1.4161
 7428SOL     OW33919   1.074   2.518  10.558  0.0009 -0.1868 -0.1930
 7428SOL    HW133920   1.008   2.582  10.532 -0.8159 -1.2961 -0.8966
 7428SOL    HW233921   1.079   2.540  10.651 -0.0276  1.9203 -0.7053
 7429SOL     OW33922   3.165   0.073  11.041 -0.0451 -0.0659 -0.4831
 7429SOL    HW133923   3.153   0.153  10.989  1.5370  0.9469  0.6733
 7429SOL    HW233924   3.162   0.109  11.130  0.2720 -2.4983  0.5130
 7430SOL     OW33925   2.580   3.575   4.609 -0.7247  0.0040  0.0743
 7430SOL    HW133926   2.510   3.623   4.652 -0.9164 -0.4602  0.2845
 7430SOL    HW233927   2.616   3.530   4.686 -2.0963 -0.3923  0.4742
 7431SOL     OW33928   3.449   0.857  15.807 -0.3529  0.4584 -0.3245
 7431SOL    HW133929   3.491   0.843  15.722 -0.3502 -0.9756 -0.0795
 7431SOL    HW233930   3.424   0.949  15.794 -0.9250  0.1571 -1.3243
 7432SOL     OW33931   3.096   1.838  11.989 -0.5086  0.2291  0.5523
 7432SOL    HW133932   3.099   1.771  12.057  1.0207 -1.0521 -0.7741
 7432SOL    HW233933   3.002   1.853  11.993 -0.1669  2.4320  0.0042
 7433SOL     OW33934   3.263   2.259  10.494  0.2523  0.4655 -0.2126
 7433SOL    HW133935   3.180   2.270  10.448 -1.2496 -0.9675  2.1017
 7433SOL    HW233936   3.235   2.182  10.544  1.4840  0.7686  0.9516
 7434SOL     OW33937   2.762   2.968   7.892  0.3847 -0.0516  0.2501
 7434SOL    HW133938   2.710   2.909   7.838  0.3399 -0.4056  0.6808
 7434SOL    HW233939   2.697   3.004   7.953  0.8672  2.0728 -0.4961
 7435SOL     OW33940   3.574   0.809   9.903  0.9720  0.7336  0.3459
 7435SOL    HW133941   3.589   0.900   9.875  0.8030  0.1552 -1.6231
 7435SOL    HW233942   3.493   0.822   9.952  0.5649  0.2487 -0.1976
 7436SOL     OW33943   1.575   4.234   4.125  0.2661 -0.0172 -0.6352
 7436SOL    HW133944   1.632   4.310   4.135 -0.9368  0.5719  1.7056
 7436SOL    HW233945   1.492   4.279   4.106 -0.5327 -0.0613  2.7690
 7437SOL     OW33946   2.017   3.964   6.635  0.7036 -0.2584 -0.1663
 7437SOL    HW133947   2.044   3.897   6.698 -2.8027 -0.3130  1.2674
 7437SOL    HW233948   2.012   3.913   6.555  2.6032 -0.7048 -0.0010
 7438SOL     OW33949   0.279   2.946   8.995 -0.6301  0.0521 -0.7815
 7438SOL    HW133950   0.312   2.869   8.948  1.7459  1.6316 -1.7149
 7438SOL    HW233951   0.356   3.003   9.002 -0.7445  0.1460 -0.3176
 7439SOL     OW33952   1.117   4.467   5.937 -0.1233  0.4938  0.1845
 7439SOL    HW133953   1.132   4.400   6.004 -1.9720  0.5916  0.6770
 7439SOL    HW233954   1.069   4.422   5.868 -0.3674  2.0413 -0.6493
 7440SOL     OW33955   2.300   2.516  16.138  1.0255  0.0778 -0.5155
 7440SOL    HW133956   2.324   2.468  16.058 -1.5765 -2.7514  0.4203
 7440SOL    HW233957   2.237   2.460  16.183  1.1943  0.3959  0.1186
 7441SOL     OW33958   0.168   4.516   9.880 -0.4077  0.0386  0.1743
 7441SOL    HW133959   0.110   4.561   9.819 -1.0904 -1.0243  0.0310
 7441SOL    HW233960   0.133   4.428   9.864  1.3658 -0.7583  0.6411
 7442SOL     OW33961   0.636   0.842   4.604  0.5560  0.1115  0.1038
 7442SOL    HW133962   0.571   0.782   4.568  0.8840  0.0939 -0.4574
 7442SOL    HW233963   0.709   0.780   4.604  1.1503  0.8148 -0.1816
 7443SOL     OW33964   1.042   4.407   5.305  0.2675  0.4842  0.3935
 7443SOL    HW133965   1.036   4.445   5.217 -1.7101  1.2822  0.8698
 7443SOL    HW233966   0.963   4.353   5.303  1.1184 -0.6679 -2.9350
 7444SOL     OW33967   2.446   1.273   9.222  0.3595  0.6274  0.8805
 7444SOL    HW133968   2.519   1.224   9.262  2.0403  2.3984 -0.0074
 7444SOL    HW233969   2.393   1.270   9.302  1.8870 -2.0225  1.7843
 7445SOL     OW33970   3.893   4.036   3.571 -0.3356 -0.6153 -0.0734
 7445SOL    HW133971   3.847   3.954   3.586  0.9023 -1.4534 -0.8104
 7445SOL    HW233972   3.843   4.053   3.491  0.7530 -1.5675 -0.9548
 7446SOL     OW33973   1.610   4.319   4.991  0.5340  0.2412  0.2627
 7446SOL    HW133974   1.598   4.233   4.952  0.0669 -0.2220  1.4251
 7446SOL    HW233975   1.673   4.305   5.062  0.3062 -2.4998 -0.1017
 7447SOL     OW33976   0.382   3.701   2.228  0.9137  0.0448 -0.2608
 7447SOL    HW133977   0.457   3.711   2.169  0.7808 -1.1769 -0.6570
 7447SOL    HW233978   0.411   3.748   2.306 -0.6051  0.6317 -0.0520
 7448SOL     OW33979   1.691   4.590   3.472  0.5476 -0.3329 -0.3790
 7448SOL    HW133980   1.621   4.595   3.537 -0.4117  1.0854 -1.5275
 7448SOL    HW233981   1.758   4.650   3.504  1.5757 -2.2386  1.0287
 7449SOL     OW33982   0.286   4.420   3.341 -0.2762 -0.3338  1.0283
 7449SOL    HW133983   0.231   4.384   3.271 -1.5651 -2.4475  3.1491
 7449SOL    HW233984   0.290   4.342   3.396 -1.2982 -1.1319 -0.0471
 7450SOL     OW33985   3.603   2.411  16.280 -0.3208 -0.1155 -0.0074
 7450SOL    HW133986   3.642   2.368  16.204  0.1192  1.6490 -0.7769
 7450SOL    HW233987   3.647   2.495  16.270 -0.0421 -0.4122 -1.2282
 7451SOL     OW33988   3.264   2.580   4.513 -0.1182 -0.0333  0.3948
 7451SOL    HW133989   3.178   2.569   4.553  0.1969 -0.8393  0.8449
 7451SOL    HW233990   3.238   2.543   4.429 -0.8354 -0.9120  0.9950
 7452SOL     OW33991   0.852   3.229   2.413  0.0112  0.3383  0.0711
 7452SOL    HW133992   0.890   3.181   2.339  0.0285  0.6818 -0.1403
 7452SOL    HW233993   0.858   3.158   2.477  1.5316 -0.3540 -0.8289
 7453SOL     OW33994   0.531   4.318   3.096  0.2105 -0.3097 -0.4559
 7453SOL    HW133995   0.533   4.315   3.001 -0.1199  0.3504 -0.4820
 7453SOL    HW233996   0.445   4.280   3.117  0.3211  0.7329  1.9492
 7454SOL     OW33997   3.131   4.545   1.359 -0.1039  0.3172  0.1127
 7454SOL    HW133998   3.185   4.617   1.392 -0.1445  0.7507 -0.7514
 7454SOL    HW233999   3.132   4.563   1.265 -2.7826 -1.0128 -0.1739
 7455SOL     OW34000   4.416   4.347   2.194  0.2935  0.5826 -0.2106
 7455SOL    HW134001   4.325   4.357   2.222  0.9708 -1.0395  2.5290
 7455SOL    HW234002   4.415   4.306   2.107  1.4588  0.1260 -0.0016
 7456SOL     OW34003   4.528   3.786  11.825  0.1789  0.7553  0.5998
 7456SOL    HW134004   4.471   3.727  11.776  0.1125  0.5017  0.9801
 7456SOL    HW234005   4.500   3.786  11.917  0.6564 -0.9514  0.7540
 7457SOL     OW34006   0.813   0.600   2.762  0.1092  0.3973  0.0668
 7457SOL    HW134007   0.824   0.661   2.835 -1.4662 -0.3207  0.9109
 7457SOL    HW234008   0.730   0.563   2.789 -0.9502  0.5873 -2.9151
 7458SOL     OW34009   1.724   0.996   4.244 -0.4235  0.5618 -0.6128
 7458SOL    HW134010   1.671   1.042   4.179 -1.6135  1.1900  0.8057
 7458SOL    HW234011   1.812   1.033   4.240 -0.7537  1.5500  1.1765
 7459SOL     OW34012   0.106   3.716   3.615 -0.1289  0.5646 -0.0842
 7459SOL    HW134013   0.116   3.644   3.678 -1.7673  1.2607  0.9772
 7459SOL    HW234014   0.187   3.713   3.565 -0.2475  0.3816 -0.2659
 7460SOL     OW34015   4.544   3.272   1.450  0.5788 -0.4613 -0.4247
 7460SOL    HW134016   4.573   3.277   1.541 -0.3928  1.5434 -0.2165
 7460SOL    HW234017   4.466   3.217   1.453  0.1701  0.1606  0.3019
 7461SOL     OW34018   1.275   1.550   8.861  0.0805  0.0476 -0.0878
 7461SOL    HW134019   1.363   1.586   8.849 -0.1896  0.1111 -1.7623
 7461SOL    HW234020   1.295   1.457   8.872  1.2453  0.4382  1.1457
 7462SOL     OW34021   1.990   0.830   1.274 -0.0719 -0.3075 -0.6507
 7462SOL    HW134022   2.031   0.876   1.201  0.7561 -0.5133 -0.3120
 7462SOL    HW234023   2.061   0.831   1.339  1.2033  0.4597 -2.0568
 7463SOL     OW34024   3.895   0.867   5.756 -0.0988 -0.2137 -0.5497
 7463SOL    HW134025   3.878   0.807   5.684  1.5654  1.0254 -1.9983
 7463SOL    HW234026   3.896   0.806   5.829  0.0841  1.3595  0.7494
 7464SOL     OW34027   0.111   0.456   5.983 -0.3756  0.5558  0.1754
 7464SOL    HW134028   0.130   0.508   6.062  3.6051  0.8092 -0.9903
 7464SOL    HW234029   0.189   0.402   5.980 -2.0489 -1.9994  2.0980
 7465SOL     OW34030   1.560   1.244  17.444  0.3743 -0.4217 -0.0023
 7465SOL    HW134031   1.465   1.230  17.452  0.3837 -0.9990 -0.8935
 7465SOL    HW234032   1.598   1.160  17.468 -1.2267 -0.0914  3.5899
 7466SOL     OW34033   0.889   2.193   7.042 -0.4478  0.4182  0.0646
 7466SOL    HW134034   0.854   2.109   7.012 -1.1564  0.2795  1.2701
 7466SOL    HW234035   0.864   2.251   6.971 -0.1249  1.7542  1.0447
 7467SOL     OW34036   0.552   3.104  11.336  0.5124 -0.3176  0.0964
 7467SOL    HW134037   0.532   3.183  11.284 -4.1853 -0.3298  1.8771
 7467SOL    HW234038   0.633   3.072  11.297  1.7528  2.3950  0.4909
 7468SOL     OW34039   3.113   2.951  15.869 -0.0943  0.1890 -0.0326
 7468SOL    HW134040   3.056   3.027  15.858  0.9721  0.7008 -2.0660
 7468SOL    HW234041   3.179   2.981  15.806  0.4622 -1.2804 -0.1526
 7469SOL     OW34042   2.452   1.517   8.820 -0.2322  0.1672 -0.1472
 7469SOL    HW134043   2.369   1.470   8.821 -0.4289  0.5651  1.6414
 7469SOL    HW234044   2.469   1.523   8.914 -1.7593 -0.4654  0.1604
 7470SOL     OW34045   1.287   3.755   7.748 -0.1555  0.1937 -0.1705
 7470SOL    HW134046   1.368   3.737   7.699  1.2933 -0.9109  2.6092
 7470SOL    HW234047   1.284   3.851   7.743 -0.2656  0.1951 -0.0575
 7471SOL     OW34048   2.599   1.005   9.860  0.5284 -0.2153 -0.8777
 7471SOL    HW134049   2.608   1.037   9.949 -3.3034 -0.9297 -0.2421
 7471SOL    HW234050   2.558   0.922   9.881  1.7053 -0.4378  0.5018
 7472SOL     OW34051   1.708   1.173  17.222  0.1823 -0.0771 -0.3501
 7472SOL    HW134052   1.637   1.227  17.254  0.3910  0.6610 -1.1410
 7472SOL    HW234053   1.658   1.108  17.172 -0.3540  0.1770 -0.1393
 7473SOL     OW34054   1.783   2.216   3.272  0.1084 -0.1146  1.0438
 7473SOL    HW134055   1.755   2.130   3.304 -2.3014 -0.0310 -0.9289
 7473SOL    HW234056   1.696   2.256   3.270  0.6827  0.9889 -1.6095
 7474SOL     OW34057   1.834   0.402   9.854 -0.1124  0.3297  0.0112
 7474SOL    HW134058   1.819   0.309   9.842  1.9832 -0.0573  0.4899
 7474SOL    HW234059   1.901   0.425   9.789  0.3433 -0.2284  0.2841
 7475SOL     OW34060   2.941   0.534   0.166  0.4095  0.4506  0.3970
 7475SOL    HW134061   2.901   0.589   0.234 -1.4796 -0.9638  0.4244
 7475SOL    HW234062   2.930   0.451   0.212  1.3665 -0.1656 -0.4892
 7476SOL     OW34063   2.805   1.085   2.612 -0.7388 -0.0641  0.6831
 7476SOL    HW134064   2.867   1.027   2.657 -1.8985 -0.7996  1.3085
 7476SOL    HW234065   2.725   1.035   2.626 -0.1516 -1.0700  0.4475
 7477SOL     OW34066   2.148   2.705   2.650 -0.0137 -0.0463 -0.4164
 7477SOL    HW134067   2.214   2.760   2.692 -0.8787  0.1832  0.6513
 7477SOL    HW234068   2.191   2.621   2.667 -2.6155 -1.3105  0.0464
 7478SOL     OW34069   3.454   2.799   4.556 -0.9592 -0.1373  0.1878
 7478SOL    HW134070   3.508   2.733   4.512 -0.9219  0.3386 -0.4711
 7478SOL    HW234071   3.368   2.764   4.532 -0.6942  0.5242 -1.6732
 7479SOL     OW34072   0.856   2.425   3.219  0.0872 -0.4900 -0.0284
 7479SOL    HW134073   0.924   2.463   3.274  0.6056 -1.4289 -0.0286
 7479SOL    HW234074   0.905   2.377   3.152  1.0206 -0.4418  0.6179
 7480SOL     OW34075   2.377   4.443   1.027  0.0740  0.2042 -0.2139
 7480SOL    HW134076   2.282   4.450   1.036  0.0821  0.6765 -0.5159
 7480SOL    HW234077   2.394   4.367   1.083  0.3793  0.0937 -0.4596
 7481SOL     OW34078   0.840   2.008   1.225  0.4042  0.0214  0.2895
 7481SOL    HW134079   0.846   2.104   1.222  0.6506 -0.0527 -1.9783
 7481SOL    HW234080   0.886   1.996   1.142  1.8401  0.8444  0.9776
 7482SOL     OW34081   1.513   2.432   2.217 -0.6211  0.0638  0.2295
 7482SOL    HW134082   1.525   2.343   2.249  1.5426 -0.0019 -0.7663
 7482SOL    HW234083   1.551   2.480   2.291  0.0542 -0.5605  0.2890
 7483SOL     OW34084   0.880   2.120   1.918 -0.1659 -0.4227  0.5818
 7483SOL    HW134085   0.799   2.069   1.927 -0.3797 -0.1445  0.2538
 7483SOL    HW234086   0.861   2.149   1.829 -0.4765 -2.5183 -0.0348
 7484SOL     OW34087   1.587   2.694  15.300 -0.0615 -0.2862 -0.3718
 7484SOL    HW134088   1.622   2.605  15.303  0.4088 -0.0993 -0.2960
 7484SOL    HW234089   1.630   2.711  15.216 -0.1986 -1.4103 -0.6676
 7485SOL     OW34090   4.232   0.886   5.300 -0.5322  0.3432 -0.1626
 7485SOL    HW134091   4.324   0.871   5.325 -0.9360 -1.1116  0.4484
 7485SOL    HW234092   4.222   0.981   5.297 -0.8900  0.2497 -1.6012
 7486SOL     OW34093   1.325   3.181   3.645 -0.0202 -0.2066  0.4876
 7486SOL    HW134094   1.234   3.152   3.639 -0.1920 -0.2562  3.2558
 7486SOL    HW234095   1.359   3.113   3.703  3.6167  1.0041 -0.1953
 7487SOL     OW34096   4.626   4.485   1.782 -0.2539 -0.5861 -0.4828
 7487SOL    HW134097   4.645   4.402   1.826  0.1020 -0.4320 -0.3531
 7487SOL    HW234098   4.704   4.508   1.733  0.4430 -0.9530  0.4544
 7488SOL     OW34099   0.077   2.953  14.167 -0.1580  0.4295 -0.2831
 7488SOL    HW134100   0.130   3.004  14.228 -1.4728 -2.0335  2.8956
 7488SOL    HW234101   0.042   3.026  14.115 -2.7727 -0.5045  0.1405
 7489SOL     OW34102   1.225   1.652   2.382  0.3609 -0.3530 -0.6599
 7489SOL    HW134103   1.153   1.636   2.322 -0.7860  0.0748  0.6144
 7489SOL    HW234104   1.262   1.565   2.397  1.4094  0.1724 -0.1760
 7490SOL     OW34105   3.232   3.732   7.743  0.1167 -0.1242  0.6377
 7490SOL    HW134106   3.214   3.826   7.735  1.9696  0.1301 -0.4825
 7490SOL    HW234107   3.206   3.705   7.655 -0.7301  1.9520  0.2376
 7491SOL     OW34108   1.449   4.705   3.205 -0.1464  0.1527  0.1998
 7491SOL    HW134109   1.381   0.037   3.197 -0.6999 -0.5322 -0.8075
 7491SOL    HW234110   1.529   0.022   3.208  0.6428 -0.7704 -4.6362
 7492SOL     OW34111   4.690   0.116   7.914 -0.7142 -0.2264  0.0564
 7492SOL    HW134112   4.626   0.184   7.892 -1.7568 -0.8255  1.2433
 7492SOL    HW234113   4.707   0.146   8.003 -0.6043 -2.0372  0.6439
 7493SOL     OW34114   2.402   0.333   8.841 -0.0079 -0.3423  0.1750
 7493SOL    HW134115   2.431   0.366   8.756  0.3276  0.4332  0.5958
 7493SOL    HW234116   2.422   0.239   8.830 -0.1985 -0.3653  0.0342
 7494SOL     OW34117   0.490   3.236   6.590  0.1963 -0.5081 -0.0114
 7494SOL    HW134118   0.462   3.148   6.613  1.0044 -0.9831 -0.8577
 7494SOL    HW234119   0.560   3.238   6.656 -0.2104 -0.5392  0.4147
 7495SOL     OW34120   4.637   3.217   9.632  0.2791 -0.0249 -0.0015
 7495SOL    HW134121   4.688   3.136   9.631 -1.2936 -1.1269  5.3795
 7495SOL    HW234122   4.601   3.210   9.721  1.8501  2.4152  0.8326
 7496SOL     OW34123   3.215   2.793  13.093  0.0873 -0.4101  0.3863
 7496SOL    HW134124   3.192   2.764  13.182 -0.4654 -2.1516 -0.3215
 7496SOL    HW234125   3.269   2.718  13.068 -0.0290 -0.4243  0.1786
 7497SOL     OW34126   1.723   1.141  14.709 -0.2861 -0.5547  0.1609
 7497SOL    HW134127   1.635   1.169  14.686 -0.9063 -0.3524  2.7518
 7497SOL    HW234128   1.732   1.200  14.784  0.3193  2.1075 -2.0171
 7498SOL     OW34129   0.854   1.339  10.466  0.7163  0.0131 -0.0839
 7498SOL    HW134130   0.809   1.258  10.439 -0.7894  1.5392 -2.1227
 7498SOL    HW234131   0.935   1.297  10.497  1.9326  2.2286 -0.3133
 7499SOL     OW34132   3.586   3.660   2.800 -0.0797 -0.1038  0.6365
 7499SOL    HW134133   3.632   3.741   2.782  0.5005 -0.9505 -1.6466
 7499SOL    HW234134   3.628   3.636   2.882  0.2369  0.1355  0.5420
 7500SOL     OW34135   4.604   2.197  11.724  0.3514 -0.0814  0.3107
 7500SOL    HW134136   4.662   2.184  11.799  2.2701 -0.1526 -1.1916
 7500SOL    HW234137   4.672   2.203  11.657  0.4637  0.3649  0.4641
 7501SOL     OW34138   1.265   3.983   5.543  0.3424  0.5573 -0.3425
 7501SOL    HW134139   1.307   3.900   5.523 -1.5644 -0.4639 -0.0988
 7501SOL    HW234140   1.184   3.959   5.499  0.9330 -0.2954 -0.9582
 7502SOL     OW34141   1.189   2.070   4.671  0.7441 -0.1567  0.5160
 7502SOL    HW134142   1.202   2.011   4.597  0.6659 -0.3963  0.6940
 7502SOL    HW234143   1.247   2.022   4.730  1.6011 -0.4038 -0.5220
 7503SOL     OW34144   3.997   0.686   3.998 -0.0174  0.0009  0.4173
 7503SOL    HW134145   3.991   0.779   3.974  1.6305  0.1387  0.5352
 7503SOL    HW234146   4.064   0.652   3.938 -0.1944  1.8837 -0.8475
 7504SOL     OW34147   3.854   0.122   7.416  0.1378 -0.1204 -0.0909
 7504SOL    HW134148   3.862   0.215   7.435 -2.2873  0.0391  0.1491
 7504SOL    HW234149   3.824   0.085   7.498  0.0317  0.6636  0.2221
 7505SOL     OW34150   1.137   2.231  14.141 -0.0828  0.1630 -0.5945
 7505SOL    HW134151   1.050   2.252  14.108 -0.1613  0.1114 -0.4184
 7505SOL    HW234152   1.120   2.177  14.218 -0.7550 -0.1294 -0.9542
 7506SOL     OW34153   4.491   3.728   1.836 -0.8487 -0.2107  0.4095
 7506SOL    HW134154   4.436   3.802   1.811  0.9185  1.2632  0.8536
 7506SOL    HW234155   4.462   3.667   1.768  2.9755  1.1819 -2.4844
 7507SOL     OW34156   2.585   1.691   2.743  0.5008 -0.1626 -0.5155
 7507SOL    HW134157   2.582   1.649   2.657 -0.7677 -1.5516  0.2013
 7507SOL    HW234158   2.641   1.630   2.791 -0.3765 -2.0173 -1.8471
 7508SOL     OW34159   2.765   3.316   3.997  0.1456  0.0640  0.4242
 7508SOL    HW134160   2.837   3.326   3.934  0.6622 -0.7203  0.8895
 7508SOL    HW234161   2.709   3.261   3.942 -0.9921  1.5019  0.1713
 7509SOL     OW34162   3.866   3.517   9.037 -0.0074 -0.2417  0.2407
 7509SOL    HW134163   3.943   3.470   9.068 -1.7132 -1.1463  3.1011
 7509SOL    HW234164   3.882   3.601   9.081 -1.1467 -0.0238  0.2634
 7510SOL     OW34165   1.067   2.210   8.476 -0.0728  0.5240 -0.0602
 7510SOL    HW134166   1.148   2.260   8.489  1.2635 -0.6606 -3.8659
 7510SOL    HW234167   1.024   2.230   8.559 -1.8693 -0.4960 -0.7626
 7511SOL     OW34168   4.616   3.941   0.862 -0.2085  0.2861  0.4857
 7511SOL    HW134169   4.670   4.011   0.899 -0.0098 -1.0128  2.6520
 7511SOL    HW234170   4.557   3.928   0.936 -0.8847  1.8310  0.2277
 7512SOL     OW34171   1.557   1.990   7.172 -0.4957 -0.1524  0.0316
 7512SOL    HW134172   1.602   1.917   7.128 -1.2458 -1.0816  0.8114
 7512SOL    HW234173   1.552   1.967   7.265  3.5406  2.5438  0.9230
 7513SOL     OW34174   1.272   2.778   8.568  0.3689  0.6621  0.2111
 7513SOL    HW134175   1.246   2.796   8.478 -2.9516  2.1262  1.4571
 7513SOL    HW234176   1.314   2.862   8.587  0.3202  0.5905  0.6509
 7514SOL     OW34177   4.400   3.730  11.051  0.4076  0.2023  0.2756
 7514SOL    HW134178   4.333   3.706  10.987  0.2143 -1.0794  0.9550
 7514SOL    HW234179   4.352   3.737  11.133 -0.7499  3.0056 -0.6424
 7515SOL     OW34180   4.058   2.942  14.172  0.0850  0.4232  0.1052
 7515SOL    HW134181   4.000   2.961  14.246 -0.3069  0.2146 -0.1489
 7515SOL    HW234182   4.117   2.875  14.207 -0.7827 -1.0595 -1.2591
 7516SOL     OW34183   3.656   1.533   4.810 -0.3882 -0.2742 -0.3063
 7516SOL    HW134184   3.629   1.612   4.762  1.3609  0.3533 -0.2603
 7516SOL    HW234185   3.620   1.557   4.895  0.0437 -0.8166  0.0285
 7517SOL     OW34186   0.670   2.022  12.704 -1.4077 -0.3617 -0.5736
 7517SOL    HW134187   0.644   1.952  12.764 -0.2840 -1.5972 -1.5362
 7517SOL    HW234188   0.583   2.036  12.667 -1.2083  0.0425 -0.8860
 7518SOL     OW34189   1.367   3.294  15.626 -0.0108 -0.3218 -0.8345
 7518SOL    HW134190   1.353   3.314  15.718 -1.5449 -1.0018 -0.9167
 7518SOL    HW234191   1.444   3.347  15.605  0.7356 -0.2406  2.2169
 7519SOL     OW34192   4.366   0.215   5.786  0.2013 -0.3698  0.1481
 7519SOL    HW134193   4.365   0.145   5.852  0.7079  0.4715  1.0536
 7519SOL    HW234194   4.321   0.169   5.716 -1.9290 -0.8838  1.8682
 7520SOL     OW34195   0.610   4.321  13.670 -0.5049 -0.1406  0.2932
 7520SOL    HW134196   0.612   4.286  13.758 -0.7022  1.7438  1.0471
 7520SOL    HW234197   0.629   4.414  13.683  1.2750 -0.3335 -0.8835
 7521SOL     OW34198   0.493   3.741  17.321  0.1478  0.1359  0.1046
 7521SOL    HW134199   0.479   3.674  17.388 -1.4722  0.2676 -0.1043
 7521SOL    HW234200   0.442   3.702  17.250  1.0669  1.6858 -1.4098
 7522SOL     OW34201   1.775   4.439  11.132  0.0785  0.2827  0.4082
 7522SOL    HW134202   1.795   4.479  11.216 -1.6799 -0.1471  1.0361
 7522SOL    HW234203   1.851   4.467  11.081  0.4075 -0.5942  0.4109
 7523SOL     OW34204   3.737   1.653  12.072 -0.3077 -0.0855  0.3803
 7523SOL    HW134205   3.773   1.704  12.000  0.1906 -1.3438 -0.2625
 7523SOL    HW234206   3.817   1.609  12.101  0.7661  0.0531 -2.3301
 7524SOL     OW34207   1.798   2.362   2.592 -0.1956 -1.1090 -0.0081
 7524SOL    HW134208   1.863   2.299   2.622 -1.2454 -1.2118  2.0305
 7524SOL    HW234209   1.836   2.446   2.617  2.9311 -1.9036 -2.0680
 7525SOL     OW34210   1.360   2.333   6.517  0.8301 -0.5798 -0.3267
 7525SOL    HW134211   1.267   2.332   6.496  0.7399  2.5752 -0.1204
 7525SOL    HW234212   1.356   2.352   6.610  0.8497 -0.6856 -0.3041
 7526SOL     OW34213   0.069   0.854   4.129 -0.1030  0.1903 -0.1284
 7526SOL    HW134214   0.155   0.813   4.134 -0.6550 -0.8454  0.8261
 7526SOL    HW234215   0.051   0.851   4.035 -0.5007 -0.8555 -0.0199
 7527SOL     OW34216   3.441   4.292   2.134  0.2681 -0.2392  0.5456
 7527SOL    HW134217   3.472   4.382   2.145  2.1660 -0.5357 -2.4073
 7527SOL    HW234218   3.424   4.268   2.225  3.0417  0.1289  1.1635
 7528SOL     OW34219   0.913   2.398   9.282 -0.6699  0.3410 -0.2714
 7528SOL    HW134220   0.998   2.394   9.326 -1.1827 -1.0411  0.6238
 7528SOL    HW234221   0.860   2.335   9.332  1.5599 -0.4088  1.1630
 7529SOL     OW34222   4.213   0.296   2.944  0.1373 -0.0432 -0.6892
 7529SOL    HW134223   4.211   0.389   2.923 -0.1485  0.1869  0.3354
 7529SOL    HW234224   4.278   0.281   3.014  0.7917 -1.5090 -1.5977
 7530SOL     OW34225   0.319   2.381   5.057 -0.4670 -0.0788 -0.2178
 7530SOL    HW134226   0.325   2.347   4.968 -0.0845 -0.5219 -0.0267
 7530SOL    HW234227   0.224   2.375   5.067 -0.4270  0.2528  0.3721
 7531SOL     OW34228   2.937   2.649   2.561  0.3567  0.4777  0.0421
 7531SOL    HW134229   2.994   2.724   2.578  2.0697 -0.8353  0.0361
 7531SOL    HW234230   2.908   2.626   2.649  0.9678 -0.4469  0.0062
 7532SOL     OW34231   4.675   2.062   9.721  0.1386  0.4178  1.0119
 7532SOL    HW134232   4.661   1.985   9.666  0.1400  1.7599 -0.8641
 7532SOL    HW234233   4.703   2.026   9.805 -2.1396  0.3595  1.7350
 7533SOL     OW34234   0.028   2.188   9.253 -0.2535  0.2764  0.8124
 7533SOL    HW134235   4.685   2.246   9.258 -0.4129  0.2956 -1.6268
 7533SOL    HW234236   0.085   2.236   9.313 -0.9201  2.3673 -0.1910
 7534SOL     OW34237   0.288   4.276   7.991 -0.0127  0.4760  0.0545
 7534SOL    HW134238   0.241   4.357   7.971 -1.1950 -0.1140  0.4622
 7534SOL    HW234239   0.213   4.218   7.999  1.1055 -0.9342  0.3368
 7535SOL     OW34240   0.950   2.865  12.216  0.4092 -0.2009  0.0885
 7535SOL    HW134241   0.924   2.788  12.267 -0.9842  0.2188  0.0172
 7535SOL    HW234242   0.921   2.938  12.270 -0.9111 -0.0498 -0.8068
 7536SOL     OW34243   1.507   2.615   7.456  0.4292  0.3937 -0.4748
 7536SOL    HW134244   1.510   2.645   7.547  1.0245 -1.4817  0.1065
 7536SOL    HW234245   1.435   2.552   7.458  1.0304 -0.2661  0.2826
 7537SOL     OW34246   2.790   0.829   8.691  0.1825 -0.3335 -0.1395
 7537SOL    HW134247   2.846   0.852   8.617  2.1066  1.3779  1.8162
 7537SOL    HW234248   2.706   0.822   8.647 -1.2015 -0.4739  2.5185
 7538SOL     OW34249   4.128   1.175   0.628  0.0849  0.2195 -0.4108
 7538SOL    HW134250   4.183   1.101   0.601  0.7731  0.4334  0.4249
 7538SOL    HW234251   4.074   1.200   0.553 -0.0161 -0.0442 -0.4292
 7539SOL     OW34252   4.186   3.307   2.602  0.4004 -0.4941 -0.1255
 7539SOL    HW134253   4.254   3.327   2.667 -0.3239 -1.4946  0.9442
 7539SOL    HW234254   4.189   3.390   2.554 -2.9150  0.2041  0.8593
 7540SOL     OW34255   3.657   3.036  10.490 -0.3201 -0.1891 -0.7186
 7540SOL    HW134256   3.734   3.093  10.494  1.0822 -1.8857 -2.9436
 7540SOL    HW234257   3.677   2.989  10.409 -0.1276  1.1155 -1.4348
 7541SOL     OW34258   3.676   4.281   9.364  0.0871 -0.1487  0.7484
 7541SOL    HW134259   3.740   4.218   9.398 -0.6679 -0.9900  0.5927
 7541SOL    HW234260   3.664   4.239   9.279 -1.5448  1.8729  0.0118
 7542SOL     OW34261   1.762   0.120   9.835 -0.1629 -0.2607  0.5408
 7542SOL    HW134262   1.687   0.060   9.836 -0.2447 -0.1178  2.0303
 7542SOL    HW234263   1.812   0.092   9.758 -0.0755  1.3366  0.0277
 7543SOL     OW34264   0.440   0.247   4.366  0.0618  0.0438 -0.2468
 7543SOL    HW134265   0.521   0.298   4.368  1.1723 -1.8398  3.4298
 7543SOL    HW234266   0.452   0.213   4.455 -1.0142  0.8340  0.1952
 7544SOL     OW34267   1.557   2.132   5.713  0.1633 -0.1009  0.6459
 7544SOL    HW134268   1.585   2.180   5.790  0.2519  2.8678 -1.2150
 7544SOL    HW234269   1.537   2.044   5.747 -1.7454  0.7780  1.8087
 7545SOL     OW34270   3.040   1.641  10.178 -0.1628  0.6346  0.3048
 7545SOL    HW134271   3.062   1.725  10.219 -1.2576  0.8670  0.4231
 7545SOL    HW234272   2.951   1.631  10.210  0.5883 -2.0753  1.5532
 7546SOL     OW34273   0.565   2.322   9.448  0.1135 -0.1924  0.5519
 7546SOL    HW134274   0.504   2.285   9.512 -0.4210 -0.2832 -0.0156
 7546SOL    HW234275   0.639   2.325   9.509  0.1749  1.4448  0.3871
 7547SOL     OW34276   2.242   3.239   4.319  0.4045 -0.4913  0.2404
 7547SOL    HW134277   2.160   3.243   4.369  0.1948  1.5897 -0.2441
 7547SOL    HW234278   2.283   3.165   4.363 -1.3323 -0.0679  2.5527
 7548SOL     OW34279   1.120   4.651   5.028 -0.3060  1.1384  0.3406
 7548SOL    HW134280   1.212   4.671   5.008 -0.4964  0.4566 -1.1829
 7548SOL    HW234281   1.119   4.687   5.117 -0.1826  3.0617 -0.4581
 7549SOL     OW34282   4.648   3.120   1.952  0.8336  0.5561  0.0798
 7549SOL    HW134283   0.005   3.100   1.934  0.5016  0.8903 -1.9219
 7549SOL    HW234284   4.611   3.035   1.931 -1.2926  0.4987  3.9489
 7550SOL     OW34285   1.986   0.466  11.945  0.0707  0.4495 -0.3626
 7550SOL    HW134286   1.907   0.419  11.971 -0.8134  1.9086 -0.4288
 7550SOL    HW234287   1.993   0.449  11.851 -2.8569  0.3810 -0.5413
 7551SOL     OW34288   4.588   4.507   5.264  0.5106  0.0577  0.2863
 7551SOL    HW134289   4.595   4.507   5.360  2.9136 -0.8180  0.1174
 7551SOL    HW234290   4.503   4.464   5.255  0.9099 -1.1138  1.9447
 7552SOL     OW34291   2.488   2.991   8.627 -0.2263 -0.2934  0.4254
 7552SOL    HW134292   2.476   3.084   8.607 -0.8065 -0.6645 -0.9451
 7552SOL    HW234293   2.441   2.942   8.560  2.2577  0.4720 -1.8729
 7553SOL     OW34294   0.298   3.300   2.333 -0.2399  0.0636  0.0039
 7553SOL    HW134295   0.383   3.344   2.324 -0.0571 -0.7202 -2.0097
 7553SOL    HW234296   0.300   3.249   2.252  1.6709 -0.8105  0.6043
 7554SOL     OW34297   0.060   3.819  11.747 -0.6063 -0.2696  0.2652
 7554SOL    HW134298   4.700   3.807  11.755 -0.4548 -1.5106  0.1966
 7554SOL    HW234299   0.078   3.847  11.837 -1.6243 -0.4353  0.5120
 7555SOL     OW34300   3.552   1.021   8.328 -0.2650  0.4655 -0.4045
 7555SOL    HW134301   3.603   0.994   8.404 -1.9612 -1.7289 -0.0601
 7555SOL    HW234302   3.544   1.112   8.356  5.0301  0.7553  0.2416
 7556SOL     OW34303   0.713   4.086   8.100  0.2307 -0.0341 -0.5688
 7556SOL    HW134304   0.735   3.998   8.130  0.6256  0.4220  0.4527
 7556SOL    HW234305   0.794   4.136   8.088 -0.0989 -0.3970 -4.4878
 7557SOL     OW34306   3.147   4.284   5.738  0.3168  0.0911 -0.0303
 7557SOL    HW134307   3.227   4.230   5.737  0.0226 -0.3990  3.2882
 7557SOL    HW234308   3.076   4.220   5.734 -0.0487  0.5828 -1.3754
 7558SOL     OW34309   3.717   3.287   6.467  0.0424  0.3400 -0.2852
 7558SOL    HW134310   3.805   3.324   6.473 -0.8931  2.3755  1.0213
 7558SOL    HW234311   3.670   3.363   6.433 -1.0661 -2.1279 -4.2334
 7559SOL     OW34312   2.627   1.889  12.743 -0.5540 -0.0189  0.3422
 7559SOL    HW134313   2.585   1.906  12.827  1.6367 -0.5678  1.5548
 7559SOL    HW234314   2.578   1.811  12.718  0.6927 -0.5356 -0.5095
 7560SOL     OW34315   4.151   2.514   4.256 -0.3995  0.0742  0.5274
 7560SOL    HW134316   4.237   2.473   4.262  0.0892  0.8313 -1.3517
 7560SOL    HW234317   4.154   2.556   4.342  3.0482 -1.8565  1.3662
 7561SOL     OW34318   2.394   0.419   5.862  0.1450  0.2186  0.1358
 7561SOL    HW134319   2.453   0.365   5.810  1.4746  1.7397  0.0405
 7561SOL    HW234320   2.331   0.355   5.896  0.4462  0.4378  1.1258
 7562SOL     OW34321   2.379   2.141  12.019 -0.1528  0.1859 -0.6414
 7562SOL    HW134322   2.427   2.141  12.102 -0.1328 -1.8587 -0.6316
 7562SOL    HW234323   2.313   2.209  12.030 -0.7561 -0.4496 -0.2980
 7563SOL     OW34324   1.280   2.082   6.176  0.3253  0.0415  0.0303
 7563SOL    HW134325   1.185   2.084   6.171  0.2975 -1.0260  0.0177
 7563SOL    HW234326   1.301   2.003   6.227  0.6582  0.6023  0.7530
 7564SOL     OW34327   1.318   3.079   2.607  0.1473 -0.7815  0.0840
 7564SOL    HW134328   1.289   3.168   2.585 -0.3753 -0.7838  0.7673
 7564SOL    HW234329   1.231   3.040   2.618 -0.2772  0.3146  0.6359
 7565SOL     OW34330   1.140   4.607   7.024  0.1683  0.4885  0.3302
 7565SOL    HW134331   1.085   4.684   7.033  0.3361  0.6422  0.0512
 7565SOL    HW234332   1.076   4.541   7.049  1.3623 -1.3210 -1.3597
 7566SOL     OW34333   2.557   3.930   4.921 -0.3153  0.4716  0.1780
 7566SOL    HW134334   2.626   3.883   4.969 -1.8774 -0.9795  1.0144
 7566SOL    HW234335   2.612   4.002   4.889  1.7864 -2.1279 -2.1158
 7567SOL     OW34336   0.707   0.557   9.633  0.1149 -0.8308  0.3754
 7567SOL    HW134337   0.770   0.614   9.590  0.2783 -1.0429  0.3340
 7567SOL    HW234338   0.755   0.493   9.685  0.8246 -1.2119 -0.7509
 7568SOL     OW34339   1.562   1.011   7.450 -0.1550  0.0277  0.6309
 7568SOL    HW134340   1.498   1.049   7.390  1.1411 -0.7429 -1.2001
 7568SOL    HW234341   1.556   0.916   7.441  1.5388  0.0826 -0.9301
 7569SOL     OW34342   3.153   4.147  17.160  0.0603  0.8442  0.5291
 7569SOL    HW134343   3.205   4.147  17.079 -2.3261 -1.2514 -1.0196
 7569SOL    HW234344   3.202   4.089  17.218  0.5305  0.8808  0.1726
 7570SOL     OW34345   3.385   4.615   4.525  0.2688 -0.4661 -0.6892
 7570SOL    HW134346   3.357   4.598   4.615  1.1934  1.7026  0.0262
 7570SOL    HW234347   3.400   4.710   4.530  0.0545 -0.3894 -1.5735
 7571SOL     OW34348   1.058   3.871  16.009  0.4177  0.0682 -0.3989
 7571SOL    HW134349   1.023   3.794  15.964 -0.8237 -1.2895  2.8570
 7571SOL    HW234350   0.988   3.936  15.997 -1.2393 -1.5977  0.1731
 7572SOL     OW34351   1.748   3.746   7.403 -0.1211  0.3048  0.3146
 7572SOL    HW134352   1.783   3.796   7.476  0.9467 -1.8136  1.2537
 7572SOL    HW234353   1.672   3.801   7.385  1.1687  1.3183 -1.9471
 7573SOL     OW34354   3.126   4.349   7.645 -0.2830  0.1547  0.1005
 7573SOL    HW134355   3.214   4.351   7.682 -0.6054  0.4980  0.8391
 7573SOL    HW234356   3.080   4.368   7.726 -2.3549 -0.3937 -0.9372
 7574SOL     OW34357   4.480   0.555   6.044  0.9716  0.3490 -0.1782
 7574SOL    HW134358   4.409   0.494   6.027  0.5489  0.6246  0.6127
 7574SOL    HW234359   4.517   0.503   6.116  0.4766  0.7923  0.3989
 7575SOL     OW34360   3.641   2.410   1.563  0.2431  0.1123 -0.1648
 7575SOL    HW134361   3.692   2.329   1.561  1.2701  0.7397  0.6955
 7575SOL    HW234362   3.692   2.481   1.603 -0.3640  0.9523 -0.8734
 7576SOL     OW34363   2.094   3.347   3.324  0.1332  0.3691 -0.4360
 7576SOL    HW134364   2.123   3.350   3.415 -1.7781 -0.7417  0.2072
 7576SOL    HW234365   2.094   3.254   3.302  1.7161 -0.1265  1.6980
 7577SOL     OW34366   0.078   2.972   9.185  0.5281 -0.2517  0.0537
 7577SOL    HW134367   0.072   2.880   9.212  1.7400 -0.0931  0.8547
 7577SOL    HW234368   0.157   2.978   9.132  1.1001  0.7979  1.0378
 7578SOL     OW34369   1.066   1.172   2.311 -0.2248 -0.0604  0.4114
 7578SOL    HW134370   1.158   1.150   2.296 -0.9781  0.2882 -4.8994
 7578SOL    HW234371   1.036   1.108   2.374  0.9100 -0.6413  0.3549
 7579SOL     OW34372   1.495   2.903   5.302  0.5980 -0.5073 -0.4108
 7579SOL    HW134373   1.521   2.982   5.255 -0.6726  1.6147  2.4205
 7579SOL    HW234374   1.583   2.879   5.329  0.9617 -1.5084 -2.4980
 7580SOL     OW34375   1.876   1.829  16.632 -0.2774 -0.1899  0.5445
 7580SOL    HW134376   1.832   1.796  16.554 -0.9024  0.7982  0.4754
 7580SOL    HW234377   1.905   1.752  16.681  1.3101 -0.9810 -1.6183
 7581SOL     OW34378   2.973   4.732   5.717  0.1163 -0.9710  0.0888
 7581SOL    HW134379   2.881   4.719   5.741 -0.6849  3.6262 -0.6451
 7581SOL    HW234380   3.012   4.652   5.752  1.9867  0.1402  0.5259
 7582SOL     OW34381   1.850   4.023  12.753  0.1797 -0.2751 -0.1168
 7582SOL    HW134382   1.759   3.997  12.762 -0.7684  3.1602  0.5386
 7582SOL    HW234383   1.889   3.946  12.712 -2.6154 -0.1723 -2.9385
 7583SOL     OW34384   1.728   2.738  15.054  0.0913 -0.0169  0.1257
 7583SOL    HW134385   1.716   2.662  14.997  0.2362  0.7561 -0.9245
 7583SOL    HW234386   1.666   2.804  15.023  1.6045  0.2816 -2.2580
 7584SOL     OW34387   0.098   2.246   8.387  0.0613  0.0763 -0.4965
 7584SOL    HW134388   0.005   2.232   8.374  0.1163 -0.1185 -0.6709
 7584SOL    HW234389   0.127   2.261   8.297 -0.2755  1.6008 -0.3586
 7585SOL     OW34390   2.526   3.227   2.149  0.3507 -0.1949 -0.1864
 7585SOL    HW134391   2.616   3.255   2.164  0.2771  0.1427 -0.3826
 7585SOL    HW234392   2.519   3.245   2.056 -1.3715  0.2371  0.0304
 7586SOL     OW34393   4.100   1.647   7.502  0.7201 -0.7273 -0.2817
 7586SOL    HW134394   4.151   1.653   7.582  1.3927  0.1253 -0.7765
 7586SOL    HW234395   4.068   1.561   7.530 -0.1823 -0.4098 -0.3681
 7587SOL     OW34396   0.326   3.931  10.103  0.5434 -0.3077  0.1794
 7587SOL    HW134397   0.351   3.960  10.190  1.1574 -0.0416 -0.0813
 7587SOL    HW234398   0.412   3.896  10.080 -0.3148 -1.5815 -1.1075
 7588SOL     OW34399   4.257   0.070  11.578  0.1426 -0.7156 -0.5982
 7588SOL    HW134400   4.265   4.719  11.620 -0.2839 -0.9605 -1.0093
 7588SOL    HW234401   4.244   0.128  11.653  2.3775 -2.0216  0.7875
 7589SOL     OW34402   3.067   3.364  10.608 -0.3777  0.3760 -0.2906
 7589SOL    HW134403   3.077   3.269  10.609  0.3242  0.4656  0.4488
 7589SOL    HW234404   3.041   3.366  10.700 -0.6722  2.1819 -0.4211
 7590SOL     OW34405   1.616   3.189   2.351 -1.0367 -0.5384 -0.4885
 7590SOL    HW134406   1.604   3.121   2.417 -2.7719  1.7496  1.5718
 7590SOL    HW234407   1.686   3.159   2.294  0.4730 -1.0399  1.6363
 7591SOL     OW34408   4.515   2.875   1.907  0.2388 -0.0119  0.0896
 7591SOL    HW134409   4.467   2.804   1.865 -1.1822  2.2862 -2.2048
 7591SOL    HW234410   4.574   2.842   1.975 -1.3084 -0.8880  1.0061
 7592SOL     OW34411   4.320   3.612   5.107  0.3150  0.3334 -0.0282
 7592SOL    HW134412   4.335   3.654   5.022 -1.1562 -0.7267 -0.8094
 7592SOL    HW234413   4.410   3.589   5.127  0.5117 -0.0896 -1.3575
 7593SOL     OW34414   3.210   4.029   7.409  0.2283  0.0232  0.3320
 7593SOL    HW134415   3.200   3.980   7.490 -0.3828 -0.7174 -0.1998
 7593SOL    HW234416   3.145   4.096   7.431 -0.0211  0.1558 -0.7819
 7594SOL     OW34417   0.629   1.377   4.417 -0.6322 -0.2969 -0.1305
 7594SOL    HW134418   0.636   1.405   4.508 -1.2175 -0.2847 -0.0896
 7594SOL    HW234419   0.676   1.449   4.374 -1.2682  0.0038 -0.3317
 7595SOL     OW34420   4.362   3.687   6.474 -0.8604 -0.5008  0.1190
 7595SOL    HW134421   4.401   3.774   6.486 -1.8339 -0.1214  0.5891
 7595SOL    HW234422   4.393   3.674   6.385 -0.7780  1.5332 -0.1582
 7596SOL     OW34423   2.071   0.265   7.283 -0.2453 -0.2217  0.0482
 7596SOL    HW134424   2.160   0.296   7.302 -0.7867  0.7125  1.0830
 7596SOL    HW234425   2.036   0.241   7.369 -0.1159 -2.4533 -0.5241
 7597SOL     OW34426   1.801   3.448   2.465  0.3131  0.5592  0.2995
 7597SOL    HW134427   1.734   3.381   2.478  0.0506  0.7297 -0.1690
 7597SOL    HW234428   1.750   3.528   2.456 -1.1511 -0.3865  0.2496
 7598SOL     OW34429   1.112   0.976   8.400  0.1600  0.1881 -0.3479
 7598SOL    HW134430   1.022   0.957   8.425  0.4642 -1.2049 -0.2985
 7598SOL    HW234431   1.109   0.962   8.305  0.8624 -0.6043 -0.2595
 7599SOL     OW34432   1.925   2.367   2.934 -0.1328 -0.0866 -0.3347
 7599SOL    HW134433   1.996   2.373   2.870  1.9641 -0.6678  1.9112
 7599SOL    HW234434   1.939   2.277   2.965 -0.3377 -0.0379 -0.1024
 7600SOL     OW34435   3.088   1.664   6.122  0.9075 -0.6719  0.5512
 7600SOL    HW134436   3.153   1.635   6.186 -1.1578 -2.6321  1.7681
 7600SOL    HW234437   3.062   1.748   6.159  2.0173  0.3968 -1.0923
 7601SOL     OW34438   0.162   1.861   1.400 -0.6769 -0.2893  0.1065
 7601SOL    HW134439   0.088   1.918   1.375  0.0834  0.1960 -0.9947
 7601SOL    HW234440   0.229   1.929   1.401 -1.3250  0.3623 -0.7242
 7602SOL     OW34441   0.049   1.920   9.295 -0.4470  0.3728 -0.1303
 7602SOL    HW134442   0.021   2.012   9.297  1.7007  1.0270 -0.2729
 7602SOL    HW234443   0.123   1.935   9.236 -1.6647  0.8507 -1.5479
 7603SOL     OW34444   2.983   3.631   8.952  0.2189  0.3211  0.0949
 7603SOL    HW134445   3.036   3.567   9.000  1.7155 -0.8452 -3.1222
 7603SOL    HW234446   3.025   3.710   8.985 -0.0130 -1.1900  4.0785
 7604SOL     OW34447   0.303   1.254  14.375 -0.7794  0.3327 -0.4955
 7604SOL    HW134448   0.306   1.349  14.370  0.3556  0.2850 -0.7886
 7604SOL    HW234449   0.312   1.224  14.284 -0.1887  0.8094 -0.5953
 7605SOL     OW34450   2.665   4.087  15.430 -0.2376  0.5540 -0.0661
 7605SOL    HW134451   2.745   4.139  15.423 -0.1991  0.3001 -1.5556
 7605SOL    HW234452   2.695   4.015  15.486 -0.4164  0.5827  0.0677
 7606SOL     OW34453   0.514   0.078   1.728 -0.0612 -0.1226 -0.2542
 7606SOL    HW134454   0.503   0.017   1.656  0.8083 -1.4933  0.7812
 7606SOL    HW234455   0.513   0.021   1.805 -0.9405  0.4595  0.1660
 7607SOL     OW34456   1.538   0.746   7.462  0.2396 -0.0375  0.1586
 7607SOL    HW134457   1.531   0.692   7.541 -0.5135  0.6183  0.5411
 7607SOL    HW234458   1.456   0.722   7.418  0.8664 -0.7524 -0.6265
 7608SOL     OW34459   1.008   0.665   5.001  0.4385  0.2652 -0.4467
 7608SOL    HW134460   0.927   0.701   5.039  0.4991  0.6095 -0.6508
 7608SOL    HW234461   1.043   0.618   5.077  0.3014  2.0941  0.7224
 7609SOL     OW34462   1.514   2.746   5.868  0.0844  0.3216  0.3486
 7609SOL    HW134463   1.498   2.787   5.953 -1.0385  0.2846  0.1591
 7609SOL    HW234464   1.430   2.763   5.826  0.7698  0.3557 -0.9940
 7610SOL     OW34465   1.325   2.286   4.934  0.4873  0.1778 -0.1564
 7610SOL    HW134466   1.314   2.334   4.851 -1.1324  1.7723  0.9803
 7610SOL    HW234467   1.287   2.352   4.992  0.9553 -1.1895  1.6740
 7611SOL     OW34468   0.014   1.574   2.335 -0.1714  0.0659 -0.2440
 7611SOL    HW134469   0.030   1.527   2.254 -0.9142  0.7849 -0.8056
 7611SOL    HW234470   4.657   1.557   2.356  0.4431  0.6613  3.0156
 7612SOL     OW34471   4.170   3.668   2.212  0.1977  0.3503  0.1137
 7612SOL    HW134472   4.158   3.761   2.194 -2.4385 -0.1351 -0.5323
 7612SOL    HW234473   4.254   3.662   2.166  0.4044 -0.5411  0.6108
 7613SOL     OW34474   3.362   3.763   5.135  1.0567  0.1558  0.6943
 7613SOL    HW134475   3.448   3.804   5.122  1.3346 -0.1953  1.4602
 7613SOL    HW234476   3.374   3.727   5.223  0.5931 -2.9521 -0.4985
 7614SOL     OW34477   1.146   1.575   3.824  0.0234 -0.2341 -0.6302
 7614SOL    HW134478   1.206   1.646   3.800  0.2500  0.0220  0.7028
 7614SOL    HW234479   1.063   1.621   3.814  0.1810 -0.1933 -1.8093
 7615SOL     OW34480   0.858   4.434   1.698 -0.3062 -0.4665  0.0740
 7615SOL    HW134481   0.798   4.492   1.746  0.2015  0.2879 -0.2008
 7615SOL    HW234482   0.937   4.431   1.751 -1.1465  0.1991  1.3668
 7616SOL     OW34483   4.134   4.065   3.329 -0.3340  0.5494 -0.4998
 7616SOL    HW134484   4.093   4.054   3.243 -1.8848  1.3062  0.1622
 7616SOL    HW234485   4.188   4.142   3.309  3.4357 -1.9187  0.1371
 7617SOL     OW34486   1.935   3.285   8.956  1.1506  0.8027 -0.1025
 7617SOL    HW134487   1.840   3.292   8.946  1.3103  1.1218 -1.4034
 7617SOL    HW234488   1.950   3.201   8.913 -0.3246 -0.8548  2.6221
 7618SOL     OW34489   3.766   0.424   7.125  0.7022 -0.1137  0.3190
 7618SOL    HW134490   3.740   0.333   7.143 -0.7778 -0.1757 -2.1477
 7618SOL    HW234491   3.715   0.445   7.047 -1.6479  1.4467  2.2956
 7619SOL     OW34492   0.920   0.551   8.658 -0.0090  0.8056 -0.0926
 7619SOL    HW134493   0.843   0.522   8.708  0.6184 -0.3482  0.2035
 7619SOL    HW234494   0.929   0.639   8.694 -1.1064  1.7203 -2.0470
 7620SOL     OW34495   0.628   0.905   1.921 -0.3440 -0.0786  0.4687
 7620SOL    HW134496   0.627   0.924   2.015  1.9151 -0.3080  0.5523
 7620SOL    HW234497   0.652   0.813   1.933  1.7199  0.3806 -0.1371
 7621SOL     OW34498   3.622   1.475  13.627  0.2762  0.0260 -0.1428
 7621SOL    HW134499   3.657   1.545  13.683  1.8025 -0.7332 -0.1510
 7621SOL    HW234500   3.573   1.531  13.566 -2.3103 -0.7543  1.1963
 7622SOL     OW34501   2.172   2.041  17.362  0.2887 -0.4441  0.0404
 7622SOL    HW134502   2.122   1.965  17.331  0.6838 -0.7393  0.1195
 7622SOL    HW234503   2.250   1.991  17.388  0.6935  1.9339  3.3644
 7623SOL     OW34504   2.395   3.557   8.963 -0.3090  0.5431 -0.0687
 7623SOL    HW134505   2.484   3.547   8.927 -0.9430 -0.8776 -1.2482
 7623SOL    HW234506   2.408   3.620   9.034  0.9112  1.4746 -1.1055
 7624SOL     OW34507   1.712   4.144  15.613 -0.1901 -0.6756  0.0631
 7624SOL    HW134508   1.807   4.129  15.622 -0.0469  0.1769 -0.0454
 7624SOL    HW234509   1.690   4.076  15.677 -1.2540 -0.6254 -0.2647
 7625SOL     OW34510   3.969   0.445   8.080  0.0013  0.3106  0.2473
 7625SOL    HW134511   3.886   0.487   8.057  0.9119  0.7204 -2.2724
 7625SOL    HW234512   4.007   0.410   7.999 -1.4322 -0.5767 -0.0573
 7626SOL     OW34513   2.363   2.799   9.490 -0.5393  0.0774  0.4067
 7626SOL    HW134514   2.274   2.820   9.459 -1.3042 -1.2033  1.7241
 7626SOL    HW234515   2.378   2.718   9.440  0.2521  0.5129 -0.0644
 7627SOL     OW34516   4.569   3.004   4.901  0.2248  0.0277 -0.1899
 7627SOL    HW134517   4.654   2.960   4.897 -0.0651 -0.7018  1.7378
 7627SOL    HW234518   4.593   3.085   4.855  2.4047 -0.1841  0.5802
 7628SOL     OW34519   2.503   4.277  12.624 -0.1547 -0.2708  0.6468
 7628SOL    HW134520   2.412   4.292  12.649 -0.2122  0.8248 -0.2098
 7628SOL    HW234521   2.498   4.189  12.589  0.8108  0.1027 -0.4477
 7629SOL     OW34522   3.274   3.947  16.735  0.4446  0.0174 -0.3009
 7629SOL    HW134523   3.354   3.899  16.711  0.2201  0.0987 -1.2091
 7629SOL    HW234524   3.207   3.889  16.700 -0.9258  0.6174  1.3078
 7630SOL     OW34525   2.814   2.433   7.983 -0.6957 -0.7790  0.5282
 7630SOL    HW134526   2.876   2.369   8.019 -2.1579 -3.2391 -1.3766
 7630SOL    HW234527   2.802   2.492   8.058  0.1260  0.3276 -0.2217
 7631SOL     OW34528   4.017   4.170   9.219 -0.0508 -0.0618  0.4571
 7631SOL    HW134529   4.044   4.205   9.134  1.7998  1.8201  1.8064
 7631SOL    HW234530   3.985   4.251   9.259  2.7858  0.6139  1.4198
 7632SOL     OW34531   0.529   3.875   1.716 -0.1929  0.3048  0.0124
 7632SOL    HW134532   0.466   3.947   1.719 -1.0976 -0.4179 -1.2890
 7632SOL    HW234533   0.557   3.882   1.625 -3.2039  1.9618 -0.7991
 7633SOL     OW34534   0.497   3.185   8.135 -0.3018  0.3721 -0.0950
 7633SOL    HW134535   0.539   3.181   8.221  0.6476 -1.6593 -0.6524
 7633SOL    HW234536   0.424   3.126   8.155  0.6617 -1.1677 -1.1948
 7634SOL     OW34537   3.592   1.870   8.060  0.3742 -0.5272 -0.0555
 7634SOL    HW134538   3.613   1.799   7.999  0.2714 -0.4626 -0.1652
 7634SOL    HW234539   3.588   1.830   8.147 -1.5575  2.2127  1.1227
 7635SOL     OW34540   2.046   1.418   3.827  0.9011  0.2853 -0.4354
 7635SOL    HW134541   2.100   1.374   3.761  1.8556 -1.1418  1.3084
 7635SOL    HW234542   1.983   1.348   3.848 -0.1183  1.4710  0.4409
 7636SOL     OW34543   3.438   4.138   9.114 -0.1105 -0.2752  0.1172
 7636SOL    HW134544   3.457   4.047   9.139  0.8214 -0.2919 -0.6698
 7636SOL    HW234545   3.526   4.173   9.106  0.2126 -1.1925 -0.3367
 7637SOL     OW34546   1.868   2.259   7.279  0.3594  0.4228  0.1707
 7637SOL    HW134547   1.830   2.344   7.301  0.8901  0.2025  1.8567
 7637SOL    HW234548   1.853   2.260   7.184  0.0209  0.8150  0.2253
 7638SOL     OW34549   2.659   2.251   6.740  0.3096  0.2879  0.5316
 7638SOL    HW134550   2.747   2.236   6.775 -0.0414  2.9162  2.5469
 7638SOL    HW234551   2.613   2.276   6.820 -1.8140  0.0568 -0.6308
 7639SOL     OW34552   0.456   0.122   3.434 -0.0997  0.4419 -0.2846
 7639SOL    HW134553   0.469   0.212   3.464  0.6861  1.2016 -2.8866
 7639SOL    HW234554   0.439   0.068   3.512 -2.2564  2.5556  0.7099
 7640SOL     OW34555   1.175   4.220   9.199  0.0717  0.1582 -0.0733
 7640SOL    HW134556   1.218   4.137   9.176 -1.1621 -0.4394 -0.2620
 7640SOL    HW234557   1.203   4.220   9.290  1.1421 -0.8157 -0.4053
 7641SOL     OW34558   1.217   1.543  15.485  0.1457  0.8514  0.3403
 7641SOL    HW134559   1.166   1.521  15.406  0.2820 -0.8600  0.7272
 7641SOL    HW234560   1.170   1.489  15.548  1.0836  0.5218  0.7563
 7642SOL     OW34561   2.435   1.048  16.983  0.2247  0.4022  0.1033
 7642SOL    HW134562   2.365   1.090  17.032 -1.2597  1.0108 -2.5128
 7642SOL    HW234563   2.508   1.062  17.043  1.8839 -2.7253 -1.1393
 7643SOL     OW34564   2.684   1.885   4.181  0.4038 -0.0809 -0.1153
 7643SOL    HW134565   2.608   1.942   4.166  0.6155  0.6473  1.5070
 7643SOL    HW234566   2.652   1.832   4.255 -1.0725  0.4301 -0.3856
 7644SOL     OW34567   0.276   3.803   0.844  0.3805  0.3259 -0.4692
 7644SOL    HW134568   0.306   3.894   0.847  2.3946 -0.3880  1.1992
 7644SOL    HW234569   0.319   3.772   0.924 -2.6920 -1.5695  0.4405
 7645SOL     OW34570   4.143   3.191  14.509 -0.2970 -0.1973  0.3249
 7645SOL    HW134571   4.060   3.215  14.468 -1.3114 -3.4092  0.4551
 7645SOL    HW234572   4.106   3.144  14.584  0.2857  0.5262  1.0713
 7646SOL     OW34573   2.999   1.945  13.312  0.3989  0.4032 -0.2183
 7646SOL    HW134574   3.041   1.882  13.253  0.3590  0.6103 -0.4674
 7646SOL    HW234575   3.055   2.019  13.290  1.4818  0.1116  1.5994
 7647SOL     OW34576   0.093   0.190   3.557  0.0016 -0.6116  0.3621
 7647SOL    HW134577   0.156   0.122   3.578  1.0637  0.6919  1.4618
 7647SOL    HW234578   0.010   0.144   3.541 -0.0161 -0.9316  1.3615
 7648SOL     OW34579   2.975   4.336   2.182  0.2685 -0.4805  0.2041
 7648SOL    HW134580   3.036   4.262   2.175  0.4304 -0.5297  2.3283
 7648SOL    HW234581   2.912   4.303   2.117  0.4516 -2.6467  1.1219
 7649SOL     OW34582   3.633   4.245  15.258  0.1859 -0.6852 -0.2030
 7649SOL    HW134583   3.654   4.154  15.235  0.3237 -0.3542 -1.3773
 7649SOL    HW234584   3.594   4.232  15.345  1.5601 -2.4167  0.1644
 7650SOL     OW34585   4.695   2.647   9.079  0.7521  0.5281  0.1376
 7650SOL    HW134586   0.000   2.587   9.016  1.7092  0.1216  1.1253
 7650SOL    HW234587   0.018   2.641   9.156  0.1085  2.2205  0.7573
 7651SOL     OW34588   1.580   3.740   7.679 -0.4804  0.0670  0.8992
 7651SOL    HW134589   1.640   3.815   7.674 -1.4523  0.9333  2.3831
 7651SOL    HW234590   1.633   3.680   7.731 -1.7337 -1.4558  0.4347
 7652SOL     OW34591   3.464   1.629  14.679  0.5896 -0.5188  0.0633
 7652SOL    HW134592   3.541   1.672  14.719 -0.7518  2.7564 -0.8704
 7652SOL    HW234593   3.483   1.540  14.710  1.1216  0.3125  2.1738
 7653SOL     OW34594   0.313   4.687  14.972 -0.5588  0.1760  0.3548
 7653SOL    HW134595   0.339   0.005  14.896  1.6016  2.6545  2.7974
 7653SOL    HW234596   0.229   4.646  14.951  0.8666 -1.2498 -2.5033
 7654SOL     OW34597   2.704   0.294  13.182 -0.2085  0.2635 -0.0988
 7654SOL    HW134598   2.776   0.247  13.222 -0.1855 -0.3692 -0.8854
 7654SOL    HW234599   2.636   0.226  13.182  1.9411 -1.8698  0.5674
 7655SOL     OW34600   1.062   1.083   6.323 -0.0971 -0.2894  0.2750
 7655SOL    HW134601   1.000   1.154   6.342  0.9349  1.0090 -1.1999
 7655SOL    HW234602   1.105   1.123   6.247  0.6251 -0.2126  0.7287
 7656SOL     OW34603   2.968   4.428   9.961  0.6176 -0.4352 -0.0434
 7656SOL    HW134604   2.886   4.468   9.930  0.5571 -0.7863 -0.3378
 7656SOL    HW234605   3.026   4.494   9.922  0.9809 -0.2728  0.7772
 7657SOL     OW34606   0.248   2.687   2.384 -0.2944  0.1010 -0.1497
 7657SOL    HW134607   0.169   2.695   2.330  1.9392 -0.7437 -3.5430
 7657SOL    HW234608   0.309   2.668   2.313 -0.9382  2.4041 -1.3186
 7658SOL     OW34609   1.635   1.328   6.122  0.3179  0.1649 -0.4258
 7658SOL    HW134610   1.551   1.295   6.152  1.2834 -2.9689 -1.2017
 7658SOL    HW234611   1.694   1.256   6.100 -2.0319 -2.4309  1.8769
 7659SOL     OW34612   1.751   0.781   3.845 -0.7228 -0.3271 -0.2086
 7659SOL    HW134613   1.664   0.767   3.883 -1.6822  0.7327 -1.9893
 7659SOL    HW234614   1.809   0.765   3.919 -2.5543 -1.0133  1.0929
 7660SOL     OW34615   1.033   3.600   4.898 -0.0285  0.1456 -0.6053
 7660SOL    HW134616   1.035   3.517   4.945  2.2387 -1.7218 -4.0046
 7660SOL    HW234617   1.032   3.580   4.804 -2.1845  1.2382 -0.8163
 7661SOL     OW34618   0.282   0.972   5.728 -0.2689  0.0789 -0.9269
 7661SOL    HW134619   0.221   0.908   5.691 -0.0146  0.1329 -1.4364
 7661SOL    HW234620   0.354   0.970   5.666 -0.0606 -2.3916 -0.5961
 7662SOL     OW34621   0.260   2.879   8.482  0.2771 -0.2418  0.0930
 7662SOL    HW134622   0.307   2.802   8.516  1.4751  0.6990  0.5549
 7662SOL    HW234623   0.182   2.872   8.538 -0.2186  1.7951 -0.3702
 7663SOL     OW34624   0.630   1.671   2.017  0.7214 -0.2356 -0.0499
 7663SOL    HW134625   0.642   1.603   2.082  0.6533  0.0620  0.2740
 7663SOL    HW234626   0.539   1.655   1.991  0.2543  1.3715  0.5743
 7664SOL     OW34627   1.169   2.041   4.001 -0.4971  0.4429 -0.2949
 7664SOL    HW134628   1.190   2.044   4.094 -0.3141 -2.4475 -0.2247
 7664SOL    HW234629   1.091   2.094   4.013 -1.0734 -0.2499 -1.0294
 7665SOL     OW34630   0.322   0.734   2.106 -0.6176  0.6509  0.0676
 7665SOL    HW134631   0.359   0.814   2.142  0.4387 -0.0586  0.5898
 7665SOL    HW234632   0.305   0.683   2.185  0.8599 -1.7772 -1.1641
 7666SOL     OW34633   0.662   2.575   0.500 -0.5678 -0.2544  0.5705
 7666SOL    HW134634   0.743   2.534   0.470 -1.4257 -0.1992 -1.7831
 7666SOL    HW234635   0.683   2.586   0.593  0.5093 -2.1659  0.5338
 7667SOL     OW34636   2.397   1.499   5.632 -0.1816 -0.4636  0.0182
 7667SOL    HW134637   2.421   1.491   5.725 -1.2729 -0.7199  0.2822
 7667SOL    HW234638   2.318   1.552   5.643  0.2724  0.3303 -0.5056
 7668SOL     OW34639   0.373   2.371   6.237  0.7415  0.3115  0.0553
 7668SOL    HW134640   0.402   2.462   6.243 -2.4337  1.4290 -2.1418
 7668SOL    HW234641   0.291   2.377   6.189  1.0389 -1.6694 -0.6933
 7669SOL     OW34642   2.215   2.597   5.997  0.2078 -0.0255 -0.6391
 7669SOL    HW134643   2.241   2.688   5.988  0.6500 -0.0169  0.7606
 7669SOL    HW234644   2.179   2.593   6.086 -2.1065 -0.3331 -1.5923
 7670SOL     OW34645   0.287   1.573   3.441 -0.6601  0.4525  0.3656
 7670SOL    HW134646   0.214   1.511   3.436 -0.0143 -0.2162 -0.8523
 7670SOL    HW234647   0.283   1.600   3.532  1.1797 -1.9210  1.1561
 7671SOL     OW34648   3.190   1.952   6.938 -0.0214 -0.1085  0.3206
 7671SOL    HW134649   3.198   1.914   7.025 -1.6093 -0.0714  0.4891
 7671SOL    HW234650   3.150   2.033   6.971  0.9623  0.7762 -0.6333
 7672SOL     OW34651   0.979   0.533   6.340  0.4186  0.2792  0.3459
 7672SOL    HW134652   1.001   0.491   6.257 -1.0218  0.9941 -0.3941
 7672SOL    HW234653   0.922   0.607   6.321 -1.6496 -1.3650  0.1264
 7673SOL     OW34654   2.340   1.989   3.681 -0.1910 -0.1761  0.2216
 7673SOL    HW134655   2.430   2.019   3.696 -0.3934  0.0516  0.9736
 7673SOL    HW234656   2.322   2.045   3.606  0.3773 -0.8086 -0.3918
 7674SOL     OW34657   1.311   2.143  17.115  0.5122 -0.3789  0.1465
 7674SOL    HW134658   1.256   2.103  17.181 -0.2399  2.0541  1.0027
 7674SOL    HW234659   1.257   2.129  17.037  0.6282  0.0589 -0.0147
 7675SOL     OW34660   1.437   1.559   5.978  0.3099  0.4413  0.2767
 7675SOL    HW134661   1.522   1.515   5.985 -0.0118 -0.2989 -0.5344
 7675SOL    HW234662   1.433   1.586   5.887 -2.2757  0.9608  0.5413
 7676SOL     OW34663   1.188   3.774   5.049  0.2193  0.0950 -0.3586
 7676SOL    HW134664   1.186   3.723   5.130 -0.9958  0.1441 -0.3520
 7676SOL    HW234665   1.130   3.718   4.998  0.0226 -0.7249  0.7664
 7677SOL     OW34666   4.611   2.685   4.647 -0.8332 -0.3120 -0.3033
 7677SOL    HW134667   4.647   2.774   4.651 -0.2982 -0.4227 -2.7524
 7677SOL    HW234668   4.646   2.660   4.561 -2.9336  0.1141 -1.2799
 7678SOL     OW34669   4.716   3.124   5.624  0.7077 -0.0634 -0.1635
 7678SOL    HW134670   4.644   3.071   5.588  2.5887 -1.9495 -1.1660
 7678SOL    HW234671   0.033   3.131   5.544  2.4771 -0.3206  0.9673
 7679SOL     OW34672   2.883   0.679  10.034 -1.3109  0.4247  0.1540
 7679SOL    HW134673   2.949   0.612  10.015 -0.4155  1.7870 -1.5438
 7679SOL    HW234674   2.850   0.674  10.124  0.2502 -2.4525  0.5700
 7680SOL     OW34675   2.808   4.573   3.498 -0.3522 -0.1555 -0.7049
 7680SOL    HW134676   2.736   4.598   3.555 -0.9147  0.7449 -1.8170
 7680SOL    HW234677   2.759   4.518   3.437 -0.9649  1.5844 -1.7444
 7681SOL     OW34678   0.412   1.802   6.485 -0.1568 -0.3679  0.1049
 7681SOL    HW134679   0.351   1.740   6.446 -0.3363 -0.9941  1.3567
 7681SOL    HW234680   0.352   1.873   6.508 -1.8706 -1.1563 -1.9867
 7682SOL     OW34681   3.413   0.583   4.930 -0.0252  0.7198 -0.5219
 7682SOL    HW134682   3.432   0.507   4.875  2.7832 -0.0294  1.4519
 7682SOL    HW234683   3.450   0.653   4.876 -1.1225 -0.3946 -2.7113
 7683SOL     OW34684   2.537   3.431  14.507 -0.2246 -0.2887 -0.2453
 7683SOL    HW134685   2.589   3.351  14.496  1.4931  0.7968 -0.1595
 7683SOL    HW234686   2.561   3.482  14.430 -3.0607 -0.2420 -1.0778
 7684SOL     OW34687   1.503   3.770   5.190  0.2728  0.7679  0.4352
 7684SOL    HW134688   1.595   3.768   5.164 -0.4253 -0.4215 -1.9421
 7684SOL    HW234689   1.465   3.768   5.103  1.7301  0.2469 -0.1878
 7685SOL     OW34690   0.005   2.056   3.792  0.1740 -0.2742  0.2295
 7685SOL    HW134691   0.090   2.014   3.803  0.5496  0.2191 -0.7998
 7685SOL    HW234692   4.732   2.074   3.698  1.1549  3.3586  0.8648
 7686SOL     OW34693   1.582   3.733  16.473  0.5011  0.1683  0.0429
 7686SOL    HW134694   1.500   3.689  16.450  0.1914  1.1391 -0.7168
 7686SOL    HW234695   1.648   3.663  16.475 -0.9306 -1.1757  0.3787
 7687SOL     OW34696   3.697   3.928   2.817 -0.2445  0.2194 -0.1043
 7687SOL    HW134697   3.652   4.011   2.807  1.0214  1.0231  0.7649
 7687SOL    HW234698   3.790   3.937   2.795  0.2753  0.3662  2.0984
 7688SOL     OW34699   2.811   3.421   3.679  0.5205 -0.0222  0.2768
 7688SOL    HW134700   2.894   3.375   3.667 -0.0380 -1.3783  1.6168
 7688SOL    HW234701   2.792   3.469   3.598 -0.3347 -3.2929 -1.4857
 7689SOL     OW34702   3.463   0.905   3.903 -0.1069 -0.6129 -0.5561
 7689SOL    HW134703   3.396   0.912   3.835 -0.5721 -0.5338 -0.0939
 7689SOL    HW234704   3.437   0.982   3.954 -0.9354 -0.4642 -1.1985
 7690SOL     OW34705   3.055   1.916  12.417  0.4063 -0.3199 -0.0865
 7690SOL    HW134706   3.039   1.822  12.426  0.4030 -0.3568 -0.4651
 7690SOL    HW234707   3.005   1.942  12.495 -0.8870  0.9574 -1.3494
 7691SOL     OW34708   1.160   2.851   6.040  0.1671 -0.0260  0.6098
 7691SOL    HW134709   1.095   2.884   5.977  1.5697 -0.9562 -1.3022
 7691SOL    HW234710   1.119   2.768   6.063  1.9011 -0.8904  0.5626
 7692SOL     OW34711   3.273   1.719   4.265  0.3175  0.6380  0.3752
 7692SOL    HW134712   3.327   1.640   4.254  0.0787  0.8880 -2.4968
 7692SOL    HW234713   3.337   1.783   4.234 -2.0367  2.9724  0.3987
 7693SOL     OW34714   2.424   0.313   6.665 -0.7823  0.4258  0.8742
 7693SOL    HW134715   2.401   0.242   6.724  2.0482 -0.0922  1.3066
 7693SOL    HW234716   2.349   0.304   6.605 -1.0363  2.2813  0.8986
 7694SOL     OW34717   0.997   4.270   6.511 -0.0008 -0.3419 -0.1603
 7694SOL    HW134718   0.928   4.308   6.566  0.6705  1.1576 -0.3753
 7694SOL    HW234719   0.968   4.179   6.521 -0.3655 -0.2562 -0.4422
 7695SOL     OW34720   2.665   3.382   3.046 -0.1788 -0.5592  0.2999
 7695SOL    HW134721   2.718   3.304   3.058 -1.6339 -1.2424  2.1273
 7695SOL    HW234722   2.727   3.431   2.992 -1.7656 -0.3263 -1.3502
 7696SOL     OW34723   0.659   4.017   3.381  0.7196 -0.2238 -0.2590
 7696SOL    HW134724   0.679   4.059   3.465 -0.4686 -0.3682  0.0983
 7696SOL    HW234725   0.565   3.996   3.388  0.4347  1.0222 -0.2644
 7697SOL     OW34726   3.816   4.632   5.851 -0.3068 -0.8847  0.2320
 7697SOL    HW134727   3.788   4.597   5.935  0.4838 -0.3131  0.7318
 7697SOL    HW234728   3.747   4.597   5.794  0.8153 -0.1766 -1.5608
 7698SOL     OW34729   2.810   0.706  15.746  0.4002  0.0195  0.4470
 7698SOL    HW134730   2.845   0.643  15.810 -0.9726 -0.5203  0.6616
 7698SOL    HW234731   2.720   0.712  15.778  0.9955 -0.7268  2.3136
 7699SOL     OW34732   3.238   4.598   7.506  0.8215 -0.4215 -0.5919
 7699SOL    HW134733   3.161   4.548   7.534  0.1650  0.9609  0.0286
 7699SOL    HW234734   3.296   4.555   7.568 -0.6782  0.9778  1.7611
 7700SOL     OW34735   2.916   3.977   4.222  0.1174 -0.1502  0.4124
 7700SOL    HW134736   2.862   3.898   4.217  0.2610 -0.1434 -1.2199
 7700SOL    HW234737   2.905   4.019   4.137 -1.6102  1.6705  1.5272
 7701SOL     OW34738   3.741   4.659   4.263 -0.0608  0.0575  0.3812
 7701SOL    HW134739   3.793   4.675   4.342 -0.7907  1.4745  0.5609
 7701SOL    HW234740   3.719   0.013   4.232  1.7608  0.2087 -0.4837
 7702SOL     OW34741   4.469   1.596   9.331  0.2366 -0.0490 -0.1235
 7702SOL    HW134742   4.549   1.629   9.292  0.8375 -0.0064  1.1488
 7702SOL    HW234743   4.397   1.613   9.270  0.6429  0.5263 -0.4411
 7703SOL     OW34744   3.828   0.149   9.715  0.3547 -0.4285 -0.3265
 7703SOL    HW134745   3.740   0.180   9.695  0.3493  0.0876  0.5274
 7703SOL    HW234746   3.863   0.237   9.729 -0.8170 -0.1231  0.6710
 7704SOL     OW34747   1.615   1.286   5.032 -0.1407  0.0101  0.4346
 7704SOL    HW134748   1.550   1.216   5.024 -0.9334  0.7958 -0.0031
 7704SOL    HW234749   1.661   1.266   5.113 -1.3427 -1.0164  0.8581
 7705SOL     OW34750   2.761   3.978   5.336  0.5545 -0.0941  0.0399
 7705SOL    HW134751   2.764   3.882   5.339 -1.0838 -0.1184  1.1646
 7705SOL    HW234752   2.675   3.995   5.375  0.0364 -1.7954 -0.3556
 7706SOL     OW34753   0.884   1.543  10.052  0.3081  0.0992 -0.0831
 7706SOL    HW134754   0.961   1.521  10.105 -0.5647  0.6957  1.4582
 7706SOL    HW234755   0.824   1.600  10.100  2.5993  2.6396 -0.2528
 7707SOL     OW34756   0.425   3.288   7.125  0.2893 -0.1000 -0.3034
 7707SOL    HW134757   0.507   3.303   7.172 -0.6838  0.4900  1.1821
 7707SOL    HW234758   0.457   3.212   7.076 -0.2504 -1.5577  1.6213
 7708SOL     OW34759   4.602   4.598   7.915 -0.4446 -0.1271  0.2587
 7708SOL    HW134760   4.533   4.585   7.850 -1.2688  0.9307  0.9161
 7708SOL    HW234761   4.620   4.692   7.921  2.7443 -0.7088 -0.1991
 7709SOL     OW34762   3.790   4.458   1.817  0.3865  0.3311  0.0285
 7709SOL    HW134763   3.716   4.397   1.811  1.0188 -0.4659  0.4065
 7709SOL    HW234764   3.755   4.523   1.877  1.6127  1.4047 -0.4089
 7710SOL     OW34765   4.511   4.121   7.276 -0.2920 -0.7029 -0.1699
 7710SOL    HW134766   4.424   4.114   7.314  0.1752  2.0693  1.3828
 7710SOL    HW234767   4.495   4.140   7.183 -0.9250 -0.8537 -0.0950
 7711SOL     OW34768   1.369   4.290   5.771 -0.7089  0.6555 -0.5354
 7711SOL    HW134769   1.357   4.383   5.792 -1.5648  0.2380  0.8316
 7711SOL    HW234770   1.461   4.282   5.798 -1.6039 -0.6632  2.1106
 7712SOL     OW34771   2.792   2.373   9.959  0.4217  0.2668 -0.0804
 7712SOL    HW134772   2.800   2.312   9.886  1.1975 -0.9344  1.0179
 7712SOL    HW234773   2.833   2.454   9.928 -0.7700  0.5107 -1.0028
 7713SOL     OW34774   0.761   3.506  13.853 -0.2492  0.0596 -0.2917
 7713SOL    HW134775   0.797   3.504  13.764  2.1205  1.8624  0.6491
 7713SOL    HW234776   0.821   3.575  13.880  1.2176 -0.9317 -1.0694
 7714SOL     OW34777   1.159   2.682   9.177 -0.0868  0.1454 -0.2749
 7714SOL    HW134778   1.110   2.763   9.166 -0.1848  0.3034  1.3717
 7714SOL    HW234779   1.247   2.710   9.151  0.7473  0.7391  3.2007
 7715SOL     OW34780   0.545   3.718  16.708  0.4161  0.0047  0.5197
 7715SOL    HW134781   0.498   3.665  16.644 -0.6485 -0.0162  1.3276
 7715SOL    HW234782   0.548   3.656  16.781 -0.4759  2.6719  2.8261
 7716SOL     OW34783   3.812   0.118   6.027  0.2745  0.0497 -0.2886
 7716SOL    HW134784   3.809   0.053   5.957  1.4933 -1.0817  0.6959
 7716SOL    HW234785   3.751   0.181   5.991 -0.6177 -0.2649  0.6712
 7717SOL     OW34786   0.568   1.351  10.944 -0.1163  0.0850  0.1612
 7717SOL    HW134787   0.564   1.351  11.039 -0.4295 -0.6026  0.1501
 7717SOL    HW234788   0.589   1.442  10.923  0.1932  0.4455  2.0857
 7718SOL     OW34789   3.446   3.371   7.194  0.0355 -0.1601 -0.1471
 7718SOL    HW134790   3.537   3.340   7.191  0.1860  0.1744  1.2714
 7718SOL    HW234791   3.407   3.307   7.134  0.6321  0.4333 -1.1806
 7719SOL     OW34792   4.508   1.479   4.032  0.1823  0.1979  0.5688
 7719SOL    HW134793   4.522   1.386   4.048  0.1346 -0.2593 -2.0773
 7719SOL    HW234794   4.584   1.483   3.973 -0.7072  0.9234 -0.5332
 7720SOL     OW34795   4.607   1.344   0.120  0.2172  0.3892  0.0089
 7720SOL    HW134796   4.612   1.275   0.186 -1.2874  1.1777  0.9714
 7720SOL    HW234797   4.620   1.302   0.035  1.1728 -0.8095  0.7466
 7721SOL     OW34798   3.219   4.694  15.678  0.4435 -0.1067 -0.5632
 7721SOL    HW134799   3.251   4.716  15.765 -0.9723  0.2741 -0.1355
 7721SOL    HW234800   3.202   0.046  15.641  4.1546  0.8023 -0.0956
 7722SOL     OW34801   0.950   1.319   7.325  0.5135 -0.5823 -0.0163
 7722SOL    HW134802   0.877   1.332   7.385 -0.9659 -1.7574 -1.5437
 7722SOL    HW234803   0.945   1.407   7.286 -2.7153 -1.6167 -1.9082
 7723SOL     OW34804   1.816   1.147   6.690 -0.7175 -0.2840 -0.1912
 7723SOL    HW134805   1.830   1.218   6.628  2.3135 -1.0380 -0.3833
 7723SOL    HW234806   1.721   1.155   6.703 -0.6157  1.0806 -0.2822
 7724SOL     OW34807   0.655   1.310   3.457  0.0847 -0.4305  0.2485
 7724SOL    HW134808   0.717   1.334   3.525 -0.4501  0.2049  0.5153
 7724SOL    HW234809   0.636   1.400   3.429  2.8253  0.1577  0.2674
 7725SOL     OW34810   0.574   3.140   4.111  0.2985  0.3325 -0.1925
 7725SOL    HW134811   0.609   3.218   4.154  1.6355 -0.3889  0.0246
 7725SOL    HW234812   0.627   3.075   4.156 -1.5852  0.4335  2.1696
 7726SOL     OW34813   0.860   0.662   8.403 -0.4120  0.0073  0.9800
 7726SOL    HW134814   0.892   0.626   8.486  2.0478  1.0197  0.4825
 7726SOL    HW234815   0.855   0.592   8.338  0.6129  1.2413 -0.4244
 7727SOL     OW34816   1.072   3.923   8.958 -0.1918  0.2261  0.0063
 7727SOL    HW134817   0.991   3.971   8.939 -0.8268 -1.3512 -1.3984
 7727SOL    HW234818   1.069   3.891   9.048 -0.1751 -0.0969 -0.1055
 7728SOL     OW34819   0.388   3.000   0.674 -0.9015 -0.9387  0.0902
 7728SOL    HW134820   0.365   3.002   0.581  0.6532 -0.1867 -0.2801
 7728SOL    HW234821   0.452   3.071   0.676 -2.2105  0.2598 -1.2715
 7729SOL     OW34822   2.851   1.494   5.477 -0.2559  0.0732 -0.1236
 7729SOL    HW134823   2.869   1.407   5.441  0.1358 -0.0942  0.4754
 7729SOL    HW234824   2.879   1.552   5.406  2.5155 -2.4774 -1.0965
 7730SOL     OW34825   0.313   0.739   4.094 -0.0356 -0.0834 -0.3613
 7730SOL    HW134826   0.297   0.646   4.113 -1.7486  0.0532 -1.1172
 7730SOL    HW234827   0.403   0.752   4.122 -0.4692  0.9395  0.5237
 7731SOL     OW34828   3.125   2.455  12.084 -0.1043 -0.5831  0.6386
 7731SOL    HW134829   3.157   2.463  11.994 -0.4902  1.3179  0.6788
 7731SOL    HW234830   3.180   2.384  12.117 -0.0687 -0.7971  0.1261
 7732SOL     OW34831   2.068   4.161  12.104 -0.2594 -0.4327  0.6603
 7732SOL    HW134832   2.094   4.133  12.017  2.0517 -0.9378  1.5163
 7732SOL    HW234833   2.128   4.235  12.114 -0.6174 -0.1320  0.5996
 7733SOL     OW34834   0.264   4.436  14.058  0.1803 -0.3770 -0.1761
 7733SOL    HW134835   0.236   4.496  13.988 -0.4136 -2.0458 -1.3501
 7733SOL    HW234836   0.299   4.361  14.012 -1.4113 -0.7384 -0.7918
 7734SOL     OW34837   3.400   1.781   5.420 -0.2225  0.1198 -0.5580
 7734SOL    HW134838   3.493   1.792   5.442 -0.3914 -1.3592  0.9738
 7734SOL    HW234839   3.373   1.872   5.419  0.6363  0.3815  0.5461
 7735SOL     OW34840   3.316   2.445   4.755  0.1357  0.2838  0.0438
 7735SOL    HW134841   3.231   2.404   4.773 -0.0763 -0.3470 -2.3427
 7735SOL    HW234842   3.292   2.523   4.706  0.3097 -0.9406 -1.9885
 7736SOL     OW34843   1.452   0.024   7.944 -0.4792  0.4092  0.6147
 7736SOL    HW134844   1.422   0.112   7.965  0.0313  0.3205  1.7036
 7736SOL    HW234845   1.542   0.021   7.978 -0.0918 -0.2510 -0.4644
 7737SOL     OW34846   4.469   0.306   3.745 -0.6163  0.3715  0.2688
 7737SOL    HW134847   4.411   0.243   3.787 -0.1616  0.4883  1.0721
 7737SOL    HW234848   4.551   0.261   3.764 -0.0826  0.4928 -1.7692
 7738SOL     OW34849   2.911   3.278   6.740 -0.4485  0.0620  0.5392
 7738SOL    HW134850   2.872   3.360   6.770  1.2940  0.9374  0.4119
 7738SOL    HW234851   2.929   3.226   6.818  0.0934 -0.8092 -0.1679
 7739SOL     OW34852   0.372   2.619   6.399 -0.1152 -0.0257  0.0276
 7739SOL    HW134853   0.288   2.583   6.373 -0.1714  0.2630 -0.1936
 7739SOL    HW234854   0.358   2.629   6.493  3.6776 -2.5311  0.8558
 7740SOL     OW34855   1.765   0.608   7.381 -0.2615 -0.0174 -0.7128
 7740SOL    HW134856   1.698   0.676   7.393 -1.1447 -0.9268 -0.5056
 7740SOL    HW234857   1.705   0.535   7.365  2.0624 -2.5787  2.4460
 7741SOL     OW34858   2.751   0.087   2.862  0.0248 -0.3074 -0.1166
 7741SOL    HW134859   2.680   0.097   2.799 -1.4011  1.3680  1.7154
 7741SOL    HW234860   2.802   0.017   2.821  1.2903  0.0887  0.7559
 7742SOL     OW34861   2.199   1.725  11.237  0.4392 -0.0413 -0.2983
 7742SOL    HW134862   2.154   1.698  11.317  0.7210 -0.5859 -0.3249
 7742SOL    HW234863   2.176   1.818  11.232  0.6010 -0.0569 -1.5054
 7743SOL     OW34864   3.950   0.533   8.731  0.3506 -0.3321 -0.2896
 7743SOL    HW134865   3.935   0.537   8.826  0.7915  0.1980 -0.2454
 7743SOL    HW234866   4.025   0.474   8.727  0.7154  0.2172 -1.4122
 7744SOL     OW34867   0.213   0.208   5.628  0.1088 -0.1051  0.5309
 7744SOL    HW134868   0.169   0.160   5.558  1.3507 -1.5451  0.7531
 7744SOL    HW234869   0.277   0.144   5.660 -0.5379 -0.0907  1.8645
 7745SOL     OW34870   2.094   2.796   7.903 -0.6666 -0.1694  0.1284
 7745SOL    HW134871   2.130   2.722   7.953 -1.4300 -0.6102  0.0247
 7745SOL    HW234872   2.027   2.747   7.856 -0.9077 -0.0120  0.3078
 7746SOL     OW34873   1.911   4.561   8.551 -0.8037 -0.3483 -0.4263
 7746SOL    HW134874   1.982   4.558   8.615 -2.3334  0.1598  1.2901
 7746SOL    HW234875   1.947   4.505   8.481  3.6469 -0.0420  1.6542
 7747SOL     OW34876   2.181   3.886  12.749  0.3021  0.2524  0.2943
 7747SOL    HW134877   2.159   3.975  12.778  0.4035  0.2177  0.4795
 7747SOL    HW234878   2.264   3.899  12.702 -0.8788 -2.1837 -2.4154
 7748SOL     OW34879   3.552   0.283  11.535  0.1337 -0.1858 -0.3042
 7748SOL    HW134880   3.559   0.369  11.494  1.7225 -0.4444 -0.5758
 7748SOL    HW234881   3.635   0.267  11.580 -0.1852  0.2005  0.4134
 7749SOL     OW34882   2.657   4.023   3.171  0.6825  0.4392 -0.1399
 7749SOL    HW134883   2.709   4.102   3.188 -0.3446  1.2624 -0.7865
 7749SOL    HW234884   2.600   4.048   3.098  0.4511  1.5606  0.4183
 7750SOL     OW34885   0.261   1.938   7.534 -0.2086  0.4737  0.4939
 7750SOL    HW134886   0.304   2.009   7.582 -1.8912  2.4009 -0.8225
 7750SOL    HW234887   0.341   1.892   7.511 -0.1076  0.5112  0.7696
 7751SOL     OW34888   4.415   4.592   3.227 -0.5713 -0.0555 -0.2703
 7751SOL    HW134889   4.448   4.532   3.295  0.3775  2.4675  1.4839
 7751SOL    HW234890   4.331   4.554   3.201 -0.8499  1.3420 -1.3689
 7752SOL     OW34891   0.446   4.049  12.828  0.6902 -0.0764 -0.3986
 7752SOL    HW134892   0.514   4.112  12.807  0.7259  0.5448  1.5805
 7752SOL    HW234893   0.496   3.986  12.880  0.6232  0.8541  0.7904
 7753SOL     OW34894   4.410   2.698   4.357 -0.6528 -0.2405  0.2051
 7753SOL    HW134895   4.505   2.683   4.361 -0.4166  0.7126 -1.8289
 7753SOL    HW234896   4.389   2.699   4.451  0.4558 -1.4372  0.4759
 7754SOL     OW34897   0.089   2.490  13.543  0.1562 -0.3123  0.0554
 7754SOL    HW134898   0.044   2.562  13.500 -2.6834 -1.5278  0.9778
 7754SOL    HW234899   0.151   2.527  13.606  0.0122 -1.8912  1.1543
 7755SOL     OW34900   1.870   4.540   6.363 -0.0205 -0.3156 -0.4001
 7755SOL    HW134901   1.921   4.614   6.329 -0.7938 -0.9620 -2.9579
 7755SOL    HW234902   1.936   4.471   6.359 -0.4441 -0.7458 -0.0158
 7756SOL     OW34903   3.936   0.036   8.248 -0.0019 -0.0926  0.5269
 7756SOL    HW134904   4.019   0.064   8.210 -0.9440 -0.0511 -1.4766
 7756SOL    HW234905   3.916   0.109   8.307  0.9421 -0.3404  1.1641
 7757SOL     OW34906   3.433   2.363  16.604  0.8890 -0.4638  0.1218
 7757SOL    HW134907   3.488   2.289  16.628  1.0669 -0.8412 -1.4197
 7757SOL    HW234908   3.366   2.329  16.545  0.1096  1.4420 -0.0943
 7758SOL     OW34909   4.455   2.046   5.265 -0.1578 -0.3530 -0.1992
 7758SOL    HW134910   4.412   2.033   5.181 -0.5811 -0.8350  0.0903
 7758SOL    HW234911   4.389   2.101   5.308  3.0354  3.7086 -0.5281
 7759SOL     OW34912   4.103   3.767  12.978  0.2693 -0.0013  0.2957
 7759SOL    HW134913   4.071   3.824  13.048  0.8803  1.5545 -0.6997
 7759SOL    HW234914   4.107   3.689  13.032 -2.4626 -0.2192  0.1687
 7760SOL     OW34915   1.629   2.420   8.065  0.5546 -0.5255  0.0814
 7760SOL    HW134916   1.566   2.349   8.060  0.4584 -0.3342 -1.2721
 7760SOL    HW234917   1.679   2.401   8.145  1.3456 -0.5751 -0.4288
 7761SOL     OW34918   4.629   2.819   6.489 -0.1474  0.2736 -0.4484
 7761SOL    HW134919   4.592   2.731   6.488  0.1696  0.1667 -2.8579
 7761SOL    HW234920   4.721   2.804   6.508 -0.1724  2.3876  1.3440
 7762SOL     OW34921   3.995   1.968   2.674 -0.3585 -0.1074  1.1990
 7762SOL    HW134922   3.925   1.992   2.735 -0.0790 -1.8927  2.2394
 7762SOL    HW234923   3.963   1.881   2.649 -0.8091 -0.5790  3.3560
 7763SOL     OW34924   3.500   3.793   4.791 -0.4132  0.1812 -0.0206
 7763SOL    HW134925   3.510   3.724   4.726 -0.6990 -0.2112  0.3552
 7763SOL    HW234926   3.408   3.819   4.788 -0.4462 -0.1283 -1.4329
 7764SOL     OW34927   3.656   2.209   7.971 -0.8428  0.1213 -0.2552
 7764SOL    HW134928   3.731   2.255   8.008 -0.0429  0.5851 -2.4467
 7764SOL    HW234929   3.598   2.282   7.950  0.7004  2.0378  2.1249
 7765SOL     OW34930   4.712   3.104  13.975  0.1980 -0.4383  0.4434
 7765SOL    HW134931   4.705   3.192  13.939 -1.2615 -1.1383 -0.9807
 7765SOL    HW234932   4.618   3.092  13.986 -0.1572  3.3165  1.1888
 7766SOL     OW34933   1.854   3.979  11.195  0.3676  0.8833 -0.1393
 7766SOL    HW134934   1.772   3.937  11.168  0.1532  1.8449 -0.9612
 7766SOL    HW234935   1.825   4.032  11.269 -3.9558 -1.4340 -0.1467
 7767SOL     OW34936   1.854   0.993   2.134  0.2374 -0.0155  0.3120
 7767SOL    HW134937   1.789   0.948   2.080  0.5820  0.8095 -0.7820
 7767SOL    HW234938   1.831   1.085   2.126  3.9790  0.7398 -1.4565
 7768SOL     OW34939   1.175   3.433   5.774  0.6067 -0.4844 -0.2495
 7768SOL    HW134940   1.204   3.476   5.854 -1.6522  0.2854  0.1673
 7768SOL    HW234941   1.100   3.492   5.761  0.8221 -0.3000 -0.6294
 7769SOL     OW34942   0.991   2.394  17.262  0.1462 -0.7491  0.0587
 7769SOL    HW134943   1.002   2.364  17.171  1.0799 -1.0859  0.2868
 7769SOL    HW234944   0.902   2.427  17.250  0.3586  0.5135  2.0659
 7770SOL     OW34945   0.192   3.750   5.845 -0.2629  0.0370 -0.1038
 7770SOL    HW134946   0.274   3.789   5.814 -0.7424 -0.1129 -1.5230
 7770SOL    HW234947   0.148   3.830   5.873  1.4413  0.5759  1.0950
 7771SOL     OW34948   3.988   0.013  11.514  0.3550  0.4084 -0.0288
 7771SOL    HW134949   4.020   4.693  11.442  1.0787 -0.8671  1.2550
 7771SOL    HW234950   4.074   0.046  11.540 -1.0368  0.9507  3.8975
 7772SOL     OW34951   1.131   3.711   7.507 -0.1855 -0.5336 -0.0292
 7772SOL    HW134952   1.193   3.701   7.579  2.1409 -1.3312 -2.1308
 7772SOL    HW234953   1.048   3.677   7.541 -0.2486  1.2955  1.6451
 7773SOL     OW34954   0.123   2.378   9.486  0.0411  0.1181  0.2097
 7773SOL    HW134955   0.204   2.329   9.473 -0.9811 -0.9228 -2.3108
 7773SOL    HW234956   0.165   2.463   9.472 -1.8414  0.6643 -2.1313
 7774SOL     OW34957   0.565   4.659   2.532 -0.2674 -0.6380  0.1851
 7774SOL    HW134958   0.575   4.663   2.437  0.2428 -1.0727  0.2221
 7774SOL    HW234959   0.656   4.648   2.561  1.1283  1.3438 -3.4031
 7775SOL     OW34960   0.171   4.213   8.570  0.1921 -0.1887  0.8160
 7775SOL    HW134961   0.177   4.125   8.607  0.3865 -0.8301 -0.7538
 7775SOL    HW234962   0.196   4.272   8.642 -1.0830  1.4588 -0.1086
 7776SOL     OW34963   1.302   1.136  14.689 -0.2541  0.1359 -0.0119
 7776SOL    HW134964   1.379   1.097  14.731  0.2559  1.6757  0.5044
 7776SOL    HW234965   1.227   1.087  14.720 -1.1002  0.0517 -2.1576
 7777SOL     OW34966   2.504   0.123  13.985 -0.1146 -0.0114  0.2265
 7777SOL    HW134967   2.535   0.075  14.063  0.1282 -2.2908 -1.2706
 7777SOL    HW234968   2.587   0.170  13.977 -0.9407  1.6278  1.2599
 7778SOL     OW34969   0.626   2.945  12.628  0.3114 -0.1415  0.1457
 7778SOL    HW134970   0.698   2.903  12.676 -1.1249  0.3565  2.7141
 7778SOL    HW234971   0.610   2.878  12.561  0.2472 -1.6413  1.6436
 7779SOL     OW34972   4.104   0.000  10.798 -0.7204  0.7471 -0.1329
 7779SOL    HW134973   4.016   0.033  10.814 -0.5920 -0.2649  2.5613
 7779SOL    HW234974   4.122   0.027  10.708 -1.5890  1.2095 -0.1673
 7780SOL     OW34975   3.472   2.402   7.899 -0.1504  0.2833  0.1038
 7780SOL    HW134976   3.500   2.438   7.984 -1.8794 -2.6113  1.8871
 7780SOL    HW234977   3.480   2.481   7.846  0.2299  1.1963  1.5127
 7781SOL     OW34978   3.304   2.031  12.266  0.7677 -0.1567  0.3238
 7781SOL    HW134979   3.215   2.015  12.296  0.6214  2.3066  1.1819
 7781SOL    HW234980   3.320   2.123  12.288  2.9640 -0.3723 -0.4134
 7782SOL     OW34981   4.693   2.344   4.473  0.2240  0.2026  0.4139
 7782SOL    HW134982   4.683   2.297   4.390 -1.2517 -0.2650  0.8543
 7782SOL    HW234983   4.696   2.264   4.526  0.5443 -1.8751 -2.7373
 7783SOL     OW34984   0.246   0.538  16.900 -0.3238  0.2785 -0.6912
 7783SOL    HW134985   0.231   0.541  16.806  4.3222  0.0062 -1.4011
 7783SOL    HW234986   0.178   0.476  16.926 -0.1350  1.4975  2.6884
 7784SOL     OW34987   4.067   3.029   7.579 -0.0697 -0.0465  0.1202
 7784SOL    HW134988   4.128   3.102   7.575  0.2624 -0.2403  1.9503
 7784SOL    HW234989   4.002   3.061   7.641  0.0458  2.1911 -0.8895
 7785SOL     OW34990   0.770   0.637   6.561 -0.3057  0.9998  0.4611
 7785SOL    HW134991   0.788   0.543   6.559 -0.1047  1.0644 -0.6846
 7785SOL    HW234992   0.848   0.671   6.605 -0.0321 -0.3453  1.0119
 7786SOL     OW34993   3.804   3.654   4.524  0.2900  0.3388 -0.2475
 7786SOL    HW134994   3.778   3.740   4.492  0.5022  0.5447  0.1318
 7786SOL    HW234995   3.861   3.669   4.600  1.8046 -2.9445 -0.7130
 7787SOL     OW34996   0.315   0.673   6.777  0.5864 -1.0841  0.3153
 7787SOL    HW134997   0.390   0.652   6.721  0.4411  1.1787 -0.7132
 7787SOL    HW234998   0.256   0.602   6.752 -1.0398 -0.3799  2.1581
 7788SOL     OW34999   2.605   0.587  11.792 -0.7136  0.4330 -0.9302
 7788SOL    HW135000   2.601   0.498  11.827  0.6017  0.9232  0.4395
 7788SOL    HW235001   2.522   0.632  11.809 -0.8195  0.8804 -2.6099
 7789SOL     OW35002   1.630   1.238  13.954  0.0517 -0.4985  0.1147
 7789SOL    HW135003   1.555   1.184  13.927  0.1427 -1.6373  2.1537
 7789SOL    HW235004   1.682   1.240  13.873 -2.1679  0.9814 -1.2422
 7790SOL     OW35005   2.102   0.286  10.383  0.1211 -0.3194 -0.0563
 7790SOL    HW135006   2.141   0.301  10.297 -0.3396  0.7930 -0.0722
 7790SOL    HW235007   2.012   0.262  10.359 -0.1512 -0.1311  0.7534
 7791SOL     OW35008   3.714   0.558  12.321  0.2470  0.2309  0.4858
 7791SOL    HW135009   3.691   0.649  12.304  0.8391  0.4530  0.8621
 7791SOL    HW235010   3.767   0.569  12.400  1.7418 -0.9097 -0.3458
 7792SOL     OW35011   2.288   1.127   2.375 -0.3439 -0.2153 -0.0332
 7792SOL    HW135012   2.312   1.038   2.399 -0.6526 -0.4536 -0.6009
 7792SOL    HW235013   2.204   1.146   2.416 -0.7176 -1.3083 -0.2927
 7793SOL     OW35014   3.634   4.601   0.976 -0.1142  0.2580 -0.0149
 7793SOL    HW135015   3.612   4.578   1.066 -0.4681  1.4033  0.1916
 7793SOL    HW235016   3.727   4.578   0.976 -0.3101 -0.5501 -0.7722
 7794SOL     OW35017   4.093   3.670   0.631  0.1801 -0.0867  0.2055
 7794SOL    HW135018   4.180   3.679   0.667 -0.9333 -0.3201  2.9128
 7794SOL    HW235019   4.080   3.576   0.634  0.2595 -0.1103 -0.1762
 7795SOL     OW35020   0.914   1.382   7.850 -0.0249 -0.3875 -0.1650
 7795SOL    HW135021   0.866   1.460   7.823 -1.8710 -1.4390  0.1188
 7795SOL    HW235022   1.002   1.420   7.842 -0.3204  0.5759  1.0313
 7796SOL     OW35023   3.538   4.391   3.082  0.3069 -0.2836 -0.2130
 7796SOL    HW135024   3.531   4.362   2.991  0.7016  0.1924 -0.3921
 7796SOL    HW235025   3.462   4.342   3.115 -0.2134 -0.3261 -1.4892
 7797SOL     OW35026   3.909   0.803   8.164  0.3417 -0.5139 -0.2246
 7797SOL    HW135027   3.927   0.753   8.084 -0.9372  1.2458 -1.6109
 7797SOL    HW235028   3.829   0.850   8.139  0.3287  0.3882  1.5859
 7798SOL     OW35029   4.630   0.163   4.316 -0.0027 -0.1877 -0.2083
 7798SOL    HW135030   4.652   0.074   4.287  0.2718 -0.3163  0.3987
 7798SOL    HW235031   4.551   0.176   4.264  1.9054  1.6969 -2.6338
 7799SOL     OW35032   0.867   4.319   7.463  0.1301 -0.6986  0.1336
 7799SOL    HW135033   0.793   4.376   7.486  1.8708  1.1857  1.1528
 7799SOL    HW235034   0.917   4.385   7.414 -0.1903 -0.2907  0.3547
 7800SOL     OW35035   0.342   1.093   6.991 -0.1876  0.1610 -0.3355
 7800SOL    HW135036   0.301   1.027   6.935  1.3385 -1.5054  0.5260
 7800SOL    HW235037   0.370   1.163   6.932  1.8218 -0.8559 -0.5637
 7801SOL     OW35038   3.241   1.477   7.947  0.4537 -0.1640  0.2973
 7801SOL    HW135039   3.193   1.409   7.995  0.3021 -0.8358 -0.8235
 7801SOL    HW235040   3.254   1.543   8.015  2.4408  1.1367 -1.3552
 7802SOL     OW35041   4.210   4.629   8.602 -0.0878  0.4083  0.0326
 7802SOL    HW135042   4.263   4.587   8.534  0.3641 -0.3044  0.8309
 7802SOL    HW235043   4.273   4.629   8.674 -1.1956  1.0676  1.0019
 7803SOL     OW35044   3.847   2.248  13.986  0.0297 -0.0278 -0.0884
 7803SOL    HW135045   3.777   2.298  13.945 -0.2715 -0.6071 -0.2685
 7803SOL    HW235046   3.892   2.204  13.914  0.3585 -1.5796  1.0625
 7804SOL     OW35047   0.118   1.988  11.375 -0.5882 -0.0110  0.0680
 7804SOL    HW135048   0.139   2.058  11.436  0.6667 -0.6894  0.4096
 7804SOL    HW235049   0.044   1.954  11.427  0.0450 -0.6628  0.5526
 7805SOL     OW35050   2.890   0.363   9.937 -0.1998  0.1225  0.2400
 7805SOL    HW135051   2.855   0.396  10.020 -0.3903  1.5339 -0.3977
 7805SOL    HW235052   2.858   0.274   9.926 -0.3425  0.1955  0.0647
 7806SOL     OW35053   1.434   4.519   7.147  0.4606 -0.0389 -0.2500
 7806SOL    HW135054   1.502   4.503   7.213  1.5865  1.7422 -0.9668
 7806SOL    HW235055   1.361   4.473   7.188  0.8149 -1.7747 -1.6104
 7807SOL     OW35056   0.688   2.074   6.691  0.2758 -0.3039 -0.8229
 7807SOL    HW135057   0.736   2.011   6.745  1.1273 -0.1810 -1.4460
 7807SOL    HW235058   0.600   2.037   6.689  0.2554 -0.3798  0.9911
 7808SOL     OW35059   0.316   3.501   5.401  0.3782  0.0077 -0.2810
 7808SOL    HW135060   0.336   3.455   5.483  1.2660 -1.6868 -1.4470
 7808SOL    HW235061   0.326   3.595   5.416  0.6550 -0.1219  0.3730
 7809SOL     OW35062   2.769   3.878   5.048 -0.0758 -0.0280  0.6248
 7809SOL    HW135063   2.841   3.839   5.098  0.9088  0.5591 -0.3500
 7809SOL    HW235064   2.817   3.959   5.031 -0.5599  0.3572  1.0777
 7810SOL     OW35065   3.079   0.963   5.117  0.4085 -0.0421  0.1323
 7810SOL    HW135066   3.157   0.913   5.142  0.9264  1.8731  2.2667
 7810SOL    HW235067   3.019   0.908   5.167  2.4489 -3.0237 -0.6951
 7811SOL     OW35068   2.422   1.935   8.382  0.0163  0.0832 -1.0136
 7811SOL    HW135069   2.516   1.921   8.390  0.0326  0.2800 -0.8569
 7811SOL    HW235070   2.418   2.001   8.312 -0.0958  1.0176 -0.1311
 7812SOL     OW35071   3.951   1.317   4.706  0.2092  0.1496 -0.2065
 7812SOL    HW135072   3.975   1.365   4.785  1.9767 -0.7195 -0.2329
 7812SOL    HW235073   4.036   1.291   4.672 -0.8328 -1.4898 -1.5206
 7813SOL     OW35074   4.060   1.180   2.998 -0.0652 -0.0278 -0.1658
 7813SOL    HW135075   4.121   1.107   2.990 -0.8682 -0.8315  0.9959
 7813SOL    HW235076   4.004   1.142   3.066 -1.3535  2.3054  0.0566
 7814SOL     OW35077   0.892   0.988   2.461  0.0533  0.0121 -0.3778
 7814SOL    HW135078   0.809   1.026   2.432 -0.2272  2.1218  3.1911
 7814SOL    HW235079   0.869   0.987   2.554 -0.5011 -1.5129 -0.5327
 7815SOL     OW35080   0.204   4.359   2.899  0.2178 -0.4011  0.2049
 7815SOL    HW135081   0.231   4.306   2.974 -0.4050 -2.5032 -1.0603
 7815SOL    HW235082   0.203   4.447   2.936 -1.2089 -1.4287  2.5930
 7816SOL     OW35083   3.916   2.951   4.939  0.4574 -0.9743  0.6062
 7816SOL    HW135084   3.911   2.966   4.845 -2.2571 -0.7235  0.7986
 7816SOL    HW235085   3.940   3.035   4.979 -0.5573  0.0430 -0.9342
 7817SOL     OW35086   3.897   1.673   2.029 -0.6717  0.7226  0.0097
 7817SOL    HW135087   3.840   1.744   2.058  0.6031  0.6659  2.6298
 7817SOL    HW235088   3.900   1.698   1.937 -2.1139 -2.9647 -1.0553
 7818SOL     OW35089   3.931   3.996   6.278  0.0303  0.9738  0.1125
 7818SOL    HW135090   3.998   3.987   6.346 -0.4514  3.2266  0.8757
 7818SOL    HW235091   3.912   3.902   6.270 -0.2646  0.9795  0.7316
 7819SOL     OW35092   0.319   3.232   0.418 -0.3209  0.2200 -0.3395
 7819SOL    HW135093   0.234   3.230   0.373 -1.4945 -0.0791  1.9187
 7819SOL    HW235094   0.381   3.224   0.345 -0.3673 -2.0115 -0.1190
 7820SOL     OW35095   2.180   0.238  12.822  0.2547  0.3194 -0.3370
 7820SOL    HW135096   2.228   0.234  12.905  1.1953 -1.3729 -0.9548
 7820SOL    HW235097   2.228   0.166  12.781 -2.0137 -1.7225  0.5274
 7821SOL     OW35098   3.983   4.062   7.311 -0.0389 -0.2274  0.0729
 7821SOL    HW135099   3.919   4.080   7.242 -0.4616 -0.8314  0.3113
 7821SOL    HW235100   3.930   4.034   7.386 -0.6700 -0.4604 -0.4552
 7822SOL     OW35101   3.084   3.123   0.638  0.2385 -0.5506 -1.0393
 7822SOL    HW135102   3.070   3.076   0.556 -1.1660 -0.8030 -0.6515
 7822SOL    HW235103   3.075   3.056   0.706 -2.5350  0.2940 -0.5790
 7823SOL     OW35104   2.924   3.572   4.444 -0.5979  0.3377  0.1314
 7823SOL    HW135105   2.930   3.513   4.368 -0.3294 -0.0313  0.4372
 7823SOL    HW235106   2.943   3.511   4.516  0.3542  0.5158  0.0349
 7824SOL     OW35107   0.962   1.445  16.474 -0.3878 -0.1188 -0.0058
 7824SOL    HW135108   1.045   1.399  16.468 -0.4435 -0.1378 -0.6219
 7824SOL    HW235109   0.944   1.448  16.568  2.2586  2.0323  0.4292
 7825SOL     OW35110   3.683   0.474   6.624 -0.5820  1.1728  0.7133
 7825SOL    HW135111   3.660   0.499   6.534 -0.4228 -1.5020 -0.0609
 7825SOL    HW235112   3.774   0.503   6.623  0.0859 -1.0439 -0.9295
 7826SOL     OW35113   1.984   1.856   4.529  0.2061  0.1359  0.0884
 7826SOL    HW135114   1.956   1.843   4.619  0.4711 -1.5198 -0.0592
 7826SOL    HW235115   1.963   1.767   4.500  2.2919 -0.1603 -0.4861
 7827SOL     OW35116   1.733   2.073   2.109  0.3690 -0.5224  1.1487
 7827SOL    HW135117   1.814   2.122   2.115 -0.8476  1.7353 -0.7473
 7827SOL    HW235118   1.754   2.030   2.025 -0.9268 -1.9942  1.5592
 7828SOL     OW35119   2.934   1.102  14.910 -0.2731 -0.2690  0.3612
 7828SOL    HW135120   2.935   1.147  14.826 -0.3191  0.8909  0.9871
 7828SOL    HW235121   2.878   1.161  14.961  0.1603  0.6227 -0.2092
 7829SOL     OW35122   2.913   1.595   8.800 -0.0121  0.9111 -0.3952
 7829SOL    HW135123   2.917   1.664   8.734  0.3646  0.7889 -0.5034
 7829SOL    HW235124   2.858   1.642   8.862  0.1435 -0.6627  0.9473
 7830SOL     OW35125   3.983   1.065  15.437  0.8057  0.9593 -0.0959
 7830SOL    HW135126   3.967   1.158  15.450 -2.1015  0.6265 -1.3075
 7830SOL    HW235127   3.967   1.032  15.525  1.6813  0.8830  0.0291
 7831SOL     OW35128   1.901   1.418  16.933 -0.2780  0.2861  0.2245
 7831SOL    HW135129   1.916   1.392  17.024 -0.7274  0.2383  0.2836
 7831SOL    HW235130   1.929   1.342  16.881  1.2383  0.0422  1.3906
 7832SOL     OW35131   3.657   0.135  16.418 -0.0268  0.7107  0.4010
 7832SOL    HW135132   3.609   0.217  16.405  0.9705  1.3712  0.7714
 7832SOL    HW235133   3.630   0.092  16.500  1.7936 -2.3968 -0.6467
 7833SOL     OW35134   0.081   1.596  12.761  0.3315 -0.0400 -0.4121
 7833SOL    HW135135   0.145   1.665  12.778  0.1878 -0.3090  1.1889
 7833SOL    HW235136   0.135   1.521  12.784  0.0151 -0.2853 -0.4666
 7834SOL     OW35137   2.135   3.988   3.418  0.9643 -0.3091  0.5210
 7834SOL    HW135138   2.226   3.958   3.409  1.1367  0.0100  1.2491
 7834SOL    HW235139   2.085   3.909   3.440  0.9567 -0.8292 -1.2991
 7835SOL     OW35140   0.975   1.581   8.432 -0.6360 -0.2478  0.0025
 7835SOL    HW135141   1.045   1.622   8.481  1.2307 -1.6404 -1.5142
 7835SOL    HW235142   1.028   1.536   8.366  0.7119  1.2479  0.0712
 7836SOL     OW35143   3.804   1.607   6.160  0.2246 -0.3959  0.2343
 7836SOL    HW135144   3.759   1.626   6.243 -2.7729 -0.6593 -1.3503
 7836SOL    HW235145   3.727   1.608   6.105 -0.3255 -1.8029  0.9859
 7837SOL     OW35146   1.886   4.111   1.500 -0.5501  0.6520  0.0125
 7837SOL    HW135147   1.930   4.105   1.585  1.5903 -1.2474 -1.2216
 7837SOL    HW235148   1.802   4.073   1.527 -0.9177  1.6868  0.3024
 7838SOL     OW35149   1.448   1.318   8.040 -0.5693 -0.4768 -0.3950
 7838SOL    HW135150   1.433   1.288   7.951 -0.3957 -1.8720  0.0423
 7838SOL    HW235151   1.452   1.234   8.087 -2.4747  0.9212  2.2315
 7839SOL     OW35152   4.062   0.461   9.197  0.2353  0.4415 -0.1749
 7839SOL    HW135153   4.081   0.384   9.250 -0.0984  0.4985  0.0282
 7839SOL    HW235154   4.027   0.517   9.267 -0.0824 -0.3631  0.3128
 7840SOL     OW35155   4.207   3.910  11.977  0.1654 -0.1481  0.0687
 7840SOL    HW135156   4.279   3.849  11.963  0.8549  0.4774  0.8936
 7840SOL    HW235157   4.129   3.862  11.949  2.2854 -2.3439 -2.0596
 7841SOL     OW35158   3.489   4.629   8.810 -0.4213 -0.0014  0.2653
 7841SOL    HW135159   3.466   4.712   8.769 -0.1304  0.1905  0.4839
 7841SOL    HW235160   3.583   4.628   8.793 -0.1876  0.2483  1.5209
 7842SOL     OW35161   4.072   4.444  12.618 -0.0721 -0.8115 -0.4114
 7842SOL    HW135162   4.018   4.366  12.608 -2.5300  0.6414  1.1117
 7842SOL    HW235163   4.110   4.424  12.703 -0.6144  2.6216  0.6684
 7843SOL     OW35164   1.949   3.774   3.489  1.0635 -0.3904 -0.1246
 7843SOL    HW135165   1.902   3.854   3.465 -0.4428 -0.3341  3.0852
 7843SOL    HW235166   1.895   3.745   3.563 -2.7948  2.8666 -1.6584
 7844SOL     OW35167   1.503   0.041   8.750  0.5311 -0.8084  0.4712
 7844SOL    HW135168   1.583   4.727   8.730  0.2826 -0.9713 -0.1678
 7844SOL    HW235169   1.478   4.728   8.829  1.1992 -0.0984  1.1022
 7845SOL     OW35170   0.321   4.617   2.965 -0.0260 -0.2163  0.1606
 7845SOL    HW135171   0.355   4.610   3.055 -2.7443 -2.3229  1.0127
 7845SOL    HW235172   0.392   4.581   2.913  0.7040  1.3175  0.0771
 7846SOL     OW35173   0.762   4.312   4.737  0.4561 -0.3246 -0.0774
 7846SOL    HW135174   0.797   4.248   4.799  3.0984 -1.0070 -2.2695
 7846SOL    HW235175   0.771   4.394   4.786  0.6151 -1.9288  2.6195
 7847SOL     OW35176   3.499   1.559   4.196 -0.4845 -0.4886  0.0018
 7847SOL    HW135177   3.521   1.548   4.104  0.4379 -3.3614  0.5671
 7847SOL    HW235178   3.544   1.484   4.235 -0.0871  0.0249  0.5490
 7848SOL     OW35179   1.421   1.015   3.666 -0.5007 -0.0462  0.5338
 7848SOL    HW135180   1.344   1.027   3.610 -0.9354 -0.8522  0.9620
 7848SOL    HW235181   1.388   0.968   3.742  3.1196  0.6109  2.5215
 7849SOL     OW35182   0.894   1.508  16.735 -0.3039 -0.0430  0.6234
 7849SOL    HW135183   0.868   1.502  16.827 -1.5083 -0.6536  0.2416
 7849SOL    HW235184   0.837   1.578  16.704  0.9668  0.0960 -1.4645
 7850SOL     OW35185   0.278   2.800   1.855 -0.4545  0.7208  0.0775
 7850SOL    HW135186   0.282   2.783   1.949 -2.6872  1.5356  0.3262
 7850SOL    HW235187   0.360   2.759   1.830  1.3116  1.8195  4.1304
 7851SOL     OW35188   3.819   2.188   4.592 -0.4034  0.0612 -0.5380
 7851SOL    HW135189   3.855   2.262   4.543  2.0156 -1.1740 -0.5957
 7851SOL    HW235190   3.902   2.149   4.621 -0.3112  1.5101  1.1668
 7852SOL     OW35191   4.551   4.387  12.413  0.1833  0.3746  0.2273
 7852SOL    HW135192   4.502   4.348  12.341  0.6971 -0.3554  0.2753
 7852SOL    HW235193   4.484   4.447  12.447 -1.0471 -0.0018 -1.4966
 7853SOL     OW35194   0.082   0.803  12.921 -0.3161 -0.3707  0.0372
 7853SOL    HW135195   0.078   0.744  12.997 -0.7110  0.8613  0.9733
 7853SOL    HW235196   0.172   0.778  12.903 -0.1290  0.1940  0.1899
 7854SOL     OW35197   3.974   0.398  10.160  0.3020 -0.2237  0.2152
 7854SOL    HW135198   3.926   0.445  10.229 -0.9819 -1.3133  0.0526
 7854SOL    HW235199   4.036   0.358  10.221  0.3601  0.3927  0.5589
 7855SOL     OW35200   1.759   1.568   4.066 -0.3453 -0.5978 -0.5535
 7855SOL    HW135201   1.752   1.627   3.990 -0.0181 -1.1284 -1.0005
 7855SOL    HW235202   1.730   1.629   4.134  0.4540  0.2544 -0.9768
 7856SOL     OW35203   2.785   4.528   5.202 -0.1890 -0.0660  0.4882
 7856SOL    HW135204   2.803   4.434   5.209 -0.9603 -0.1716  1.0753
 7856SOL    HW235205   2.778   4.548   5.295  1.0647  2.9039 -0.0672
 7857SOL     OW35206   0.418   3.728   7.692  0.6734 -0.0098 -0.0141
 7857SOL    HW135207   0.399   3.821   7.684  1.0870 -0.1427 -2.5054
 7857SOL    HW235208   0.503   3.729   7.737  0.7576  1.7172 -0.2029
 7858SOL     OW35209   3.863   3.284   5.028  0.4080 -0.0428 -0.0520
 7858SOL    HW135210   3.798   3.355   5.027  1.8320  1.2226 -3.5940
 7858SOL    HW235211   3.805   3.209   5.014  1.1092 -0.7468  0.8259
 7859SOL     OW35212   3.781   2.440   5.126  0.3202  0.0974  0.1341
 7859SOL    HW135213   3.742   2.519   5.164 -0.1913  0.3123 -0.8438
 7859SOL    HW235214   3.807   2.472   5.040  3.4009 -2.0510  0.2820
 7860SOL     OW35215   0.804   4.069   4.979 -0.0522  0.1867 -0.1244
 7860SOL    HW135216   0.801   3.982   4.939 -0.7416  0.7200 -1.2360
 7860SOL    HW235217   0.878   4.099   4.926 -1.0051  0.3653 -1.3495
 7861SOL     OW35218   0.130   2.146   4.734  0.0707  0.2740 -0.2167
 7861SOL    HW135219   0.061   2.100   4.782 -0.1656  1.9908  1.0787
 7861SOL    HW235220   0.195   2.076   4.746  1.3011  0.9707 -2.8704
 7862SOL     OW35221   3.904   0.556  16.177 -0.0449 -0.4733 -0.0333
 7862SOL    HW135222   3.970   0.532  16.112 -1.4266  0.0776 -1.6421
 7862SOL    HW235223   3.866   0.470  16.197  2.5597 -1.3313  1.2257
 7863SOL     OW35224   3.328   4.625   6.600  0.6133  0.7163 -0.2557
 7863SOL    HW135225   3.343   4.668   6.684  2.3917  1.4781 -0.9520
 7863SOL    HW235226   3.291   4.689   6.539 -0.7830  1.0341  0.9384
 7864SOL     OW35227   2.781   3.319  10.553 -0.3402  0.6092  0.6842
 7864SOL    HW135228   2.869   3.353  10.541 -0.5402  0.4892 -1.2301
 7864SOL    HW235229   2.800   3.242  10.607 -3.0204 -0.3721  0.2633
 7865SOL     OW35230   1.382   3.672  13.375 -0.2605  0.3806 -0.0740
 7865SOL    HW135231   1.472   3.651  13.401 -0.4171 -0.3363 -0.1128
 7865SOL    HW235232   1.397   3.764  13.350 -1.5288  0.6872  0.3117
 7866SOL     OW35233   4.265   3.631  10.757 -0.7798  0.5783 -0.6657
 7866SOL    HW135234   4.173   3.605  10.765 -1.2161  1.0971 -3.8495
 7866SOL    HW235235   4.300   3.556  10.708 -1.8952 -0.2285 -0.2336
 7867SOL     OW35236   4.079   2.398  11.399  0.2595 -0.2254 -0.4787
 7867SOL    HW135237   4.018   2.342  11.447 -1.5064  2.3280  0.2557
 7867SOL    HW235238   4.113   2.333  11.338 -0.7117  1.0848 -2.4029
 7868SOL     OW35239   4.059   3.429   0.482  0.7694  0.0416 -0.8373
 7868SOL    HW135240   4.151   3.451   0.475  0.5712  1.6818  1.5476
 7868SOL    HW235241   4.070   3.378   0.562 -3.8191 -0.7510 -0.6687
 7869SOL     OW35242   1.018   0.237   6.413 -0.1242 -0.5173 -0.6812
 7869SOL    HW135243   1.011   0.332   6.404  0.0838 -0.2414  1.9944
 7869SOL    HW235244   0.930   0.216   6.383 -1.6321  4.8763 -0.1299
 7870SOL     OW35245   3.820   4.412   2.906 -0.4948 -0.3380  0.3032
 7870SOL    HW135246   3.752   4.398   2.840 -0.7252 -0.1372  0.4988
 7870SOL    HW235247   3.851   4.502   2.894  4.1981 -2.0193  0.0348
 7871SOL     OW35248   4.261   3.883   3.159  0.1664 -0.3728 -0.9877
 7871SOL    HW135249   4.341   3.830   3.152  1.3846  1.2970  0.1765
 7871SOL    HW235250   4.257   3.906   3.251  1.8517 -1.3124 -0.6711
 7872SOL     OW35251   2.600   0.474   2.543  0.0060  0.6618  0.1532
 7872SOL    HW135252   2.527   0.479   2.605 -0.9458 -0.2534 -0.8996
 7872SOL    HW235253   2.669   0.508   2.600 -0.0367 -0.1838  0.7128
 7873SOL     OW35254   4.704   3.014   6.704  0.0938 -0.2868 -0.3291
 7873SOL    HW135255   0.059   3.026   6.736 -0.2803  0.9221  0.2598
 7873SOL    HW235256   4.707   2.983   6.614 -0.4312 -1.2364 -0.0159
 7874SOL     OW35257   3.848   1.985   2.425 -0.5671  0.1615 -0.3217
 7874SOL    HW135258   3.793   2.059   2.452 -1.3938 -1.0896  1.3999
 7874SOL    HW235259   3.933   2.019   2.454 -1.6955  1.0488  1.9868
 7875SOL     OW35260   3.497   1.836   6.544  0.1811  0.2063 -0.5638
 7875SOL    HW135261   3.417   1.812   6.591  0.4210  0.3597 -0.0823
 7875SOL    HW235262   3.462   1.828   6.455 -1.2146  0.6992 -0.0662
 7876SOL     OW35263   0.294   0.199  16.396 -0.1214  0.5765  0.6410
 7876SOL    HW135264   0.250   0.129  16.445  0.1733  0.9372  1.4034
 7876SOL    HW235265   0.227   0.264  16.417 -1.3993 -0.5857  0.1837
 7877SOL     OW35266   0.554   1.408   2.855  0.6467  0.2677  0.0645
 7877SOL    HW135267   0.544   1.357   2.935  1.8593 -1.0614 -0.6298
 7877SOL    HW235268   0.647   1.391   2.838  0.4686  0.0415 -0.7165
 7878SOL     OW35269   2.210   3.057   2.505 -0.1437  0.1346  0.8071
 7878SOL    HW135270   2.245   2.977   2.544 -0.4512 -0.2985  0.1756
 7878SOL    HW235271   2.295   3.082   2.468  0.4545 -0.0318  2.0382
 7879SOL     OW35272   0.281   2.690   7.875  0.1886 -0.0732  0.1044
 7879SOL    HW135273   0.291   2.728   7.962  0.0405  0.5760 -0.1535
 7879SOL    HW235274   0.320   2.606   7.896 -1.0990 -0.5144  0.7270
 7880SOL     OW35275   4.509   0.308   7.890  0.5162 -0.2120  0.3792
 7880SOL    HW135276   4.440   0.268   7.837  0.0226  1.7857 -0.4733
 7880SOL    HW235277   4.456   0.386   7.905 -0.7028 -0.9606 -0.0320
 7881SOL     OW35278   3.975   0.577  15.266  0.5141 -0.4330  0.8715
 7881SOL    HW135279   3.996   0.635  15.339 -0.3277 -1.0870  1.6194
 7881SOL    HW235280   4.044   0.512  15.277  1.4994  0.8560  2.3348
 7882SOL     OW35281   0.273   1.885   2.220  0.0940  0.1448 -0.4150
 7882SOL    HW135282   0.234   1.972   2.212  0.0180  0.1791  0.3763
 7882SOL    HW235283   0.235   1.856   2.303 -0.8808  0.1415 -0.8627
 7883SOL     OW35284   3.219   4.656   9.198  0.0140 -0.2149  0.0145
 7883SOL    HW135285   3.240   4.628   9.287 -1.0440 -2.9027 -0.5698
 7883SOL    HW235286   3.145   4.600   9.174  0.3014 -1.4601  1.9838
 7884SOL     OW35287   2.755   1.307   3.837 -0.4411 -0.0528 -0.0020
 7884SOL    HW135288   2.814   1.280   3.766 -0.5108  2.3118 -0.9612
 7884SOL    HW235289   2.792   1.394   3.850 -0.1441 -0.2683  0.5601
 7885SOL     OW35290   1.457   4.632   7.448 -0.0004 -0.6015  0.0300
 7885SOL    HW135291   1.438   4.680   7.528  0.6478 -2.0950  1.0744
 7885SOL    HW235292   1.440   4.691   7.375  1.2428 -2.7908 -2.0459
 7886SOL     OW35293   2.583   3.315   8.436 -0.0236  0.0701  0.2579
 7886SOL    HW135294   2.640   3.314   8.512  0.1063  1.2413  0.1894
 7886SOL    HW235295   2.592   3.402   8.397  2.2309 -0.4314 -0.2918
 7887SOL     OW35296   3.298   2.333  11.332 -0.4298  0.3140  0.2171
 7887SOL    HW135297   3.263   2.281  11.404 -3.3220  2.3946  0.3357
 7887SOL    HW235298   3.220   2.326  11.277 -1.4968 -1.7968  2.0229
 7888SOL     OW35299   4.300   3.319  15.311 -0.0461  0.1349 -0.4267
 7888SOL    HW135300   4.393   3.338  15.298  0.2421 -1.3196 -0.5143
 7888SOL    HW235301   4.258   3.405  15.307  0.1830  0.2638 -0.0878
 7889SOL     OW35302   3.728   1.362   4.205  0.2320  0.5694  0.9972
 7889SOL    HW135303   3.738   1.293   4.270 -0.7291  0.2359  0.7820
 7889SOL    HW235304   3.807   1.355   4.150  0.5882 -0.8923  1.6874
 7890SOL     OW35305   1.332   3.121   4.893  0.1538  0.5471  0.1784
 7890SOL    HW135306   1.283   3.152   4.817 -1.7964 -0.0289  1.1955
 7890SOL    HW235307   1.250   3.092   4.935  0.7591 -0.5034  0.6289
 7891SOL     OW35308   4.030   0.215   7.704 -0.4076 -0.3766  0.1912
 7891SOL    HW135309   4.122   0.191   7.697 -0.4784  0.2733 -2.9833
 7891SOL    HW235310   4.010   0.257   7.621 -0.4225  1.0920  0.9267
 7892SOL     OW35311   3.872   3.841   9.458 -0.0920 -0.9117  0.5452
 7892SOL    HW135312   3.865   3.786   9.537 -0.9865  1.5345  2.1624
 7892SOL    HW235313   3.832   3.926   9.474  0.9820  0.1306 -2.4063
 7893SOL     OW35314   3.385   2.228  10.046  0.3743  0.1766 -0.3775
 7893SOL    HW135315   3.409   2.320  10.029 -1.2056  0.8124  0.8142
 7893SOL    HW235316   3.397   2.171   9.971 -2.0733  0.0404 -0.6750
 7894SOL     OW35317   0.586   4.170   6.853  0.1603  0.2169  1.0854
 7894SOL    HW135318   0.665   4.161   6.799 -1.4718  0.8467 -1.4578
 7894SOL    HW235319   0.612   4.203   6.939 -0.3009  0.3914  1.1600
 7895SOL     OW35320   2.270   0.936   3.928  0.4353  0.1955 -0.4149
 7895SOL    HW135321   2.337   0.954   3.861  1.6088 -0.3330  0.6052
 7895SOL    HW235322   2.284   1.018   3.976 -0.2243  0.3721 -0.5304
 7896SOL     OW35323   2.145   0.321   3.583  0.4046 -0.3168  0.2750
 7896SOL    HW135324   2.122   0.311   3.491  1.5351 -1.2214  0.0864
 7896SOL    HW235325   2.195   0.404   3.581  1.0035 -0.7304 -1.8469
 7897SOL     OW35326   0.318   2.765   9.578  0.3595  0.4667 -0.4471
 7897SOL    HW135327   0.393   2.717   9.613  0.7007  0.2926 -1.4291
 7897SOL    HW235328   0.309   2.705   9.505 -1.4925  1.2652 -0.8871
 7898SOL     OW35329   0.335   1.228   2.784  0.2467 -0.3112  1.0265
 7898SOL    HW135330   0.404   1.293   2.786 -3.1897  3.3912  0.2579
 7898SOL    HW235331   0.253   1.276   2.774  0.6290  0.2794  0.7928
 7899SOL     OW35332   2.963   2.735  15.883 -0.5056  0.6300  0.4076
 7899SOL    HW135333   2.903   2.782  15.824 -0.0492 -1.1867 -1.4921
 7899SOL    HW235334   3.035   2.797  15.881  0.3466 -0.3461  0.9225
 7900SOL     OW35335   2.612   2.210   8.957 -0.3068  0.0129 -0.0094
 7900SOL    HW135336   2.566   2.126   8.958  0.2764 -0.3002  0.6906
 7900SOL    HW235337   2.702   2.179   8.967  0.4041  1.3615 -2.3047
 7901SOL     OW35338   2.663   0.101   4.886  0.2276  0.1042  0.4698
 7901SOL    HW135339   2.708   0.178   4.852 -0.8887  0.4978 -0.0997
 7901SOL    HW235340   2.572   0.122   4.867  0.1940 -0.3423  0.1229
 7902SOL     OW35341   2.669   4.338   9.369 -0.3475  0.0358  0.0359
 7902SOL    HW135342   2.755   4.300   9.386  0.1633  0.9894 -0.4321
 7902SOL    HW235343   2.639   4.348   9.460 -3.0434 -0.0401 -0.8394
 7903SOL     OW35344   2.111   3.241   7.572  0.3055  0.2072  0.0804
 7903SOL    HW135345   2.030   3.261   7.525  1.1600 -1.9175 -2.3301
 7903SOL    HW235346   2.080   3.189   7.646  0.8419  0.0315  0.1801
 7904SOL     OW35347   2.338   2.384   7.575  0.7510 -0.2491 -0.7484
 7904SOL    HW135348   2.279   2.394   7.650  1.8929 -1.2495  0.2683
 7904SOL    HW235349   2.361   2.292   7.590  0.3469 -0.7623 -3.2737
 7905SOL     OW35350   3.512   3.143   6.648  0.1280  0.1637  0.3709
 7905SOL    HW135351   3.528   3.197   6.726  0.9207  0.8784 -0.2852
 7905SOL    HW235352   3.583   3.172   6.591  0.4745  1.1401  1.3028
 7906SOL     OW35353   3.028   3.318   6.029 -0.4206 -0.1440  0.2000
 7906SOL    HW135354   3.061   3.255   6.092 -0.8162 -0.7935 -0.2441
 7906SOL    HW235355   3.062   3.398   6.070  2.2850 -1.0272 -0.2633
 7907SOL     OW35356   0.010   2.487   5.971  0.3769  0.3270 -0.1565
 7907SOL    HW135357   0.046   2.575   5.983  1.9879 -0.4674  0.9235
 7907SOL    HW235358   4.678   2.507   5.905  0.3085  0.4605 -0.0462
 7908SOL     OW35359   1.657   1.841   2.395  0.1456  0.0643 -0.3044
 7908SOL    HW135360   1.598   1.910   2.364 -0.2309 -0.5612 -0.9753
 7908SOL    HW235361   1.614   1.765   2.356 -1.2618  1.0805 -0.7356
 7909SOL     OW35362   3.858   2.054   2.929  0.0043 -0.1881 -0.1231
 7909SOL    HW135363   3.764   2.041   2.942 -0.3744  0.4942 -2.0848
 7909SOL    HW235364   3.903   1.998   2.992  0.7622  1.8730  1.1636
 7910SOL     OW35365   0.793   4.646   4.508  0.3230 -0.0545  0.0982
 7910SOL    HW135366   0.838   4.629   4.591  0.0314 -1.2306  0.0148
 7910SOL    HW235367   0.771   4.563   4.465 -1.6015  0.7381 -0.4554
 7911SOL     OW35368   0.851   4.401   8.256  0.0027  0.0582 -0.1757
 7911SOL    HW135369   0.812   4.379   8.341  2.4358 -1.8857  0.4244
 7911SOL    HW235370   0.788   4.467   8.226 -0.6859 -0.4886  0.0722
 7912SOL     OW35371   1.540   1.498  14.305 -0.0737  0.2609  0.4021
 7912SOL    HW135372   1.508   1.587  14.320 -0.6766  0.3853 -1.5985
 7912SOL    HW235373   1.579   1.503  14.218 -0.2145  0.9503  0.3769
 7913SOL     OW35374   3.896   4.019   1.338  0.1041  0.6464 -0.2048
 7913SOL    HW135375   3.863   4.053   1.255 -0.1379 -2.8827 -1.5335
 7913SOL    HW235376   3.859   4.077   1.405  1.0386  0.6409  0.3197
 7914SOL     OW35377   2.593   1.723  15.131 -0.0180  0.4395 -0.0931
 7914SOL    HW135378   2.586   1.788  15.201  0.3007  0.8229 -0.4284
 7914SOL    HW235379   2.649   1.659  15.176 -0.5800  0.6304  0.8870
 7915SOL     OW35380   3.663   0.316   5.902 -0.2338 -0.0501  0.2564
 7915SOL    HW135381   3.687   0.396   5.855  1.4612  0.8343  2.6083
 7915SOL    HW235382   3.584   0.290   5.855  1.4461 -1.6224 -1.7174
 7916SOL     OW35383   3.506   4.283   0.759  0.5090 -0.2744 -0.1144
 7916SOL    HW135384   3.498   4.365   0.711  0.2663 -0.2052  0.0441
 7916SOL    HW235385   3.417   4.271   0.791 -0.2406  1.9935 -1.3132
 7917SOL     OW35386   2.690   0.469  10.613 -0.1731  1.2632 -0.3008
 7917SOL    HW135387   2.625   0.458  10.683 -1.1585  1.9978 -1.0825
 7917SOL    HW235388   2.708   0.563  10.621 -0.2079  1.0436  2.2678
 7918SOL     OW35389   0.890   0.764   2.972  0.6014  0.2841 -0.0469
 7918SOL    HW135390   0.967   0.761   2.915 -0.1147  0.7836 -1.0354
 7918SOL    HW235391   0.893   0.853   3.010  2.1646 -0.6571  2.0520
 7919SOL     OW35392   1.784   2.381   8.281 -0.2315 -0.6386 -0.1883
 7919SOL    HW135393   1.810   2.302   8.329  0.1376 -0.2094  0.3139
 7919SOL    HW235394   1.761   2.439   8.354  0.0919 -0.6285 -0.0943
 7920SOL     OW35395   3.424   2.915   6.428  0.0135  0.9378 -0.6518
 7920SOL    HW135396   3.378   2.903   6.345 -1.0047  2.0721 -0.2547
 7920SOL    HW235397   3.507   2.947   6.393  2.2219 -2.5718  1.4209
 7921SOL     OW35398   3.099   4.512   1.937 -0.1606  0.2167  0.4235
 7921SOL    HW135399   3.090   4.572   2.012 -3.0622  0.4153 -0.0978
 7921SOL    HW235400   3.183   4.545   1.904  0.2717  0.1823  1.4934
 7922SOL     OW35401   3.689   0.137   8.675  0.5923  0.5311  0.0364
 7922SOL    HW135402   3.633   0.210   8.703  1.0330  0.0360  2.2314
 7922SOL    HW235403   3.773   0.168   8.708  0.8110  1.1638 -1.1166
 7923SOL     OW35404   1.382   4.552   2.985  0.6615 -0.2592  0.2641
 7923SOL    HW135405   1.392   4.463   3.018 -0.7768 -0.9827 -1.2509
 7923SOL    HW235406   1.408   4.592   3.068  0.1188  0.9298 -0.1358
 7924SOL     OW35407   2.327   2.692   3.551  0.4975 -0.2286  0.1131
 7924SOL    HW135408   2.352   2.712   3.641 -1.7160  0.0341  0.6848
 7924SOL    HW235409   2.372   2.608   3.549 -0.4665 -0.7732  1.6038
 7925SOL     OW35410   4.045   0.680   5.342 -0.1786 -0.2035  0.4584
 7925SOL    HW135411   4.091   0.763   5.353  1.0895 -0.9762  0.9789
 7925SOL    HW235412   4.114   0.621   5.310  1.3933  2.2009 -0.6002
 7926SOL     OW35413   0.737   0.628   6.034  0.1773 -0.5503 -0.3276
 7926SOL    HW135414   0.724   0.534   6.044  0.9098 -0.5381  0.6908
 7926SOL    HW235415   0.771   0.643   6.122 -2.1536 -1.0517  0.6303
 7927SOL     OW35416   3.850   1.137   8.330 -0.0918 -0.4058  0.1330
 7927SOL    HW135417   3.821   1.191   8.257  0.8089  1.4867  1.1922
 7927SOL    HW235418   3.944   1.156   8.334  0.1083 -1.6342  1.4412
 7928SOL     OW35419   2.712   1.240   7.850 -0.1683  0.4520 -0.5327
 7928SOL    HW135420   2.770   1.280   7.785  1.5205 -2.8398 -1.0706
 7928SOL    HW235421   2.642   1.217   7.788  0.2072 -0.5852 -0.5709
 7929SOL     OW35422   4.308   2.876   2.419 -0.1091 -0.1942  0.0935
 7929SOL    HW135423   4.267   2.920   2.493  1.3014 -1.6553  1.7541
 7929SOL    HW235424   4.367   2.819   2.469 -0.6965 -0.6601  0.2579
 7930SOL     OW35425   4.333   2.036   9.676  0.6384  0.7019 -0.4884
 7930SOL    HW135426   4.376   2.098   9.617  0.5020  2.2357  1.0430
 7930SOL    HW235427   4.373   1.955   9.643 -0.2274 -0.1638  0.5795
 7931SOL     OW35428   4.317   3.479   7.572 -0.5621 -0.4874  0.1897
 7931SOL    HW135429   4.247   3.543   7.584  1.6790  1.7676  1.2902
 7931SOL    HW235430   4.315   3.490   7.477  0.2578 -0.9440  0.1145
 7932SOL     OW35431   1.459   3.050   0.695  0.2792  0.1111  0.1983
 7932SOL    HW135432   1.533   2.990   0.690  1.2730  1.3766 -0.1497
 7932SOL    HW235433   1.388   3.007   0.744 -0.3738 -0.3781 -1.1765
 7933SOL     OW35434   0.560   1.815  12.855 -0.1812 -0.0527  0.3816
 7933SOL    HW135435   0.642   1.799  12.808  0.8507  1.0735  1.7951
 7933SOL    HW235436   0.588   1.790  12.943 -2.4908  0.1470  1.1816
 7934SOL     OW35437   2.175   2.883  17.602  0.3782  0.2446  0.0269
 7934SOL    HW135438   2.158   2.962  17.551  0.1786 -0.6238 -1.2281
 7934SOL    HW235439   2.175   2.826  17.526  2.3584 -2.8519  2.3367
 7935SOL     OW35440   2.650   4.058  13.124 -0.2692 -0.3442  0.4375
 7935SOL    HW135441   2.621   3.968  13.109  2.0449 -0.9866 -0.1644
 7935SOL    HW235442   2.695   4.075  13.042  1.9145 -1.1544  1.4609
 7936SOL     OW35443   0.484   4.176  15.088  0.0905  0.2726  0.2757
 7936SOL    HW135444   0.543   4.146  15.019  0.0982 -0.8603  0.7693
 7936SOL    HW235445   0.544   4.175  15.163  0.1692  1.3932  0.2215
 7937SOL     OW35446   2.012   1.069   6.473  0.2506  0.3645 -0.0814
 7937SOL    HW135447   1.955   1.145   6.467 -0.4203 -0.2697 -1.6802
 7937SOL    HW235448   2.019   1.067   6.568  0.9834 -0.3018 -0.1448
 7938SOL     OW35449   4.658   0.695   5.316  0.0296 -0.0888  0.4071
 7938SOL    HW135450   4.662   0.721   5.224  1.8555 -0.6999  0.3111
 7938SOL    HW235451   4.664   0.599   5.320 -0.3068 -0.2580 -2.9678
 7939SOL     OW35452   0.334   2.463   7.615  0.7516 -0.2462 -0.0706
 7939SOL    HW135453   0.391   2.536   7.590  0.9054 -0.6869 -1.0043
 7939SOL    HW235454   0.349   2.460   7.710  0.8400  1.3369 -0.0432
 7940SOL     OW35455   1.364   2.595  17.050  0.4651  0.2946 -0.1504
 7940SOL    HW135456   1.373   2.520  17.110  2.6554  0.9429  0.3328
 7940SOL    HW235457   1.303   2.560  16.985 -0.3435  0.9648  0.2501
 7941SOL     OW35458   1.261   0.842   2.007 -0.6331 -0.2403  0.1486
 7941SOL    HW135459   1.295   0.872   2.092  2.0683 -2.5216 -0.1283
 7941SOL    HW235460   1.302   0.756   2.005  1.5048  0.7370  0.7829
 7942SOL     OW35461   2.961   1.160   2.377 -0.6454  0.0634 -0.6067
 7942SOL    HW135462   2.925   1.172   2.465 -1.5179  0.3951 -1.0164
 7942SOL    HW235463   2.899   1.101   2.335 -1.5128  0.0512  0.6887
 7943SOL     OW35464   2.353   1.873  11.030  0.4297 -0.1418  0.3640
 7943SOL    HW135465   2.351   1.965  11.057 -0.1735  0.2804 -1.1200
 7943SOL    HW235466   2.317   1.866  10.942 -0.4344  2.8773  0.4712
 7944SOL     OW35467   1.952   1.770   7.195 -0.0371 -0.0629 -0.1290
 7944SOL    HW135468   1.915   1.857   7.208  0.3185 -0.1860  1.7353
 7944SOL    HW235469   1.879   1.729   7.148  0.1631 -0.5866  0.0173
 7945SOL     OW35470   0.129   4.606   6.793 -0.4818  0.3325  0.1451
 7945SOL    HW135471   0.186   4.651   6.856 -1.0236 -1.6793  2.0665
 7945SOL    HW235472   0.045   4.640   6.824 -1.5532 -1.4416 -0.8634
 7946SOL     OW35473   4.710   4.462   6.565 -0.2292 -0.1023  0.1299
 7946SOL    HW135474   0.067   4.492   6.568 -0.5800  0.8068  1.5822
 7946SOL    HW235475   4.660   4.517   6.626  1.9804  2.0380  0.0085
 7947SOL     OW35476   0.809   3.046   2.613 -0.7078  0.1837 -0.6113
 7947SOL    HW135477   0.768   2.960   2.615 -1.7704  0.7727  2.3348
 7947SOL    HW235478   0.772   3.089   2.690 -1.0716  0.6899 -1.0719
 7948SOL     OW35479   4.402   1.065   2.550 -0.6217  0.6619 -0.1197
 7948SOL    HW135480   4.446   1.012   2.617 -1.4861  0.8584  0.6079
 7948SOL    HW235481   4.362   0.992   2.502  2.6568 -0.0851 -1.6774
 7949SOL     OW35482   2.345   3.402   7.631 -0.3405  0.2266  0.2618
 7949SOL    HW135483   2.301   3.473   7.585 -0.3354 -0.8058 -1.3461
 7949SOL    HW235484   2.264   3.358   7.659 -0.2225 -0.6228 -0.7498
 7950SOL     OW35485   3.593   2.134   4.825  0.0313 -0.7712  0.7372
 7950SOL    HW135486   3.583   2.053   4.875  1.4858 -1.3813  0.0299
 7950SOL    HW235487   3.598   2.196   4.898 -1.1962  0.8406 -0.5454
 7951SOL     OW35488   3.825   0.232   5.668 -0.3168 -0.3437  0.1360
 7951SOL    HW135489   3.750   0.291   5.680  0.4645  1.1104 -2.0669
 7951SOL    HW235490   3.901   0.289   5.654 -1.8996  1.7972  0.0894
 7952SOL     OW35491   1.837   3.475   6.877  0.6331 -0.3268 -0.3336
 7952SOL    HW135492   1.827   3.522   6.960  2.3010 -0.4076 -0.0895
 7952SOL    HW235493   1.804   3.390   6.907 -0.2062  0.0193 -0.2620
 7953SOL     OW35494   1.155   1.837   5.760  0.1764 -0.2681 -0.0637
 7953SOL    HW135495   1.234   1.844   5.813 -0.0490 -2.0599  0.5307
 7953SOL    HW235496   1.095   1.800   5.824  0.5977  0.8726  0.9804
 7954SOL     OW35497   0.516   1.855   7.790  0.8848  0.3452  0.1920
 7954SOL    HW135498   0.525   1.762   7.812  2.0728  0.0734 -1.4335
 7954SOL    HW235499   0.515   1.850   7.694 -1.6598  0.6823  0.1861
 7955SOL     OW35500   4.691   4.512   3.084  0.2496 -0.4899 -0.7577
 7955SOL    HW135501   4.644   4.575   3.138 -1.4776 -0.8887 -1.8094
 7955SOL    HW235502   4.708   4.561   3.003 -0.3138 -1.4810 -1.4846
 7956SOL     OW35503   4.557   3.297   1.707 -0.4930 -0.1231 -0.1176
 7956SOL    HW135504   4.631   3.346   1.745  0.3476 -0.0379 -1.8773
 7956SOL    HW235505   4.498   3.300   1.783  0.5856  2.0630  0.6584
 7957SOL     OW35506   2.781   0.487   8.491  0.0647  0.1518 -0.2524
 7957SOL    HW135507   2.725   0.518   8.420  0.3479  0.7278 -0.2213
 7957SOL    HW235508   2.843   0.437   8.438  1.2471 -0.7141  1.9343
 7958SOL     OW35509   4.289   3.446   3.762 -0.4785  0.5888 -0.3901
 7958SOL    HW135510   4.248   3.430   3.847 -0.7943 -1.1996 -0.8702
 7958SOL    HW235511   4.229   3.399   3.704  0.2559 -0.6308 -0.1877
 7959SOL     OW35512   4.725   0.003   2.417 -0.2959 -0.2142  0.1782
 7959SOL    HW135513   0.046   0.078   2.437 -1.5583  0.9595 -0.7177
 7959SOL    HW235514   4.654   0.021   2.479 -0.6321  3.2456 -1.2442
 7960SOL     OW35515   4.286   2.949   0.868  0.2643 -0.4232 -0.2025
 7960SOL    HW135516   4.339   3.014   0.822 -1.0093 -0.0707 -1.1829
 7960SOL    HW235517   4.286   2.990   0.955 -1.6544 -0.2243 -0.2948
 7961SOL     OW35518   3.848   2.549   7.165 -0.0893  0.5372 -0.2883
 7961SOL    HW135519   3.931   2.502   7.171 -0.0981  0.9253  2.7196
 7961SOL    HW235520   3.821   2.522   7.077 -0.7779  0.2892 -0.0057
 7962SOL     OW35521   1.127   0.924   5.830  0.6416  0.3064 -0.3010
 7962SOL    HW135522   1.104   0.903   5.921  0.1687 -1.9954 -0.9508
 7962SOL    HW235523   1.041   0.942   5.792  0.4387  0.7007  0.3590
 7963SOL     OW35524   1.495   2.693   8.198 -0.0767  0.5045 -0.4240
 7963SOL    HW135525   1.560   2.646   8.250 -2.4022 -2.2711 -0.0638
 7963SOL    HW235526   1.420   2.704   8.255  0.9891  0.7261  0.9379
 7964SOL     OW35527   1.327   2.397  11.147 -0.7332  0.0725 -0.0050
 7964SOL    HW135528   1.323   2.429  11.237 -1.6226  2.2828 -0.8466
 7964SOL    HW235529   1.242   2.430  11.118 -1.3230 -0.1250  1.4654
 7965SOL     OW35530   2.126   3.766   7.958 -0.3791  0.2032  0.2827
 7965SOL    HW135531   2.143   3.708   7.883  3.3459 -0.0457  1.2835
 7965SOL    HW235532   2.058   3.719   8.006 -2.1158  0.2986 -2.0609
 7966SOL     OW35533   2.115   2.681   8.694 -0.4751 -0.4071 -0.0207
 7966SOL    HW135534   2.103   2.587   8.704 -0.4307 -0.4930 -0.8073
 7966SOL    HW235535   2.026   2.712   8.681  0.0856 -0.3107 -3.4755
 7967SOL     OW35536   3.052   3.165   9.011 -0.4495 -0.2897 -0.1089
 7967SOL    HW135537   3.042   3.071   8.998 -0.8386 -0.1241 -1.0204
 7967SOL    HW235538   2.985   3.181   9.078 -2.0030  0.1766 -1.7857
 7968SOL     OW35539   1.388   3.954  13.317 -0.6078  0.2413  0.3506
 7968SOL    HW135540   1.454   4.016  13.286  0.8442 -2.5720 -2.2829
 7968SOL    HW235541   1.331   3.954  13.240  0.5817  0.5244 -0.5282
 7969SOL     OW35542   1.813   0.234   9.516  0.0776 -0.0158  0.3244
 7969SOL    HW135543   1.904   0.207   9.531 -0.1198 -1.5130 -1.1771
 7969SOL    HW235544   1.760   0.159   9.540 -0.5027 -0.2208 -1.5988
 7970SOL     OW35545   4.001   2.839   4.362 -0.5103 -0.0969 -0.0409
 7970SOL    HW135546   4.025   2.817   4.452  0.1278  0.2681 -0.1191
 7970SOL    HW235547   4.079   2.883   4.327  0.2301 -0.3768  1.2739
 7971SOL     OW35548   0.395   1.337   7.691  0.2185  0.7197  0.5149
 7971SOL    HW135549   0.301   1.326   7.681  0.2501  0.6590  0.2841
 7971SOL    HW235550   0.414   1.398   7.619  0.8531 -2.4028 -1.9690
 7972SOL     OW35551   2.227   2.960   8.221 -0.3922 -0.3848  0.0069
 7972SOL    HW135552   2.311   3.004   8.235 -1.2040  0.6533  1.5571
 7972SOL    HW235553   2.193   2.943   8.309 -1.3245 -1.1235 -0.4908
 7973SOL     OW35554   0.744   2.865  12.002 -0.3097  0.1176 -0.2062
 7973SOL    HW135555   0.653   2.877  12.031  0.1275  0.2369  1.1300
 7973SOL    HW235556   0.793   2.905  12.074  0.8439  0.0878 -0.9769
 7974SOL     OW35557   4.191   1.341   7.184 -0.3378  0.4089  0.8089
 7974SOL    HW135558   4.284   1.323   7.189  0.0950  1.7440 -2.5120
 7974SOL    HW235559   4.183   1.436   7.178  0.3969  0.4223  0.0606
 7975SOL     OW35560   2.511   1.894   2.256 -0.0784  0.3614 -0.0761
 7975SOL    HW135561   2.558   1.884   2.173  0.9333  1.0850  0.4075
 7975SOL    HW235562   2.489   1.804   2.281  0.3158  0.7317  1.5644
 7976SOL     OW35563   4.052   3.726   3.072 -0.1987 -0.5441  0.1442
 7976SOL    HW135564   4.142   3.757   3.088  0.7696 -2.8481 -0.7812
 7976SOL    HW235565   4.059   3.633   3.093  0.7160 -0.1199  1.7007
 7977SOL     OW35566   0.983   1.078   5.499  0.1010  0.3901  0.5003
 7977SOL    HW135567   0.946   1.062   5.586  0.4593 -0.3446  0.5105
 7977SOL    HW235568   0.933   1.158   5.480 -0.5125  0.0279  0.5874
 7978SOL     OW35569   2.742   2.738   9.120  0.6382 -0.1533 -0.0358
 7978SOL    HW135570   2.666   2.790   9.146  0.5880 -0.2154 -0.0593
 7978SOL    HW235571   2.697   2.669   9.072  1.6421  0.9024 -2.4884
 7979SOL     OW35572   2.149   0.643   4.432  0.2488 -0.1505  0.3548
 7979SOL    HW135573   2.162   0.651   4.338 -0.7543 -2.3679  0.0404
 7979SOL    HW235574   2.238   0.621   4.459  1.3893  0.4905 -2.8904
 7980SOL     OW35575   0.161   2.514   8.924 -0.6619 -0.2537 -0.0689
 7980SOL    HW135576   0.138   2.512   8.831  0.8137 -2.0832 -0.4098
 7980SOL    HW235577   0.138   2.425   8.951  1.1403 -0.7960 -0.3312
 7981SOL     OW35578   2.154   4.705   5.301 -0.1482 -0.0573 -0.4298
 7981SOL    HW135579   2.212   0.006   5.368  0.4776  1.0132 -1.5186
 7981SOL    HW235580   2.188   0.011   5.220  0.4549 -0.0220 -0.1600
 7982SOL     OW35581   2.521   1.692  10.234 -0.0123  0.4299 -0.1291
 7982SOL    HW135582   2.489   1.733  10.315 -2.3829 -0.6492 -0.5198
 7982SOL    HW235583   2.439   1.651  10.205 -0.0048  1.0235 -0.9869
 7983SOL     OW35584   3.827   4.186   8.677 -0.4768 -0.2396  0.7309
 7983SOL    HW135585   3.745   4.233   8.691 -0.1696  0.2659  0.8273
 7983SOL    HW235586   3.844   4.206   8.585  0.7810 -3.6384  0.2370
 7984SOL     OW35587   2.205   0.291   6.174 -0.7868  0.1469 -0.0948
 7984SOL    HW135588   2.116   0.271   6.143 -0.1780 -0.1036 -1.6573
 7984SOL    HW235589   2.190   0.381   6.202 -0.1155  0.0193  0.6693
 7985SOL     OW35590   2.361   3.367   2.616 -0.2930 -0.1293 -0.1021
 7985SOL    HW135591   2.375   3.459   2.635  1.3681  0.2073 -2.9295
 7985SOL    HW235592   2.448   3.335   2.641 -0.5309 -0.6333  0.0870
 7986SOL     OW35593   4.660   3.194   7.891 -0.3769  0.4726  0.3120
 7986SOL    HW135594   4.647   3.144   7.811 -0.9784 -0.0092  0.7098
 7986SOL    HW235595   4.605   3.272   7.879  0.6272  1.7509  3.7694
 7987SOL     OW35596   3.043   1.199   7.572  0.7756  0.1288 -0.0745
 7987SOL    HW135597   2.973   1.244   7.619  0.7134 -0.6101  0.5615
 7987SOL    HW235598   3.022   1.216   7.481  1.6839  0.1564 -0.2763
 7988SOL     OW35599   1.632   3.465   4.122  0.4681  0.0985  0.3055
 7988SOL    HW135600   1.555   3.453   4.066  0.1544 -0.4640  0.8543
 7988SOL    HW235601   1.673   3.545   4.091  1.6627 -1.0261 -0.9804
 7989SOL     OW35602   3.568   1.610   7.697 -0.1430  0.1904 -0.2651
 7989SOL    HW135603   3.493   1.630   7.753  2.0695  2.2168  1.9675
 7989SOL    HW235604   3.632   1.624   7.767 -1.3881  1.6706  0.5677
 7990SOL     OW35605   2.504   1.957   5.463 -0.1189 -0.1745 -0.2852
 7990SOL    HW135606   2.559   2.035   5.460  1.5148 -1.3220 -0.0951
 7990SOL    HW235607   2.523   1.909   5.544 -0.6169  3.0562  1.7790
 7991SOL     OW35608   2.659   3.151   3.795  0.1020  0.7924 -0.0521
 7991SOL    HW135609   2.711   3.152   3.714  1.0896  2.4227  0.6158
 7991SOL    HW235610   2.607   3.071   3.783 -1.3974  1.9140 -1.0588
 7992SOL     OW35611   0.832   2.718   4.996 -0.3608 -0.1894 -0.1231
 7992SOL    HW135612   0.915   2.728   4.948 -0.2190  1.9612  0.5561
 7992SOL    HW235613   0.848   2.636   5.043 -0.2925  0.0863  0.3344
 7993SOL     OW35614   3.505   4.687   1.669 -0.0513  0.5577  0.1950
 7993SOL    HW135615   3.583   4.704   1.615 -0.1216 -1.6506 -0.5881
 7993SOL    HW235616   3.486   0.040   1.703 -0.3745  0.3021  0.6754
 7994SOL     OW35617   3.542   0.148   6.957 -0.1836  0.2851  0.3190
 7994SOL    HW135618   3.472   0.167   7.018 -0.0535  0.0962  0.5279
 7994SOL    HW235619   3.615   0.175   7.012  0.5667 -0.5993 -0.2356
 7995SOL     OW35620   4.032   1.775  12.269  0.5000 -0.1998  0.1001
 7995SOL    HW135621   4.056   1.748  12.181  0.3924  0.4019 -0.1107
 7995SOL    HW235622   3.959   1.716  12.288 -0.7183  0.9135 -1.2213
 7996SOL     OW35623   0.250   3.681   6.700 -0.4009  0.4594 -0.1038
 7996SOL    HW135624   0.307   3.612   6.665 -0.6925 -0.0781  0.4744
 7996SOL    HW235625   0.308   3.712   6.770  0.2731 -1.1518  0.0673
 7997SOL     OW35626   3.711   1.217   4.822  0.5253  0.6879 -0.7362
 7997SOL    HW135627   3.692   1.307   4.850  1.4160  1.1381 -1.5984
 7997SOL    HW235628   3.797   1.232   4.783 -0.0967  0.3372 -2.2204
 7998SOL     OW35629   4.520   1.418   3.064  0.7617  0.2667 -0.7196
 7998SOL    HW135630   4.541   1.325   3.052  1.7143  0.7818 -3.0823
 7998SOL    HW235631   4.436   1.433   3.020 -1.0517 -0.3143  2.5129
 7999SOL     OW35632   4.173   4.449   0.525  0.7185 -0.2677  0.4117
 7999SOL    HW135633   4.094   4.496   0.553 -1.0396 -3.4509  0.6950
 7999SOL    HW235634   4.214   4.437   0.611  1.1664  0.1603  0.2574
 8000SOL     OW35635   1.823   1.562   3.403  0.4005 -0.4493 -0.4846
 8000SOL    HW135636   1.751   1.621   3.428  1.4484  0.8341 -0.4864
 8000SOL    HW235637   1.891   1.624   3.375  0.2999  0.6150  1.6572
 8001SOL     OW35638   4.266   3.001   4.051 -0.3942 -0.1035  0.2934
 8001SOL    HW135639   4.235   2.958   4.131  3.7817 -6.4530 -1.5636
 8001SOL    HW235640   4.298   2.923   4.007 -1.1151 -0.8156  1.0368
 8002SOL     OW35641   2.587   2.847   3.483  0.4456 -0.1287  0.4417
 8002SOL    HW135642   2.560   2.758   3.461 -0.2282  0.2033 -0.0835
 8002SOL    HW235643   2.594   2.887   3.396 -0.3779 -0.3446  0.2751
 8003SOL     OW35644   2.926   3.502   4.955  0.5992  0.5824  0.3150
 8003SOL    HW135645   2.873   3.425   4.975 -0.9933  1.2918 -1.2571
 8003SOL    HW235646   2.923   3.549   5.038  1.0225  0.2870  0.5007
 8004SOL     OW35647   1.028   2.749  16.625 -0.4199 -0.0121  0.0243
 8004SOL    HW135648   1.042   2.844  16.625 -1.7081  0.1798 -0.3644
 8004SOL    HW235649   1.084   2.726  16.551  3.0181  3.2001  1.6082
 8005SOL     OW35650   1.153   4.398   3.866 -0.6955 -0.0923  0.1722
 8005SOL    HW135651   1.199   4.379   3.784 -2.1066 -1.2796 -0.3579
 8005SOL    HW235652   1.070   4.434   3.835 -0.4369 -0.3617 -0.8336
 8006SOL     OW35653   3.918   0.868   9.447 -0.4380  0.5246 -0.1359
 8006SOL    HW135654   3.921   0.908   9.359 -0.0594 -1.8506 -1.1863
 8006SOL    HW235655   3.832   0.895   9.480  0.4143  2.0633  0.8213
 8007SOL     OW35656   1.995   0.581  17.048 -0.5839  0.3900 -0.5296
 8007SOL    HW135657   1.961   0.654  17.099 -1.6074 -1.2010  1.0538
 8007SOL    HW235658   1.940   0.513  17.086  2.1030 -0.8975  1.0071
 8008SOL     OW35659   0.847   3.479   0.743  0.4506 -0.0807  0.4312
 8008SOL    HW135660   0.916   3.512   0.801 -0.6151 -0.9530  2.2150
 8008SOL    HW235661   0.845   3.389   0.775 -0.6670 -0.3089 -0.2630
 8009SOL     OW35662   0.234   2.812   7.635  0.4585 -0.3058 -0.3554
 8009SOL    HW135663   0.157   2.847   7.680  1.9291  3.5853 -0.8726
 8009SOL    HW235664   0.284   2.792   7.713  0.3988  0.5754 -0.0913
 8010SOL     OW35665   3.113   4.177   5.415 -0.6472 -0.4583 -0.6545
 8010SOL    HW135666   3.074   4.094   5.386 -2.2419  0.3243 -0.7453
 8010SOL    HW235667   3.199   4.167   5.374  0.3506 -2.2033  1.8380
 8011SOL     OW35668   2.492   1.986  12.997  0.6828 -0.0854 -0.1104
 8011SOL    HW135669   2.434   2.030  13.059 -0.8587 -0.8059 -1.0474
 8011SOL    HW235670   2.568   2.043  13.014 -1.2184  1.9192  1.5747
 8012SOL     OW35671   1.056   2.251   3.080  0.0805 -0.1356 -0.0813
 8012SOL    HW135672   1.136   2.235   3.030  1.2036  0.0111  1.6985
 8012SOL    HW235673   1.109   2.273   3.156 -2.2782  2.1681  0.8904
 8013SOL     OW35674   1.459   2.630  16.092 -0.2228 -0.1043 -0.2543
 8013SOL    HW135675   1.364   2.630  16.086 -0.1371 -0.8103 -1.7356
 8013SOL    HW235676   1.481   2.716  16.126  0.5903 -0.5377  0.3312
 8014SOL     OW35677   0.163   3.466   0.366 -0.3818 -0.7202 -0.3959
 8014SOL    HW135678   0.123   3.462   0.453 -0.9358 -0.2610 -0.6265
 8014SOL    HW235679   0.126   3.548   0.332 -1.7548 -1.5748 -0.9645
 8015SOL     OW35680   2.864   2.651   2.826  0.0227  0.2194 -0.0414
 8015SOL    HW135681   2.869   2.737   2.868  0.7260  0.3564 -0.4078
 8015SOL    HW235682   2.821   2.595   2.890 -0.7972 -0.7068 -1.3962
 8016SOL     OW35683   1.013   0.731  12.879  0.3466 -0.4429  0.5956
 8016SOL    HW135684   0.986   0.796  12.814  1.6237 -0.2401  0.2632
 8016SOL    HW235685   1.099   0.702  12.847 -0.1992  0.1496 -1.3904
 8017SOL     OW35686   4.702   1.085   8.318  1.3298  0.6509 -0.1232
 8017SOL    HW135687   0.056   1.103   8.348  0.7296  0.7684  1.5852
 8017SOL    HW235688   4.675   1.009   8.370 -0.5757  2.1102  1.0275
 8018SOL     OW35689   1.832   2.142   7.576  0.2110 -0.1373  0.3595
 8018SOL    HW135690   1.848   2.141   7.482 -1.3416 -0.2458  0.0885
 8018SOL    HW235691   1.916   2.174   7.608 -0.3115  1.4635  0.1379
 8019SOL     OW35692   2.426   2.056   6.408  0.1755 -0.3789  0.4873
 8019SOL    HW135693   2.497   2.087   6.352  0.8526 -0.6298  1.2049
 8019SOL    HW235694   2.350   2.107   6.379  0.2397 -0.2638  0.5212
 8020SOL     OW35695   1.182   1.620  13.113 -0.5011  0.1671  0.3166
 8020SOL    HW135696   1.216   1.589  13.197  0.5318  0.1739 -0.1111
 8020SOL    HW235697   1.249   1.591  13.052 -0.5431  0.3592  0.1786
 8021SOL     OW35698   1.834   2.308  16.149 -0.2842  0.3301 -0.2198
 8021SOL    HW135699   1.780   2.361  16.091  0.6076  1.3689 -0.0966
 8021SOL    HW235700   1.778   2.276  16.219  0.5399 -1.4800 -0.3603
 8022SOL     OW35701   1.496   0.519   5.235 -0.0776  0.0438  0.1634
 8022SOL    HW135702   1.535   0.454   5.176 -0.9946 -0.7937  0.4662
 8022SOL    HW235703   1.566   0.583   5.243 -2.1840  2.5170 -1.2822
 8023SOL     OW35704   1.177   3.763   5.845 -0.5196  0.5898 -0.0016
 8023SOL    HW135705   1.086   3.742   5.826 -0.5939 -1.0087  2.1266
 8023SOL    HW235706   1.188   3.852   5.811 -0.6720  1.6411  2.7017
 8024SOL     OW35707   1.819   1.997   4.344 -0.0833  0.6045 -0.6318
 8024SOL    HW135708   1.818   2.091   4.361 -0.7240  0.8957 -2.2238
 8024SOL    HW235709   1.898   1.975   4.393  0.4836  1.5072 -1.1437
 8025SOL     OW35710   2.824   0.010   4.223  0.0049  0.5678 -0.4387
 8025SOL    HW135711   2.823   4.709   4.134 -0.6363 -0.0116 -0.1999
 8025SOL    HW235712   2.911   0.051   4.214 -0.7747  2.4045  0.3348
 8026SOL     OW35713   0.940   1.860  16.714 -0.4211 -0.3439 -0.2705
 8026SOL    HW135714   0.872   1.795  16.732 -0.1035 -0.7757 -0.6202
 8026SOL    HW235715   0.918   1.911  16.636 -1.8188 -0.0495  0.3194
 8027SOL     OW35716   4.360   3.683  10.042  0.2904 -0.2802  0.0592
 8027SOL    HW135717   4.368   3.678   9.946 -0.2623  0.1612 -0.0117
 8027SOL    HW235718   4.429   3.743  10.069 -1.4055  2.4023 -1.5423
 8028SOL     OW35719   2.071   2.310  12.188  0.4979 -0.1621 -0.3382
 8028SOL    HW135720   2.097   2.391  12.232 -0.4054 -0.0980  0.0770
 8028SOL    HW235721   1.979   2.324  12.166  0.6635  1.4517 -0.0120
 8029SOL     OW35722   4.698   2.436   2.291  0.1285 -0.6129 -0.1690
 8029SOL    HW135723   4.625   2.490   2.320 -0.5535 -2.1471  0.9975
 8029SOL    HW235724   4.719   2.387   2.371 -0.5399 -0.5353  0.0521
 8030SOL     OW35725   1.606   1.644  14.603  0.6736  0.3319  0.2494
 8030SOL    HW135726   1.533   1.594  14.566  0.5280  1.6756 -1.2718
 8030SOL    HW235727   1.570   1.731  14.586 -1.2380 -0.5606 -0.3172
 8031SOL     OW35728   1.867   2.831   7.558  0.4394 -0.0487  0.4569
 8031SOL    HW135729   1.932   2.846   7.490  0.1330  0.1276  0.2028
 8031SOL    HW235730   1.778   2.832   7.523  0.8737  1.7122 -0.6065
 8032SOL     OW35731   4.686   3.376   8.302 -0.8330  0.0755  0.4463
 8032SOL    HW135732   4.601   3.419   8.294 -0.3301  1.1405  0.9124
 8032SOL    HW235733   0.011   3.451   8.297  0.5759 -1.1254 -0.8889
 8033SOL     OW35734   1.064   3.459   3.479 -0.3541  0.3456 -0.0471
 8033SOL    HW135735   1.053   3.553   3.495 -1.5622  0.7032 -2.8492
 8033SOL    HW235736   1.009   3.436   3.404 -0.9463 -3.1487  1.4767
 8034SOL     OW35737   4.335   1.810   3.765  0.4744 -0.0094 -0.7340
 8034SOL    HW135738   4.405   1.829   3.828  0.1180  1.0074 -0.6356
 8034SOL    HW235739   4.353   1.869   3.692 -2.1191  2.5482  0.6741
 8035SOL     OW35740   4.453   3.713   3.074  0.6114 -0.3102  0.4467
 8035SOL    HW135741   4.373   3.682   3.031 -0.3708  1.4934  0.9970
 8035SOL    HW235742   4.472   3.783   3.011  1.2850 -1.5945 -0.7931
 8036SOL     OW35743   1.198   0.811   6.108 -0.2005 -0.0768 -0.2562
 8036SOL    HW135744   1.268   0.876   6.100 -0.3014 -0.1856 -2.0540
 8036SOL    HW235745   1.221   0.784   6.197 -1.3263 -1.9088 -0.5311
 8037SOL     OW35746   3.703   4.006   3.327 -0.2396  0.4335  0.6512
 8037SOL    HW135747   3.669   3.931   3.376  0.1829  0.7563  1.4508
 8037SOL    HW235748   3.688   3.982   3.236 -0.1310 -0.2670  0.8212
 8038SOL     OW35749   2.958   3.868   5.747  0.1229 -0.8364  0.3616
 8038SOL    HW135750   2.895   3.799   5.768  1.9967 -2.8992 -0.9190
 8038SOL    HW235751   3.007   3.837   5.671 -1.2909 -1.2671 -0.3713
 8039SOL     OW35752   3.446   3.877  12.067 -0.4366 -0.4347 -0.1023
 8039SOL    HW135753   3.379   3.842  12.009 -0.1547  0.1817 -0.8066
 8039SOL    HW235754   3.405   3.955  12.105 -0.3027 -0.3859 -0.0547
 8040SOL     OW35755   0.605   2.748  16.563 -0.3397  0.1809  0.2687
 8040SOL    HW135756   0.672   2.793  16.510 -1.0213 -1.2679 -1.8208
 8040SOL    HW235757   0.641   2.737  16.651  0.7884  0.9741 -0.0863
 8041SOL     OW35758   4.119   0.853  11.442  0.4031 -0.1054 -0.0132
 8041SOL    HW135759   4.209   0.833  11.468  0.6949  1.2347  0.0087
 8041SOL    HW235760   4.083   0.765  11.458 -0.8687  1.0301  3.2787
 8042SOL     OW35761   0.326   3.290   6.056  0.0364 -0.2391 -0.3716
 8042SOL    HW135762   0.404   3.235   6.044  0.1518 -0.2371  0.3585
 8042SOL    HW235763   0.334   3.346   5.979  1.3236  1.8751  1.3267
 8043SOL     OW35764   1.959   0.948   6.076 -0.1927  0.6416 -0.1036
 8043SOL    HW135765   2.030   0.917   6.132 -0.3242 -0.5707 -0.6064
 8043SOL    HW235766   1.966   0.885   6.005 -0.8650 -0.7356  1.0454
 8044SOL     OW35767   4.181   0.124  11.831  0.1701 -0.1333 -0.1386
 8044SOL    HW135768   4.266   0.107  11.872  0.4702  0.0234 -0.6991
 8044SOL    HW235769   4.137   0.145  11.913 -1.7311 -0.6844 -1.0193
 8045SOL     OW35770   2.070   0.232   2.521 -0.9859 -0.0071  0.3403
 8045SOL    HW135771   2.117   0.287   2.457  0.1036 -2.3285 -0.8425
 8045SOL    HW235772   2.122   0.250   2.599  0.5321  2.1138 -1.1604
 8046SOL     OW35773   4.360   3.095   3.688  0.2029 -0.4144  0.7177
 8046SOL    HW135774   4.410   3.038   3.629 -0.4024 -0.1005 -0.1102
 8046SOL    HW235775   4.270   3.062   3.688 -0.0667  0.3126 -0.2916
 8047SOL     OW35776   2.228   0.779   9.388  0.4819  0.3803  0.8430
 8047SOL    HW135777   2.277   0.743   9.315 -1.0954 -0.3803  0.1507
 8047SOL    HW235778   2.193   0.854   9.341 -0.3085  0.2606  1.2192
 8048SOL     OW35779   0.258   3.774   2.734  0.1048 -0.3634  0.2002
 8048SOL    HW135780   0.307   3.827   2.798  1.0764  0.9630 -1.6250
 8048SOL    HW235781   0.225   3.840   2.673  0.2738  0.5886  1.1383
 8049SOL     OW35782   4.725   0.805   8.902  0.2270  0.2610  0.1507
 8049SOL    HW135783   0.055   0.821   8.833 -1.3067  0.2311 -1.2918
 8049SOL    HW235784   4.693   0.724   8.862  0.2206  0.2780  0.1218
 8050SOL     OW35785   2.513   3.643   5.595  0.3781  0.2397 -0.1915
 8050SOL    HW135786   2.492   3.551   5.580  0.9465 -0.0285  0.6763
 8050SOL    HW235787   2.433   3.695   5.588 -0.7874 -0.9714  4.1715
 8051SOL     OW35788   3.086   1.552   1.685  0.0035 -0.2376  0.4844
 8051SOL    HW135789   3.170   1.594   1.664  0.1454 -0.3108  0.9104
 8051SOL    HW235790   3.034   1.631   1.669  3.7106  2.3572  1.3110
 8052SOL     OW35791   0.956   2.927   8.523 -0.1748  0.0488  0.2412
 8052SOL    HW135792   1.040   2.902   8.560 -0.3006 -0.2889  0.3003
 8052SOL    HW235793   0.924   2.980   8.596 -3.8821 -0.9726 -0.6379
 8053SOL     OW35794   0.012   3.310   3.747  0.5272  0.3354  0.7329
 8053SOL    HW135795   0.055   3.394   3.764 -0.9393  1.3957 -0.8135
 8053SOL    HW235796   0.083   3.251   3.773  0.2442  0.1688  1.1210
 8054SOL     OW35797   2.914   1.653   6.659 -0.0310 -0.3398  0.3595
 8054SOL    HW135798   2.860   1.674   6.735 -1.9654 -1.4329 -0.7115
 8054SOL    HW235799   2.925   1.736   6.614 -2.2628 -0.6621 -0.7986
 8055SOL     OW35800   2.223   4.672   1.920 -0.4156  0.6432  0.1260
 8055SOL    HW135801   2.216   0.005   1.988 -1.9521  1.1838 -0.5625
 8055SOL    HW235802   2.129   4.671   1.899 -0.0287  0.0875 -1.5688
 8056SOL     OW35803   4.524   3.344   9.084  0.3595  0.0975 -0.0165
 8056SOL    HW135804   4.614   3.312   9.079  0.7014  0.8522  1.3899
 8056SOL    HW235805   4.479   3.259   9.091  0.7439  0.1288  2.7474
 8057SOL     OW35806   1.560   0.444   7.370  0.1585  0.0856 -0.0381
 8057SOL    HW135807   1.542   0.357   7.335  0.2153  0.2442 -0.4681
 8057SOL    HW235808   1.508   0.498   7.310  0.1653  1.2060  0.9650
 8058SOL     OW35809   2.055   1.150   3.558  0.2223  0.2846  0.4677
 8058SOL    HW135810   2.130   1.200   3.591 -0.0594  0.8143  0.3084
 8058SOL    HW235811   2.035   1.104   3.639  1.2425 -1.1864 -0.1072
 8059SOL     OW35812   1.816   2.333  12.097 -0.6391 -0.0845 -0.2521
 8059SOL    HW135813   1.723   2.324  12.119 -0.4131 -1.4368  0.1261
 8059SOL    HW235814   1.813   2.429  12.094 -1.4106 -0.1550 -1.4654
 8060SOL     OW35815   4.153   3.666   7.689 -0.5103 -0.3854  0.3358
 8060SOL    HW135816   4.064   3.655   7.656  0.3793  0.5478 -2.3841
 8060SOL    HW235817   4.177   3.755   7.663 -1.3476 -0.2971 -0.1422
 8061SOL     OW35818   2.509   2.525   8.544 -0.0474  0.3738  0.2327
 8061SOL    HW135819   2.428   2.474   8.544  2.0382 -2.9432  0.5161
 8061SOL    HW235820   2.519   2.528   8.449  4.6591 -0.8296  0.7241
 8062SOL     OW35821   3.739   4.520   6.065 -0.1140 -0.4875 -0.4778
 8062SOL    HW135822   3.816   4.527   6.123 -0.4005  1.2035 -0.2812
 8062SOL    HW235823   3.684   4.567   6.128 -3.0764 -1.2410 -2.5279
 8063SOL     OW35824   2.765   1.561  12.391 -0.3475 -0.0220 -0.3409
 8063SOL    HW135825   2.701   1.605  12.335 -0.7634 -0.6110 -0.3233
 8063SOL    HW235826   2.707   1.532  12.462  0.0452 -0.0861 -0.0479
 8064SOL     OW35827   2.035   1.347  15.227 -0.7673 -0.3486  0.0019
 8064SOL    HW135828   1.982   1.409  15.177 -0.6587 -1.3215 -1.3269
 8064SOL    HW235829   2.073   1.407  15.291  0.9745 -0.4365 -0.9376
 8065SOL     OW35830   4.605   3.110   2.241  0.0070  0.6744 -0.5551
 8065SOL    HW135831   4.543   3.172   2.279 -1.7304  0.5155 -3.1447
 8065SOL    HW235832   4.593   3.110   2.146 -0.2295 -0.9977 -0.5270
 8066SOL     OW35833   4.429   2.086   1.870  0.2450 -0.2545 -0.1877
 8066SOL    HW135834   4.442   2.017   1.805 -2.0390 -0.6417 -0.2372
 8066SOL    HW235835   4.472   2.044   1.944  0.0335  0.1461  0.1639
 8067SOL     OW35836   1.692   1.745   3.594 -0.0957 -0.1276  0.2872
 8067SOL    HW135837   1.725   1.813   3.653  0.4746  0.2700 -0.4974
 8067SOL    HW235838   1.753   1.673   3.605  1.1981  1.1690  1.7247
 8068SOL     OW35839   1.631   2.176  14.594  0.0810 -0.2054  0.4425
 8068SOL    HW135840   1.703   2.219  14.547 -1.4759  1.5478 -0.3322
 8068SOL    HW235841   1.612   2.123  14.517  3.6498 -1.2770  0.3182
 8069SOL     OW35842   3.026   1.719  11.239 -0.3557 -0.4139 -0.3497
 8069SOL    HW135843   3.016   1.810  11.266 -0.2506 -0.7767  0.8910
 8069SOL    HW235844   2.937   1.686  11.241 -0.9690  1.1826 -1.1331
 8070SOL     OW35845   2.540   3.770   4.388 -0.2612 -0.5404 -0.4546
 8070SOL    HW135846   2.506   3.834   4.451 -0.4486 -0.3517 -0.7446
 8070SOL    HW235847   2.535   3.693   4.444 -0.4570 -0.9878 -1.0877
 8071SOL     OW35848   3.066   3.999   8.338 -0.3092  0.1892 -0.4788
 8071SOL    HW135849   3.066   4.093   8.359 -1.7413  0.0129  0.2752
 8071SOL    HW235850   2.973   3.978   8.333 -0.6999  2.6422 -3.4836
 8072SOL     OW35851   0.158   0.251   4.260  0.4149 -0.2577 -0.2464
 8072SOL    HW135852   0.070   0.236   4.297  1.3022  0.5366  2.2080
 8072SOL    HW235853   0.214   0.191   4.308  0.4463 -1.2620 -1.5613
 8073SOL     OW35854   0.611   2.883   6.663  0.5460 -0.3154 -0.0412
 8073SOL    HW135855   0.536   2.925   6.621  2.1505  0.6814 -1.8931
 8073SOL    HW235856   0.639   2.825   6.593  0.8496 -2.0429  1.4963
 8074SOL     OW35857   4.337   0.178   6.254 -0.3555 -0.3261  0.8468
 8074SOL    HW135858   4.308   0.229   6.330  1.4418 -0.8928  1.9152
 8074SOL    HW235859   4.314   0.232   6.179  2.3287 -1.7548 -0.9812
 8075SOL     OW35860   4.394   1.962   2.762 -0.1302 -0.1261 -0.5646
 8075SOL    HW135861   4.429   1.929   2.680  1.9357  1.7314 -0.4639
 8075SOL    HW235862   4.434   2.050   2.761 -0.5449  0.0621 -0.5067
 8076SOL     OW35863   4.584   1.765  16.457 -0.3183  0.7917  0.0798
 8076SOL    HW135864   4.513   1.813  16.499 -1.0956  0.1616 -0.4997
 8076SOL    HW235865   4.647   1.836  16.446 -0.9043  0.9434 -2.3626
 8077SOL     OW35866   1.295   1.548   4.671 -0.1258 -0.8817 -0.1234
 8077SOL    HW135867   1.330   1.623   4.719  1.1998 -0.6042 -1.5126
 8077SOL    HW235868   1.214   1.578   4.631  0.2715  0.4504  0.0777
 8078SOL     OW35869   1.179   3.736   7.196  0.1296 -0.2844 -0.4153
 8078SOL    HW135870   1.214   3.801   7.257 -1.6995  0.5319 -0.2489
 8078SOL    HW235871   1.235   3.745   7.119  0.1153  2.2006 -0.1412
 8079SOL     OW35872   1.462   4.605  13.430  1.1784 -0.2494  0.2819
 8079SOL    HW135873   1.537   4.647  13.473  1.7046  0.4279 -1.2909
 8079SOL    HW235874   1.393   4.620  13.494 -0.0491 -1.5776 -0.7383
 8080SOL     OW35875   2.750   0.545   8.916  0.2231 -0.1733  0.1601
 8080SOL    HW135876   2.728   0.471   8.860  0.0400  0.6625 -0.8607
 8080SOL    HW235877   2.829   0.588   8.884 -0.4007  0.2635 -0.7892
 8081SOL     OW35878   1.253   2.757   4.338 -0.1176 -0.7492 -0.3232
 8081SOL    HW135879   1.280   2.792   4.423 -0.4660  2.0343 -1.3627
 8081SOL    HW235880   1.322   2.780   4.276 -1.1389  0.7711 -0.8862
 8082SOL     OW35881   2.545   3.357   4.163  0.6875  0.0686  0.6298
 8082SOL    HW135882   2.566   3.290   4.228  1.5314  0.3344  0.6279
 8082SOL    HW235883   2.628   3.353   4.116  0.4877 -1.0075  0.3674
 8083SOL     OW35884   4.601   0.567   7.512  0.2745  0.4975 -0.0175
 8083SOL    HW135885   4.525   0.613   7.549 -0.0403 -1.2683  1.5368
 8083SOL    HW235886   4.632   0.514   7.585  1.8939  1.0086 -0.3459
 8084SOL     OW35887   1.512   0.787   4.505 -0.1745  0.0883 -0.5126
 8084SOL    HW135888   1.582   0.747   4.453 -0.1701  0.7089 -0.9923
 8084SOL    HW235889   1.559   0.867   4.529 -0.5146  0.3163 -0.6078
 8085SOL     OW35890   0.858   2.190   8.013 -1.3507 -0.2107 -0.2397
 8085SOL    HW135891   0.952   2.197   8.028 -1.0913 -2.0241 -0.9067
 8085SOL    HW235892   0.841   2.197   7.919  0.6689  2.2577 -0.3959
 8086SOL     OW35893   0.927   2.753   6.182 -0.3939 -0.2126  0.0253
 8086SOL    HW135894   0.960   2.701   6.255  1.5923  1.4735  0.3407
 8086SOL    HW235895   0.856   2.702   6.143 -2.3147  1.2849  1.6039
 8087SOL     OW35896   3.539   2.336   9.809  0.0964  0.0526  0.2386
 8087SOL    HW135897   3.517   2.429   9.814 -0.4954 -0.2244  2.8690
 8087SOL    HW235898   3.600   2.332   9.883 -1.7943 -0.8165  1.7413
 8088SOL     OW35899   1.498   0.557   8.847 -0.6659  0.0147 -0.0882
 8088SOL    HW135900   1.482   0.475   8.800  0.3492 -1.1822  1.6609
 8088SOL    HW235901   1.490   0.613   8.770  0.4122 -0.9830 -0.9238
 8089SOL     OW35902   4.529   1.345   8.632  0.4458 -0.1650 -0.2809
 8089SOL    HW135903   4.545   1.277   8.697  2.1404  0.9752  0.5110
 8089SOL    HW235904   4.516   1.292   8.553 -0.1657 -0.0164 -0.2807
 8090SOL     OW35905   0.793   1.398   0.805 -0.2564 -0.0207 -0.1434
 8090SOL    HW135906   0.838   1.317   0.781  3.8295  1.1803  3.4787
 8090SOL    HW235907   0.845   1.426   0.880 -2.3138  1.9605  0.5250
 8091SOL     OW35908   2.149   1.776   5.988  0.6835  0.0622  0.4176
 8091SOL    HW135909   2.151   1.821   6.073 -0.9026 -0.9062  0.9488
 8091SOL    HW235910   2.060   1.741   5.993  0.8378 -0.1246  1.8741
 8092SOL     OW35911   1.463   4.085   5.358  0.0294  0.2181 -1.0143
 8092SOL    HW135912   1.433   4.078   5.267 -1.6733  1.4925 -0.5659
 8092SOL    HW235913   1.407   4.023   5.403 -0.1696  0.9433 -0.2597
 8093SOL     OW35914   0.184   0.515   8.848  0.1653 -0.3458 -1.0038
 8093SOL    HW135915   0.233   0.570   8.786  0.6424  0.4610  0.0894
 8093SOL    HW235916   0.098   0.535   8.811  0.6434 -1.3447 -2.6355
 8094SOL     OW35917   1.287   2.456   7.426  0.5018  0.2479  0.1056
 8094SOL    HW135918   1.195   2.436   7.446  0.2777  0.1943 -0.9955
 8094SOL    HW235919   1.326   2.411   7.501 -0.1522 -1.4334 -0.5729
 8095SOL     OW35920   2.642   2.744   8.348 -0.7135  0.3695 -0.0006
 8095SOL    HW135921   2.661   2.827   8.391  4.4668 -1.2438  0.7975
 8095SOL    HW235922   2.569   2.754   8.286 -1.3161 -0.3718  0.5880
 8096SOL     OW35923   3.317   2.066   5.349 -0.2660  0.0993 -0.1569
 8096SOL    HW135924   3.397   2.117   5.336  0.0266 -0.8361 -2.0019
 8096SOL    HW235925   3.276   2.083   5.264  2.1174  0.1430 -1.2994
 8097SOL     OW35926   4.118   2.337  12.404  0.4931  0.2859 -0.3204
 8097SOL    HW135927   4.200   2.302  12.369  0.9853  1.2042 -0.0974
 8097SOL    HW235928   4.076   2.387  12.334 -0.3892 -1.5894 -1.1326
 8098SOL     OW35929   4.062   3.097  13.569 -0.0819  0.2711  0.0011
 8098SOL    HW135930   4.068   3.165  13.501  0.8636  0.3804  0.2069
 8098SOL    HW235931   4.153   3.074  13.587 -1.6510 -0.9574  6.3472
 8099SOL     OW35932   1.882   3.265   1.553  0.5070 -0.1422 -0.5394
 8099SOL    HW135933   1.909   3.208   1.480 -1.0043 -0.6404 -0.7110
 8099SOL    HW235934   1.885   3.349   1.508  0.1456  1.5601  2.6844
 8100SOL     OW35935   1.222   3.408   3.815  0.9739 -0.4682  0.1582
 8100SOL    HW135936   1.195   3.491   3.777 -1.4909 -1.3389  0.0452
 8100SOL    HW235937   1.243   3.345   3.747 -1.1716  0.0509 -0.9780
 8101SOL     OW35938   0.281   3.770  15.651  0.3515  0.1368  0.0457
 8101SOL    HW135939   0.288   3.855  15.694 -0.9765 -0.6220  1.7585
 8101SOL    HW235940   0.343   3.785  15.579  0.6220  0.2482  0.3038
 8102SOL     OW35941   0.972   4.139   8.632  0.9732  1.3711  0.2501
 8102SOL    HW135942   0.943   4.220   8.673 -2.1861 -1.2166  3.1689
 8102SOL    HW235943   1.065   4.157   8.622  1.6770 -1.3054  2.0753
 8103SOL     OW35944   3.257   0.679  17.616  0.1428 -0.4412 -0.1398
 8103SOL    HW135945   3.255   0.726  17.533  0.6242 -1.5688 -0.8007
 8103SOL    HW235946   3.334   0.622  17.612  0.0251 -0.6145  0.0180
 8104SOL     OW35947   4.413   0.208   3.148 -0.1671  0.1495 -0.3344
 8104SOL    HW135948   4.481   0.234   3.210  2.4511 -2.7602 -1.9723
 8104SOL    HW235949   4.371   0.145   3.207 -1.8335  0.9281 -0.6756
 8105SOL     OW35950   1.448   1.091   4.015  0.3263  0.3705 -0.9721
 8105SOL    HW135951   1.379   1.101   4.081  0.5684 -0.4701 -0.5972
 8105SOL    HW235952   1.477   1.181   4.002  2.2467  0.0400  1.0301
 8106SOL     OW35953   3.842   3.067   0.941 -0.6369  0.9002 -0.4874
 8106SOL    HW135954   3.894   2.987   0.948 -0.7677  0.8209 -0.4177
 8106SOL    HW235955   3.793   3.064   1.024  1.3345  1.9782  0.7032
 8107SOL     OW35956   0.040   2.780   1.732  0.0512  0.0094 -0.4274
 8107SOL    HW135957   0.113   2.800   1.790  1.4583  0.1964 -2.2444
 8107SOL    HW235958   4.705   2.784   1.799  0.1550  1.4585 -0.4247
 8108SOL     OW35959   2.970   0.485   4.892  0.2272  0.0264 -1.2441
 8108SOL    HW135960   2.987   0.579   4.888 -0.8619  0.3124  1.2659
 8108SOL    HW235961   3.029   0.464   4.819  0.6948  0.3411 -0.9556
 8109SOL     OW35962   2.164   1.969   8.931 -0.4823  0.2283 -0.2528
 8109SOL    HW135963   2.234   1.973   8.996  0.3078  0.8276 -1.1272
 8109SOL    HW235964   2.185   1.888   8.884 -0.4834 -0.1842  0.4653
 8110SOL     OW35965   2.007   2.010   0.057 -0.6566  0.0053 -0.5115
 8110SOL    HW135966   2.052   2.067  17.731 -0.0218 -0.6332 -0.6221
 8110SOL    HW235967   2.010   2.068   0.134  0.0123  0.2123 -0.6958
 8111SOL     OW35968   0.446   1.121   3.790 -0.4393  0.2056 -0.4664
 8111SOL    HW135969   0.413   1.034   3.813 -1.9011  1.1508  0.9508
 8111SOL    HW235970   0.402   1.139   3.707 -1.8902 -2.4619 -0.2578
 8112SOL     OW35971   2.786   3.800   4.620 -0.5281  0.5777 -0.4770
 8112SOL    HW135972   2.861   3.742   4.608 -2.5400 -2.1347 -0.0918
 8112SOL    HW235973   2.718   3.735   4.601  1.3701 -0.7483 -2.8278
 8113SOL     OW35974   2.061   4.107  11.825  0.9707 -0.0299 -0.4575
 8113SOL    HW135975   2.036   4.031  11.773  0.5771 -1.7503  2.2258
 8113SOL    HW235976   2.140   4.137  11.781  0.4493 -0.2091 -1.5013
 8114SOL     OW35977   2.591   4.285  16.495  0.3375 -0.7267  0.0049
 8114SOL    HW135978   2.563   4.209  16.547 -1.2475  0.6288  1.1305
 8114SOL    HW235979   2.523   4.289  16.428  1.6622 -1.0082 -1.3516
 8115SOL     OW35980   0.686   2.762   9.455  0.8153 -0.1665  0.3371
 8115SOL    HW135981   0.628   2.714   9.514  0.3286  1.0752  0.8689
 8115SOL    HW235982   0.629   2.795   9.386  0.3380  0.1089  0.8638
 8116SOL     OW35983   1.225   2.786   7.970 -0.4366  0.3584 -0.5887
 8116SOL    HW135984   1.298   2.731   7.942  0.2097 -0.9590  3.5997
 8116SOL    HW235985   1.258   2.870   7.938 -0.3221  0.8468  0.8260
 8117SOL     OW35986   2.040   3.179   6.480 -0.4908  0.2248  0.3168
 8117SOL    HW135987   2.071   3.098   6.521 -0.3756 -0.1944 -0.6111
 8117SOL    HW235988   2.070   3.251   6.536 -1.1104  1.7511 -1.3024
 8118SOL     OW35989   0.673   1.209   8.637 -0.4017  0.2137 -0.1001
 8118SOL    HW135990   0.768   1.213   8.653 -0.6255 -0.4275  1.3358
 8118SOL    HW235991   0.644   1.257   8.714  1.0322  0.9674 -0.0129
 8119SOL     OW35992   0.135   0.451  11.154  0.3932 -0.1175 -0.3894
 8119SOL    HW135993   0.154   0.448  11.248 -1.0260 -2.0182 -0.1672
 8119SOL    HW235994   0.191   0.526  11.134 -1.5516  1.0604 -1.3557
 8120SOL     OW35995   4.326   1.255   5.851 -0.3855 -0.4024 -0.1887
 8120SOL    HW135996   4.382   1.242   5.775 -0.2254 -0.2197 -0.1039
 8120SOL    HW235997   4.287   1.169   5.864  1.1267 -1.2045 -1.0386
 8121SOL     OW35998   2.645   3.227   6.587  0.3590  0.0396 -0.2874
 8121SOL    HW135999   2.585   3.261   6.653  1.3265 -0.3835  0.8105
 8121SOL    HW236000   2.727   3.258   6.626 -1.0047  3.2955  0.0465
 8122SOL     OW36001   1.259   2.293   3.777 -0.0857  0.0108 -0.4217
 8122SOL    HW136002   1.200   2.251   3.840  0.8010 -1.9411 -0.8991
 8122SOL    HW236003   1.333   2.315   3.833 -0.8568  1.2647  0.1217
 8123SOL     OW36004   3.830   0.942   3.458  0.3089  0.2101 -0.2126
 8123SOL    HW136005   3.763   0.882   3.490 -1.5191  2.3119 -0.0857
 8123SOL    HW236006   3.867   0.953   3.546 -0.4717 -0.5925  0.2208
 8124SOL     OW36007   2.491   1.200   3.408 -0.5387 -0.6303 -0.2391
 8124SOL    HW136008   2.430   1.258   3.453 -0.1847 -1.2277  1.0265
 8124SOL    HW236009   2.433   1.125   3.390 -1.0322 -0.7043  1.6502
 8125SOL     OW36010   1.440   0.072   5.855 -0.2460  0.0353 -0.1548
 8125SOL    HW136011   1.465   0.059   5.763  1.6697  2.8292 -0.0347
 8125SOL    HW236012   1.483   0.156   5.871  0.3138 -0.4881  1.1080
 8126SOL     OW36013   4.440   1.804  12.466 -0.0395 -0.2197 -0.0295
 8126SOL    HW136014   4.359   1.852  12.450  1.3032  1.7207 -1.0634
 8126SOL    HW236015   4.475   1.813  12.377  1.1797 -2.8060  0.1812
 8127SOL     OW36016   1.902   0.580   8.451  0.2928 -0.5252 -0.3825
 8127SOL    HW136017   1.987   0.624   8.457  0.2907 -0.5129 -0.4435
 8127SOL    HW236018   1.894   0.540   8.537  2.9964 -0.8721 -0.3068
 8128SOL     OW36019   3.678   2.188   3.883 -0.0244  0.8250  0.0248
 8128SOL    HW136020   3.729   2.210   3.961  0.8503  2.2691 -0.9504
 8128SOL    HW236021   3.685   2.270   3.833 -1.8990 -0.0538 -1.6967
 8129SOL     OW36022   2.795   3.609  10.381  0.4199 -0.5253 -0.1568
 8129SOL    HW136023   2.883   3.573  10.367  0.8524  0.0399  1.1209
 8129SOL    HW236024   2.788   3.644  10.470  1.6731  0.4421 -0.4296
 8130SOL     OW36025   0.964   2.097  10.314  0.9748 -0.3451  0.2607
 8130SOL    HW136026   0.936   2.188  10.322  1.9498 -0.2487  2.5964
 8130SOL    HW236027   0.942   2.059  10.399 -0.5075 -2.7634 -1.1949
 8131SOL     OW36028   3.163   0.422   9.323 -0.1304  0.0011 -0.1282
 8131SOL    HW136029   3.208   0.506   9.308  1.2300 -0.5272  1.0208
 8131SOL    HW236030   3.106   0.417   9.246 -0.4704 -2.1418  0.2653
 8132SOL     OW36031   0.357   2.650   2.123 -0.5598 -0.1357 -0.1003
 8132SOL    HW136032   0.438   2.602   2.108 -0.8151 -0.4985 -0.3271
 8132SOL    HW236033   0.294   2.578   2.116  0.3545 -0.9287 -0.1146
 8133SOL     OW36034   1.402   1.569  12.957 -0.4883  0.1554 -0.2637
 8133SOL    HW136035   1.472   1.518  12.996 -0.2153 -0.7156 -1.8720
 8133SOL    HW236036   1.388   1.525  12.873 -2.6383  0.8351 -0.2726
 8134SOL     OW36037   1.628   1.598   2.611 -0.3800 -0.3160 -0.3136
 8134SOL    HW136038   1.604   1.667   2.673 -0.6335 -1.3352  0.7343
 8134SOL    HW236039   1.708   1.645   2.589  0.5428 -1.5610  0.3881
 8135SOL     OW36040   3.361   3.154   0.719 -0.3784  0.2374  0.3162
 8135SOL    HW136041   3.419   3.207   0.665  0.7520 -2.4766 -1.1061
 8135SOL    HW236042   3.273   3.177   0.689 -0.6455 -1.3378 -0.1165
 8136SOL     OW36043   0.691   2.968   7.240 -0.3606  0.6443 -0.1868
 8136SOL    HW136044   0.641   2.886   7.249 -0.0723  0.6817  1.7356
 8136SOL    HW236045   0.649   3.012   7.166  1.0658  2.5800  0.1720
 8137SOL     OW36046   2.762   2.726  10.839 -0.3802  0.1129 -0.1559
 8137SOL    HW136047   2.704   2.792  10.801 -1.7051 -0.8626  0.1682
 8137SOL    HW236048   2.842   2.777  10.841  0.5160 -1.3587  2.0389
 8138SOL     OW36049   2.283   1.342  16.593 -0.3115 -0.5380 -0.0273
 8138SOL    HW136050   2.346   1.380  16.532 -0.4018 -0.1899  0.0945
 8138SOL    HW236051   2.201   1.373  16.554 -1.3379 -2.4011  0.6312
 8139SOL     OW36052   3.181   2.157  11.483 -0.1798  0.4814 -0.4058
 8139SOL    HW136053   3.092   2.150  11.517 -0.8137 -0.0772 -2.1767
 8139SOL    HW236054   3.221   2.078  11.521  0.1742 -0.1161 -2.0112
 8140SOL     OW36055   4.506   1.232   1.943 -0.2871 -0.3246  0.3780
 8140SOL    HW136056   4.586   1.194   1.979 -0.6718 -1.2712  0.2220
 8140SOL    HW236057   4.538   1.322   1.936  0.8548 -0.7233  0.5277
 8141SOL     OW36058   1.121   0.453  10.394 -0.3624  0.2630  0.2283
 8141SOL    HW136059   1.147   0.490  10.478 -0.9769  0.1753  0.4589
 8141SOL    HW236060   1.029   0.431  10.406 -0.1202 -1.2331 -0.6376
 8142SOL     OW36061   3.188   3.408   5.197 -0.1272  0.7428  0.4806
 8142SOL    HW136062   3.221   3.476   5.256 -3.6933  0.1829  3.1427
 8142SOL    HW236063   3.102   3.392   5.236  0.2904 -2.3424  0.1411
 8143SOL     OW36064   4.266   0.497   8.199 -0.0550 -0.1339  0.0945
 8143SOL    HW136065   4.172   0.509   8.186 -0.1738 -1.2264 -0.0477
 8143SOL    HW236066   4.278   0.406   8.170 -0.2281 -0.4281  0.9339
 8144SOL     OW36067   0.362   0.210   9.526  0.3120  0.0461  0.1881
 8144SOL    HW136068   0.368   0.306   9.522  3.2882 -0.1677 -0.5220
 8144SOL    HW236069   0.456   0.193   9.529 -0.2876 -2.7427  3.2630
 8145SOL     OW36070   2.329   4.328   6.547 -0.8033  0.6356 -0.5063
 8145SOL    HW136071   2.310   4.308   6.638 -3.6054 -0.6679 -1.3838
 8145SOL    HW236072   2.242   4.326   6.506 -1.4079 -0.5074  0.8543
 8146SOL     OW36073   3.033   2.582   1.497 -0.1142 -0.4257  0.1450
 8146SOL    HW136074   3.109   2.593   1.439  0.0759 -0.3986  0.3997
 8146SOL    HW236075   3.062   2.512   1.555  3.3892  0.1581 -0.8868
 8147SOL     OW36076   1.027   1.210   1.016  0.0142  0.2471  0.1107
 8147SOL    HW136077   0.988   1.297   1.029 -2.2326 -0.9135  1.1140
 8147SOL    HW236078   1.116   1.228   1.045  0.3796 -1.6950  0.1781
 8148SOL     OW36079   0.018   2.021   5.578  0.0006 -0.0562 -0.1084
 8148SOL    HW136080   4.674   2.024   5.633 -0.8547 -0.1531 -1.3169
 8148SOL    HW236081   0.091   2.031   5.638  0.2942 -2.8025 -0.0078
 8149SOL     OW36082   0.546   2.095   9.003  0.8245 -0.3777  0.7199
 8149SOL    HW136083   0.492   2.142   8.940 -0.4476  0.5617  2.4980
 8149SOL    HW236084   0.629   2.143   9.001 -0.9014  2.6000 -0.2893
 8150SOL     OW36085   4.593   3.517   6.330 -0.5997  0.6673  0.5499
 8150SOL    HW136086   4.531   3.582   6.296  1.1520  1.5490 -0.9780
 8150SOL    HW236087   4.606   3.460   6.254 -1.9441  0.2991  0.5887
 8151SOL     OW36088   4.350   2.789   2.167 -0.5064  0.7613  0.0006
 8151SOL    HW136089   4.308   2.850   2.228 -0.2037  1.9943 -1.0271
 8151SOL    HW236090   4.350   2.838   2.085  0.6710  0.2991 -0.2589
 8152SOL     OW36091   3.287   2.493   1.463 -0.4129  0.0473  0.6464
 8152SOL    HW136092   3.312   2.469   1.552  1.1214 -2.5923 -0.4885
 8152SOL    HW236093   3.369   2.525   1.426 -1.2599  0.1285 -1.1639
 8153SOL     OW36094   0.373   4.363  15.631  0.1154  0.1383 -0.0509
 8153SOL    HW136095   0.359   4.430  15.564  2.9627 -0.5688 -1.3401
 8153SOL    HW236096   0.285   4.326  15.620 -0.2045  1.1951 -1.0273
 8154SOL     OW36097   3.014   1.877   5.295  0.3025 -0.1557  0.8769
 8154SOL    HW136098   2.978   1.933   5.364 -1.0039  0.4554 -0.2887
 8154SOL    HW236099   3.091   1.927   5.268  0.5086 -1.8773 -1.6945
 8155SOL     OW36100   3.956   1.989  17.055  0.6022 -0.4079 -0.0340
 8155SOL    HW136101   3.935   1.897  17.038 -0.8803 -0.2207  0.7976
 8155SOL    HW236102   3.945   1.986  17.150  0.0630 -1.7041 -0.1410
 8156SOL     OW36103   0.219   2.803   1.212 -0.2200  0.1437  0.5418
 8156SOL    HW136104   0.195   2.889   1.179  1.4884 -0.4166 -2.2436
 8156SOL    HW236105   0.314   2.814   1.212 -0.4134  1.7157  0.6362
 8157SOL     OW36106   2.267   1.006  14.673  0.1169 -0.0637 -0.8508
 8157SOL    HW136107   2.298   1.077  14.728 -1.5805  0.0722 -0.0712
 8157SOL    HW236108   2.249   0.949  14.748 -0.5602 -0.3327 -1.2157
 8158SOL     OW36109   3.395   3.685   9.157 -0.3127 -0.4761 -0.4083
 8158SOL    HW136110   3.461   3.682   9.227 -1.6276 -0.6470  0.8211
 8158SOL    HW236111   3.308   3.696   9.196  0.3474 -0.7683  1.1462
 8159SOL     OW36112   2.738   1.324  11.191 -0.5559 -0.0160  0.4265
 8159SOL    HW136113   2.650   1.354  11.169 -0.9646 -0.2418  1.7571
 8159SOL    HW236114   2.720   1.231  11.198  2.0752 -0.5459  0.2399
 8160SOL     OW36115   4.446   2.901  12.503 -0.2914  0.7035 -0.1750
 8160SOL    HW136116   4.398   2.983  12.492 -0.3139  0.6294 -0.6014
 8160SOL    HW236117   4.452   2.907  12.599  2.2299 -1.1357 -0.2352
 8161SOL     OW36118   0.319   1.911  11.025  0.5105 -0.1861  0.4364
 8161SOL    HW136119   0.333   1.946  10.937 -1.2787 -2.0519 -0.6076
 8161SOL    HW236120   0.253   1.843  11.012  0.4808 -0.2080  0.7065
 8162SOL     OW36121   0.897   2.420   5.788 -0.1412 -0.9438 -0.6490
 8162SOL    HW136122   0.805   2.415   5.761 -1.0350  1.7792  1.8991
 8162SOL    HW236123   0.944   2.494   5.750  0.1790 -0.0221  1.5321
 8163SOL     OW36124   4.375   3.721  12.035  0.0076 -0.5688  0.0786
 8163SOL    HW136125   4.357   3.631  12.009 -0.9065 -0.6767  1.0483
 8163SOL    HW236126   4.398   3.710  12.128 -0.3306  1.2141  0.3804
 8164SOL     OW36127   0.425   1.997  13.779  0.0154  0.3896 -0.3574
 8164SOL    HW136128   0.339   1.958  13.796  0.8470 -1.0458  0.5211
 8164SOL    HW236129   0.400   2.084  13.809 -0.0989  0.9801 -2.2145
 8165SOL     OW36130   1.590   2.851   2.250  0.0683  0.3970  0.4509
 8165SOL    HW136131   1.579   2.888   2.338  0.9040 -1.0275  1.1647
 8165SOL    HW236132   1.503   2.812   2.238  0.5015 -0.2918 -0.4246
 8166SOL     OW36133   1.022   2.913   7.832  0.7665  0.0655 -0.6009
 8166SOL    HW136134   0.948   2.926   7.892  0.6132 -3.0474 -0.1217
 8166SOL    HW236135   1.084   2.866   7.887 -0.1995  1.2207  1.4818
 8167SOL     OW36136   0.118   4.180   7.576 -0.2911  0.2766  0.1337
 8167SOL    HW136137   0.198   4.144   7.613 -0.7767 -0.9207  0.0239
 8167SOL    HW236138   0.152   4.188   7.487 -1.6301 -0.0307 -0.4097
 8168SOL     OW36139   2.147   0.886   7.593  0.4088 -0.0064 -0.6522
 8168SOL    HW136140   2.184   0.964   7.551 -2.1136  0.5754 -1.7576
 8168SOL    HW236141   2.152   0.826   7.518 -0.9022 -1.4678  0.4123
 8169SOL     OW36142   2.032   1.022   3.083 -0.1687  0.4685  0.2474
 8169SOL    HW136143   2.029   0.968   3.162 -2.9587  1.1452  0.6230
 8169SOL    HW236144   1.942   1.055   3.077 -0.3502  0.1811  1.4697
 8170SOL     OW36145   2.197   3.438   9.873 -0.0678 -0.1753 -0.1379
 8170SOL    HW136146   2.155   3.404   9.952 -1.1975  1.5351 -0.0015
 8170SOL    HW236147   2.280   3.475   9.904 -0.2592 -0.2106  0.4080
 8171SOL     OW36148   4.270   0.794   4.730 -0.1061 -0.0712 -0.4073
 8171SOL    HW136149   4.325   0.820   4.804 -0.8450  3.4467 -1.0764
 8171SOL    HW236150   4.337   0.788   4.662  1.0304  0.0757  0.7034
 8172SOL     OW36151   0.652   2.277   8.516  0.0020  0.2449  0.3005
 8172SOL    HW136152   0.632   2.186   8.498  0.9725  0.0180  0.3632
 8172SOL    HW236153   0.720   2.296   8.451  1.4692 -0.5288  1.5866
 8173SOL     OW36154   0.398   4.650   3.214  0.2608  0.0634  0.0124
 8173SOL    HW136155   0.435   4.710   3.279  1.6592  1.8364 -2.4262
 8173SOL    HW236156   0.378   4.575   3.271  2.3129  0.0034  0.6562
 8174SOL     OW36157   2.927   4.569  15.624  0.9033 -0.5064  0.4260
 8174SOL    HW136158   2.970   4.642  15.670  0.5426 -0.5188  0.7874
 8174SOL    HW236159   2.970   4.571  15.539 -2.0315  0.1801 -1.0423
 8175SOL     OW36160   2.062   3.605   6.007 -0.3093 -1.0973  0.0149
 8175SOL    HW136161   1.968   3.621   6.014  0.1094  1.1690  0.1733
 8175SOL    HW236162   2.078   3.575   6.097 -1.3789 -1.0286  0.2277
 8176SOL     OW36163   2.205   3.129   4.656 -0.3533 -0.5597  0.5364
 8176SOL    HW136164   2.123   3.170   4.628  1.7316  2.5397 -1.0947
 8176SOL    HW236165   2.177   3.050   4.702 -1.1316 -1.8153 -2.1171
 8177SOL     OW36166   3.148   4.648  10.810  0.4305  0.1121 -0.4183
 8177SOL    HW136167   3.099   4.704  10.750  0.7823 -0.3481 -1.1207
 8177SOL    HW236168   3.123   4.702  10.886  2.3020 -1.3334  1.2192
 8178SOL     OW36169   3.553   0.972   5.313  0.0711  0.7510 -0.5480
 8178SOL    HW136170   3.613   0.934   5.249  0.0698 -0.6048  0.2612
 8178SOL    HW236171   3.492   0.900   5.330  0.0501  0.9324  0.1159
 8179SOL     OW36172   1.746   4.536   7.190  0.1870 -0.0788 -0.4046
 8179SOL    HW136173   1.717   4.478   7.119 -1.4329  1.9473 -1.4289
 8179SOL    HW236174   1.832   4.567   7.160  0.7198 -1.7854 -0.6225
 8180SOL     OW36175   0.140   3.771   9.980  0.1805  0.2501 -0.2486
 8180SOL    HW136176   0.192   3.757   9.901 -0.3275  1.2868 -0.7746
 8180SOL    HW236177   0.199   3.829  10.028 -0.6263  0.5293  0.4031
 8181SOL     OW36178   2.068   0.140   9.639 -0.8447  0.4096  0.4802
 8181SOL    HW136179   2.149   0.090   9.629 -1.4485 -0.5958  0.6939
 8181SOL    HW236180   2.089   0.210   9.576  0.5284 -0.7276 -0.3304
 8182SOL     OW36181   1.979   3.463   9.313  0.1956  0.8864  0.6226
 8182SOL    HW136182   2.044   3.514   9.362  1.5680 -0.6652  0.4436
 8182SOL    HW236183   2.022   3.456   9.228  1.4854 -0.2611  1.3629
 8183SOL     OW36184   0.927   1.358   1.632 -0.1893 -0.6407 -0.1229
 8183SOL    HW136185   0.924   1.320   1.545  1.3313 -2.4180  0.6043
 8183SOL    HW236186   1.020   1.342   1.650  0.4976  2.3573 -0.9791
 8184SOL     OW36187   2.137   4.720   9.907  0.2089  0.3619  0.2353
 8184SOL    HW136188   2.224   4.719   9.869 -0.1241 -1.6730 -0.4953
 8184SOL    HW236189   2.088   4.734   9.826  1.2455 -2.3836 -0.8559
 8185SOL     OW36190   0.791   1.914   9.543  0.2683  0.3242 -0.0042
 8185SOL    HW136191   0.842   1.995   9.552  1.7316 -0.6413  0.4380
 8185SOL    HW236192   0.795   1.905   9.447  0.6109  1.5620 -0.1172
 8186SOL     OW36193   2.459   3.280   8.005 -0.5476  0.4652  0.1121
 8186SOL    HW136194   2.554   3.286   8.003 -0.6852  2.1808 -0.7388
 8186SOL    HW236195   2.446   3.187   7.987  1.5430 -0.3030  2.5199
 8187SOL     OW36196   3.105   2.190   0.688  0.5889 -0.7723 -0.2857
 8187SOL    HW136197   3.097   2.113   0.744 -2.4379 -1.1857 -1.3042
 8187SOL    HW236198   3.201   2.191   0.689  0.5983  0.6675 -2.4012
 8188SOL     OW36199   3.117   2.762  11.798 -0.0825  0.8098 -0.1872
 8188SOL    HW136200   3.084   2.852  11.808  1.1684  1.1699  0.7514
 8188SOL    HW236201   3.152   2.773  11.709 -0.8109 -2.4887 -0.8439
 8189SOL     OW36202   4.261   3.201   9.283  0.3812  0.2219 -0.3246
 8189SOL    HW136203   4.232   3.150   9.208  0.5026  0.8189 -0.7742
 8189SOL    HW236204   4.342   3.155   9.303  0.3082  0.0815 -0.3524
 8190SOL     OW36205   2.975   4.628   5.051 -1.0485  0.0425 -0.5916
 8190SOL    HW136206   3.041   4.626   5.121 -0.4805 -1.3293 -1.1572
 8190SOL    HW236207   2.908   4.581   5.100 -0.2274 -1.2415 -0.7126
 8191SOL     OW36208   2.641   3.908   9.365 -0.3192 -0.5309 -0.2326
 8191SOL    HW136209   2.552   3.939   9.350 -0.3446 -0.4011  0.1974
 8191SOL    HW236210   2.682   3.978   9.415 -0.6730  1.0206 -2.0973
 8192SOL     OW36211   4.644   1.476   5.264  0.7172  0.1457 -0.2237
 8192SOL    HW136212   4.680   1.564   5.256  1.5578 -0.2289 -0.6028
 8192SOL    HW236213   4.608   1.478   5.352  0.4837  2.1682 -0.3609
 8193SOL     OW36214   3.646   1.559   8.808 -0.2242 -0.3986  0.6012
 8193SOL    HW136215   3.685   1.472   8.795 -0.4403 -1.0241  4.0062
 8193SOL    HW236216   3.658   1.571   8.902 -0.2478  0.9395  0.4254
 8194SOL     OW36217   2.321   0.374  10.493 -0.6839 -0.5548 -0.2141
 8194SOL    HW136218   2.239   0.349  10.452 -1.0202 -0.5407  0.4544
 8194SOL    HW236219   2.340   0.460  10.455  1.5982 -0.9571 -0.0192
 8195SOL     OW36220   4.359   3.783   2.649  0.0404  0.0346 -0.2314
 8195SOL    HW136221   4.428   3.798   2.585 -0.2262 -0.7184 -0.7065
 8195SOL    HW236222   4.394   3.803   2.736  2.4806 -2.4106 -0.6570
 8196SOL     OW36223   1.126   3.184   6.924 -0.5603 -0.2304 -0.3444
 8196SOL    HW136224   1.087   3.102   6.955 -1.2851  0.6164  1.0305
 8196SOL    HW236225   1.146   3.220   7.011  1.9804 -1.2113 -0.5284
 8197SOL     OW36226   1.529   3.464   4.377 -0.2556 -0.1657  0.1814
 8197SOL    HW136227   1.469   3.538   4.363  1.0081  0.1013 -3.9034
 8197SOL    HW236228   1.574   3.465   4.292  0.6385  1.3591  0.6737
 8198SOL     OW36229   1.864   1.591  14.507 -0.4731 -0.1970  0.0960
 8198SOL    HW136230   1.902   1.679  14.503 -1.8415  0.3761 -0.2290
 8198SOL    HW236231   1.774   1.607  14.533 -0.4852  0.0146 -0.0704
 8199SOL     OW36232   4.165   4.597   2.580 -0.3314 -0.2148  0.4296
 8199SOL    HW136233   4.246   4.592   2.632  0.8025  0.9314 -1.2147
 8199SOL    HW236234   4.101   4.624   2.645 -2.0148  1.3489 -1.8697
 8200SOL     OW36235   1.148   1.147   6.064  0.1468 -0.0683  0.3468
 8200SOL    HW136236   1.195   1.173   5.985 -1.0306 -1.6580 -0.8754
 8200SOL    HW236237   1.059   1.150   6.030  0.0181  2.7723  0.8969
 8201SOL     OW36238   1.900   1.105  14.503  0.4187  0.2003 -0.2489
 8201SOL    HW136239   1.840   1.100  14.577 -0.5070  1.5342 -0.9235
 8201SOL    HW236240   1.837   1.146  14.444 -0.7053  0.6469  1.2776
 8202SOL     OW36241   0.631   0.821   3.171  0.5703  0.1225 -0.3418
 8202SOL    HW136242   0.620   0.857   3.083 -0.0735 -0.2630 -0.4146
 8202SOL    HW236243   0.548   0.789   3.206  0.3334  2.1532  0.9644
 8203SOL     OW36244   0.057   4.085  15.143 -0.1318  0.1275 -0.1590
 8203SOL    HW136245   0.109   4.157  15.107  0.4311 -0.8576 -1.3315
 8203SOL    HW236246   4.733   4.072  15.069 -0.1252 -2.0682  0.2090
 8204SOL     OW36247   3.114   2.965   6.532 -0.2882  0.4332  0.0953
 8204SOL    HW136248   3.196   3.010   6.510 -1.2238  1.7036 -0.8347
 8204SOL    HW236249   3.062   3.045   6.525 -1.1345 -0.3043 -2.0282
 8205SOL     OW36250   4.188   0.990   6.490 -0.0555 -0.1881  0.6148
 8205SOL    HW136251   4.275   1.018   6.519 -0.3311 -0.0055  1.2634
 8205SOL    HW236252   4.221   0.907   6.455 -0.5624 -0.5538  1.0112
 8206SOL     OW36253   0.041   0.769  10.892 -0.4006  0.0589  0.0867
 8206SOL    HW136254   0.036   0.821  10.813  2.5415  1.3905  0.7544
 8206SOL    HW236255   0.094   0.697  10.858 -0.4938  0.5122 -0.9923
 8207SOL     OW36256   2.695   3.351   5.099 -0.5924 -0.5714 -0.3029
 8207SOL    HW136257   2.715   3.284   5.165 -2.9867 -0.3740  0.6057
 8207SOL    HW236258   2.715   3.433   5.144 -0.1412 -1.1157  0.4940
 8208SOL     OW36259   4.357   0.317   9.269 -1.2061  0.6293 -0.6530
 8208SOL    HW136260   4.270   0.278   9.280 -1.7471  1.2302 -2.9673
 8208SOL    HW236261   4.398   0.257   9.332 -0.3028  0.4300 -1.4401
 8209SOL     OW36262   1.749   0.893   1.396 -0.3574  0.1633 -0.6047
 8209SOL    HW136263   1.689   0.821   1.378 -1.6213  1.2292 -0.6710
 8209SOL    HW236264   1.832   0.858   1.365  1.6123  1.6597  2.9437
 8210SOL     OW36265   3.396   4.128   3.847  0.0332 -0.4968 -0.0361
 8210SOL    HW136266   3.355   4.191   3.788  0.5546 -0.1405 -0.0097
 8210SOL    HW236267   3.317   4.074   3.861 -0.3061 -0.6598 -2.6439
 8211SOL     OW36268   1.737   2.718   8.007 -0.3479 -0.0116  0.0541
 8211SOL    HW136269   1.743   2.622   8.010 -1.5458 -0.0933  0.1037
 8211SOL    HW236270   1.709   2.741   8.095  0.2028 -1.9593  0.7537
 8212SOL     OW36271   3.833   1.990   6.534 -0.3719 -0.3839  0.5154
 8212SOL    HW136272   3.821   2.016   6.625 -0.8268 -3.1247  1.2393
 8212SOL    HW236273   3.919   2.030   6.521 -0.1030 -0.4122  2.2849
 8213SOL     OW36274   1.851   0.150   2.285  0.2009 -0.0039 -0.0195
 8213SOL    HW136275   1.819   0.066   2.319 -1.4245 -0.3858 -2.5295
 8213SOL    HW236276   1.868   0.193   2.369  0.1168  1.4319 -0.7377
 8214SOL     OW36277   2.353   0.976   7.238 -0.9498 -0.6147  0.0824
 8214SOL    HW136278   2.377   1.067   7.217 -1.6992 -0.5489 -0.4630
 8214SOL    HW236279   2.335   0.985   7.331 -2.8764 -0.1595 -0.3278
 8215SOL     OW36280   3.031   4.313   2.779 -0.1043  0.2167 -0.5220
 8215SOL    HW136281   2.938   4.292   2.764  0.1023  0.0017 -1.5402
 8215SOL    HW236282   3.044   4.248   2.848  0.7407  0.8028 -0.1418
 8216SOL     OW36283   1.970   3.222   4.582 -0.4059  0.4122 -0.1281
 8216SOL    HW136284   1.898   3.159   4.584  0.5862 -0.7072  0.0146
 8216SOL    HW236285   1.921   3.276   4.519  2.9780  2.2813 -1.1525
 8217SOL     OW36286   3.144   1.351   7.120 -0.1242  0.6612 -0.5536
 8217SOL    HW136287   3.235   1.332   7.098 -0.5709 -0.5204 -1.4238
 8217SOL    HW236288   3.105   1.372   7.035  0.5040  0.0568 -0.9945
 8218SOL     OW36289   2.234   3.855   0.178 -0.1849  0.3550 -0.2880
 8218SOL    HW136290   2.273   3.780   0.132 -0.8857  0.8135 -1.6311
 8218SOL    HW236291   2.140   3.838   0.188 -0.2309 -0.4923 -2.2258
 8219SOL     OW36292   1.809   4.646  12.521  0.9655 -0.4499 -0.1225
 8219SOL    HW136293   1.851   4.721  12.478 -0.8105  0.4363 -0.2959
 8219SOL    HW236294   1.715   4.662  12.519  1.0732  0.2615  0.1919
 8220SOL     OW36295   0.590   2.986  15.164  0.1376 -0.4862 -0.4464
 8220SOL    HW136296   0.670   2.968  15.113  0.9699 -1.5186  1.2259
 8220SOL    HW236297   0.574   3.078  15.146 -1.4425 -0.5532  0.7003
 8221SOL     OW36298   4.608   3.548   2.570  0.5106  0.1596 -0.4383
 8221SOL    HW136299   4.613   3.643   2.562 -1.5905  0.4641  1.8021
 8221SOL    HW236300   4.682   3.530   2.511 -0.3456  1.4962 -1.9176
 8222SOL     OW36301   1.782   1.281  12.653  0.1635 -0.0775  0.3459
 8222SOL    HW136302   1.826   1.268  12.737 -0.6371  2.4388  1.1266
 8222SOL    HW236303   1.741   1.195  12.645  1.6027 -0.9294  2.2045
 8223SOL     OW36304   1.110   2.987   0.702  0.7153 -0.2736 -0.7356
 8223SOL    HW136305   1.156   3.043   0.765  0.2727 -0.4344 -0.2681
 8223SOL    HW236306   1.095   2.909   0.755 -2.5288 -0.1934 -1.5305
 8224SOL     OW36307   2.991   4.118   2.987  0.7652  0.0703 -0.5096
 8224SOL    HW136308   3.060   4.069   3.032 -0.1771 -2.0479 -1.3855
 8224SOL    HW236309   2.958   4.048   2.931  0.0437  0.7537 -0.9361
 8225SOL     OW36310   2.133   3.145   8.025  0.5046  0.2026 -0.2013
 8225SOL    HW136311   2.077   3.202   8.077 -1.0172 -1.4180 -0.0407
 8225SOL    HW236312   2.173   3.088   8.091  1.5421 -1.2429 -2.0995
 8226SOL     OW36313   2.080   1.071  17.420  0.3603 -0.0597 -0.4760
 8226SOL    HW136314   2.071   1.166  17.432 -1.5594 -0.2298 -0.5808
 8226SOL    HW236315   1.991   1.035  17.418  0.8394 -1.1753 -1.6118
 8227SOL     OW36316   0.905   1.697  16.320  0.4294  0.7876 -0.1447
 8227SOL    HW136317   0.938   1.615  16.359 -0.0448  0.7393  0.1552
 8227SOL    HW236318   0.974   1.748  16.362 -0.7154  0.8791  1.6332
 8228SOL     OW36319   3.847   0.605  12.085  0.1548  0.0249  0.4848
 8228SOL    HW136320   3.807   0.574  12.166 -0.0272  1.1888  0.8330
 8228SOL    HW236321   3.902   0.678  12.113 -0.5351  0.8863 -0.4148
 8229SOL     OW36322   2.276   0.161   8.482  0.4019 -0.4859 -0.4445
 8229SOL    HW136323   2.352   0.182   8.428  1.1767 -0.3467  0.6921
 8229SOL    HW236324   2.208   0.150   8.416  0.2389  0.2765 -0.4028
 8230SOL     OW36325   0.966   0.168   6.798  0.2558 -0.2180  0.1595
 8230SOL    HW136326   0.947   0.245   6.851  0.9024 -0.2208  0.3840
 8230SOL    HW236327   1.017   0.115   6.859 -1.1707  0.3028  1.8007
 8231SOL     OW36328   0.225   3.042   6.136 -0.0162 -0.0755  0.1339
 8231SOL    HW136329   0.245   3.135   6.121  1.3894 -0.7238 -1.9335
 8231SOL    HW236330   0.195   3.009   6.052 -4.0242  2.3571  0.5753
 8232SOL     OW36331   0.330   2.919  15.553 -0.1222  0.1553 -0.6062
 8232SOL    HW136332   0.412   2.943  15.511  0.3845 -0.0657  0.2557
 8232SOL    HW236333   0.276   2.930  15.475 -0.4757 -0.1873 -0.4162
 8233SOL     OW36334   0.819   3.623   5.398  0.2832  0.3516 -0.3569
 8233SOL    HW136335   0.764   3.693   5.432 -0.5984 -0.4355 -0.1678
 8233SOL    HW236336   0.857   3.663   5.319  1.3447  1.9068  0.9283
 8234SOL     OW36337   0.269   2.982  14.709  0.0602 -0.0240 -0.0741
 8234SOL    HW136338   0.242   3.073  14.695 -2.9860 -0.9669 -0.2929
 8234SOL    HW236339   0.191   2.933  14.684  1.5649 -2.2132 -0.5000
 8235SOL     OW36340   1.740   2.987   8.539 -0.4927  0.3284 -0.1939
 8235SOL    HW136341   1.813   3.038   8.502 -1.6580  1.1227 -1.3894
 8235SOL    HW236342   1.697   3.041   8.606 -1.2250  0.7707 -1.0196
 8236SOL     OW36343   3.649   1.494  16.660 -0.5907  0.1267 -0.3327
 8236SOL    HW136344   3.558   1.470  16.643  0.6654 -3.4303 -1.9120
 8236SOL    HW236345   3.683   1.410  16.690  0.3616  0.4663 -0.4594
 8237SOL     OW36346   3.036   3.876  16.598  0.3495 -0.3140  0.6444
 8237SOL    HW136347   3.075   3.937  16.535 -0.1316  0.3910  1.0133
 8237SOL    HW236348   3.052   3.797  16.548  0.4791  1.3467 -1.9145
 8238SOL     OW36349   3.583   2.358  13.195 -0.5911  0.5808 -0.0122
 8238SOL    HW136350   3.498   2.327  13.229  1.2547 -2.8543  1.4565
 8238SOL    HW236351   3.566   2.352  13.101  1.7480 -1.2702 -0.2926
 8239SOL     OW36352   4.373   3.586   5.577  0.7681  0.2336 -0.0686
 8239SOL    HW136353   4.351   3.495   5.557  3.0953 -0.7136  1.7541
 8239SOL    HW236354   4.342   3.628   5.496 -0.7787  1.7950  1.3222
 8240SOL     OW36355   2.054   2.917   7.334 -0.5825 -0.0031  0.0862
 8240SOL    HW136356   2.117   2.892   7.401 -0.3400 -0.5437 -0.3387
 8240SOL    HW236357   2.078   3.009   7.335  0.3406 -0.2726  2.7422
 8241SOL     OW36358   1.371   0.264   0.048  0.3228 -0.0963 -0.2532
 8241SOL    HW136359   1.416   0.343   0.079 -1.6367  1.3323 -1.0150
 8241SOL    HW236360   1.410   0.203   0.110 -1.4938 -1.2703 -0.2554
 8242SOL     OW36361   1.815   3.355   5.844  0.2314 -0.3389 -0.4786
 8242SOL    HW136362   1.839   3.303   5.921 -0.6318 -0.7616 -0.4958
 8242SOL    HW236363   1.877   3.425   5.864  0.6821 -1.2818  1.4368
 8243SOL     OW36364   3.873   3.137  13.760  0.3006  0.0682 -0.1940
 8243SOL    HW136365   3.925   3.197  13.814  0.3355 -1.1250  1.0940
 8243SOL    HW236366   3.938   3.110  13.695  0.0368 -0.4173 -0.2495
 8244SOL     OW36367   1.933   4.607   1.927 -0.3430  0.5221  0.2815
 8244SOL    HW136368   1.847   4.649   1.920  0.1736  1.6382  0.5531
 8244SOL    HW236369   1.937   4.564   2.013  2.1811 -0.6147 -0.3978
 8245SOL     OW36370   1.012   3.289   7.915  0.2528  0.0706  0.2440
 8245SOL    HW136371   0.998   3.322   7.826 -2.8751  1.4669  1.2572
 8245SOL    HW236372   0.968   3.204   7.914 -0.8427  0.6382  0.2005
 8246SOL     OW36373   3.458   1.081  14.915 -0.2780 -0.4623  0.0625
 8246SOL    HW136374   3.368   1.095  14.885  0.1597  0.9062 -0.6063
 8246SOL    HW236375   3.511   1.116  14.844  2.1808  1.1861  2.6883
 8247SOL     OW36376   2.593   0.842   6.518 -0.0796 -0.3265  0.0396
 8247SOL    HW136377   2.619   0.929   6.549 -0.7192 -0.4652  0.9844
 8247SOL    HW236378   2.498   0.849   6.508 -0.0565 -1.1104 -0.7557
 8248SOL     OW36379   1.117   0.070   5.256  0.3744 -0.0114  0.0827
 8248SOL    HW136380   1.151   0.159   5.265 -1.8670  0.9140 -0.6963
 8248SOL    HW236381   1.151   0.044   5.342  1.4125 -1.6434 -0.8150
 8249SOL     OW36382   0.061   4.328   2.176 -0.5544 -0.1968 -0.0716
 8249SOL    HW136383   0.121   4.401   2.195 -0.0037 -1.1236  1.7845
 8249SOL    HW236384   0.025   4.308   2.262 -0.8639 -0.9263 -0.3766
 8250SOL     OW36385   3.345   1.400   6.806  0.7361 -0.3142 -0.1112
 8250SOL    HW136386   3.397   1.353   6.872  1.3995  1.1127  0.3917
 8250SOL    HW236387   3.256   1.403   6.841  0.5713  1.2632 -0.6424
 8251SOL     OW36388   3.772   2.871  14.099  0.1260 -0.3852 -0.0325
 8251SOL    HW136389   3.684   2.891  14.132  0.1372 -3.7347  2.0766
 8251SOL    HW236390   3.815   2.854  14.183  0.8869 -2.1136 -0.7648
 8252SOL     OW36391   0.191   3.679  11.239  0.6747 -0.0912 -0.3505
 8252SOL    HW136392   0.138   3.628  11.299  2.7891 -1.2268  0.5551
 8252SOL    HW236393   0.263   3.715  11.291  1.0479  1.7317 -2.0867
 8253SOL     OW36394   1.237   1.431   8.456 -0.0530  0.2950 -0.5258
 8253SOL    HW136395   1.198   1.372   8.392 -0.1004  1.7490 -1.8160
 8253SOL    HW236396   1.274   1.374   8.524  1.3218  1.5593 -0.1991
 8254SOL     OW36397   3.460   0.893   6.366  0.3930  0.3419 -0.0466
 8254SOL    HW136398   3.370   0.862   6.362  0.9809 -1.3448 -0.0544
 8254SOL    HW236399   3.458   0.947   6.287  2.1451 -0.4287 -0.6069
 8255SOL     OW36400   3.691   2.712   6.281  0.3845 -0.4145 -0.0916
 8255SOL    HW136401   3.748   2.765   6.225 -0.9312 -0.2661 -1.2929
 8255SOL    HW236402   3.603   2.715   6.244 -0.3884  1.9161  1.9619
 8256SOL     OW36403   3.008   0.810  16.269 -0.1468 -0.2947  0.0136
 8256SOL    HW136404   2.978   0.740  16.327 -0.2721 -1.5960 -1.6288
 8256SOL    HW236405   3.067   0.855  16.330 -0.4028 -0.8065  0.6311
 8257SOL     OW36406   3.117   3.103   7.596 -0.6289 -0.1550  0.2946
 8257SOL    HW136407   3.200   3.116   7.641 -0.2642 -2.0138  0.1599
 8257SOL    HW236408   3.149   3.048   7.524 -1.8763 -1.4245  0.7060
 8258SOL     OW36409   2.447   3.119  10.043 -0.1091  0.4581  0.1053
 8258SOL    HW136410   2.506   3.194  10.048  2.7716 -1.7496 -1.7599
 8258SOL    HW236411   2.467   3.070  10.123  0.6145  1.2737  0.4293
 8259SOL     OW36412   2.726   2.582   4.736 -0.4631  1.1717  0.0941
 8259SOL    HW136413   2.760   2.628   4.812  2.8546 -0.4107 -0.4229
 8259SOL    HW236414   2.694   2.664   4.698 -1.1736  0.2405 -1.3112
 8260SOL     OW36415   1.979   0.132   9.223 -0.5595  0.6606  0.4018
 8260SOL    HW136416   2.059   0.151   9.173  0.0481 -1.8119  0.4404
 8260SOL    HW236417   1.934   0.209   9.187  0.7043  0.3844 -1.7613
 8261SOL     OW36418   2.414   1.641   5.039  0.1155 -0.5319 -0.3007
 8261SOL    HW136419   2.448   1.562   5.082  0.6287 -0.4324 -0.5302
 8261SOL    HW236420   2.501   1.676   5.019  0.6070 -1.3736  0.3328
 8262SOL     OW36421   2.207   0.653   6.678 -0.2770  0.1793  0.1209
 8262SOL    HW136422   2.112   0.648   6.667 -0.2663  2.2549 -0.9675
 8262SOL    HW236423   2.226   0.561   6.696  0.7995  0.0609 -1.6167
 8263SOL     OW36424   1.704   3.632  10.298 -0.3119 -0.2267 -0.1720
 8263SOL    HW136425   1.746   3.552  10.331 -1.7539 -1.5089 -1.5042
 8263SOL    HW236426   1.677   3.606  10.211  1.3393 -2.8890  0.1077
 8264SOL     OW36427   3.201   0.699  16.080  0.3270 -0.0408 -0.1605
 8264SOL    HW136428   3.202   0.610  16.117  2.5209 -0.3461 -0.9644
 8264SOL    HW236429   3.121   0.731  16.120  0.5724  2.3790 -1.6192
 8265SOL     OW36430   0.725   1.026   1.394 -0.6803  0.5367 -0.1887
 8265SOL    HW136431   0.803   1.024   1.339 -0.6384 -1.1003 -0.0673
 8265SOL    HW236432   0.757   0.956   1.451 -1.0880  0.3108 -0.2404
 8266SOL     OW36433   0.048   3.392   6.530  0.1572  0.2385  0.1437
 8266SOL    HW136434   0.142   3.409   6.520 -0.2032  1.6865 -0.8464
 8266SOL    HW236435   0.020   3.404   6.439 -0.5441  0.0040  0.3309
 8267SOL     OW36436   0.518   2.080   7.312 -0.2057 -0.4199  0.0114
 8267SOL    HW136437   0.519   2.108   7.221  0.7515 -0.2895  0.0667
 8267SOL    HW236438   0.603   2.112   7.340  0.4424 -1.0949 -1.1952
 8268SOL     OW36439   1.122   3.474   8.081  0.1391  0.2118  0.1146
 8268SOL    HW136440   1.099   3.390   8.041 -0.2603  0.7384 -0.7521
 8268SOL    HW236441   1.089   3.541   8.022 -1.4437 -1.0353 -0.4153
 8269SOL     OW36442   1.475   0.547   6.890  0.2453  0.2555  0.0662
 8269SOL    HW136443   1.540   0.598   6.841 -1.7329  1.9245 -0.8128
 8269SOL    HW236444   1.470   0.472   6.832 -0.5758  1.1078 -0.9603
 8270SOL     OW36445   2.851   1.209   6.982  0.2199 -0.3261  0.1185
 8270SOL    HW136446   2.820   1.297   6.961  0.3834 -0.3185 -0.1014
 8270SOL    HW236447   2.916   1.205   6.911  1.5424 -2.7206  1.4661
 8271SOL     OW36448   0.034   3.210  11.936  0.3208 -0.0994 -0.0168
 8271SOL    HW136449   0.018   3.149  12.008 -0.9635  0.9561  0.5780
 8271SOL    HW236450   0.126   3.196  11.910  0.0702 -2.2658  0.2579
 8272SOL     OW36451   2.787   4.618   5.467 -0.8158 -0.3935  0.0514
 8272SOL    HW136452   2.804   4.605   5.560 -0.8376 -0.4358  0.0494
 8272SOL    HW236453   2.876   4.646   5.444 -0.3076 -0.0773  2.3278
 8273SOL     OW36454   0.344   2.220   3.252  0.4752  0.9482 -0.1442
 8273SOL    HW136455   0.309   2.168   3.324  0.0239  1.2027 -0.1838
 8273SOL    HW236456   0.284   2.193   3.183  1.8312  1.2564 -1.4436
 8274SOL     OW36457   1.550   1.596  12.511 -0.5147  0.3248 -0.1383
 8274SOL    HW136458   1.596   1.614  12.429 -3.6707  0.7100 -1.8057
 8274SOL    HW236459   1.618   1.601  12.578 -0.8206  0.8850  0.1304
 8275SOL     OW36460   3.780   3.921  11.273 -0.0480  0.5122  0.2612
 8275SOL    HW136461   3.867   3.958  11.258 -1.5568  3.8979  0.0788
 8275SOL    HW236462   3.789   3.852  11.207  0.1890  2.0933 -1.3308
 8276SOL     OW36463   2.172   1.816  15.401 -0.1840 -0.0593  0.6857
 8276SOL    HW136464   2.088   1.821  15.357  0.0275 -0.1830  0.2765
 8276SOL    HW236465   2.144   1.774  15.483  0.3594 -2.4911 -0.3973
 8277SOL     OW36466   2.770   4.547   9.766 -0.5028  0.0334  0.1973
 8277SOL    HW136467   2.692   4.567   9.716 -0.8150  1.4830  1.2767
 8277SOL    HW236468   2.807   4.633   9.786  2.0331 -1.5258  2.3927
 8278SOL     OW36469   3.043   0.020   2.517  0.6937  0.4476 -0.0786
 8278SOL    HW136470   2.978   4.691   2.487  1.5131 -0.4813  0.0698
 8278SOL    HW236471   3.123   4.706   2.493 -0.6719 -1.9459  0.1756
 8279SOL     OW36472   1.933   2.106   8.700 -0.4090 -0.1621  0.0017
 8279SOL    HW136473   1.903   2.067   8.782  0.2825  1.1868  0.8996
 8279SOL    HW236474   2.013   2.054   8.694  0.2891  1.2373 -3.0009
 8280SOL     OW36475   4.013   3.147   3.124 -0.2720  0.1125  0.1110
 8280SOL    HW136476   3.927   3.132   3.083  0.8640 -1.8699 -1.5781
 8280SOL    HW236477   4.072   3.157   3.049  0.3302  2.2294  0.8826
 8281SOL     OW36478   2.277   2.972   7.088  0.2398 -0.1140 -0.5554
 8281SOL    HW136479   2.296   2.897   7.143 -0.0424 -0.2352 -0.6246
 8281SOL    HW236480   2.255   3.033   7.158  3.5312 -0.5749  0.8630
 8282SOL     OW36481   3.775   3.868  17.535 -0.6566  0.0839  0.6104
 8282SOL    HW136482   3.751   3.893  17.625 -0.4182 -2.1962  1.3094
 8282SOL    HW236483   3.865   3.838  17.529 -0.0722  1.7735  1.1958
 8283SOL     OW36484   4.607   3.223   2.738  0.0214 -0.6496 -0.3697
 8283SOL    HW136485   4.661   3.252   2.812  2.6011 -0.8939 -2.1619
 8283SOL    HW236486   4.671   3.218   2.667  1.4964  2.0064  0.7335
 8284SOL     OW36487   4.168   3.786   1.083 -0.3184  0.0330  0.3493
 8284SOL    HW136488   4.119   3.851   1.031  1.8316  0.9096 -0.5604
 8284SOL    HW236489   4.255   3.821   1.100  0.6143 -1.8255 -0.6114
 8285SOL     OW36490   1.090   4.011   2.863 -0.1641  0.5959 -0.4863
 8285SOL    HW136491   1.166   3.958   2.887 -1.0518 -0.3793  0.1709
 8285SOL    HW236492   1.048   3.967   2.788  1.3466  0.1494 -1.0815
 8286SOL     OW36493   0.967   1.399   4.728  0.2514 -0.1780  0.4388
 8286SOL    HW136494   0.932   1.460   4.664  0.7161 -0.7784 -0.3874
 8286SOL    HW236495   1.037   1.364   4.673  0.2386 -1.7230  1.4035
 8287SOL     OW36496   3.574   2.071   3.102 -0.2116 -0.0025  0.3386
 8287SOL    HW136497   3.522   2.005   3.146 -0.5038  0.3469  0.5167
 8287SOL    HW236498   3.532   2.088   3.017  1.0064 -0.2493 -0.3160
 8288SOL     OW36499   0.386   2.463   5.420 -0.1107 -0.0299  0.2731
 8288SOL    HW136500   0.293   2.441   5.424 -0.3354  0.4230 -2.5067
 8288SOL    HW236501   0.420   2.389   5.369  0.7130  1.0245 -0.7003
 8289SOL     OW36502   4.398   0.115   1.128 -0.1755  0.2481  0.2030
 8289SOL    HW136503   4.345   0.040   1.151 -1.7796  0.8405 -1.5806
 8289SOL    HW236504   4.357   0.180   1.185 -0.1055 -1.2777  1.9859
 8290SOL     OW36505   3.820   0.280  16.261  0.3772 -0.1092  0.3353
 8290SOL    HW136506   3.752   0.228  16.303  0.9666 -1.2185 -0.0925
 8290SOL    HW236507   3.873   0.304  16.337  0.7899  1.0925 -0.3269
 8291SOL     OW36508   0.934   0.502   5.848  0.4106 -0.0250 -0.8260
 8291SOL    HW136509   0.994   0.572   5.820  0.0263  0.0683 -1.4165
 8291SOL    HW236510   0.847   0.531   5.818 -0.1153 -0.0622  0.6505
 8292SOL     OW36511   0.128   2.649   5.224  0.3439 -0.1401 -0.4660
 8292SOL    HW136512   0.148   2.615   5.136  1.5425  1.3229 -0.7443
 8292SOL    HW236513   0.117   2.562   5.263 -0.9748  0.0907 -0.3116
 8293SOL     OW36514   2.564   4.416  15.459  0.0468  0.3752 -1.0026
 8293SOL    HW136515   2.481   4.369  15.462  0.8148 -0.9300 -0.1494
 8293SOL    HW236516   2.625   4.359  15.506 -0.5303 -0.3920 -1.1782
 8294SOL     OW36517   1.348   3.529   3.041 -0.5028 -0.1099  0.6128
 8294SOL    HW136518   1.401   3.464   3.088  0.2764  2.6683  3.5399
 8294SOL    HW236519   1.375   3.508   2.952  0.4198 -1.5778  1.2199
 8295SOL     OW36520   1.418   0.539   2.516 -0.6791 -0.8179  0.2649
 8295SOL    HW136521   1.407   0.475   2.445  1.6747  1.5827 -2.3219
 8295SOL    HW236522   1.357   0.508   2.582 -1.0164  0.9326  0.7714
 8296SOL     OW36523   4.473   4.399   3.397 -0.2189  0.0025 -0.4300
 8296SOL    HW136524   4.467   4.329   3.332 -0.9505  0.7088 -1.1275
 8296SOL    HW236525   4.431   4.349   3.467 -1.0544  1.7116  0.2986
 8297SOL     OW36526   3.876   3.294  14.464  0.0654 -0.4882  0.2482
 8297SOL    HW136527   3.792   3.255  14.489  0.6291 -0.3634  2.3329
 8297SOL    HW236528   3.874   3.298  14.369 -0.4402 -1.3887  0.2154
 8298SOL     OW36529   3.343   0.239  10.248  0.1900  0.2133  0.1993
 8298SOL    HW136530   3.428   0.209  10.280  0.4337  0.9926  0.2784
 8298SOL    HW236531   3.285   0.171  10.283 -1.2723  1.4200  0.1486
 8299SOL     OW36532   4.648   4.292  15.399  0.4318 -0.2349  0.8271
 8299SOL    HW136533   4.704   4.350  15.347  0.5223  0.0700  1.2662
 8299SOL    HW236534   4.689   4.206  15.398  2.8904  0.9084  2.5379
 8300SOL     OW36535   2.273   1.911   0.096 -0.3403  0.2575  0.4798
 8300SOL    HW136536   2.185   1.941   0.074 -0.7897  0.4836  2.5776
 8300SOL    HW236537   2.314   1.994   0.071 -0.6304  0.7422  1.5994
 8301SOL     OW36538   0.800   1.889   8.048 -0.5944  0.2497  0.2075
 8301SOL    HW136539   0.827   1.876   8.139 -0.1878 -0.5444 -0.0324
 8301SOL    HW236540   0.792   1.984   8.042  1.1566  0.5160  2.0377
 8302SOL     OW36541   4.190   1.898  11.794  0.2292 -0.3136  0.6382
 8302SOL    HW136542   4.157   1.941  11.715 -0.9797 -0.2554  1.1772
 8302SOL    HW236543   4.112   1.861  11.835 -1.2306 -0.0857 -1.9013
 8303SOL     OW36544   2.279   1.718   4.811 -0.2720 -0.3614 -0.3396
 8303SOL    HW136545   2.250   1.807   4.833  0.4941 -0.1425 -0.2087
 8303SOL    HW236546   2.335   1.691   4.884 -0.7630 -1.5688 -0.4126
 8304SOL     OW36547   2.283   1.561  15.277  0.1631  0.5367 -0.4038
 8304SOL    HW136548   2.328   1.599  15.353 -0.1014  1.1159 -0.5343
 8304SOL    HW236549   2.198   1.556  15.320 -0.4117  0.0244 -1.6027
 8305SOL     OW36550   0.763   4.469   6.987 -0.3104 -0.2647 -0.2080
 8305SOL    HW136551   0.719   4.421   7.057 -1.2604  1.6962  0.5450
 8305SOL    HW236552   0.843   4.498   7.030 -1.5781  1.0981  1.2221
 8306SOL     OW36553   3.858   2.507  12.965 -0.0156 -0.5169 -0.1925
 8306SOL    HW136554   3.888   2.418  12.949  0.5141 -0.2004 -0.9753
 8306SOL    HW236555   3.939   2.555  12.981  1.1356 -3.0408  1.4176
 8307SOL     OW36556   2.355   2.338   6.786  0.0420 -0.3968  0.4399
 8307SOL    HW136557   2.329   2.379   6.869 -0.0319  2.1634 -0.8690
 8307SOL    HW236558   2.423   2.402   6.766  0.8724 -1.0490  1.1747
 8308SOL     OW36559   4.213   3.952   2.203  0.0804  0.3760  0.2131
 8308SOL    HW136560   4.308   3.943   2.207  0.1085  1.0158  0.9227
 8308SOL    HW236561   4.184   3.985   2.288 -1.5597  1.3069 -0.7055
 8309SOL     OW36562   4.035   0.824   1.755  0.1431 -0.4054 -0.8034
 8309SOL    HW136563   4.082   0.900   1.722 -0.7724  1.9321  3.2876
 8309SOL    HW236564   4.107   0.780   1.801 -1.2441  0.3941  2.1116
 8310SOL     OW36565   0.564   3.060   9.084  0.7981  0.0335 -0.1532
 8310SOL    HW136566   0.583   3.144   9.124 -3.1492  0.0618  1.6224
 8310SOL    HW236567   0.563   3.086   8.992  0.2965 -0.3939 -0.2677
 8311SOL     OW36568   2.787   4.180  17.181 -0.4590  0.2134  0.3947
 8311SOL    HW136569   2.794   4.180  17.086 -0.1338  1.4971  0.4234
 8311SOL    HW236570   2.710   4.237  17.185 -0.5168  0.0450  1.7678
 8312SOL     OW36571   0.541   0.916   6.739  0.2263  0.0224  0.2700
 8312SOL    HW136572   0.479   0.844   6.730  0.5224 -0.2138  0.1006
 8312SOL    HW236573   0.576   0.910   6.828  2.3751  0.1131 -0.5806
 8313SOL     OW36574   4.621   4.597  17.340 -0.5368 -0.2749 -0.8485
 8313SOL    HW136575   4.622   4.552  17.256 -2.6746 -2.4675  0.3177
 8313SOL    HW236576   4.706   4.638  17.326  0.8885 -3.1599 -0.5174
 8314SOL     OW36577   3.375   4.148   5.822 -0.5116 -0.4169  0.3845
 8314SOL    HW136578   3.465   4.164   5.850  0.0271 -0.1833 -1.4556
 8314SOL    HW236579   3.344   4.110   5.904  1.5350 -0.8912  0.9374
 8315SOL     OW36580   1.657   2.304  14.843  0.1211  0.4799  0.4957
 8315SOL    HW136581   1.644   2.260  14.759  2.0915  1.6304 -0.4091
 8315SOL    HW236582   1.616   2.241  14.903  3.8165 -1.0781  1.4053
 8316SOL     OW36583   3.796   2.554   5.407  0.1265  0.4994  0.6193
 8316SOL    HW136584   3.810   2.471   5.361 -0.9890 -0.6828  2.3769
 8316SOL    HW236585   3.825   2.612   5.337 -0.1655  0.8803  0.8189
 8317SOL     OW36586   1.291   1.666   8.614 -0.6486 -0.2210  0.4424
 8317SOL    HW136587   1.306   1.604   8.543 -2.9905 -0.4413  0.1584
 8317SOL    HW236588   1.281   1.611   8.692 -1.2512 -0.9313 -0.1458
 8318SOL     OW36589   3.503   0.505   2.617  0.0143 -0.1912  0.2012
 8318SOL    HW136590   3.450   0.515   2.538 -1.1649 -2.9527  0.6335
 8318SOL    HW236591   3.439   0.458   2.672 -1.5465 -0.6503 -1.9895
 8319SOL     OW36592   2.779   1.553   9.483  0.2961 -0.2862 -0.3469
 8319SOL    HW136593   2.700   1.508   9.514  0.4804  0.7604  1.6002
 8319SOL    HW236594   2.840   1.492   9.524  0.5705  1.3636  1.6839
 8320SOL     OW36595   0.488   2.118   7.026 -0.2147  0.5390  0.0564
 8320SOL    HW136596   0.520   2.202   6.991 -2.4668  1.4151  0.0969
 8320SOL    HW236597   0.471   2.071   6.944 -2.2645  0.8280  0.3144
 8321SOL     OW36598   4.117   2.344   7.753  0.1240  0.2616 -0.7046
 8321SOL    HW136599   4.035   2.350   7.705 -1.4008  1.6121  2.1293
 8321SOL    HW236600   4.155   2.279   7.693  2.3658  0.4231  0.5312
 8322SOL     OW36601   4.185   1.615   7.115 -0.1464 -0.5061  0.0014
 8322SOL    HW136602   4.141   1.694   7.083 -0.4186 -0.9958 -0.8533
 8322SOL    HW236603   4.232   1.655   7.188 -1.0309 -0.0004  0.2984
 8323SOL     OW36604   1.698   0.329  13.046 -0.7440 -0.1649 -1.0414
 8323SOL    HW136605   1.672   0.255  13.100  1.1423  0.4351  0.6734
 8323SOL    HW236606   1.779   0.296  13.008  0.7928  1.7262  0.5568
 8324SOL     OW36607   3.197   3.990   8.834  0.2800  0.4162  0.0387
 8324SOL    HW136608   3.147   3.978   8.915 -1.0169  0.6906 -0.7187
 8324SOL    HW236609   3.273   3.939   8.861 -1.3618 -1.1695  1.7097
 8325SOL     OW36610   1.381   0.524   8.448  0.2333  0.0947 -0.1746
 8325SOL    HW136611   1.419   0.438   8.428 -0.1660 -0.1199 -0.0123
 8325SOL    HW236612   1.304   0.501   8.501  0.3564  2.0452  0.8676
 8326SOL     OW36613   4.719   1.779   7.854  0.1459 -0.3554 -0.3253
 8326SOL    HW136614   0.029   1.702   7.817  0.5688 -0.2472 -0.0357
 8326SOL    HW236615   4.704   1.751   7.944  0.7443  3.1116  0.8119
 8327SOL     OW36616   4.558   3.357  15.301  0.0483  0.0950 -0.0053
 8327SOL    HW136617   4.601   3.376  15.217 -0.9577 -0.3943 -0.6319
 8327SOL    HW236618   4.631   3.330  15.356  2.0970 -0.7345 -3.1371
 8328SOL     OW36619   2.780   0.602  14.685  0.7181  0.3061  0.6714
 8328SOL    HW136620   2.686   0.609  14.699  0.3879 -4.1353  0.5936
 8328SOL    HW236621   2.783   0.560  14.599  3.2063  1.1253  0.3709
 8329SOL     OW36622   4.003   4.558   1.621  0.2415 -0.0117  0.7467
 8329SOL    HW136623   3.948   4.530   1.695  1.7575 -3.4740  0.5839
 8329SOL    HW236624   4.058   4.483   1.596  2.6344  2.2200 -0.6688
 8330SOL     OW36625   2.907   4.396  13.523  0.7095 -0.1063 -0.7899
 8330SOL    HW136626   2.861   4.459  13.468  1.0823 -0.4224 -1.4586
 8330SOL    HW236627   2.964   4.458  13.568 -2.0087  0.2542  2.1061
 8331SOL     OW36628   1.668   4.522   5.612  0.0816  0.0897 -0.0337
 8331SOL    HW136629   1.622   4.472   5.545 -0.1765  1.0184 -0.5376
 8331SOL    HW236630   1.694   4.451   5.671 -2.3195 -1.3309 -0.6566
 8332SOL     OW36631   1.625   2.363   3.669 -0.2548  0.8667  0.2098
 8332SOL    HW136632   1.641   2.346   3.762  0.4721  1.8952  0.2772
 8332SOL    HW236633   1.718   2.355   3.645 -0.1903  0.1863  0.6856
 8333SOL     OW36634   0.806   3.078  15.483  0.4952 -0.0216  0.0516
 8333SOL    HW136635   0.873   3.047  15.544  0.6441 -2.8814 -1.5699
 8333SOL    HW236636   0.857   3.133  15.422  0.5680 -1.1059 -0.8673
 8334SOL     OW36637   2.434   2.156   8.198 -0.7470  0.6798  0.2662
 8334SOL    HW136638   2.395   2.165   8.111 -1.0740 -1.1838  0.2141
 8334SOL    HW236639   2.520   2.125   8.169 -1.0248 -0.9615  1.2350
 8335SOL     OW36640   0.968   0.732  12.423 -0.6526 -0.4301 -0.2578
 8335SOL    HW136641   0.989   0.739  12.330 -1.3148 -2.2638 -0.5603
 8335SOL    HW236642   0.879   0.768  12.423 -0.7299 -0.6213  1.3589
 8336SOL     OW36643   0.756   2.022   0.798 -0.0890 -0.3532  0.8416
 8336SOL    HW136644   0.790   2.033   0.887  1.1500  0.5223  0.2589
 8336SOL    HW236645   0.726   2.106   0.766  0.5427  0.2803  1.9207
 8337SOL     OW36646   0.065   3.978   5.948  0.9696 -0.5708 -0.1542
 8337SOL    HW136647   0.000   4.021   5.891  0.7512  1.3858  1.5589
 8337SOL    HW236648   0.025   4.004   6.031  1.0326 -1.8050  0.2571
 8338SOL     OW36649   0.668   3.965   4.295  0.2077 -0.0918 -0.3525
 8338SOL    HW136650   0.763   3.959   4.303  0.0617  0.0308  1.4042
 8338SOL    HW236651   0.660   4.060   4.289 -2.8286 -0.4885 -2.8032
 8339SOL     OW36652   4.279   0.464   5.637 -0.2702  0.8882 -0.4002
 8339SOL    HW136653   4.337   0.390   5.658 -0.6945  0.1886 -1.6386
 8339SOL    HW236654   4.300   0.474   5.544  0.0924 -1.0441 -0.5422
 8340SOL     OW36655   2.864   2.094   1.896  0.0449 -0.0050  0.4462
 8340SOL    HW136656   2.858   2.091   1.801  0.3451 -0.8800  0.4531
 8340SOL    HW236657   2.955   2.076   1.921  0.5042  1.8458  0.1260
 8341SOL     OW36658   3.098   2.388   1.661 -0.2315  0.6275 -0.1385
 8341SOL    HW136659   3.043   2.411   1.736  0.4578 -1.3154  0.9818
 8341SOL    HW236660   3.169   2.358   1.719 -0.8267  0.4320  0.4809
 8342SOL     OW36661   3.098   0.197  15.798  0.8073  0.4870 -0.1683
 8342SOL    HW136662   3.157   0.265  15.766 -1.2506  1.9519 -0.8448
 8342SOL    HW236663   3.018   0.204  15.747  0.9856  0.7044 -0.4205
 8343SOL     OW36664   2.160   3.819   6.264 -0.4288  0.0233 -0.2603
 8343SOL    HW136665   2.179   3.773   6.346 -1.6993 -1.9349 -1.0688
 8343SOL    HW236666   2.064   3.817   6.263 -0.3522 -2.5768 -0.9857
 8344SOL     OW36667   0.051   4.454   5.817  0.2168 -0.4488 -0.1848
 8344SOL    HW136668   0.095   4.533   5.849  0.2050 -1.2070  1.7548
 8344SOL    HW236669   4.722   4.450   5.890  0.5232 -1.4509  0.0278
 8345SOL     OW36670   4.210   1.396   1.890  0.3674 -0.2817 -0.1862
 8345SOL    HW136671   4.253   1.379   1.973 -0.4421  0.5500  0.4098
 8345SOL    HW236672   4.224   1.315   1.842 -2.0190 -2.8043  3.4025
 8346SOL     OW36673   4.006   1.011   6.143  0.1290 -0.5873 -0.5799
 8346SOL    HW136674   3.975   1.036   6.056 -1.3498 -1.0946 -0.2012
 8346SOL    HW236675   3.999   1.083   6.206  1.0454  0.5131 -1.7605
 8347SOL     OW36676   1.939   3.883   8.448 -0.1843 -0.0728 -0.3461
 8347SOL    HW136677   1.965   3.974   8.437 -0.8051 -0.0650 -1.7012
 8347SOL    HW236678   1.977   3.859   8.533  0.0108 -0.9494 -0.6881
 8348SOL     OW36679   2.428   4.331   8.299  0.1750  0.3817  0.1117
 8348SOL    HW136680   2.455   4.414   8.259  2.1993  0.5156  1.7240
 8348SOL    HW236681   2.442   4.344   8.393  0.3540 -0.1578  0.1608
 8349SOL     OW36682   1.608   3.850  14.780  0.4442  0.0286 -0.4394
 8349SOL    HW136683   1.683   3.894  14.741 -0.3059  1.5461 -0.1892
 8349SOL    HW236684   1.561   3.834  14.698 -1.8577  0.1148  0.8488
 8350SOL     OW36685   0.372   2.797   3.985 -0.6557  0.1271 -0.0619
 8350SOL    HW136686   0.301   2.854   4.014  0.7826  1.3493  1.0929
 8350SOL    HW236687   0.415   2.789   4.071 -1.4247 -0.0068  0.3098
 8351SOL     OW36688   3.339   0.823   7.281  0.5229 -0.1105  0.2336
 8351SOL    HW136689   3.309   0.853   7.195 -3.5137 -0.4059  1.5078
 8351SOL    HW236690   3.263   0.778   7.318  0.6216  0.6017  1.3271
 8352SOL     OW36691   4.684   1.121   7.231  0.8623  0.1198  0.4835
 8352SOL    HW136692   0.025   1.071   7.198  0.9412 -0.3935  1.4349
 8352SOL    HW236693   4.671   1.084   7.319 -2.3252  3.0163  1.2094
 8353SOL     OW36694   2.895   3.912   6.043  0.2646  0.2801  0.1393
 8353SOL    HW136695   2.872   3.824   6.071 -3.5895  1.5960  1.0318
 8353SOL    HW236696   2.943   3.900   5.960 -0.6560 -0.8501 -0.2247
 8354SOL     OW36697   2.575   2.134   1.037 -0.5569  0.2771 -0.7539
 8354SOL    HW136698   2.651   2.166   0.989  0.0904  0.6438  0.4956
 8354SOL    HW236699   2.542   2.216   1.075 -0.5266  0.6330 -1.4917
 8355SOL     OW36700   0.720   2.691   8.832 -0.0132 -0.1031 -0.7963
 8355SOL    HW136701   0.813   2.692   8.851 -0.6489 -2.1981  2.3192
 8355SOL    HW236702   0.713   2.605   8.789  1.3367  0.0416 -1.3056
 8356SOL     OW36703   0.667   2.256  11.830  0.3215  0.5012  0.2247
 8356SOL    HW136704   0.732   2.302  11.777 -1.7606  0.0619 -2.6967
 8356SOL    HW236705   0.624   2.330  11.872  0.3090 -0.3716  1.7579
 8357SOL     OW36706   3.667   4.577  10.960  0.2935  0.1741  0.3035
 8357SOL    HW136707   3.626   4.613  11.039  2.3952  1.0762  0.9835
 8357SOL    HW236708   3.761   4.589  10.978  0.3363  0.9307 -0.4077
 8358SOL     OW36709   4.468   3.072   9.466  0.5062 -0.2883 -0.1929
 8358SOL    HW136710   4.526   2.998   9.487  0.4396  0.0166  1.0358
 8358SOL    HW236711   4.503   3.139   9.525  1.6599  1.0359 -2.3768
 8359SOL     OW36712   4.161   1.991  12.832  0.1906  0.0161  0.1157
 8359SOL    HW136713   4.179   2.018  12.742  1.7857  0.6521  0.6356
 8359SOL    HW236714   4.250   1.997  12.867  0.5084 -0.7416 -0.5759
 8360SOL     OW36715   0.033   3.487   7.095 -0.1615  0.1104 -0.3824
 8360SOL    HW136716   0.043   3.541   7.017  4.2615  0.4153  0.3895
 8360SOL    HW236717   4.684   3.505   7.139 -0.6891  0.6004 -1.5832
 8361SOL     OW36718   1.484   3.012   7.115  0.4671  0.0408 -0.1788
 8361SOL    HW136719   1.407   2.960   7.139  0.4511  0.3708  0.4943
 8361SOL    HW236720   1.521   3.039   7.199 -0.4748  0.2094  0.1867
 8362SOL     OW36721   4.251   2.513   4.953  0.0894 -0.3294 -0.4444
 8362SOL    HW136722   4.334   2.561   4.953 -0.7890  1.2304  0.4534
 8362SOL    HW236723   4.186   2.582   4.937 -1.5120 -1.7485 -0.0654
 8363SOL     OW36724   4.592   4.541  15.016  0.5133  0.5171  0.1558
 8363SOL    HW136725   4.591   4.580  15.104  2.2327  0.6686  0.1033
 8363SOL    HW236726   4.652   4.610  14.989 -0.5648  2.2516  2.1407
 8364SOL     OW36727   2.820   1.542   3.244  0.2599 -0.6144  0.2895
 8364SOL    HW136728   2.873   1.476   3.200 -0.4863 -0.9312 -0.1362
 8364SOL    HW236729   2.751   1.487   3.281 -1.9069  2.4723  0.8135
 8365SOL     OW36730   1.859   3.653   1.812  0.4084  0.1840  0.4020
 8365SOL    HW136731   1.766   3.632   1.811  0.5360 -0.4277  1.1040
 8365SOL    HW236732   1.906   3.581   1.856 -0.1587 -1.5305 -1.7622
 8366SOL     OW36733   1.033   4.590   8.811 -0.2367  0.2942 -0.5191
 8366SOL    HW136734   1.110   4.596   8.866  0.2596  1.6221 -1.3690
 8366SOL    HW236735   1.013   4.496   8.816  3.4147 -0.4130  0.7510
 8367SOL     OW36736   1.963   2.538  14.452 -0.1926  0.5455  0.0136
 8367SOL    HW136737   1.940   2.575  14.366 -0.7915  2.4983  1.0125
 8367SOL    HW236738   1.997   2.619  14.491  0.6148  0.2231 -0.0150
 8368SOL     OW36739   2.917   2.080  17.233  0.3633 -0.3188 -0.5039
 8368SOL    HW136740   2.965   2.162  17.237  0.9263 -0.5897 -1.6706
 8368SOL    HW236741   2.867   2.075  17.151  1.2954  0.5133 -1.1104
 8369SOL     OW36742   0.791   4.001   7.150 -0.3191 -0.6178  0.0388
 8369SOL    HW136743   0.852   3.940   7.109 -0.9559 -1.7020  0.7047
 8369SOL    HW236744   0.849   4.064   7.193 -3.4187  1.4104  1.2286
 8370SOL     OW36745   2.243   4.319  12.649 -0.2255 -0.1919  0.2132
 8370SOL    HW136746   2.209   4.242  12.695  1.4564 -0.6208  0.7296
 8370SOL    HW236747   2.161   4.368  12.645  0.4509  0.8654 -0.4812
 8371SOL     OW36748   2.091   0.470  16.082 -0.4689 -0.4178 -0.4371
 8371SOL    HW136749   2.013   0.507  16.122 -0.0875 -0.7330  0.5783
 8371SOL    HW236750   2.058   0.389  16.043 -0.9304  0.0350 -0.9974
 8372SOL     OW36751   1.135   2.500   2.466  0.9858 -0.0247 -0.3626
 8372SOL    HW136752   1.193   2.459   2.530  2.2878  0.5703 -1.1579
 8372SOL    HW236753   1.132   2.443   2.389 -1.5104  0.2911 -0.4999
 8373SOL     OW36754   2.051   4.355   9.642  0.7880 -0.1017  0.0276
 8373SOL    HW136755   2.032   4.439   9.600  2.8752  0.6176  0.5378
 8373SOL    HW236756   2.008   4.298   9.577  0.6079  1.4148 -1.1803
 8374SOL     OW36757   4.216   0.427   8.680 -0.0741  0.5268  0.1963
 8374SOL    HW136758   4.217   0.347   8.628 -0.3685  0.5636  0.1385
 8374SOL    HW236759   4.217   0.493   8.611  0.4597  1.0594  0.7051
 8375SOL     OW36760   1.715   3.632   3.544 -0.4649 -0.3997  0.2691
 8375SOL    HW136761   1.729   3.548   3.498 -1.1778  0.8247 -2.1994
 8375SOL    HW236762   1.723   3.606   3.635  0.9060  0.2241  0.3343
 8376SOL     OW36763   0.438   3.880   5.796 -0.1243 -0.0417 -0.1612
 8376SOL    HW136764   0.508   3.921   5.745  2.1598 -0.0325  3.0018
 8376SOL    HW236765   0.464   3.879   5.888  0.7865 -0.1501 -0.4201
 8377SOL     OW36766   3.044   2.570   6.294  0.1713  0.0443 -0.9974
 8377SOL    HW136767   3.098   2.491   6.291 -0.3798 -0.2794 -2.3344
 8377SOL    HW236768   3.076   2.626   6.223  2.2000  0.2899  0.1192
 8378SOL     OW36769   3.799   3.019  11.032  0.0834 -0.0191  0.4655
 8378SOL    HW136770   3.772   2.931  11.006  0.8397 -0.0030 -0.3656
 8378SOL    HW236771   3.868   2.999  11.095  0.7437  0.2271 -0.1757
 8379SOL     OW36772   2.772   1.444  12.004 -0.1453 -0.0619 -0.1264
 8379SOL    HW136773   2.689   1.454  12.051 -0.7065  3.3219 -1.8267
 8379SOL    HW236774   2.744   1.480  11.920 -2.1375 -1.4122 -0.0486
 8380SOL     OW36775   2.218   1.647   0.154  0.2117 -0.3191 -0.3657
 8380SOL    HW136776   2.174   1.665   0.237 -1.8721  2.5702 -2.0755
 8380SOL    HW236777   2.260   1.732   0.139  1.4261 -0.9552 -0.5186
 8381SOL     OW36778   3.720   2.935   7.391 -0.2005 -0.1564  0.0066
 8381SOL    HW136779   3.724   2.930   7.487 -1.3170 -2.1778 -0.0400
 8381SOL    HW236780   3.788   2.868   7.377  0.0198  0.1624 -0.4454
 8382SOL     OW36781   2.763   1.416   4.577  0.0036 -0.5054  0.4455
 8382SOL    HW136782   2.857   1.426   4.595  0.6509 -1.3004 -2.6047
 8382SOL    HW236783   2.719   1.440   4.659 -1.8293  1.0046 -0.9990
 8383SOL     OW36784   4.038   1.874   8.615 -0.6058  0.2310  0.1297
 8383SOL    HW136785   3.950   1.835   8.619 -0.2506 -0.5235  0.5466
 8383SOL    HW236786   4.051   1.901   8.706 -2.9437 -0.4766  0.6804
 8384SOL     OW36787   2.543   1.455   9.523  0.2396 -0.0156 -0.4405
 8384SOL    HW136788   2.484   1.392   9.482  0.9485 -0.3694 -0.9158
 8384SOL    HW236789   2.500   1.534   9.490  1.2698  1.4215  1.6602
 8385SOL     OW36790   4.111   2.499   9.180 -0.0042 -0.0575  0.1872
 8385SOL    HW136791   4.042   2.562   9.202 -1.4700 -1.0394 -1.5676
 8385SOL    HW236792   4.054   2.422   9.181  0.0384 -0.0830  0.9165
 8386SOL     OW36793   4.657   1.977   6.305  0.2554 -0.0226  0.4021
 8386SOL    HW136794   4.726   2.022   6.255  2.0313 -0.9471  2.0255
 8386SOL    HW236795   4.700   1.907   6.354 -0.4467  0.1619  1.2775
 8387SOL     OW36796   4.492   1.319   7.171 -0.0573  0.0263  0.2499
 8387SOL    HW136797   4.561   1.254   7.155  1.3352  1.3664  0.7392
 8387SOL    HW236798   4.541   1.401   7.173 -0.6664  0.4210 -1.9972
 8388SOL     OW36799   3.192   1.525   9.628  0.4754 -0.5984  0.0706
 8388SOL    HW136800   3.255   1.596   9.612  0.4542 -0.4433  0.6933
 8388SOL    HW236801   3.235   1.478   9.699  2.5600 -1.0346 -1.4624
 8389SOL     OW36802   2.630   1.461   6.130 -0.4831 -0.0092  0.4810
 8389SOL    HW136803   2.710   1.457   6.183 -0.3552 -0.7440  0.2246
 8389SOL    HW236804   2.665   1.480   6.043  0.3267 -0.4562  0.7116
 8390SOL     OW36805   3.164   4.400  15.753  0.8521 -0.1217 -0.1271
 8390SOL    HW136806   3.168   4.491  15.724 -2.8914  0.3530  0.9429
 8390SOL    HW236807   3.166   4.417  15.847  0.9248 -1.8718  0.1934
 8391SOL     OW36808   3.843   3.217  10.547 -0.1183  0.1161  0.2063
 8391SOL    HW136809   3.884   3.154  10.606  0.9216  0.7652  0.1821
 8391SOL    HW236810   3.825   3.292  10.603  4.2475  0.5274  1.0755
 8392SOL     OW36811   3.814   0.262   0.414  0.5879  0.3442  0.2532
 8392SOL    HW136812   3.723   0.267   0.445  0.6531 -1.7668  0.7631
 8392SOL    HW236813   3.832   0.351   0.384  1.5175  0.1247  0.1785
 8393SOL     OW36814   1.158   1.381  16.736 -0.1636  0.1194  0.1295
 8393SOL    HW136815   1.066   1.371  16.761 -1.0684  2.0073 -2.4466
 8393SOL    HW236816   1.190   1.295  16.765 -1.9776 -0.1513  1.3474
 8394SOL     OW36817   0.535   3.287   8.524  0.0012 -0.5106  0.5708
 8394SOL    HW136818   0.477   3.226   8.569 -0.9505  0.8668  1.2125
 8394SOL    HW236819   0.587   3.221   8.480  0.5441  0.5674 -0.4003
 8395SOL     OW36820   3.811   4.344   2.262  0.0390  0.4969 -0.0587
 8395SOL    HW136821   3.894   4.356   2.309  0.7090  0.2358 -1.1534
 8395SOL    HW236822   3.790   4.437   2.252 -0.6740  0.6604  2.9370
 8396SOL     OW36823   3.376   0.170   4.527  0.8595 -0.2338 -0.5360
 8396SOL    HW136824   3.464   0.193   4.555  0.5171  0.1303  0.2273
 8396SOL    HW236825   3.331   0.209   4.602 -0.5039  1.6226 -2.2970
 8397SOL     OW36826   4.439   3.919   3.398 -0.2717 -0.5776 -0.4426
 8397SOL    HW136827   4.494   3.900   3.473  0.4070  3.3175  0.0574
 8397SOL    HW236828   4.389   3.838   3.389  0.5410 -0.9289 -1.8710
 8398SOL     OW36829   3.664   2.219   9.177  0.5110 -0.4162 -0.0602
 8398SOL    HW136830   3.713   2.170   9.243 -0.2654 -0.8528  0.1982
 8398SOL    HW236831   3.578   2.201   9.215  0.2708  1.9878  0.5632
 8399SOL     OW36832   2.586   2.543   7.337  0.4358  0.7094  0.6920
 8399SOL    HW136833   2.573   2.589   7.254  1.0849 -0.5359 -0.0909
 8399SOL    HW236834   2.679   2.544   7.358  0.2123 -0.3215  1.7237
 8400SOL     OW36835   0.358   3.019  11.578  0.4312  0.3525  0.4875
 8400SOL    HW136836   0.346   2.924  11.569  0.1344  0.6599 -2.4394
 8400SOL    HW236837   0.402   3.040  11.495  0.4188 -0.5229  0.2563
 8401SOL     OW36838   0.618   3.495   8.347 -0.3052  0.4972  0.1497
 8401SOL    HW136839   0.678   3.420   8.345 -0.4094  0.4215 -0.1414
 8401SOL    HW236840   0.537   3.454   8.378  0.5455 -0.1037  1.6092
 8402SOL     OW36841   0.982   0.589   1.485 -0.0955  0.3186 -0.3552
 8402SOL    HW136842   1.066   0.629   1.510  0.1259 -0.8676  0.7982
 8402SOL    HW236843   0.983   0.506   1.533  0.9909  0.7368  0.3575
 8403SOL     OW36844   2.976   0.960   7.448  0.2730 -0.3251 -0.8175
 8403SOL    HW136845   3.043   0.892   7.454 -0.4679 -1.1481 -1.8536
 8403SOL    HW236846   3.029   1.035   7.423  0.6941  0.3628  2.1108
 8404SOL     OW36847   0.735   2.465   5.319  0.4893  0.0879  0.3287
 8404SOL    HW136848   0.794   2.534   5.288  0.5237 -0.2282 -0.3016
 8404SOL    HW236849   0.659   2.469   5.260  0.7688 -1.7990 -0.1467
 8405SOL     OW36850   0.496   1.040  17.669 -0.0896  0.2290  0.3235
 8405SOL    HW136851   0.529   1.006  17.586 -1.3978  1.2463 -0.6113
 8405SOL    HW236852   0.400   1.045  17.662 -0.4350 -2.0103  3.2979
 8406SOL     OW36853   1.450   1.772  14.306  0.1018 -0.3716  0.6281
 8406SOL    HW136854   1.378   1.744  14.249  2.1820  0.0835 -2.2226
 8406SOL    HW236855   1.411   1.855  14.334 -1.0161 -0.5588 -0.3788
 8407SOL     OW36856   4.526   3.274   7.436  0.2324 -0.3177 -0.4640
 8407SOL    HW136857   4.457   3.330   7.470  1.2644 -0.8371  2.4420
 8407SOL    HW236858   4.588   3.339   7.403 -1.5619  1.0397 -1.1337
 8408SOL     OW36859   1.187   0.185   2.889 -0.0069 -0.0440 -0.0875
 8408SOL    HW136860   1.266   0.206   2.939  0.9255 -0.6071 -1.3218
 8408SOL    HW236861   1.223   0.160   2.804  0.6408 -0.8474  0.4163
 8409SOL     OW36862   2.165   1.367   7.488  0.3978  0.1877  0.8869
 8409SOL    HW136863   2.252   1.405   7.492 -0.2358  1.9396 -2.3413
 8409SOL    HW236864   2.115   1.435   7.442  0.2364 -0.7355 -0.3136
 8410SOL     OW36865   1.744   3.695   4.060  0.0501  0.1603 -0.0149
 8410SOL    HW136866   1.708   3.765   4.005 -1.1564  2.7549  4.0996
 8410SOL    HW236867   1.820   3.740   4.096  0.3452 -0.4545  0.1124
 8411SOL     OW36868   2.644   2.463  11.978 -0.2356  0.3497 -0.5126
 8411SOL    HW136869   2.705   2.435  12.048  1.1594  3.9509 -0.3100
 8411SOL    HW236870   2.667   2.555  11.968  0.8349  0.3915  2.0964
 8412SOL     OW36871   0.852   2.532   0.699  0.2825  0.2760  0.2496
 8412SOL    HW136872   0.884   2.482   0.774 -1.4972  1.6542  1.9335
 8412SOL    HW236873   0.905   2.610   0.717 -0.8653  0.5051  2.6532
 8413SOL     OW36874   2.021   1.514   4.123 -0.0412  0.0284 -0.3432
 8413SOL    HW136875   2.048   1.445   4.063  0.6491  0.6517 -0.7363
 8413SOL    HW236876   1.930   1.528   4.095 -0.1558  0.8163  0.3977
 8414SOL     OW36877   3.314   3.506   0.358 -0.0869 -0.1710 -0.0527
 8414SOL    HW136878   3.277   3.418   0.370  0.7659 -0.7157 -1.3541
 8414SOL    HW236879   3.342   3.503   0.266  2.0559  0.6885  0.5923
 8415SOL     OW36880   2.611   1.425  15.413 -0.2250 -0.0677 -0.1071
 8415SOL    HW136881   2.550   1.498  15.426 -1.0560 -0.7652 -0.1238
 8415SOL    HW236882   2.618   1.384  15.499 -3.0782 -0.1114  0.1025
 8416SOL     OW36883   4.252   2.870  11.148  0.1810  0.6977 -0.3388
 8416SOL    HW136884   4.217   2.890  11.061  1.5310  3.3364 -0.2771
 8416SOL    HW236885   4.317   2.941  11.155  0.2957  0.6635 -1.0102
 8417SOL     OW36886   4.568   3.516   8.835 -0.0028  0.2230  0.2084
 8417SOL    HW136887   4.569   3.476   8.922 -3.5234 -2.6606 -1.0688
 8417SOL    HW236888   4.529   3.600   8.858  1.4998  1.1308 -0.5611
 8418SOL     OW36889   3.580   0.906   5.965 -0.0302 -0.6357  0.1307
 8418SOL    HW136890   3.653   0.956   5.927  1.9438 -1.2014  3.1621
 8418SOL    HW236891   3.581   0.942   6.054 -0.6233  0.4297 -0.2977
 8419SOL     OW36892   0.908   4.175  15.191  0.0733 -0.2451 -0.1612
 8419SOL    HW136893   0.954   4.194  15.273 -0.1033  0.3893 -0.2102
 8419SOL    HW236894   0.823   4.167  15.234 -0.0030  0.6573 -0.1548
 8420SOL     OW36895   2.036   1.561   6.333  0.3996  0.0422 -0.7786
 8420SOL    HW136896   1.942   1.578   6.328  0.1679 -1.3722 -1.3094
 8420SOL    HW236897   2.066   1.563   6.242  0.5468  0.9641 -0.7108
 8421SOL     OW36898   2.223   1.602   2.085  0.0932 -0.0748 -0.0202
 8421SOL    HW136899   2.314   1.600   2.115  1.2272 -1.0134 -3.4545
 8421SOL    HW236900   2.203   1.509   2.087  0.2724 -0.1314 -0.7113
 8422SOL     OW36901   4.280   2.768  16.625  0.1057 -0.2334 -0.0700
 8422SOL    HW136902   4.277   2.677  16.655  0.1818  0.7378  2.8951
 8422SOL    HW236903   4.254   2.753  16.535  3.2649 -0.6742 -0.8919
 8423SOL     OW36904   4.461   3.539  17.368 -0.0245 -0.5248 -0.2052
 8423SOL    HW136905   4.458   3.445  17.350 -1.2018  0.0092 -2.8042
 8423SOL    HW236906   4.399   3.564  17.300 -0.2680 -1.2193 -0.2383
 8424SOL     OW36907   2.277   3.254   4.029  0.3316  0.5794  0.3699
 8424SOL    HW136908   2.361   3.297   4.012  1.5275 -1.6634  0.5434
 8424SOL    HW236909   2.281   3.265   4.124  0.9347  0.1335  0.4009
 8425SOL     OW36910   2.312   4.298   0.088 -0.0440  0.3774 -0.5459
 8425SOL    HW136911   2.382   4.286   0.152  0.2574  1.3300 -0.6906
 8425SOL    HW236912   2.322   4.218   0.036 -1.0044 -0.2432  0.2381
 8426SOL     OW36913   2.272   3.613   2.404  0.1700 -0.0892 -0.5253
 8426SOL    HW136914   2.266   3.520   2.386 -1.6882  0.1628 -1.2785
 8426SOL    HW236915   2.179   3.636   2.410  0.8392  2.2548  0.8065
 8427SOL     OW36916   0.617   2.299   8.088 -0.8929  0.7231 -0.3262
 8427SOL    HW136917   0.709   2.277   8.074 -1.0467 -1.4191  1.8981
 8427SOL    HW236918   0.587   2.262   8.005 -2.3689 -0.7103  0.8355
 8428SOL     OW36919   0.066   2.302  10.692  0.0260 -0.5227 -0.1167
 8428SOL    HW136920   0.073   2.347  10.776  0.5980  1.2823 -1.1026
 8428SOL    HW236921   0.125   2.229  10.710 -0.0143 -0.7355 -0.8490
 8429SOL     OW36922   1.822   1.925   6.934  0.2305 -0.0335  0.6079
 8429SOL    HW136923   1.903   1.904   6.887 -1.7842 -0.9839 -2.3963
 8429SOL    HW236924   1.789   1.992   6.874 -0.3213 -0.5299  0.3603
 8430SOL     OW36925   0.080   3.866   1.146  0.1360  0.7067  0.2873
 8430SOL    HW136926   0.163   3.857   1.191 -0.4889  2.5808  1.8289
 8430SOL    HW236927   0.057   3.774   1.136 -2.6389  1.6149 -1.7931
 8431SOL     OW36928   3.588   1.344  14.689  0.0676 -0.4196 -0.1073
 8431SOL    HW136929   3.500   1.331  14.654  0.2935  0.2734 -0.9196
 8431SOL    HW236930   3.615   1.252  14.682  2.2845  0.1951  0.2666
 8432SOL     OW36931   2.485   1.230  12.411  0.3880  0.2230  0.3757
 8432SOL    HW136932   2.566   1.179  12.415 -1.5381 -2.9426 -0.7313
 8432SOL    HW236933   2.456   1.220  12.320 -0.0948 -1.3622  0.7107
 8433SOL     OW36934   0.189   3.533  15.737  0.0692  0.0282 -0.0037
 8433SOL    HW136935   0.228   3.597  15.677  0.9349 -2.0491 -1.6539
 8433SOL    HW236936   0.197   3.446  15.697  4.1287  0.1718  0.5117
 8434SOL     OW36937   0.839   4.208   5.275  0.0191 -0.2886 -0.1611
 8434SOL    HW136938   0.845   4.246   5.187 -0.1176  0.7208  0.2682
 8434SOL    HW236939   0.791   4.126   5.262 -0.2925 -0.0218 -0.6823
 8435SOL     OW36940   2.431   1.969   9.005  0.1372 -0.3464 -0.5526
 8435SOL    HW136941   2.399   1.902   9.065 -0.2160 -0.0303 -0.3861
 8435SOL    HW236942   2.397   1.947   8.919 -0.9318 -1.1475  0.0784
 8436SOL     OW36943   0.418   2.931   2.154  0.0235  0.2162  0.7316
 8436SOL    HW136944   0.452   2.844   2.134 -0.2077  0.7128 -1.7997
 8436SOL    HW236945   0.327   2.914   2.178 -0.1536 -0.9493 -0.7721
 8437SOL     OW36946   2.672   2.824   7.221  0.2352 -0.2306 -0.1903
 8437SOL    HW136947   2.696   2.807   7.130 -0.0906 -1.1992 -0.0929
 8437SOL    HW236948   2.757   2.824   7.265  0.1530 -0.4908 -0.0309
 8438SOL     OW36949   4.272   3.561   2.937  0.4512 -0.0457  0.0023
 8438SOL    HW136950   4.234   3.477   2.964  2.9236 -1.0097  0.5067
 8438SOL    HW236951   4.334   3.533   2.869 -0.4589 -2.1477  0.0173
 8439SOL     OW36952   1.503   3.373   5.383  0.3934 -0.0184  0.1774
 8439SOL    HW136953   1.558   3.315   5.436  1.1332  1.6062  1.1730
 8439SOL    HW236954   1.440   3.397   5.450 -0.8095 -0.7270 -0.7087
 8440SOL     OW36955   1.276   0.478   5.891  0.2608  0.2377  0.2532
 8440SOL    HW136956   1.199   0.427   5.914  0.0174  0.0264 -1.0364
 8440SOL    HW236957   1.250   0.543   5.826 -2.5823  0.5996  1.7850
 8441SOL     OW36958   3.540   1.747  16.758 -0.6841  0.2352 -0.0605
 8441SOL    HW136959   3.600   1.691  16.708  1.0152  1.0672  1.0383
 8441SOL    HW236960   3.599   1.784  16.824 -1.0735 -1.8639  1.4659
 8442SOL     OW36961   1.020   1.595   6.201 -0.0767  0.1081  0.3855
 8442SOL    HW136962   1.113   1.592   6.221 -0.4232 -0.3124  1.9145
 8442SOL    HW236963   1.013   1.501   6.187 -0.2093  0.3254 -1.0124
 8443SOL     OW36964   3.559   2.677   0.589  0.0448 -0.7035 -0.3508
 8443SOL    HW136965   3.588   2.748   0.646  0.7220 -0.6845 -0.7238
 8443SOL    HW236966   3.470   2.664   0.623  0.5701 -2.2486  0.3924
 8444SOL     OW36967   3.517   3.838   7.304 -0.0649  0.2539 -0.1544
 8444SOL    HW136968   3.604   3.800   7.319  1.0749  2.3248 -1.5678
 8444SOL    HW236969   3.475   3.770   7.252 -0.2609 -0.7001  1.2400
 8445SOL     OW36970   1.312   1.261  11.854 -0.1531  0.4945 -0.4738
 8445SOL    HW136971   1.304   1.205  11.777  1.9840  1.2505 -1.2428
 8445SOL    HW236972   1.387   1.222  11.898 -0.4102  2.8607  2.0885
 8446SOL     OW36973   2.556   0.911  12.053  0.3949 -0.0889  0.3226
 8446SOL    HW136974   2.530   0.884  12.142  0.4912 -0.1494  0.3326
 8446SOL    HW236975   2.518   0.998  12.046 -0.4715 -0.2991  2.4481
 8447SOL     OW36976   4.079   2.372   7.194 -0.5008  0.6558  0.2378
 8447SOL    HW136977   4.020   2.353   7.267 -0.8379  0.0487 -0.1941
 8447SOL    HW236978   4.159   2.395   7.242  0.2520 -0.3876 -0.5227
 8448SOL     OW36979   1.525   4.349  11.038 -0.3966 -0.4656  0.0988
 8448SOL    HW136980   1.497   4.438  11.014 -1.4391 -0.5335  1.0797
 8448SOL    HW236981   1.619   4.358  11.054 -0.0226  0.0731 -2.3302
 8449SOL     OW36982   0.424   1.936   6.779  0.0000  0.0130  0.9012
 8449SOL    HW136983   0.362   1.910   6.848 -0.2138 -0.4934  0.5193
 8449SOL    HW236984   0.363   1.970   6.714  1.6985 -0.0253 -0.6815
 8450SOL     OW36985   1.894   4.597   3.815  0.0750 -0.6706 -0.3807
 8450SOL    HW136986   1.805   4.565   3.822 -0.7812  1.9227  0.5907
 8450SOL    HW236987   1.929   4.546   3.888  2.3719  1.4765  0.0462
 8451SOL     OW36988   1.024   3.921   8.056  0.2355  0.0317  0.0007
 8451SOL    HW136989   0.968   3.894   8.128 -0.7615  0.7834 -0.4884
 8451SOL    HW236990   1.049   3.837   8.017 -1.4697 -2.4265  4.3077
 8452SOL     OW36991   4.544   1.258   9.009  0.3447  0.1928  0.0104
 8452SOL    HW136992   4.535   1.172   8.969 -0.7481  0.6800 -0.7840
 8452SOL    HW236993   4.506   1.238   9.095 -1.9460 -2.5398 -1.6487
 8453SOL     OW36994   0.529   1.842   5.005 -0.3871  0.5781  0.0208
 8453SOL    HW136995   0.562   1.839   5.095 -0.8856 -1.3356  0.1478
 8453SOL    HW236996   0.563   1.925   4.972 -2.0617  1.0203 -0.6068
 8454SOL     OW36997   1.050   1.932   0.453  0.2133 -0.0374  0.3209
 8454SOL    HW136998   1.048   1.853   0.398 -0.7610  0.4016 -0.2878
 8454SOL    HW236999   1.016   1.894   0.534 -1.4381 -0.5805 -0.6162
 8455SOL     OW37000   2.223   1.541   8.122  0.2204 -0.2509  0.4810
 8455SOL    HW137001   2.162   1.541   8.048 -1.4091 -0.5862  1.8132
 8455SOL    HW237002   2.189   1.489   8.195 -0.4551 -1.6106 -0.7956
 8456SOL     OW37003   3.313   1.674   1.621 -0.0110 -0.1942  0.3117
 8456SOL    HW137004   3.307   1.766   1.598  1.1917  0.8391  4.0612
 8456SOL    HW237005   3.398   1.691   1.660  0.2091 -0.9483  0.1680
 8457SOL     OW37006   0.344   4.504   2.550 -0.1505  0.4642  0.3706
 8457SOL    HW137007   0.347   4.444   2.475  1.5471 -0.4812  1.1982
 8457SOL    HW237008   0.397   4.579   2.523 -1.0307  0.8505 -0.2938
 8458SOL     OW37009   4.094   3.496  16.995 -0.9706 -0.2823 -0.9894
 8458SOL    HW137010   4.035   3.476  17.068 -1.2721 -0.5152 -1.2930
 8458SOL    HW237011   4.053   3.571  16.953 -1.8976 -0.2201 -0.0007
 8459SOL     OW37012   3.667   2.703   2.535  0.6172 -1.0118  0.5037
 8459SOL    HW137013   3.748   2.713   2.585  1.6110 -2.0050 -0.9045
 8459SOL    HW237014   3.695   2.716   2.444 -0.2360  0.1005  0.4001
 8460SOL     OW37015   0.533   1.143  13.633  0.1763  0.2564 -0.4314
 8460SOL    HW137016   0.607   1.161  13.691 -0.1774 -2.6420  0.9173
 8460SOL    HW237017   0.577   1.108  13.556 -0.3610 -1.8640  0.2173
 8461SOL     OW37018   2.237   4.439   5.324 -0.4437  1.1914 -0.2364
 8461SOL    HW137019   2.248   4.463   5.416 -1.8536  2.2337 -0.3393
 8461SOL    HW237020   2.253   4.521   5.277  0.0257  0.2247 -1.7410
 8462SOL     OW37021   0.606   1.867   4.456  0.3766 -0.2644  0.1732
 8462SOL    HW137022   0.546   1.822   4.515  1.4487 -1.5224  0.2926
 8462SOL    HW237023   0.675   1.802   4.446  0.2272 -0.2485 -1.0216
 8463SOL     OW37024   4.063   2.121  15.848 -0.0848 -0.1031  0.1337
 8463SOL    HW137025   4.128   2.066  15.890  0.5381 -0.4387 -1.2671
 8463SOL    HW237026   3.984   2.114  15.902 -3.0115  0.1646 -4.0566
 8464SOL     OW37027   4.251   4.141   4.326 -0.0954  0.0989  0.2540
 8464SOL    HW137028   4.156   4.152   4.331 -0.3824 -1.3731 -1.8743
 8464SOL    HW237029   4.266   4.166   4.235  1.4415 -0.5854  0.3225
 8465SOL     OW37030   4.190   2.032   7.306 -0.5454  0.9730 -0.0843
 8465SOL    HW137031   4.249   2.047   7.232  1.1168 -0.9391  0.8395
 8465SOL    HW237032   4.231   1.948   7.328  0.5494  2.1018  2.2669
 8466SOL     OW37033   1.490   0.018   9.785 -0.0086 -0.1760  0.1491
 8466SOL    HW137034   1.532   0.012   9.699  2.3992 -1.5629  1.4312
 8466SOL    HW237035   1.462   4.662   9.795 -2.1686  0.7338  2.2928
 8467SOL     OW37036   0.300   3.165  11.805 -0.3610 -0.2977 -0.2394
 8467SOL    HW137037   0.307   3.246  11.755  0.7888  0.8726  1.8261
 8467SOL    HW237038   0.329   3.107  11.734 -1.4044 -0.5441 -0.4650
 8468SOL     OW37039   0.332   2.419   1.848  0.0172  0.4819 -0.2105
 8468SOL    HW137040   0.344   2.396   1.940  0.7836  2.1297  0.1105
 8468SOL    HW237041   0.336   2.340   1.795 -0.3301  0.5138 -0.2816
 8469SOL     OW37042   4.159   0.945   3.266 -0.4347  0.0646  0.0034
 8469SOL    HW137043   4.100   0.955   3.191  0.3503 -0.3551 -0.6700
 8469SOL    HW237044   4.120   0.865   3.299 -0.3606 -0.8451 -2.1119
 8470SOL     OW37045   0.694   1.818  16.456  0.0825  0.1957 -0.5466
 8470SOL    HW137046   0.752   1.751  16.422 -1.5270 -0.5812 -1.7353
 8470SOL    HW237047   0.753   1.894  16.455  0.9532 -0.4343  1.4350
 8471SOL     OW37048   0.958   0.919   3.324 -0.4334  0.1616  0.6443
 8471SOL    HW137049   0.884   0.977   3.342 -1.7041 -1.2708 -0.0055
 8471SOL    HW237050   0.977   0.954   3.237  2.4110  1.5023  1.7954
 8472SOL     OW37051   3.192   4.434  16.890  0.0328 -0.4548  0.2383
 8472SOL    HW137052   3.209   4.355  16.840  0.7959  0.8128 -1.5050
 8472SOL    HW237053   3.228   4.398  16.972 -1.8280  0.5543  1.4920
 8473SOL     OW37054   4.648   0.533   4.800  0.1930 -0.2292 -0.2255
 8473SOL    HW137055   4.639   0.546   4.706  1.5272  1.9946 -0.0563
 8473SOL    HW237056   0.000   0.570   4.815  1.0347 -0.8753 -3.4210
 8474SOL     OW37057   0.170   1.920  13.882 -0.7487 -0.6050 -0.1698
 8474SOL    HW137058   0.146   1.911  13.974 -1.1915 -0.2321 -0.2489
 8474SOL    HW237059   0.133   1.839  13.845 -2.9970 -0.6123  2.1228
 8475SOL     OW37060   0.168   3.253   2.635 -0.4697 -0.2223  0.0177
 8475SOL    HW137061   0.150   3.343   2.663 -1.2755 -0.7336  1.1647
 8475SOL    HW237062   0.222   3.267   2.557  1.2691  2.8124  1.7726
 8476SOL     OW37063   0.507   2.442  11.980  0.3569 -0.2714 -0.4362
 8476SOL    HW137064   0.442   2.507  11.954  2.0649  1.7494  0.3535
 8476SOL    HW237065   0.539   2.467  12.067 -2.4857  1.1847  0.1834
 8477SOL     OW37066   4.399   4.591   8.798 -0.2300  1.0451  0.3771
 8477SOL    HW137067   4.429   4.666   8.849  1.7858  1.6145 -1.6574
 8477SOL    HW237068   4.479   4.545   8.773 -0.9133  0.7224 -1.2529
 8478SOL     OW37069   0.671   4.659   2.268 -0.0560 -0.4389  0.3411
 8478SOL    HW137070   0.736   4.702   2.213 -0.3775 -2.1692 -1.3670
 8478SOL    HW237071   0.599   4.719   2.250  0.7004  0.4865  0.3866
 8479SOL     OW37072   4.461   4.421   2.456  0.3156 -0.3493  0.3629
 8479SOL    HW137073   4.476   4.389   2.367 -1.2601  0.2172 -0.1143
 8479SOL    HW237074   4.383   4.473   2.436 -0.1310 -2.4661 -3.3951
 8480SOL     OW37075   2.038   3.929   7.393 -0.0392 -0.3775  0.0681
 8480SOL    HW137076   2.041   4.023   7.379  1.8656 -0.5405 -0.5567
 8480SOL    HW237077   2.112   3.920   7.454  0.7478  0.2350 -0.8009
 8481SOL     OW37078   1.847   0.883   6.912  0.0859  0.1169 -0.2278
 8481SOL    HW137079   1.764   0.926   6.888 -0.3744 -0.2751  0.6568
 8481SOL    HW237080   1.851   0.925   6.998  2.9336 -0.3842 -0.1491
 8482SOL     OW37081   4.608   3.962   8.118 -0.3847  0.2403 -0.1708
 8482SOL    HW137082   4.643   3.901   8.183 -2.3501 -0.4555  0.2210
 8482SOL    HW237083   4.530   3.919   8.084 -0.0404  0.3567 -1.1321
 8483SOL     OW37084   2.727   3.794   1.616 -0.1093  0.0650 -0.4759
 8483SOL    HW137085   2.692   3.762   1.532 -0.0719 -1.1032 -0.0562
 8483SOL    HW237086   2.650   3.798   1.672  0.5858 -0.3895  0.5288
 8484SOL     OW37087   3.629   4.002   6.036  0.7990  0.1893 -0.1019
 8484SOL    HW137088   3.632   4.030   6.127  0.5497 -0.7913  0.2044
 8484SOL    HW237089   3.611   4.083   5.989  0.5051 -0.2392 -0.7453
 8485SOL     OW37090   1.139   0.646   5.741  0.2182 -0.5155 -0.2809
 8485SOL    HW137091   1.132   0.736   5.774 -1.6981 -0.2638 -1.3829
 8485SOL    HW237092   1.151   0.661   5.647  2.2629 -0.1140  0.0451
 8486SOL     OW37093   3.972   0.279   1.622  0.4823 -0.5396 -0.0446
 8486SOL    HW137094   4.036   0.336   1.579 -0.8476 -0.1144 -1.4667
 8486SOL    HW237095   3.947   0.334   1.696  1.5847 -0.5085  0.3044
 8487SOL     OW37096   2.672   3.984   5.836 -0.0541 -0.1890 -0.6316
 8487SOL    HW137097   2.684   3.893   5.807 -1.8056 -0.8332  0.6748
 8487SOL    HW237098   2.763   3.994   5.864  0.6139 -0.2612 -2.7314
 8488SOL     OW37099   0.854   2.835   3.017  0.1571 -0.2441  0.6095
 8488SOL    HW137100   0.912   2.900   2.980 -0.0024 -0.6405 -0.3301
 8488SOL    HW237101   0.761   2.856   3.011  0.0485 -1.1859 -0.9546
 8489SOL     OW37102   0.001   1.068   4.296 -0.2531 -0.5059  0.3806
 8489SOL    HW137103   0.092   1.094   4.305 -0.6368  1.7843 -2.2533
 8489SOL    HW237104   0.017   0.989   4.244 -1.2167  0.0449 -0.7775
 8490SOL     OW37105   4.017   1.929   5.144 -0.2722  0.4189  0.1581
 8490SOL    HW137106   3.928   1.903   5.165 -0.1216 -0.2127  0.0305
 8490SOL    HW237107   3.998   2.012   5.101  0.2029  2.1356  3.1943
 8491SOL     OW37108   2.783   0.135  12.315  0.1614 -0.1178  0.5100
 8491SOL    HW137109   2.695   0.169  12.307 -0.3624 -1.2876  1.2485
 8491SOL    HW237110   2.767   0.044  12.287  1.5899  0.0523 -0.9231
 8492SOL     OW37111   4.148   4.441   4.152 -0.5130 -0.4558 -0.4004
 8492SOL    HW137112   4.071   4.414   4.102 -1.3285  1.0005  0.0532
 8492SOL    HW237113   4.189   4.354   4.152 -2.2728 -1.3189  3.9992
 8493SOL     OW37114   0.657   1.666   7.932  0.3889  0.1487  0.0798
 8493SOL    HW137115   0.698   1.752   7.936 -0.3176  0.4813  0.1017
 8493SOL    HW237116   0.702   1.629   8.008 -0.2156  1.5397  1.1041
 8494SOL     OW37117   4.144   1.745   9.554 -0.0717 -0.0206  0.3351
 8494SOL    HW137118   4.240   1.739   9.552  0.0620  2.6757 -1.3737
 8494SOL    HW237119   4.131   1.834   9.586 -0.6118  0.5818 -1.6336
 8495SOL     OW37120   4.250   3.985   0.441  0.3833  0.1654  0.2551
 8495SOL    HW137121   4.289   3.968   0.527  0.3133  0.3336  0.3191
 8495SOL    HW237122   4.280   3.912   0.386  0.9734  0.0229  0.7614
 8496SOL     OW37123   3.625   3.242  13.804  0.5295 -0.1926 -0.5931
 8496SOL    HW137124   3.598   3.211  13.890 -0.7952  1.0338 -0.5600
 8496SOL    HW237125   3.710   3.204  13.784  0.8707  1.0232 -1.4367
 8497SOL     OW37126   1.025   0.469   6.766  0.2666  0.8645 -0.4397
 8497SOL    HW137127   0.962   0.541   6.760 -0.9733 -0.0253  1.8098
 8497SOL    HW237128   1.001   0.438   6.854 -0.4436 -0.4054 -1.0680
 8498SOL     OW37129   4.037   0.108   4.093 -0.1220  0.3582  0.1463
 8498SOL    HW137130   3.952   0.066   4.098  0.5608 -1.3107 -2.1303
 8498SOL    HW237131   4.083   0.044   4.038  0.4004 -0.8391  1.9981
 8499SOL     OW37132   0.887   2.486  12.597 -0.5125  0.1901 -0.2523
 8499SOL    HW137133   0.800   2.478  12.558 -0.5291  2.8471 -0.7553
 8499SOL    HW237134   0.890   2.397  12.632 -1.2716  0.8156  1.4427
 8500SOL     OW37135   1.829   0.065  10.097  0.3604  0.1158  1.0403
 8500SOL    HW137136   1.878   4.718  10.092 -0.9794 -0.6378  0.3018
 8500SOL    HW237137   1.817   0.070  10.002  0.5728 -0.4460  0.9829
 8501SOL     OW37138   0.148   2.177   2.130 -0.1291  0.3287  0.4243
 8501SOL    HW137139   0.162   2.102   2.074 -1.8477 -0.4346  1.0168
 8501SOL    HW237140   0.056   2.171   2.155 -0.6829 -0.9347 -1.9649
 8502SOL     OW37141   1.854   3.675  15.616  0.5123  0.1809  0.0179
 8502SOL    HW137142   1.910   3.657  15.540 -1.9085 -3.5811 -0.8522
 8502SOL    HW237143   1.795   3.742  15.580  1.2380  1.2641  0.8290
 8503SOL     OW37144   1.594   3.869   9.137  0.1624  0.9587 -0.5246
 8503SOL    HW137145   1.621   3.792   9.086 -0.4715  0.5587 -0.2614
 8503SOL    HW237146   1.550   3.913   9.065 -0.4728  0.7051 -0.2990
 8504SOL     OW37147   4.364   3.387   3.431 -0.3757  0.1293  0.4387
 8504SOL    HW137148   4.443   3.346   3.467 -0.3546  0.1888  0.4604
 8504SOL    HW237149   4.286   3.361   3.480 -1.0765  1.0803 -0.1816
 8505SOL     OW37150   2.051   2.324   5.444 -0.2765 -0.3533 -0.6117
 8505SOL    HW137151   2.045   2.410   5.485 -1.0612 -0.4891 -0.4361
 8505SOL    HW237152   1.971   2.330   5.391 -1.4298  1.1212  1.2989
 8506SOL     OW37153   0.177   1.869  12.364  0.6919  0.5223 -0.0312
 8506SOL    HW137154   0.108   1.809  12.394  0.9291  0.5767  0.6271
 8506SOL    HW237155   0.246   1.845  12.426  0.0692  1.3076  0.9782
 8507SOL     OW37156   3.963   3.389   6.545 -0.5482  0.1196  0.1890
 8507SOL    HW137157   4.028   3.369   6.612  1.3145  1.8959 -1.0979
 8507SOL    HW237158   3.995   3.472   6.509 -1.5685  0.7996  0.8679
 8508SOL     OW37159   0.522   1.395   2.446 -0.3306 -0.1873 -0.3229
 8508SOL    HW137160   0.571   1.469   2.483 -1.7943  0.4204  0.3742
 8508SOL    HW237161   0.430   1.418   2.452 -0.2446 -0.1353  0.7083
 8509SOL     OW37162   1.667   2.898   6.434  0.3333 -0.0941  0.2582
 8509SOL    HW137163   1.728   2.847   6.487  1.0095 -0.1631 -0.5857
 8509SOL    HW237164   1.733   2.951   6.389  0.6920 -0.4733  0.3371
 8510SOL     OW37165   0.822   2.200   6.492 -0.0256  0.4523 -0.1527
 8510SOL    HW137166   0.771   2.164   6.565  0.2644  2.2629  0.9348
 8510SOL    HW237167   0.907   2.165   6.517  0.2762 -0.5039 -2.5517
 8511SOL     OW37168   0.078   2.342   3.338 -0.2710  0.2379 -0.2231
 8511SOL    HW137169   0.162   2.360   3.296  0.6525  0.3707  1.6640
 8511SOL    HW237170   0.021   2.415   3.315 -2.1349 -0.9198  0.6702
 8512SOL     OW37171   2.844   1.071   9.542 -0.4404 -0.5522  0.8925
 8512SOL    HW137172   2.825   1.033   9.627 -1.3085  2.2908  1.9715
 8512SOL    HW237173   2.925   1.033   9.507  0.8085  1.4578  1.6022
 8513SOL     OW37174   1.852   1.940   3.756 -0.3961 -0.1362 -0.5477
 8513SOL    HW137175   1.881   1.972   3.841 -2.2794  0.0609  0.0210
 8513SOL    HW237176   1.901   2.005   3.706 -0.1990 -0.0562 -0.2467
 8514SOL     OW37177   2.417   2.642   7.597  0.4440 -0.5155 -1.4979
 8514SOL    HW137178   2.488   2.624   7.536  1.0221  2.1937 -1.5920
 8514SOL    HW237179   2.382   2.553   7.599  2.0021 -1.1315 -1.0930
 8515SOL     OW37180   1.605   4.502   0.416  0.3356  0.2385  0.3039
 8515SOL    HW137181   1.684   4.459   0.450  0.1831  0.4398  0.8974
 8515SOL    HW237182   1.536   4.448   0.455 -0.3905  2.1483  1.6670
 8516SOL     OW37183   0.076   0.255  10.162 -0.2193  0.1882 -0.6433
 8516SOL    HW137184   0.135   0.268  10.237  1.4076  0.4174 -1.9798
 8516SOL    HW237185   0.138   0.267  10.090  1.0153 -0.2403  0.3529
 8517SOL     OW37186   0.835   1.791   8.319  0.5896  0.1245  0.2414
 8517SOL    HW137187   0.901   1.860   8.331 -1.6381  2.4636 -0.7281
 8517SOL    HW237188   0.866   1.726   8.382  1.7406 -0.2837 -0.7567
 8518SOL     OW37189   0.903   2.174   9.535 -0.1361  0.3945 -0.0556
 8518SOL    HW137190   0.880   2.264   9.559  1.4521  0.6929  0.3085
 8518SOL    HW237191   0.976   2.158   9.594 -0.6315  1.0075  0.7229
 8519SOL     OW37192   1.773   2.745   2.455  0.2345 -0.0380  0.1502
 8519SOL    HW137193   1.729   2.762   2.372  0.9439 -1.2825 -0.4877
 8519SOL    HW237194   1.836   2.817   2.453  0.2742 -0.0564  0.6968
 8520SOL     OW37195   1.424   1.296   8.909 -0.1479 -0.0001 -0.4063
 8520SOL    HW137196   1.515   1.274   8.893  0.3520  1.3143  0.6852
 8520SOL    HW237197   1.410   1.279   9.002 -0.6871  1.9198 -0.1471
 8521SOL     OW37198   1.628   0.014  16.888  0.2068 -0.1831 -0.1706
 8521SOL    HW137199   1.654   0.003  16.796  0.5449 -0.1209 -0.0848
 8521SOL    HW237200   1.705   4.725  16.940  1.0850  0.6042 -1.1086
 8522SOL     OW37201   1.756   0.305   9.261  0.9419 -0.0356  0.5029
 8522SOL    HW137202   1.761   0.400   9.273 -1.5282  0.1980 -0.1913
 8522SOL    HW237203   1.736   0.273   9.349 -1.3503  1.0264  0.3930
 8523SOL     OW37204   1.461   3.612   9.813  0.6227  0.0076 -0.0169
 8523SOL    HW137205   1.557   3.603   9.808  0.7192 -0.4696  3.0365
 8523SOL    HW237206   1.449   3.698   9.853 -1.7233 -0.7312  0.8556
 8524SOL     OW37207   0.109   2.384   5.358  0.0216  0.1697 -0.1664
 8524SOL    HW137208   0.070   2.297   5.359  0.5800 -0.0902 -0.9672
 8524SOL    HW237209   0.041   2.430   5.409  0.9207  1.1245  0.1653
 8525SOL     OW37210   1.361   0.858   5.742  0.1126 -0.1757 -0.1662
 8525SOL    HW137211   1.284   0.884   5.792  0.1531  2.2478 -1.3538
 8525SOL    HW237212   1.342   0.912   5.666  0.6754  1.7887  1.0918
 8526SOL     OW37213   4.402   2.078   0.157  0.3676  0.2676  0.2545
 8526SOL    HW137214   4.357   2.016   0.214 -0.7918 -0.3802 -1.3668
 8526SOL    HW237215   4.325   2.123   0.122 -2.9943 -4.7109  1.4312
 8527SOL     OW37216   2.070   3.399   6.649  0.0919  0.1904 -0.4982
 8527SOL    HW137217   2.118   3.400   6.732 -1.7309  1.6915  0.5303
 8527SOL    HW237218   1.979   3.411   6.675  0.0058 -1.2559 -0.1138
 8528SOL     OW37219   3.579   3.178  15.279  1.1299  0.2905 -0.2535
 8528SOL    HW137220   3.532   3.260  15.267 -0.6026 -0.2913  2.4809
 8528SOL    HW237221   3.538   3.155  15.363  0.1293  1.7630 -0.3320
 8529SOL     OW37222   0.948   3.475   2.457 -0.2369 -0.4698  0.4586
 8529SOL    HW137223   1.009   3.450   2.388 -0.8442  1.5543 -0.7968
 8529SOL    HW237224   0.886   3.403   2.457  0.3158 -0.9512  1.1241
 8530SOL     OW37225   4.516   3.958   8.500 -0.4745 -0.0558 -0.1251
 8530SOL    HW137226   4.548   3.960   8.590 -2.4327  1.4892  0.5249
 8530SOL    HW237227   4.508   4.050   8.478  1.6351  0.2447  0.3339
 8531SOL     OW37228   1.460   3.317   6.971 -0.8829  0.1027  0.3138
 8531SOL    HW137229   1.534   3.266   7.002 -1.2095  0.3441  1.4691
 8531SOL    HW237230   1.405   3.335   7.047 -1.6242 -1.7986  0.2265
 8532SOL     OW37231   1.282   0.573   8.994  0.2076 -0.3423  0.3624
 8532SOL    HW137232   1.368   0.574   8.951 -0.8411  0.7423 -1.7240
 8532SOL    HW237233   1.234   0.651   8.964  2.4395  0.3235 -1.4995
 8533SOL     OW37234   4.003   1.951  14.129 -0.0731 -0.0042 -0.3702
 8533SOL    HW137235   4.098   1.962  14.118 -0.1594 -1.2496 -2.2530
 8533SOL    HW237236   3.984   1.933  14.037 -0.6070  0.7410 -0.4086
 8534SOL     OW37237   0.476   1.356   6.450  0.4336  0.0556  0.3057
 8534SOL    HW137238   0.383   1.334   6.457  0.4611  0.1585  0.9932
 8534SOL    HW237239   0.517   1.272   6.430  0.5313  0.2809 -0.4375
 8535SOL     OW37240   0.322   0.156  15.155 -0.3335 -0.4087  0.4890
 8535SOL    HW137241   0.375   0.117  15.226 -2.9942  0.2711  2.8633
 8535SOL    HW237242   0.341   0.098  15.081 -0.5915  1.8751 -1.3404
 8536SOL     OW37243   4.465   1.226   8.390 -0.1603  0.2158  0.1719
 8536SOL    HW137244   4.534   1.184   8.338  0.9501  2.1847  0.0451
 8536SOL    HW237245   4.387   1.177   8.364 -0.3276  1.4547 -1.6473
 8537SOL     OW37246   1.097   3.353   2.851 -0.2187 -0.0638 -0.6172
 8537SOL    HW137247   1.107   3.446   2.832  0.1278  0.2980  1.3595
 8537SOL    HW237248   1.003   3.353   2.832 -0.5919  1.4122  1.2713
 8538SOL     OW37249   2.527   2.854   8.875  0.0111 -0.0201 -0.4203
 8538SOL    HW137250   2.499   2.926   8.818 -1.6494 -0.0374  0.3486
 8538SOL    HW237251   2.454   2.796   8.853  0.1646 -0.3203 -0.1258
 8539SOL     OW37252   2.786   3.003   4.258 -0.6603 -0.5645  0.5850
 8539SOL    HW137253   2.832   3.077   4.298  0.2111  1.0048 -3.2977
 8539SOL    HW237254   2.697   3.035   4.244 -0.3051  0.1589 -0.0851
 8540SOL     OW37255   2.040   3.871   2.038  0.0201  0.0176  0.1093
 8540SOL    HW137256   1.953   3.912   2.041  0.4364  0.9524 -0.6873
 8540SOL    HW237257   2.072   3.884   1.949  0.1677  3.3735  0.6402
 8541SOL     OW37258   0.212   2.214  11.506 -0.4869  0.4652  0.2397
 8541SOL    HW137259   0.280   2.244  11.445 -0.7534  0.1608 -0.2085
 8541SOL    HW237260   0.265   2.214  11.586  0.0050 -1.2615 -0.0946
 8542SOL     OW37261   3.677   3.161   2.832 -0.2718  0.2644  0.1497
 8542SOL    HW137262   3.765   3.186   2.803  0.6170 -2.3892  0.5089
 8542SOL    HW237263   3.684   3.158   2.928 -0.7267 -3.2596  0.0860
 8543SOL     OW37264   4.196   4.496  17.541 -0.3624  0.1871  0.9719
 8543SOL    HW137265   4.153   4.508  17.626  3.1152  5.0113  2.0396
 8543SOL    HW237266   4.277   4.450  17.565  0.3732  0.7400 -0.4221
 8544SOL     OW37267   0.175   3.931   6.216 -0.7891  0.6077  0.0463
 8544SOL    HW137268   0.171   3.940   6.121 -0.6774 -1.1910 -0.1223
 8544SOL    HW237269   0.117   3.855   6.225  0.3065 -0.5707 -2.8201
 8545SOL     OW37270   3.865   2.314   7.390  0.1496 -0.0651  0.1052
 8545SOL    HW137271   3.876   2.221   7.368 -0.6171 -0.0174 -0.5171
 8545SOL    HW237272   3.791   2.346   7.337 -1.6160 -1.8618  1.4659
 8546SOL     OW37273   2.958   4.715   8.309  0.5281  0.6991 -0.1242
 8546SOL    HW137274   3.019   0.044   8.347  1.1569  0.1195 -0.1723
 8546SOL    HW237275   3.027   4.668   8.260  1.1087  1.2550  0.1613
 8547SOL     OW37276   3.748   2.125   8.618  0.0510  0.3910 -0.3680
 8547SOL    HW137277   3.687   2.191   8.584 -1.6213 -1.8366 -1.7298
 8547SOL    HW237278   3.787   2.090   8.538  0.4785 -0.7836  0.3659
 8548SOL     OW37279   2.699   3.483  17.334  0.2051 -0.1319  0.5260
 8548SOL    HW137280   2.776   3.438  17.298  1.2321  0.9824  1.3341
 8548SOL    HW237281   2.632   3.415  17.336 -0.8568  0.8620 -1.1671
 8549SOL     OW37282   1.994   1.027  13.812  0.3719 -0.1412 -0.5148
 8549SOL    HW137283   1.963   1.012  13.723 -0.7163  2.4136 -0.5682
 8549SOL    HW237284   1.975   1.118  13.835 -1.4613 -0.5947 -0.1641
 8550SOL     OW37285   2.983   0.279  13.287  0.5626  0.0025 -0.0360
 8550SOL    HW137286   2.972   0.266  13.381  0.1377  1.5206  0.1221
 8550SOL    HW237287   3.063   0.229  13.272 -1.2881 -3.7507  2.4557
 8551SOL     OW37288   2.252   4.411   7.192 -0.1682  0.6810  0.1629
 8551SOL    HW137289   2.203   4.441   7.269 -0.4713  1.1787 -0.2213
 8551SOL    HW237290   2.291   4.494   7.165 -0.9650  0.4089 -1.8081
 8552SOL     OW37291   1.771   3.294  13.564 -0.1158  0.6311  0.0150
 8552SOL    HW137292   1.738   3.220  13.512 -0.6836  1.7326 -1.1991
 8552SOL    HW237293   1.830   3.244  13.621  0.2904 -0.8079 -1.6699
 8553SOL     OW37294   0.810   3.665  11.910 -0.4725  0.2162 -0.4739
 8553SOL    HW137295   0.803   3.582  11.863 -1.6653 -1.4638  2.6951
 8553SOL    HW237296   0.887   3.648  11.964 -2.3770 -1.7306  1.6285
 8554SOL     OW37297   2.501   0.121  13.275  0.5153  0.2504 -0.0121
 8554SOL    HW137298   2.534   0.053  13.334 -2.6207  0.3943  1.9418
 8554SOL    HW237299   2.446   0.171  13.336 -0.7335  0.6917 -1.4992
 8555SOL     OW37300   2.963   0.545  13.277 -0.1712  0.0360 -0.8234
 8555SOL    HW137301   2.926   0.576  13.195  1.7362  2.6524 -0.6742
 8555SOL    HW237302   2.950   0.450  13.267 -0.3509 -0.0524  0.2691
 8556SOL     OW37303   0.492   4.168  14.355 -0.0182  0.2930  0.4045
 8556SOL    HW137304   0.519   4.164  14.447 -2.0730 -1.0814  0.9570
 8556SOL    HW237305   0.487   4.262  14.338 -0.2733  0.1094 -0.5378
 8557SOL     OW37306   1.947   4.534   4.087 -0.2337  0.2990 -0.4253
 8557SOL    HW137307   2.009   4.600   4.054 -1.0303  2.1639  1.8134
 8557SOL    HW237308   2.004   4.467   4.125  1.6882  0.6732 -2.6283
 8558SOL     OW37309   1.771   0.670   8.210 -0.6731  0.5593  0.4642
 8558SOL    HW137310   1.854   0.716   8.199 -0.0527 -0.4843  0.7812
 8558SOL    HW237311   1.794   0.614   8.285  1.3699  1.9903  0.9108
 8559SOL     OW37312   2.402   1.220   7.166 -0.3098 -0.1340  0.3764
 8559SOL    HW137313   2.349   1.290   7.126  0.3156 -0.4688 -1.0452
 8559SOL    HW237314   2.407   1.155   7.095  0.8751 -2.6715  2.7922
 8560SOL     OW37315   2.315   1.941   0.771 -0.0157  0.4918 -0.0232
 8560SOL    HW137316   2.279   2.019   0.812  1.2982  1.2340 -0.2764
 8560SOL    HW237317   2.251   1.871   0.783  1.2285 -0.4858  0.9950
 8561SOL     OW37318   0.815   3.403   2.825  0.1175  0.4470  0.0644
 8561SOL    HW137319   0.786   3.494   2.834  0.2691  0.5656 -0.6476
 8561SOL    HW237320   0.740   3.371   2.775  0.3838  0.2326 -0.1978
 8562SOL     OW37321   3.857   2.622   9.265 -0.2620  0.1862 -0.6526
 8562SOL    HW137322   3.871   2.698   9.209  0.7283  1.1741  0.9430
 8562SOL    HW237323   3.782   2.585   9.219 -0.8043 -0.2481  0.5869
 8563SOL     OW37324   1.077   3.030   1.822 -0.0175 -0.4042 -0.5599
 8563SOL    HW137325   1.106   2.996   1.738  0.2922  0.2421 -0.7139
 8563SOL    HW237326   1.123   3.114   1.818 -1.8841  0.6913  0.8140
 8564SOL     OW37327   2.324   0.328   4.513 -0.4497  0.6694  0.2638
 8564SOL    HW137328   2.263   0.304   4.582 -2.1508  0.4091 -1.3275
 8564SOL    HW237329   2.367   0.404   4.552 -0.5234  2.0819 -2.3837
 8565SOL     OW37330   0.202   4.541   4.640 -0.1990  0.0619  0.2785
 8565SOL    HW137331   0.219   4.449   4.622  1.7006  0.5182 -0.2785
 8565SOL    HW237332   0.233   4.547   4.730 -3.1289 -0.4653  1.3141
 8566SOL     OW37333   4.657   4.505   6.246  0.0982  0.5901  0.7670
 8566SOL    HW137334   4.613   4.480   6.164 -0.4583  1.5522  0.7630
 8566SOL    HW237335   4.614   4.584   6.281  1.9451  2.8280 -1.9538
 8567SOL     OW37336   1.914   3.513   7.164  0.3319 -0.3639 -0.0465
 8567SOL    HW137337   1.990   3.460   7.187  0.5829  0.7052  1.5316
 8567SOL    HW237338   1.854   3.489   7.234 -0.2146  0.3028 -0.2874
 8568SOL     OW37339   2.416   1.675   7.198  0.5078 -0.2332  0.4522
 8568SOL    HW137340   2.365   1.608   7.151 -1.5390  1.7901 -0.2259
 8568SOL    HW237341   2.351   1.724   7.248 -0.9538 -0.5008 -1.1687
 8569SOL     OW37342   1.606   1.026   8.623 -0.1019 -0.1932 -0.1757
 8569SOL    HW137343   1.540   0.958   8.606 -0.3347 -0.1873  0.6891
 8569SOL    HW237344   1.687   0.991   8.586 -0.3067  1.5882 -2.2766
 8570SOL     OW37345   1.359   1.925   6.445 -0.0601  0.5154  0.7287
 8570SOL    HW137346   1.270   1.945   6.474 -0.8028  0.2831 -1.3770
 8570SOL    HW237347   1.416   1.961   6.513  1.8816 -0.2289 -0.5066
 8571SOL     OW37348   4.334   4.224   4.079 -0.1686  0.3295  0.1026
 8571SOL    HW137349   4.413   4.277   4.085  1.5363 -2.1144 -0.4385
 8571SOL    HW237350   4.366   4.155   4.021  1.9898  0.9661  0.5259
 8572SOL     OW37351   0.487   0.428   8.646 -0.5057  0.2059  0.1577
 8572SOL    HW137352   0.521   0.437   8.556 -1.1973  3.5001  0.2076
 8572SOL    HW237353   0.476   0.518   8.676  0.3764  0.2404  0.3721
 8573SOL     OW37354   2.678   2.427   4.520 -0.3808  0.1729  0.1622
 8573SOL    HW137355   2.682   2.465   4.608  2.2750  0.6982 -0.1713
 8573SOL    HW237356   2.770   2.420   4.492  0.0606  0.7284  1.4583
 8574SOL     OW37357   4.329   1.692   9.110 -0.3292 -0.4451 -0.4407
 8574SOL    HW137358   4.351   1.780   9.078 -1.9267 -0.0116 -0.3575
 8574SOL    HW237359   4.347   1.638   9.033  0.1667  0.4075 -0.9244
 8575SOL     OW37360   0.762   2.596   2.886 -0.0680 -0.7955  0.0663
 8575SOL    HW137361   0.704   2.560   2.953 -0.4903  0.2336  0.2560
 8575SOL    HW237362   0.802   2.664   2.939  2.3746 -1.2999 -1.0841
 8576SOL     OW37363   4.541   2.586   0.551  0.5350  0.0677  0.5031
 8576SOL    HW137364   4.449   2.578   0.578  0.4503  0.8573  0.4565
 8576SOL    HW237365   4.569   2.497   0.533  1.6860  0.8013 -1.3305
 8577SOL     OW37366   0.895   1.128   0.790 -0.4401  0.2394  0.3779
 8577SOL    HW137367   0.957   1.149   0.861 -1.7857  1.6260  1.1434
 8577SOL    HW237368   0.837   1.075   0.845 -1.7619  3.8552  2.4831
 8578SOL     OW37369   2.627   3.642  13.725 -0.2049 -0.5478 -0.4497
 8578SOL    HW137370   2.543   3.651  13.770  1.8669  3.7443  2.6022
 8578SOL    HW237371   2.592   3.646  13.636  2.2368 -2.4987 -1.5147
 8579SOL     OW37372   3.430   2.620  13.106  0.0697  0.2384 -0.0474
 8579SOL    HW137373   3.438   2.602  13.200 -0.7185  0.7352  0.1151
 8579SOL    HW237374   3.378   2.546  13.075  0.2701  0.4887 -0.9688
 8580SOL     OW37375   4.587   2.321   9.565 -0.3792 -0.3837 -0.5028
 8580SOL    HW137376   4.607   2.243   9.616  0.9425 -0.6023 -1.3302
 8580SOL    HW237377   4.676   2.356   9.555  0.5229 -2.0810  1.5438
 8581SOL     OW37378   2.155   1.192   6.110  0.0904  0.4516 -1.0001
 8581SOL    HW137379   2.126   1.101   6.119  2.7980 -0.1795  1.3083
 8581SOL    HW237380   2.236   1.197   6.160  0.7459 -2.9027 -1.7352
 8582SOL     OW37381   3.926   2.676  15.815 -0.5468  0.2237  0.9436
 8582SOL    HW137382   3.948   2.597  15.765  0.7607  0.2256  1.5120
 8582SOL    HW237383   3.867   2.719  15.753 -1.0431  0.1982  1.4069
 8583SOL     OW37384   0.738   3.701  17.196 -0.4704  0.3517 -0.1064
 8583SOL    HW137385   0.676   3.728  17.264 -1.1966  0.8607 -0.9866
 8583SOL    HW237386   0.802   3.654  17.250 -0.3193  0.1245 -0.4824
 8584SOL     OW37387   3.668   0.363   7.752 -0.2113 -0.5197  0.5689
 8584SOL    HW137388   3.589   0.385   7.802  0.9314  2.0264  1.2344
 8584SOL    HW237389   3.652   0.434   7.690 -0.0890 -0.7314  0.2978
 8585SOL     OW37390   0.147   3.756   5.516 -0.2087 -0.6053 -0.7648
 8585SOL    HW137391   0.141   3.815   5.592  0.0300 -0.1467 -1.1038
 8585SOL    HW237392   0.056   3.728   5.512 -1.3544  2.6696  2.0008
 8586SOL     OW37393   2.413   4.484   1.924  0.2079 -0.5689  0.1006
 8586SOL    HW137394   2.372   4.569   1.916 -0.1290 -0.9221 -1.9615
 8586SOL    HW237395   2.359   4.442   1.857  0.3077 -1.0614  0.3235
 8587SOL     OW37396   4.245   1.517  10.228  0.1252  0.5952 -0.0246
 8587SOL    HW137397   4.192   1.456  10.176  1.0413 -1.0255  0.9432
 8587SOL    HW237398   4.174   1.541  10.287 -0.2398  0.6763 -0.4963
 8588SOL     OW37399   2.747   4.231  15.146  0.0146  0.2370 -0.2351
 8588SOL    HW137400   2.790   4.202  15.227 -1.6012 -1.5706 -0.0265
 8588SOL    HW237401   2.753   4.326  15.159 -1.1554  0.4598 -1.3886
 8589SOL     OW37402   2.059   1.311   2.117 -0.3702 -0.1478  0.4230
 8589SOL    HW137403   2.030   1.321   2.026  0.4794 -2.2044 -0.0722
 8589SOL    HW237404   1.998   1.371   2.161  0.1587  0.9429 -0.3447
 8590SOL     OW37405   4.210   4.732   9.601  0.4155  0.1644  0.2156
 8590SOL    HW137406   4.290   4.727   9.654 -0.5493  1.3517  1.8048
 8590SOL    HW237407   4.196   0.092   9.592 -1.3033 -0.2328 -1.2813
 8591SOL     OW37408   1.857   4.709   9.603 -0.0831  0.5621 -0.0953
 8591SOL    HW137409   1.840   4.668   9.519  1.7695 -0.4000  0.0093
 8591SOL    HW237410   1.930   0.035   9.589  1.4191 -0.6952  2.3561
 8592SOL     OW37411   0.685   3.521   3.294 -0.2984 -0.2911 -0.2313
 8592SOL    HW137412   0.640   3.474   3.364  0.9010  1.2374  1.5962
 8592SOL    HW237413   0.770   3.480   3.284 -0.2062 -1.0626  3.6486
 8593SOL     OW37414   2.822   3.263  11.146 -0.4474 -0.4163 -0.0069
 8593SOL    HW137415   2.822   3.167  11.150 -1.0144 -0.3054  2.6698
 8593SOL    HW237416   2.801   3.282  11.055 -0.1343  3.1259  0.6360
 8594SOL     OW37417   3.396   4.570  10.847  0.8195 -0.0944  0.1777
 8594SOL    HW137418   3.305   4.584  10.821  1.2411 -0.0930 -1.2721
 8594SOL    HW237419   3.401   4.593  10.940  1.6490  0.5129 -0.0228
 8595SOL     OW37420   0.341   1.902  13.506 -0.6978  0.2872 -0.3125
 8595SOL    HW137421   0.383   1.938  13.585 -1.0215 -0.9997  0.4508
 8595SOL    HW237422   0.310   1.822  13.549 -0.3543  1.0582  1.3830
 8596SOL     OW37423   1.172   4.272  13.569  0.1765 -0.0624 -0.4456
 8596SOL    HW137424   1.111   4.344  13.561 -0.3906 -0.5344 -0.3581
 8596SOL    HW237425   1.206   4.282  13.658  0.4195 -1.3239 -0.3934
 8597SOL     OW37426   2.195   0.596   3.574  0.1516 -0.1183 -0.5613
 8597SOL    HW137427   2.160   0.669   3.624 -1.8071 -0.4041 -1.5025
 8597SOL    HW237428   2.286   0.593   3.603  0.4323  2.7923 -1.1636
 8598SOL     OW37429   4.101   4.379   8.763 -0.1858  0.4306 -0.3658
 8598SOL    HW137430   4.031   4.336   8.713 -0.3636  0.1956  0.0878
 8598SOL    HW237431   4.058   4.457   8.798 -1.3867  0.0555 -1.0252
 8599SOL     OW37432   4.483   0.656   8.151  0.4123 -0.0421  0.7069
 8599SOL    HW137433   4.412   0.595   8.170  0.3161  0.4411  1.8978
 8599SOL    HW237434   4.439   0.737   8.175  0.0215 -0.4683  1.4214
 8600SOL     OW37435   2.980   0.365   7.516 -0.2850 -0.4093  0.1263
 8600SOL    HW137436   3.005   0.367   7.608 -1.2931 -3.3447  0.4436
 8600SOL    HW237437   3.067   0.362   7.475  0.3152  1.2683  1.2689
 8601SOL     OW37438   3.589   1.492  12.572 -0.2655 -0.2872  0.2034
 8601SOL    HW137439   3.504   1.491  12.615 -1.0171 -0.3328 -1.2692
 8601SOL    HW237440   3.633   1.412  12.602 -0.8659 -1.0767 -0.9986
 8602SOL     OW37441   0.030   0.302  16.390 -0.2784 -0.2692  0.2029
 8602SOL    HW137442   4.680   0.257  16.385 -0.0280 -0.6838 -0.2084
 8602SOL    HW237443   0.029   0.365  16.318 -0.1211 -1.8779 -1.1942
 8603SOL     OW37444   1.017   1.913  15.379  0.1357 -0.6058  0.6747
 8603SOL    HW137445   1.062   1.862  15.446  1.2759  1.1399  1.2468
 8603SOL    HW237446   1.064   1.995  15.395  1.0249 -0.5533 -2.1753
 8604SOL     OW37447   0.296   3.766   0.382 -0.1930  0.0567 -0.2798
 8604SOL    HW137448   0.286   3.740   0.290 -0.1371 -1.3370  0.1094
 8604SOL    HW237449   0.223   3.718   0.422 -1.1220  0.6690 -1.2178
 8605SOL     OW37450   1.649   0.254  15.886 -0.3599 -0.4683  0.0224
 8605SOL    HW137451   1.713   0.294  15.828  0.3844 -1.2207  0.3164
 8605SOL    HW237452   1.699   0.184  15.929 -0.1876  0.4143  1.2531
 8606SOL     OW37453   4.733   3.267   4.171  0.0068  0.2512 -0.1567
 8606SOL    HW137454   4.673   3.270   4.096 -1.9958 -2.7829  1.3390
 8606SOL    HW237455   0.008   3.172   4.173 -2.6438 -0.0260 -0.7586
 8607SOL     OW37456   1.519   1.172   6.756  0.5630  0.2295 -0.1646
 8607SOL    HW137457   1.508   1.167   6.851  0.8092 -1.6525 -0.2346
 8607SOL    HW237458   1.499   1.085   6.722 -1.5136  0.9811 -0.8617
 8608SOL     OW37459   3.827   4.110   0.481  0.5973  0.3932  0.7281
 8608SOL    HW137460   3.809   4.197   0.446 -1.9775 -0.6040 -0.3836
 8608SOL    HW237461   3.842   4.055   0.404  1.4424  0.6492  0.7014
 8609SOL     OW37462   0.654   1.382   3.128 -0.0367  0.4361  0.7488
 8609SOL    HW137463   0.708   1.313   3.167 -1.1130 -1.4652 -1.1601
 8609SOL    HW237464   0.700   1.466   3.134 -1.3723  1.2235  0.0944
 8610SOL     OW37465   0.673   2.353   9.010  0.1919  0.7705 -0.7725
 8610SOL    HW137466   0.639   2.346   9.100 -0.8619  0.6408 -1.1793
 8610SOL    HW237467   0.587   2.382   8.979 -0.0415  2.2965  1.2667
 8611SOL     OW37468   1.152   3.351  11.929  0.2585 -0.4096  0.2091
 8611SOL    HW137469   1.223   3.312  11.979  0.5271 -2.2447 -1.5848
 8611SOL    HW237470   1.112   3.415  11.987  1.6741  0.2101  0.5061
 8612SOL     OW37471   3.370   2.316   0.406 -0.1885  0.4380  0.2119
 8612SOL    HW137472   3.348   2.293   0.316  1.7700  2.6204 -0.8138
 8612SOL    HW237473   3.370   2.232   0.452 -0.0706 -0.5683 -1.6407
 8613SOL     OW37474   1.967   2.874   6.069  0.6696 -0.7496  0.1937
 8613SOL    HW137475   1.922   2.793   6.042 -0.2982 -0.1009 -0.1490
 8613SOL    HW237476   1.947   2.936   5.999 -0.8336  0.9588  2.1257
 8614SOL     OW37477   3.578   3.328   2.292 -0.2447 -0.0592 -0.1456
 8614SOL    HW137478   3.497   3.285   2.264  0.2608 -0.4947 -0.9263
 8614SOL    HW237479   3.619   3.255   2.339  1.1617 -0.3354 -1.7975
 8615SOL     OW37480   2.744   4.629  10.505 -0.5112  0.3268  0.1342
 8615SOL    HW137481   2.659   4.598  10.473  0.6522 -1.0861 -1.5738
 8615SOL    HW237482   2.729   4.719  10.534 -1.0220 -0.1327  1.3169
 8616SOL     OW37483   2.379   1.855   0.514  0.6912 -0.3238  0.4408
 8616SOL    HW137484   2.363   1.885   0.603  3.0523 -0.6285  0.9785
 8616SOL    HW237485   2.372   1.930   0.455  0.7702  0.6864  1.7315
 8617SOL     OW37486   3.582   2.499   5.878 -0.3269  0.0905  0.0012
 8617SOL    HW137487   3.544   2.555   5.811  0.7659  0.1754 -0.5527
 8617SOL    HW237488   3.629   2.570   5.922  1.0770 -0.3124 -0.8562
 8618SOL     OW37489   3.695   3.502   9.410  0.0557  0.8139 -0.4612
 8618SOL    HW137490   3.732   3.431   9.462  2.4269  0.0041 -3.2102
 8618SOL    HW237491   3.684   3.457   9.326 -1.3003  2.2402 -1.0645
 8619SOL     OW37492   4.700   1.679   9.225 -0.8930  0.0670 -0.0288
 8619SOL    HW137493   4.730   1.671   9.135  0.5048 -0.3328  0.4872
 8619SOL    HW237494   4.726   1.768   9.248 -1.1042 -0.3541  1.8956
 8620SOL     OW37495   2.000   4.672   7.149  0.2704 -0.1373 -0.1839
 8620SOL    HW137496   2.066   4.658   7.216 -0.4843 -5.2359 -0.5099
 8620SOL    HW237497   2.049   4.690   7.068 -0.2251  0.0332 -0.4485
 8621SOL     OW37498   2.653   0.022   7.415 -0.1411  0.8872 -0.0564
 8621SOL    HW137499   2.634   4.686   7.353  1.2551 -0.6390  1.2428
 8621SOL    HW237500   2.730   0.056   7.370  0.2383 -0.2578 -0.2628
 8622SOL     OW37501   0.793   2.941  15.014  0.1500  0.3235 -0.0370
 8622SOL    HW137502   0.839   2.978  14.939  1.4883 -0.3795  0.4381
 8622SOL    HW237503   0.832   2.853  15.013  0.1389  0.3278 -0.6705
 8623SOL     OW37504   4.511   0.751   3.007  0.0926  0.1087  0.4329
 8623SOL    HW137505   4.598   0.722   2.981  0.2664 -0.5780  1.7531
 8623SOL    HW237506   4.514   0.789   3.095 -0.9484 -0.7548  0.8501
 8624SOL     OW37507   4.037   3.902   7.087  0.6687  0.1310 -0.6124
 8624SOL    HW137508   4.045   3.961   7.161  0.8457 -0.2034 -0.3623
 8624SOL    HW237509   4.068   3.955   7.013  2.5880 -1.9857 -1.3533
 8625SOL     OW37510   0.627   1.028  16.668  0.0792  0.6012  0.1049
 8625SOL    HW137511   0.601   1.101  16.611 -1.6409  1.5194  2.0896
 8625SOL    HW237512   0.662   0.968  16.603  0.4889 -1.2965  2.0899
 8626SOL     OW37513   0.073   3.807   8.466  0.0671  0.0373 -0.2216
 8626SOL    HW137514   0.047   3.743   8.532  1.2523 -0.5169 -0.2809
 8626SOL    HW237515   0.015   3.782   8.395  1.1038  0.3678 -1.1926
 8627SOL     OW37516   2.340   0.599  16.120 -0.2489 -0.3103 -0.4269
 8627SOL    HW137517   2.313   0.639  16.203 -1.3477 -0.4609 -0.7044
 8627SOL    HW237518   2.252   0.586  16.083 -0.6509 -1.4077  0.9022
 8628SOL     OW37519   4.499   3.445   7.790  0.0620  0.2291  0.8393
 8628SOL    HW137520   4.452   3.456   7.707  4.0400  0.8854 -1.3026
 8628SOL    HW237521   4.572   3.508   7.788  0.1402  0.1088 -0.4780
 8629SOL     OW37522   2.315   1.681   5.295  0.5329  0.2457 -0.2408
 8629SOL    HW137523   2.384   1.703   5.232  1.5044 -0.5001  0.5622
 8629SOL    HW237524   2.236   1.699   5.243 -0.6983  0.5069  1.7332
 8630SOL     OW37525   2.957   0.103  17.706 -0.3635  0.2378  0.4219
 8630SOL    HW137526   2.909   0.114  17.624  1.0480  0.7421 -0.3360
 8630SOL    HW237527   2.947   0.010  17.726 -0.6265  0.0626 -0.5418
 8631SOL     OW37528   1.809   4.182   9.299 -0.0438  0.1134 -0.3888
 8631SOL    HW137529   1.829   4.188   9.205 -1.8682  0.6694 -0.7595
 8631SOL    HW237530   1.720   4.145   9.294 -1.0568  2.4595  0.4182
 8632SOL     OW37531   4.383   0.472   1.946  0.2873 -0.4901  0.2090
 8632SOL    HW137532   4.477   0.492   1.945 -0.1644  1.6428  0.1281
 8632SOL    HW237533   4.383   0.377   1.930 -1.0599 -0.3202 -0.7558
 8633SOL     OW37534   4.352   2.267   2.993 -0.1528 -0.1334 -0.0781
 8633SOL    HW137535   4.291   2.222   2.935 -1.3970  0.1419  1.0163
 8633SOL    HW237536   4.315   2.355   2.991  1.7047  0.5868 -3.3524
 8634SOL     OW37537   1.658   3.171  16.025  0.2346  0.1035 -0.1709
 8634SOL    HW137538   1.738   3.219  16.005 -1.0407  1.1993 -2.6559
 8634SOL    HW237539   1.628   3.130  15.944 -0.3218  0.1446  0.0115
 8635SOL     OW37540   3.478   4.281   6.235 -0.2717  0.0079 -0.0088
 8635SOL    HW137541   3.508   4.193   6.257 -0.5717 -0.2476 -0.6396
 8635SOL    HW237542   3.479   4.324   6.321 -1.3038 -0.6627  0.3399
 8636SOL     OW37543   1.830   0.884   6.339 -0.3468 -0.0099 -0.2257
 8636SOL    HW137544   1.876   0.889   6.255  0.5435  2.0334  0.3868
 8636SOL    HW237545   1.870   0.956   6.387 -0.1738  0.5526 -1.2035
 8637SOL     OW37546   3.080   3.876   9.059  0.1441  0.1026 -1.1254
 8637SOL    HW137547   3.101   3.818   9.131 -0.0201  1.0166 -0.3430
 8637SOL    HW237548   3.087   3.961   9.102 -3.5104 -0.8907  1.4303
 8638SOL     OW37549   1.234   4.601   6.667 -0.0065 -0.3544 -0.5185
 8638SOL    HW137550   1.164   4.659   6.638 -1.3232 -0.8036  1.7276
 8638SOL    HW237551   1.308   4.641   6.622  2.0771 -2.5673  0.9409
 8639SOL     OW37552   4.352   2.632   4.626  0.3169 -0.0797 -0.1820
 8639SOL    HW137553   4.432   2.673   4.660  1.3581 -1.1586 -1.3317
 8639SOL    HW237554   4.379   2.541   4.637  0.5923  0.1157  0.8172
 8640SOL     OW37555   3.370   4.563   1.883 -0.1684  0.3217  0.1870
 8640SOL    HW137556   3.431   4.494   1.908 -0.0080  0.7107  0.8657
 8640SOL    HW237557   3.421   4.623   1.829  1.4103 -0.3140  0.9981
 8641SOL     OW37558   0.534   3.931  16.877 -0.1452 -0.5260 -0.5493
 8641SOL    HW137559   0.456   3.900  16.923 -0.4385  1.0030 -0.0184
 8641SOL    HW237560   0.552   3.859  16.817  0.3276 -0.3505 -0.6154
 8642SOL     OW37561   1.080   4.533   3.487  0.3465  0.3628  0.5632
 8642SOL    HW137562   1.173   4.528   3.463  0.4952  1.5332  0.9326
 8642SOL    HW237563   1.042   4.602   3.433 -0.2476 -0.3466  0.0559
 8643SOL     OW37564   4.704   2.161   3.519 -0.0245 -0.0515  0.2789
 8643SOL    HW137565   4.724   2.216   3.444 -1.8694  0.6023  0.2694
 8643SOL    HW237566   4.630   2.212   3.553 -0.7293  0.3495 -1.8539
 8644SOL     OW37567   0.575   1.416  10.509 -0.6518  0.3114  0.3982
 8644SOL    HW137568   0.655   1.424  10.457  0.5726  2.1566  2.5954
 8644SOL    HW237569   0.560   1.508  10.529 -0.3066  0.6621 -0.9610
 8645SOL     OW37570   2.023   1.774   3.574 -0.0068  0.1052 -0.0885
 8645SOL    HW137571   1.989   1.863   3.579 -1.4118 -0.4155 -0.2588
 8645SOL    HW237572   2.044   1.764   3.481 -0.8135  1.4755 -0.4238
 8646SOL     OW37573   1.608   4.209   3.654 -0.1454  0.4121 -0.4454
 8646SOL    HW137574   1.529   4.192   3.705 -1.5046  1.0888 -2.3195
 8646SOL    HW237575   1.640   4.120   3.644 -1.4575 -0.2527  1.3323
 8647SOL     OW37576   3.593   1.328   8.548 -0.0261 -0.1294  0.7017
 8647SOL    HW137577   3.502   1.308   8.570 -0.4915  2.4216  1.0642
 8647SOL    HW237578   3.632   1.357   8.630  0.5190 -0.3651  0.5247
 8648SOL     OW37579   4.306   2.259   5.978 -0.4209 -0.3305  0.2549
 8648SOL    HW137580   4.282   2.197   5.909 -1.9853 -0.1626  0.6545
 8648SOL    HW237581   4.251   2.237   6.053 -1.0904 -1.1231 -0.4701
 8649SOL     OW37582   1.086   1.317   3.706  0.0003 -0.1196  0.1915
 8649SOL    HW137583   1.113   1.297   3.616  0.3121  1.4578 -0.0593
 8649SOL    HW237584   1.150   1.386   3.724 -0.2732  0.8951 -2.7194
 8650SOL     OW37585   4.198   4.728   4.823 -0.5591  0.0596  0.7173
 8650SOL    HW137586   4.182   4.636   4.799 -0.4040  0.2204  0.0230
 8650SOL    HW237587   4.269   0.017   4.764 -1.3565 -1.4298 -0.8081
 8651SOL     OW37588   3.260   1.038   7.714 -0.0285  0.3989 -0.1295
 8651SOL    HW137589   3.214   1.083   7.643 -2.1711 -0.5007  0.6800
 8651SOL    HW237590   3.190   1.053   7.778  0.4331 -1.0664  0.7324
 8652SOL     OW37591   4.308   3.623  15.251 -0.1548 -0.0304  0.8567
 8652SOL    HW137592   4.325   3.637  15.344 -0.2971  0.7061  0.7693
 8652SOL    HW237593   4.397   3.633  15.215  0.2587  0.5726  2.0438
 8653SOL     OW37594   2.597   0.380  12.913  0.2065 -0.2460 -0.0970
 8653SOL    HW137595   2.562   0.442  12.850  1.6391 -0.5073 -1.1384
 8653SOL    HW237596   2.520   0.338  12.952  0.7092  0.2719  1.4784
 8654SOL     OW37597   1.961   1.067  12.455 -0.0951  0.7832  0.1139
 8654SOL    HW137598   2.031   1.131  12.450  1.0554 -0.3270  1.9512
 8654SOL    HW237599   1.960   1.026  12.542 -3.9085  1.6474  0.4663
 8655SOL     OW37600   3.265   2.228   1.855  0.4665  0.1236 -0.1810
 8655SOL    HW137601   3.307   2.276   1.783 -0.1134  1.7264  0.5437
 8655SOL    HW237602   3.297   2.278   1.930 -2.2417 -1.5909  2.1409
 8656SOL     OW37603   2.120   0.418   0.826  0.3066 -0.1638  0.4320
 8656SOL    HW137604   2.034   0.383   0.850 -0.1506  0.2635 -0.5597
 8656SOL    HW237605   2.105   0.398   0.733 -2.6408  2.0508  0.4299
 8657SOL     OW37606   2.076   2.877  10.613  0.7935  0.1863 -0.6628
 8657SOL    HW137607   2.052   2.968  10.630  1.7593 -0.1248  2.2473
 8657SOL    HW237608   1.995   2.843  10.573  0.9973 -0.5442 -0.4521
 8658SOL     OW37609   3.412   4.449   1.582 -0.6854  0.4293 -0.3410
 8658SOL    HW137610   3.444   4.536   1.606 -2.2481  1.7969 -3.3093
 8658SOL    HW237611   3.455   4.386   1.641  0.5118 -0.1553 -1.8460
 8659SOL     OW37612   3.920   0.391   5.251  0.2254  0.1102 -0.3972
 8659SOL    HW137613   3.880   0.359   5.169  1.8522 -0.6049 -0.9060
 8659SOL    HW237614   3.906   0.486   5.253 -0.2840  0.0341 -0.2833
 8660SOL     OW37615   1.377   4.435   5.080 -0.1065  0.1448  0.1021
 8660SOL    HW137616   1.438   4.403   5.014 -1.5381 -0.0994 -1.0906
 8660SOL    HW237617   1.323   4.358   5.100  1.5504 -0.8932  0.5862
 8661SOL     OW37618   3.892   3.856   5.414  0.0474 -0.3372 -0.3456
 8661SOL    HW137619   3.850   3.776   5.446 -0.4843 -0.3226 -1.0165
 8661SOL    HW237620   3.942   3.833   5.336 -1.5326 -1.6892 -0.9641
 8662SOL     OW37621   0.591   1.732  17.681  0.4008 -0.2693  0.1247
 8662SOL    HW137622   0.522   1.749  17.617 -1.1074 -0.7993  1.6060
 8662SOL    HW237623   0.542   1.676   0.006 -0.6645  0.8958  0.3412
 8663SOL     OW37624   0.062   3.839  10.924  0.2150  1.0664 -0.5870
 8663SOL    HW137625   4.726   3.866  10.864  0.3462  1.1957 -0.6820
 8663SOL    HW237626   0.090   3.759  10.880  1.2258  1.9414 -1.5607
 8664SOL     OW37627   2.514   2.297   2.052  0.1018 -0.2678 -0.3805
 8664SOL    HW137628   2.474   2.227   2.001 -1.2175  0.2628 -0.0648
 8664SOL    HW237629   2.503   2.253   2.137 -0.5748 -1.1224 -0.9118
 8665SOL     OW37630   0.855   4.353  10.469  0.2196 -0.0433  0.1727
 8665SOL    HW137631   0.927   4.416  10.467  0.5053 -0.4357 -1.9616
 8665SOL    HW237632   0.907   4.277  10.496  0.3210  0.2133  0.6953
 8666SOL     OW37633   3.076   3.548   6.252 -0.3226  0.0405  0.7924
 8666SOL    HW137634   3.153   3.494   6.274  0.6443  0.6322 -1.1705
 8666SOL    HW237635   3.017   3.530   6.326  2.7755  0.6101  3.4427
 8667SOL     OW37636   2.513   1.799   9.931 -0.8513  0.4118 -0.6246
 8667SOL    HW137637   2.571   1.749   9.989 -0.7762 -0.5455 -1.5130
 8667SOL    HW237638   2.460   1.844   9.996 -1.1915  0.3281 -0.8466
 8668SOL     OW37639   3.647   4.718   0.004  0.0022 -0.0333  0.1364
 8668SOL    HW137640   3.589   4.715  17.664 -1.9455 -1.5872  1.7140
 8668SOL    HW237641   3.686   0.072   0.005 -1.6321  0.7084 -2.2682
 8669SOL     OW37642   2.955   4.563   6.264  0.5534  0.4919 -0.0502
 8669SOL    HW137643   3.007   4.538   6.340  0.0336  0.4921  0.3037
 8669SOL    HW237644   2.932   4.655   6.282 -0.5642  0.5684 -1.7904
 8670SOL     OW37645   0.791   1.062  10.413 -0.2313 -0.4683  0.2114
 8670SOL    HW137646   0.802   0.974  10.377  0.2743 -0.9387  1.5313
 8670SOL    HW237647   0.711   1.047  10.463 -1.0921 -1.6135 -1.5070
 8671SOL     OW37648   2.658   4.484   1.996  0.3638  0.4752  0.1805
 8671SOL    HW137649   2.570   4.476   1.958  0.8739 -1.8941 -0.5457
 8671SOL    HW237650   2.687   4.394   2.013  0.3032  0.2213 -1.0742
 8672SOL     OW37651   2.535   4.722   9.133  0.3161 -0.1441 -0.2531
 8672SOL    HW137652   2.471   4.721   9.205  0.5113  0.0507 -0.0749
 8672SOL    HW237653   2.560   4.630   9.139  1.0954 -0.0857 -2.6183
 8673SOL     OW37654   2.959   3.012   3.768 -0.1068  0.2646 -0.5472
 8673SOL    HW137655   2.921   3.044   3.686 -0.0143 -1.6998 -1.3566
 8673SOL    HW237656   2.974   2.919   3.751  1.5299  0.3396  0.5195
 8674SOL     OW37657   1.403   2.202   9.075 -0.0915 -0.0213  0.0344
 8674SOL    HW137658   1.406   2.161   8.989  0.4027 -0.3509  0.2077
 8674SOL    HW237659   1.354   2.134   9.122 -0.6902 -1.3937 -2.6034
 8675SOL     OW37660   4.162   0.981  12.010  0.3643 -0.0304 -0.4963
 8675SOL    HW137661   4.253   1.000  12.032 -0.3611  2.6456  0.0743
 8675SOL    HW237662   4.133   1.069  11.987 -1.7140 -0.5961 -0.0260
 8676SOL     OW37663   2.162   4.451   2.944 -1.0327 -0.0060 -0.2482
 8676SOL    HW137664   2.120   4.471   3.028 -2.5503 -1.6705 -0.6122
 8676SOL    HW237665   2.218   4.526   2.927 -0.3495 -0.8567 -1.7404
 8677SOL     OW37666   1.514   4.571  17.139  0.0587  0.3014  0.6768
 8677SOL    HW137667   1.598   4.608  17.169  0.5203  2.6018 -3.5031
 8677SOL    HW237668   1.525   4.559  17.045  0.3493 -1.0954  0.8858
 8678SOL     OW37669   0.550   0.970  10.505 -0.1282 -0.2268 -0.5320
 8678SOL    HW137670   0.477   1.011  10.550 -0.5525 -0.2408 -1.1935
 8678SOL    HW237671   0.524   0.952  10.414 -1.4619  0.9824 -0.3779
 8679SOL     OW37672   2.506   4.333   1.629  0.3456 -0.1067  0.3315
 8679SOL    HW137673   2.493   4.326   1.534  0.3239 -0.1007  0.3340
 8679SOL    HW237674   2.544   4.420   1.633  0.6187 -0.2698  1.2012
 8680SOL     OW37675   2.683   1.110  14.425 -0.2201 -0.3423 -0.1036
 8680SOL    HW137676   2.601   1.144  14.461  0.0568  0.0487  0.1690
 8680SOL    HW237677   2.672   1.018  14.449 -1.8427 -0.4955 -1.4356
 8681SOL     OW37678   3.570   1.472  13.302 -0.3664 -0.2287 -0.2038
 8681SOL    HW137679   3.519   1.398  13.334  2.4087 -0.9402  2.6330
 8681SOL    HW237680   3.513   1.535  13.345 -0.4449 -1.7120  1.8545
 8682SOL     OW37681   4.061   3.680   0.211  0.1179 -0.4058 -0.1910
 8682SOL    HW137682   4.120   3.667   0.286 -0.0965  0.3964  0.1174
 8682SOL    HW237683   4.034   3.771   0.221  0.6538 -0.2651  0.0135
 8683SOL     OW37684   1.459   4.406   7.634  0.0682  0.5254  0.0599
 8683SOL    HW137685   1.473   4.479   7.574  0.2040 -0.5666 -1.2567
 8683SOL    HW237686   1.411   4.439   7.710 -0.3310 -1.9693  0.9061
 8684SOL     OW37687   2.024   0.476   5.026  0.5627 -0.2202  0.0169
 8684SOL    HW137688   1.980   0.519   5.100 -1.7453 -3.2166  0.3874
 8684SOL    HW237689   2.037   0.541   4.957  0.4657  0.1821  0.3783
 8685SOL     OW37690   2.259   2.120   6.687  0.0451 -0.1299  0.3147
 8685SOL    HW137691   2.207   2.171   6.625 -0.2545 -1.3637 -0.4528
 8685SOL    HW237692   2.303   2.195   6.726  0.3592 -0.4652  0.6085
 8686SOL     OW37693   1.799   2.755  10.524 -0.9619 -0.1877 -0.4457
 8686SOL    HW137694   1.707   2.773  10.542 -1.0056 -0.8816  0.0578
 8686SOL    HW237695   1.806   2.793  10.437  0.2540  0.5368 -0.0368
 8687SOL     OW37696   0.285   3.013   4.814 -0.2441  0.3028  0.0858
 8687SOL    HW137697   0.306   3.082   4.877  0.1122 -1.3976  1.8237
 8687SOL    HW237698   0.302   3.051   4.728  0.5031  1.6139  0.8190
 8688SOL     OW37699   2.795   2.283   3.033  0.3507 -0.6995 -0.6330
 8688SOL    HW137700   2.814   2.296   2.940  0.4774 -0.7724 -0.6188
 8688SOL    HW237701   2.848   2.349   3.076  0.1713 -1.0550  0.1247
 8689SOL     OW37702   3.045   2.938   4.080 -0.1301  0.1312  0.4732
 8689SOL    HW137703   2.980   2.933   4.149 -1.3795  0.1449 -0.7045
 8689SOL    HW237704   2.991   2.937   4.000 -2.6739 -0.2227  2.2109
 8690SOL     OW37705   3.835   4.344   8.989 -0.1228 -0.4106  0.0103
 8690SOL    HW137706   3.824   4.403   8.915 -1.0554 -1.1471 -0.4271
 8690SOL    HW237707   3.909   4.394   9.023 -1.8115  2.6829 -0.9271
 8691SOL     OW37708   3.686   4.625   1.986 -0.2266  0.0352  0.5568
 8691SOL    HW137709   3.734   4.624   2.069  3.5173  1.2311 -1.6016
 8691SOL    HW237710   3.608   4.673   2.015  0.7254  1.4979  0.6956
 8692SOL     OW37711   3.778   1.681  13.447  0.3008  0.0499  0.2453
 8692SOL    HW137712   3.783   1.586  13.447 -0.7808  0.0025  2.1181
 8692SOL    HW237713   3.750   1.699  13.357  0.1024 -1.6846 -0.0328
 8693SOL     OW37714   2.142   3.997   8.085  0.8857  0.8470 -0.4556
 8693SOL    HW137715   2.139   3.910   8.044 -0.0082  1.2825 -1.3116
 8693SOL    HW237716   2.229   3.999   8.124  0.2844 -0.7919  0.9793
 8694SOL     OW37717   2.844   1.765   7.747 -0.1592 -0.1365  0.0549
 8694SOL    HW137718   2.766   1.712   7.734  0.8456 -2.2337  2.4906
 8694SOL    HW237719   2.908   1.707   7.789  0.7467  2.3465  2.0910
 8695SOL     OW37720   4.284   4.196   0.273 -0.3551  0.2061  0.2961
 8695SOL    HW137721   4.374   4.226   0.288  0.1037 -0.8335 -0.3863
 8695SOL    HW237722   4.284   4.123   0.335  0.9821 -0.0069  0.0553
 8696SOL     OW37723   1.279   4.314  16.993 -0.1940  0.2439  0.1491
 8696SOL    HW137724   1.329   4.395  16.983  0.3025 -0.0510  0.2343
 8696SOL    HW237725   1.200   4.354  17.030 -1.0218 -0.6888 -0.5916
 8697SOL     OW37726   4.007   2.408   8.596 -0.1439  0.2593  0.1069
 8697SOL    HW137727   3.950   2.369   8.662 -1.5575 -0.8524 -1.7961
 8697SOL    HW237728   3.944   2.470   8.559  0.4222  0.7060 -0.1175
 8698SOL     OW37729   2.328   1.860  12.263 -0.0498 -0.7519 -0.2277
 8698SOL    HW137730   2.301   1.862  12.171 -0.1136 -0.6044 -0.2061
 8698SOL    HW237731   2.270   1.924  12.305  0.2792  0.0365 -0.9591
 8699SOL     OW37732   3.157   3.002  13.395  0.0492  0.0179  0.3417
 8699SOL    HW137733   3.137   3.033  13.306  1.9143  0.6321  0.1306
 8699SOL    HW237734   3.174   2.909  13.382  2.1133  0.4792 -0.2967
 8700SOL     OW37735   0.385   2.047   1.773 -0.3824  0.4656  0.2144
 8700SOL    HW137736   0.399   1.956   1.747 -1.2297  1.1341 -2.6109
 8700SOL    HW237737   0.360   2.042   1.865 -0.0729 -0.7356  0.2335
 8701SOL     OW37738   0.795   2.782  12.747 -0.0831  0.0203 -0.4934
 8701SOL    HW137739   0.773   2.698  12.787  0.8216 -1.3132 -2.8391
 8701SOL    HW237740   0.889   2.765  12.741 -0.1760 -0.7857  0.3702
 8702SOL     OW37741   2.758   3.975   7.023 -0.6352 -0.1129  0.6772
 8702SOL    HW137742   2.676   3.959   7.069 -0.6329  1.0627  1.0669
 8702SOL    HW237743   2.731   4.002   6.935 -1.1275  0.2439  0.9445
 8703SOL     OW37744   0.389   4.007   7.449  0.2102  0.2188 -0.4855
 8703SOL    HW137745   0.381   3.989   7.542  0.5659 -1.7226 -0.8283
 8703SOL    HW237746   0.425   3.927   7.410 -0.4459 -1.4491  2.3509
 8704SOL     OW37747   2.812   4.192  14.182 -0.2596 -0.2775 -0.0747
 8704SOL    HW137748   2.823   4.131  14.109 -0.4446 -2.2434  1.5230
 8704SOL    HW237749   2.785   4.270  14.134 -1.2090 -1.6398 -1.7978
 8705SOL     OW37750   3.232   1.104   4.067 -0.2310  0.0103  0.1998
 8705SOL    HW137751   3.317   1.091   4.109 -0.2306  1.5459  0.6725
 8705SOL    HW237752   3.211   1.191   4.100 -1.6115 -1.3436  2.9038
 8706SOL     OW37753   2.361   4.488  13.968  0.3421  0.1707  0.1488
 8706SOL    HW137754   2.308   4.508  14.045  0.9393  3.1062 -0.2004
 8706SOL    HW237755   2.285   4.479  13.911 -0.4148  0.4247  1.1122
 8707SOL     OW37756   0.965   1.260   8.642 -0.0575 -0.4372 -0.2336
 8707SOL    HW137757   0.967   1.330   8.707  0.2768 -1.3139  0.6931
 8707SOL    HW237758   1.043   1.209   8.664 -0.1889 -0.2452  0.6783
 8708SOL     OW37759   0.856   4.686  12.977  0.8271  0.1651  0.6923
 8708SOL    HW137760   0.907   4.716  13.052  1.1435  0.8611  0.2025
 8708SOL    HW237761   0.878   0.011  12.906 -0.6217  0.4595  0.4749
 8709SOL     OW37762   0.565   3.427   2.951 -0.1710  0.3969  0.9040
 8709SOL    HW137763   0.561   3.345   2.998  0.0607  0.9551  1.8910
 8709SOL    HW237764   0.478   3.434   2.913  0.8687 -0.2954 -1.6158
 8710SOL     OW37765   4.312   1.883   2.117 -1.0190 -0.2575  0.0271
 8710SOL    HW137766   4.245   1.947   2.141  0.5774  0.8788  1.4230
 8710SOL    HW237767   4.350   1.863   2.203  1.3077  1.8466 -0.4947
 8711SOL     OW37768   0.031   3.827   9.622  0.1854  0.4421  0.4242
 8711SOL    HW137769   0.058   3.915   9.595  1.9928 -0.5892 -1.1707
 8711SOL    HW237770   0.020   3.853   9.713 -1.5902 -0.8238  0.5644
 8712SOL     OW37771   0.009   3.639   8.665 -0.2845  0.7430 -0.0908
 8712SOL    HW137772   0.072   3.673   8.729 -0.0810  1.3677 -0.6227
 8712SOL    HW237773   4.690   3.575   8.712  0.1150  2.1572  2.3032
 8713SOL     OW37774   0.215   0.947  17.615 -0.0364 -0.2238 -0.5107
 8713SOL    HW137775   0.206   0.887  17.541 -1.0014  0.5405 -1.0223
 8713SOL    HW237776   0.139   1.003  17.595  1.6749  1.4969 -2.2103
 8714SOL     OW37777   1.678   3.857   3.338  0.3465  0.3252  0.4271
 8714SOL    HW137778   1.669   3.798   3.413 -2.2218  0.4855  0.2130
 8714SOL    HW237779   1.712   3.800   3.269 -1.1534 -1.2880  1.0291
 8715SOL     OW37780   3.116   4.149   4.600 -0.0505  0.1072 -0.5623
 8715SOL    HW137781   3.039   4.193   4.564 -0.5923 -0.9475 -0.7059
 8715SOL    HW237782   3.187   4.205   4.567 -0.5003  0.4998 -0.8701
 8716SOL     OW37783   4.271   4.157   7.383  0.1834  0.3850 -0.2066
 8716SOL    HW137784   4.184   4.136   7.349  0.0634  0.6167 -0.0386
 8716SOL    HW237785   4.257   4.114   7.468  0.8188  2.4791  0.9530
 8717SOL     OW37786   0.528   0.597   4.490 -0.2707  0.6159  0.2188
 8717SOL    HW137787   0.549   0.504   4.496  2.7947  1.2421 -0.7559
 8717SOL    HW237788   0.433   0.588   4.494 -0.1042 -1.3553 -0.2259
 8718SOL     OW37789   2.227   0.597   8.488 -0.3467 -0.3485  0.4820
 8718SOL    HW137790   2.191   0.663   8.546  0.8084  0.2338  0.5304
 8718SOL    HW237791   2.209   0.515   8.535 -0.6686 -0.8630 -0.5177
 8719SOL     OW37792   0.525   2.501   4.169 -0.0188 -0.3537  0.4534
 8719SOL    HW137793   0.514   2.580   4.222 -5.6400 -0.2611 -0.8850
 8719SOL    HW237794   0.508   2.432   4.233 -0.4045 -1.8903 -1.3163
 8720SOL     OW37795   3.158   0.759   5.950  0.0715 -0.0639 -0.1950
 8720SOL    HW137796   3.104   0.825   5.907 -2.1894 -0.8017  1.4458
 8720SOL    HW237797   3.097   0.698   5.991  0.3764 -1.0846 -1.2868
 8721SOL     OW37798   2.990   3.001   9.311  0.0057  0.2749  0.5123
 8721SOL    HW137799   2.999   2.912   9.343  1.9757  0.1508 -0.4198
 8721SOL    HW237800   3.050   3.004   9.237  1.6855 -1.1623  1.8175
 8722SOL     OW37801   2.775   0.020  15.749  0.0541 -0.1062  0.3022
 8722SOL    HW137802   2.778   4.674  15.696  0.7660  0.0726  0.0669
 8722SOL    HW237803   2.703   0.064  15.704  1.5245 -1.0764 -3.0348
 8723SOL     OW37804   4.468   2.854   8.543  0.3558 -0.5213 -0.2950
 8723SOL    HW137805   4.557   2.836   8.514  0.3171 -1.1719 -0.0122
 8723SOL    HW237806   4.428   2.775   8.506  1.5152 -1.0062 -0.5009
 8724SOL     OW37807   3.660   3.043   6.374  0.0645 -0.0306 -0.0644
 8724SOL    HW137808   3.697   3.033   6.286 -0.1308  0.2717 -0.1782
 8724SOL    HW237809   3.683   3.133   6.396  0.8889  0.2043 -1.8202
 8725SOL     OW37810   2.110   0.285   4.698  0.5438  0.5444  0.0664
 8725SOL    HW137811   2.099   0.199   4.658 -2.8168  0.5956  0.8848
 8725SOL    HW237812   2.063   0.280   4.782  0.8298  0.9316  0.2485
 8726SOL     OW37813   4.682   0.503   7.755 -0.3261 -0.4622  0.1400
 8726SOL    HW137814   4.653   0.575   7.811 -1.8090  0.2539 -1.5430
 8726SOL    HW237815   4.652   0.426   7.804  1.8130 -0.7915  0.9160
 8727SOL     OW37816   2.069   4.376   8.383 -0.1824  0.3258  0.8057
 8727SOL    HW137817   2.133   4.429   8.431 -1.4484  2.1098  0.5146
 8727SOL    HW237818   2.081   4.416   8.297  2.4745  1.1323  1.5753
 8728SOL     OW37819   1.778   0.038   5.597  0.1520 -0.0867  0.5868
 8728SOL    HW137820   1.751   4.682   5.608 -0.8956  0.2071  0.4297
 8728SOL    HW237821   1.792   0.063   5.688  1.4263  1.0997  0.0683
 8729SOL     OW37822   3.694   0.594   1.680 -0.3992  0.3601  0.5023
 8729SOL    HW137823   3.690   0.630   1.768  1.9517  0.5226  0.5428
 8729SOL    HW237824   3.674   0.503   1.703  0.1357  0.1009 -0.0366
 8730SOL     OW37825   3.892   2.379  17.221 -0.0625 -0.7826  0.3897
 8730SOL    HW137826   3.931   2.406  17.304  0.6883  0.1446 -0.2674
 8730SOL    HW237827   3.907   2.454  17.163 -0.8382  0.1186  1.3642
 8731SOL     OW37828   0.080   0.752  11.435  0.0726  0.5003  0.1881
 8731SOL    HW137829   0.064   0.769  11.342  2.2662 -0.3657 -0.3341
 8731SOL    HW237830   0.071   0.657  11.433 -1.0751  0.6622 -1.8406
 8732SOL     OW37831   1.255   4.187  11.553  0.3310  0.1566  0.2457
 8732SOL    HW137832   1.164   4.213  11.538  0.9616  1.5680 -1.1354
 8732SOL    HW237833   1.282   4.180  11.461 -2.6719 -0.6098 -0.6141
 8733SOL     OW37834   0.739   0.070   3.424 -0.2690  0.2862  0.3083
 8733SOL    HW137835   0.655   0.113   3.407  0.1752  0.3222 -1.8211
 8733SOL    HW237836   0.725   4.729   3.481 -0.3986  0.8173  0.9738
 8734SOL     OW37837   2.328   2.759   8.521  0.2903  0.2112  0.4000
 8734SOL    HW137838   2.266   2.724   8.586  1.7299  0.0157  1.6750
 8734SOL    HW237839   2.411   2.723   8.552  1.4245  1.0944 -1.6628
 8735SOL     OW37840   0.474   2.249  11.026 -0.1955 -0.5197  0.0095
 8735SOL    HW137841   0.423   2.299  11.090 -0.8814 -1.4696  0.2013
 8735SOL    HW237842   0.542   2.204  11.076  0.6431  1.0682  0.2999
 8736SOL     OW37843   0.721   4.465   8.983  0.1274  0.1747  0.2590
 8736SOL    HW137844   0.733   4.434   9.072 -1.4581  1.1921  0.8300
 8736SOL    HW237845   0.663   4.541   8.989 -2.0905 -1.4170 -0.7999
 8737SOL     OW37846   0.128   4.203  15.625  0.4860  0.4694 -0.4220
 8737SOL    HW137847   0.112   4.145  15.550 -1.0256 -0.1700  0.3852
 8737SOL    HW237848   0.036   4.228  15.636 -0.1437 -2.4955  0.8600
 8738SOL     OW37849   1.204   2.990  10.523 -0.2291  0.6050 -0.3994
 8738SOL    HW137850   1.128   3.026  10.478 -0.5732 -0.0558 -0.3582
 8738SOL    HW237851   1.242   3.061  10.574  1.9708 -0.9831  0.2015
 8739SOL     OW37852   2.534   2.347   5.738  0.4681 -0.1128 -0.0383
 8739SOL    HW137853   2.479   2.352   5.659 -2.5029  0.7853  2.0850
 8739SOL    HW237854   2.469   2.297   5.787 -0.1945  1.0050  0.2266
 8740SOL     OW37855   3.523   3.702   5.553 -0.1192  0.1981  0.4363
 8740SOL    HW137856   3.525   3.665   5.641 -1.2671 -0.4368  0.2039
 8740SOL    HW237857   3.553   3.792   5.563  2.2927 -0.5368 -0.0731
 8741SOL     OW37858   2.988   1.202  12.522  0.1521 -0.1168 -0.1327
 8741SOL    HW137859   2.970   1.148  12.445 -0.0577  0.4754 -0.4987
 8741SOL    HW237860   2.985   1.290  12.485  2.5370 -0.3882 -0.9441
 8742SOL     OW37861   3.188   1.433  14.826 -0.1567 -0.1216  0.2832
 8742SOL    HW137862   3.142   1.492  14.886 -1.4092 -1.3300  0.5074
 8742SOL    HW237863   3.158   1.346  14.853 -0.4017 -0.3117 -0.5857
 8743SOL     OW37864   0.820   4.224  13.975 -0.6490 -0.3304  0.4848
 8743SOL    HW137865   0.871   4.261  14.047 -1.7849 -0.4302  1.3435
 8743SOL    HW237866   0.741   4.204  14.025 -0.3019 -0.7187  0.8703
 8744SOL     OW37867   1.796   0.418  15.119 -0.4824  0.6195  0.2478
 8744SOL    HW137868   1.783   0.461  15.035 -1.0401  3.0540  1.5664
 8744SOL    HW237869   1.857   0.347  15.104 -0.2254  0.7353  0.7454
 8745SOL     OW37870   0.622   0.972   8.001  0.7593  0.0590 -0.2146
 8745SOL    HW137871   0.595   1.037   8.066 -2.2941 -1.7717  0.3043
 8745SOL    HW237872   0.575   0.998   7.922 -1.2414 -0.2875  0.8733
 8746SOL     OW37873   2.282   1.351  13.105 -0.4066  0.2751 -0.7833
 8746SOL    HW137874   2.269   1.267  13.148 -0.0511  0.5945 -0.0466
 8746SOL    HW237875   2.207   1.362  13.047  1.3647 -0.5334 -3.2466
 8747SOL     OW37876   1.539   0.092  10.160  0.2449  0.1180  0.0990
 8747SOL    HW137877   1.633   0.082  10.146  0.0790 -0.2867 -0.7374
 8747SOL    HW237878   1.516   0.015  10.213 -1.0969 -0.5372 -1.4129
 8748SOL     OW37879   0.504   0.160   9.164 -0.5415  0.1141  0.4822
 8748SOL    HW137880   0.497   0.220   9.090  1.8936  0.3445  0.4554
 8748SOL    HW237881   0.416   0.156   9.203 -0.9505 -0.4652 -0.5076
 8749SOL     OW37882   2.418   0.710   4.042  0.1267  0.0248  0.1774
 8749SOL    HW137883   2.371   0.772   3.987 -0.9882  0.3818  1.5451
 8749SOL    HW237884   2.498   0.758   4.061  0.1118 -1.2481  3.4121
 8750SOL     OW37885   4.579   2.017   6.557  0.2569 -0.1075  0.4679
 8750SOL    HW137886   4.582   2.058   6.471  0.5693  1.3506  1.1893
 8750SOL    HW237887   4.612   1.932   6.528 -3.9825 -1.4508 -0.4169
 8751SOL     OW37888   0.783   4.076  11.381 -0.1706  0.2387  0.3481
 8751SOL    HW137889   0.843   4.029  11.323  0.3973 -0.9886  1.9383
 8751SOL    HW237890   0.708   4.019  11.363  0.2675 -0.4951  0.8519
 8752SOL     OW37891   2.212   1.748   5.574  0.6343  0.6203  0.2285
 8752SOL    HW137892   2.204   1.841   5.558 -3.2980  0.2312  0.0279
 8752SOL    HW237893   2.269   1.722   5.502 -0.3058  0.1732 -0.3520
 8753SOL     OW37894   2.668   0.869  14.548 -0.1611  0.3627 -0.1984
 8753SOL    HW137895   2.613   0.834  14.618 -0.4461  0.5612 -0.3227
 8753SOL    HW237896   2.666   0.796  14.486  0.6701  0.4635 -0.3438
 8754SOL     OW37897   2.472   1.607   4.173 -0.0750  0.2898 -0.1927
 8754SOL    HW137898   2.425   1.687   4.197  2.4243  1.9860 -0.9185
 8754SOL    HW237899   2.508   1.581   4.258 -0.3854 -2.1863 -0.8149
 8755SOL     OW37900   0.579   1.163   7.795  0.0895  0.1059 -0.3396
 8755SOL    HW137901   0.521   1.234   7.765 -1.4609 -1.1869 -0.4260
 8755SOL    HW237902   0.625   1.208   7.866  1.5618 -0.9453 -0.6329
 8756SOL     OW37903   0.339   0.743   5.348 -0.4273  0.3479  0.2125
 8756SOL    HW137904   0.277   0.764   5.418 -1.8354  1.5716 -1.4170
 8756SOL    HW237905   0.292   0.784   5.276 -0.3871  0.8054  0.4501
 8757SOL     OW37906   3.067   0.932   3.409  0.5569  0.7566  0.2130
 8757SOL    HW137907   3.093   1.023   3.406 -3.1158  1.7521 -2.2418
 8757SOL    HW237908   3.035   0.914   3.320  0.0941 -1.3938  0.8106
 8758SOL     OW37909   0.561   3.179   5.171 -0.2873  0.2099  0.1081
 8758SOL    HW137910   0.566   3.188   5.266  0.3351  0.1461  0.0807
 8758SOL    HW237911   0.596   3.092   5.155  0.5685  0.9782 -2.2967
 8759SOL     OW37912   4.539   0.563   8.543 -0.3381 -0.3467  0.5579
 8759SOL    HW137913   4.598   0.503   8.497 -1.6218 -0.4375 -0.9662
 8759SOL    HW237914   4.463   0.504   8.545 -0.7547  0.1700  0.0323
 8760SOL     OW37915   1.993   2.877   5.593 -0.0495  0.5992 -0.5027
 8760SOL    HW137916   2.065   2.939   5.584  0.8863 -0.1695  1.6407
 8760SOL    HW237917   1.961   2.904   5.679  0.1233 -0.2560 -0.1665
 8761SOL     OW37918   2.983   2.793   5.434 -0.3648  0.1811 -0.3255
 8761SOL    HW137919   3.043   2.758   5.368 -1.0105 -2.5641  0.5481
 8761SOL    HW237920   2.903   2.746   5.411 -2.2188  3.0783  0.1748
 8762SOL     OW37921   0.329   1.721  17.562 -0.2736 -0.3928 -0.2740
 8762SOL    HW137922   0.348   1.703  17.469  0.9622 -1.2251  0.1380
 8762SOL    HW237923   0.250   1.669  17.579 -0.3703 -0.2997 -0.4289
 8763SOL     OW37924   0.202   4.059  11.029  0.1224 -0.6859  0.3130
 8763SOL    HW137925   0.136   4.128  11.023  2.0933  1.4438  2.7032
 8763SOL    HW237926   0.151   3.981  11.007 -0.6679 -0.7307  2.2451
 8764SOL     OW37927   4.241   4.185  14.079  0.7740 -0.4830 -0.1593
 8764SOL    HW137928   4.293   4.156  14.154  2.0871 -1.2234 -1.3381
 8764SOL    HW237929   4.157   4.146  14.101  0.7190  0.1852  0.8187
 8765SOL     OW37930   1.074   1.056  15.111 -0.3212  0.0635 -0.0504
 8765SOL    HW137931   1.102   0.999  15.182  1.7928  0.4467 -0.5798
 8765SOL    HW237932   1.051   1.139  15.153 -0.5629 -0.8722  1.6550
 8766SOL     OW37933   3.264   2.738  16.802 -0.3480 -0.5758  0.2986
 8766SOL    HW137934   3.188   2.761  16.748  0.1602 -0.0390 -0.1947
 8766SOL    HW237935   3.325   2.807  16.776 -2.8371  2.3978  2.3218
 8767SOL     OW37936   3.600   0.079   9.346 -0.1484  0.3442  0.2928
 8767SOL    HW137937   3.510   0.090   9.374 -1.6745 -2.6830 -3.4287
 8767SOL    HW237938   3.600   4.726   9.305  0.4727  0.5002 -0.0446
 8768SOL     OW37939   0.346   3.939   4.059  0.0262 -0.1095  0.2228
 8768SOL    HW137940   0.285   3.871   4.085 -2.2343  2.4802  1.6461
 8768SOL    HW237941   0.351   4.001   4.132  1.4008  0.4451 -0.3308
 8769SOL     OW37942   4.684   4.204   5.800 -0.1795  0.1077  0.1804
 8769SOL    HW137943   4.609   4.222   5.856  1.4636 -0.9331  2.7481
 8769SOL    HW237944   4.725   4.289   5.786  0.7878 -0.3477  0.2707
 8770SOL     OW37945   0.684   2.903   5.111  0.7915 -0.5822 -0.2595
 8770SOL    HW137946   0.638   2.831   5.153 -3.0213  0.2774 -2.9950
 8770SOL    HW237947   0.754   2.845   5.081 -0.1751 -0.3628 -2.9277
 8771SOL     OW37948   4.170   4.050   2.896 -0.1404 -0.1934 -1.0811
 8771SOL    HW137949   4.116   4.129   2.902  0.4437  0.1561 -0.3936
 8771SOL    HW237950   4.205   4.065   2.984 -0.8399 -1.6199 -0.5494
 8772SOL     OW37951   3.728   3.821  14.087 -0.0272 -0.2452  0.2166
 8772SOL    HW137952   3.790   3.852  14.153  1.1176 -0.2390 -0.8664
 8772SOL    HW237953   3.649   3.821  14.142 -0.6643 -0.7949 -0.7051
 8773SOL     OW37954   2.475   4.199   2.848  0.6921 -0.0816  0.1453
 8773SOL    HW137955   2.420   4.125   2.819 -0.8247  0.7429  0.9149
 8773SOL    HW237956   2.436   4.276   2.806  1.5211  1.7946  2.8701
 8774SOL     OW37957   1.804   2.862   5.350  0.1619 -0.2745  0.4849
 8774SOL    HW137958   1.831   2.950   5.324  0.0060 -0.1173  0.8571
 8774SOL    HW237959   1.865   2.844   5.421 -2.5291 -2.4239  2.2994
 8775SOL     OW37960   0.014   1.815   4.068 -0.7964  0.5686 -0.4865
 8775SOL    HW137961   0.063   1.757   4.126 -1.4976 -0.0755 -0.5424
 8775SOL    HW237962   0.085   1.859   4.021 -0.4390 -0.1243 -0.5988
 8776SOL     OW37963   2.514   4.176   5.733 -0.8883 -0.3064  0.3045
 8776SOL    HW137964   2.553   4.111   5.792 -0.3776 -0.8943 -0.6874
 8776SOL    HW237965   2.593   4.224   5.709 -0.0019 -2.1244 -0.3874
 8777SOL     OW37966   2.467   4.153   7.486  0.0846 -0.2422 -0.1743
 8777SOL    HW137967   2.375   4.179   7.484  0.4366  0.9395 -1.4311
 8777SOL    HW237968   2.499   4.202   7.410  1.0736 -0.7150 -0.0705
 8778SOL     OW37969   1.877   3.752   8.857 -0.0033 -0.5950 -0.6221
 8778SOL    HW137970   1.940   3.742   8.786  1.9337 -0.6451  1.1349
 8778SOL    HW237971   1.809   3.806   8.816  1.0968 -0.9217 -2.8454
 8779SOL     OW37972   2.516   1.828  14.598  0.7532 -0.4181 -0.0745
 8779SOL    HW137973   2.611   1.815  14.601  0.9439  0.8593 -0.4198
 8779SOL    HW237974   2.491   1.809  14.689 -0.0217 -3.7526 -0.9849
 8780SOL     OW37975   4.675   1.970   4.860  0.4779  0.2750  0.2211
 8780SOL    HW137976   4.618   1.991   4.934  0.7312 -0.1657  0.5447
 8780SOL    HW237977   4.713   1.884   4.879  2.0690  0.7752 -0.6774
 8781SOL     OW37978   3.739   3.938   0.660 -0.3888  0.6659 -0.5157
 8781SOL    HW137979   3.775   4.008   0.605  0.6886  0.4961 -0.0317
 8781SOL    HW237980   3.774   3.864   0.610  0.0310  0.3655  0.2327
 8782SOL     OW37981   1.818   1.198   3.468  0.2099  0.1122 -0.4149
 8782SOL    HW137982   1.776   1.223   3.550 -0.7433 -0.1476 -0.8274
 8782SOL    HW237983   1.908   1.191   3.500  0.3210  1.8756 -0.2954
 8783SOL     OW37984   1.732   3.057   8.242  0.0436 -0.4994  0.3727
 8783SOL    HW137985   1.728   3.060   8.147 -0.3939 -0.3837  0.3919
 8783SOL    HW237986   1.746   2.963   8.253  0.3135 -0.5317 -0.2727
 8784SOL     OW37987   3.231   2.372   8.601  0.0515 -0.4393 -0.1715
 8784SOL    HW137988   3.149   2.341   8.564  0.0099  0.5211 -0.8915
 8784SOL    HW237989   3.234   2.315   8.678 -1.7041  1.0518  0.9825
 8785SOL     OW37990   2.068   1.462  16.519 -0.0151 -0.1787  0.0197
 8785SOL    HW137991   1.983   1.467  16.561  0.9439  1.0534  1.8125
 8785SOL    HW237992   2.049   1.494  16.431  0.1712 -1.6544 -0.5577
 8786SOL     OW37993   0.267   1.835   6.177 -0.3433 -0.0633  0.3335
 8786SOL    HW137994   0.362   1.831   6.172 -0.3187 -0.4372  1.2016
 8786SOL    HW237995   0.245   1.742   6.168  1.1129 -0.4300  0.5300
 8787SOL     OW37996   0.772   2.497   0.142 -0.0606  0.0835 -0.3465
 8787SOL    HW137997   0.791   2.432   0.210  2.6345  2.1767  0.8716
 8787SOL    HW237998   0.823   2.573   0.168  0.4073  0.5251 -2.6093
 8788SOL     OW37999   0.219   4.304   5.627 -0.4356  0.2555 -0.0195
 8788SOL    HW138000   0.162   4.348   5.690  1.1859  1.1364  0.8315
 8788SOL    HW238001   0.304   4.343   5.646 -0.8064  0.0610  2.0166
 8789SOL     OW38002   2.621   1.246   7.363 -0.8396  0.0850  0.1570
 8789SOL    HW138003   2.646   1.336   7.384 -2.7687  0.6484  0.0098
 8789SOL    HW238004   2.574   1.258   7.281 -1.2652 -0.3296  0.3431
 8790SOL     OW38005   4.581   1.181   2.364 -0.5257  0.2055  0.1156
 8790SOL    HW138006   4.511   1.164   2.428  0.2833  0.0034  0.9343
 8790SOL    HW238007   4.600   1.271   2.390  4.1605 -1.1470  1.2396
 8791SOL     OW38008   2.606   4.003  12.822 -0.2144 -0.2849  0.1727
 8791SOL    HW138009   2.632   4.094  12.834 -0.3792  0.1138 -2.4712
 8791SOL    HW238010   2.539   4.012  12.755  0.4785  0.4402 -0.4162
 8792SOL     OW38011   1.955   0.136   6.501 -0.1969 -0.4272 -0.1295
 8792SOL    HW138012   1.983   0.069   6.438 -0.5509 -1.0017  0.3174
 8792SOL    HW238013   1.935   0.214   6.450  1.3902 -1.8565 -2.9522
 8793SOL     OW38014   2.376   1.920   5.888 -0.2802  0.2350  0.1383
 8793SOL    HW138015   2.358   2.014   5.885  0.3818  0.3546 -0.1299
 8793SOL    HW238016   2.285   1.890   5.883 -0.2365  0.7108 -3.2600
 8794SOL     OW38017   0.060   1.447   3.249 -0.2331  0.3021  0.0811
 8794SOL    HW138018   0.016   1.499   3.181 -2.1022 -0.2282  0.8745
 8794SOL    HW238019   4.728   1.418   3.312  1.2353 -0.6011  1.2013
 8795SOL     OW38020   2.435   3.775   6.552  0.0368 -0.4169 -0.4430
 8795SOL    HW138021   2.528   3.760   6.565  0.0067 -0.0282  0.2018
 8795SOL    HW238022   2.426   3.863   6.516  0.4799  1.1952  3.3478
 8796SOL     OW38023   0.618   0.192   6.754 -0.1079 -0.5927  0.3390
 8796SOL    HW138024   0.568   0.212   6.833 -0.9470  0.1911 -0.3833
 8796SOL    HW238025   0.622   0.097   6.763  1.4936 -0.6229 -0.6866
 8797SOL     OW38026   0.591   0.509   2.864  0.9323  0.2099 -0.0079
 8797SOL    HW138027   0.605   0.453   2.941  1.2247  0.1462 -0.1095
 8797SOL    HW238028   0.539   0.581   2.901 -0.2890 -0.3530 -0.6172
 8798SOL     OW38029   0.952   1.161   3.906 -0.2230 -0.0724 -0.0459
 8798SOL    HW138030   1.015   1.186   3.839 -1.7586  0.1335 -1.4308
 8798SOL    HW238031   0.867   1.180   3.866  0.4508  0.4773 -1.2008
 8799SOL     OW38032   3.831   0.672   9.779  0.2951  0.3921  0.2905
 8799SOL    HW138033   3.901   0.687   9.716  0.7764 -0.8779  0.5130
 8799SOL    HW238034   3.795   0.760   9.781  0.1113  0.3449 -1.3557
 8800SOL     OW38035   2.959   0.803  14.587  0.4470  0.0957 -0.1473
 8800SOL    HW138036   2.890   0.758  14.635 -0.1326 -0.3172 -1.3769
 8800SOL    HW238037   2.963   0.745  14.510 -1.1155  1.3966 -1.2014
 8801SOL     OW38038   4.384   1.484   8.411  0.2272 -0.1735  0.3018
 8801SOL    HW138039   4.451   1.535   8.364  0.1642  0.1242  0.5314
 8801SOL    HW238040   4.437   1.409   8.437 -2.8044 -2.8326 -1.2303
 8802SOL     OW38041   4.180   1.434   3.127  0.2179  0.2186 -0.3902
 8802SOL    HW138042   4.176   1.429   3.222  1.3264 -1.2333 -0.4174
 8802SOL    HW238043   4.141   1.350   3.103 -1.7269  1.2304 -0.7609
 8803SOL     OW38044   3.937   4.265  15.984  0.5262 -0.4397 -0.5818
 8803SOL    HW138045   3.925   4.356  15.960  0.0963 -0.6037 -0.9941
 8803SOL    HW238046   4.010   4.284  16.043  0.3344 -0.2774 -0.3951
 8804SOL     OW38047   4.280   0.713   5.739 -0.2799  0.2965 -0.2296
 8804SOL    HW138048   4.295   0.627   5.700  1.2886  0.4136  0.1182
 8804SOL    HW238049   4.218   0.689   5.807  1.5732 -0.2757  1.2548
 8805SOL     OW38050   2.577   4.549   6.055  0.1638  0.1840 -0.0371
 8805SOL    HW138051   2.632   4.514   6.125  1.2185  2.5841  0.3193
 8805SOL    HW238052   2.496   4.507   6.085 -0.0115  2.2812  2.4640
 8806SOL     OW38053   4.508   1.060   2.886 -0.4947  0.3479  0.9727
 8806SOL    HW138054   4.534   1.091   2.973  1.1814  1.3880  0.1052
 8806SOL    HW238055   4.585   1.084   2.834  0.1702 -0.3035  1.6471
 8807SOL     OW38056   4.468   0.895  15.469 -0.6599  0.0361 -0.7658
 8807SOL    HW138057   4.455   0.925  15.558 -2.5326 -1.3583 -0.5520
 8807SOL    HW238058   4.390   0.927  15.423 -0.4843 -0.3451 -1.3373
 8808SOL     OW38059   4.362   0.928   1.865  0.0692  0.0060 -0.9586
 8808SOL    HW138060   4.427   0.915   1.796  0.2058  0.9359 -1.0023
 8808SOL    HW238061   4.330   0.840   1.885  0.9547  0.2745  1.7223
 8809SOL     OW38062   0.814   1.999   9.288  0.4102 -0.9625  0.7993
 8809SOL    HW138063   0.876   2.050   9.340 -1.9505  0.3028  2.3850
 8809SOL    HW238064   0.837   2.037   9.204 -1.2018  2.1088  1.7297
 8810SOL     OW38065   4.616   3.622   4.133  0.3469  0.6934  0.0990
 8810SOL    HW138066   4.597   3.698   4.078 -0.6544 -0.3112 -0.9285
 8810SOL    HW238067   4.615   3.660   4.221  0.9384 -0.8008  0.7506
 8811SOL     OW38068   2.978   1.074  16.136  0.4358 -0.3997 -0.0728
 8811SOL    HW138069   2.940   1.032  16.058 -1.2740 -1.1007  1.1430
 8811SOL    HW238070   2.987   0.997  16.192 -1.1236 -0.4020  0.1691
 8812SOL     OW38071   1.484   2.802   1.376 -0.3601  0.3894  0.4142
 8812SOL    HW138072   1.495   2.709   1.399 -0.9246  0.7880  2.3627
 8812SOL    HW238073   1.546   2.831   1.443 -0.2313 -1.6474  1.1797
 8813SOL     OW38074   4.205   1.259   8.807 -0.0812 -0.2751  0.3387
 8813SOL    HW138075   4.298   1.241   8.790  0.2523  1.2944  0.4870
 8813SOL    HW238076   4.186   1.183   8.862  0.7040 -1.3770 -0.9066
 8814SOL     OW38077   2.069   4.372   3.826 -0.4587 -0.0955 -0.5419
 8814SOL    HW138078   2.161   4.399   3.817 -0.3360 -0.1934  0.3293
 8814SOL    HW238079   2.064   4.313   3.751  1.8076  0.4128 -1.0933
 8815SOL     OW38080   4.650   0.241   2.223  0.4807 -0.1408 -0.3315
 8815SOL    HW138081   4.704   0.237   2.302 -1.0849  0.8640  0.7889
 8815SOL    HW238082   4.564   0.210   2.254  0.1928  0.5963 -0.3885
 8816SOL     OW38083   3.028   3.313  14.038 -0.2226  0.0742 -0.1574
 8816SOL    HW138084   3.015   3.225  14.003 -2.0737  0.2490  0.0905
 8816SOL    HW238085   3.098   3.347  13.981  0.9910 -0.0266  1.2810
 8817SOL     OW38086   2.537   1.899   7.872 -0.3237  0.0819 -0.3445
 8817SOL    HW138087   2.598   1.837   7.912 -0.3016 -0.9524 -1.9620
 8817SOL    HW238088   2.456   1.849   7.881 -0.0450 -0.5995 -1.6199
 8818SOL     OW38089   2.200   0.397   4.273  0.4735 -0.2080  0.2506
 8818SOL    HW138090   2.244   0.345   4.341 -3.4212 -2.9504  0.6906
 8818SOL    HW238091   2.142   0.328   4.238  0.1394  0.1912  0.0200
 8819SOL     OW38092   1.434   2.307   3.986  0.2634  0.5379 -0.3397
 8819SOL    HW138093   1.446   2.263   4.070 -1.6460 -0.8727 -0.7822
 8819SOL    HW238094   1.515   2.358   3.987  0.3509  0.4223 -1.2339
 8820SOL     OW38095   0.130   0.729   3.417 -0.5267 -0.1296  0.1658
 8820SOL    HW138096   0.106   0.636   3.419 -0.9813 -0.0269 -0.6918
 8820SOL    HW238097   0.047   0.768   3.447 -0.2426  0.7365 -0.1803
 8821SOL     OW38098   3.026   4.460   0.175  0.2332 -0.3532 -0.5180
 8821SOL    HW138099   2.971   4.383   0.193 -0.7408  0.0442 -1.8246
 8821SOL    HW238100   2.969   4.495   0.107 -1.1567 -0.0728  0.8007
 8822SOL     OW38101   0.461   1.993  17.183 -0.3855  0.9009 -0.7908
 8822SOL    HW138102   0.402   2.045  17.129 -0.4302 -1.2926 -2.8262
 8822SOL    HW238103   0.493   2.048  17.255 -0.0640 -1.4575  0.8575
 8823SOL     OW38104   3.412   0.583   8.637  0.2121  0.8333  0.3267
 8823SOL    HW138105   3.486   0.580   8.698  1.7539  1.4968 -1.5062
 8823SOL    HW238106   3.393   0.677   8.643  2.9013  1.3961  0.3438
 8824SOL     OW38107   2.193   1.787   7.352 -0.4685 -0.3147  0.2400
 8824SOL    HW138108   2.114   1.833   7.323 -0.1216  0.0322 -0.1525
 8824SOL    HW238109   2.149   1.711   7.390 -0.6042 -0.7323 -0.7532
 8825SOL     OW38110   2.048   4.515  16.869 -0.0778  0.1919 -0.3754
 8825SOL    HW138111   2.114   4.513  16.939  0.1255  0.4872 -0.5623
 8825SOL    HW238112   2.033   4.421  16.860  2.1684 -0.3165  1.2614
 8826SOL     OW38113   4.380   3.137  15.102  0.0152 -0.1525 -0.5457
 8826SOL    HW138114   4.378   3.204  15.170 -0.7995 -1.0354  0.3040
 8826SOL    HW238115   4.472   3.138  15.074 -0.8254 -1.3808 -3.3960
 8827SOL     OW38116   2.355   0.217  13.043 -0.1710 -0.0115  1.1170
 8827SOL    HW138117   2.307   0.268  13.109 -3.0020  0.1745 -1.0772
 8827SOL    HW238118   2.416   0.186  13.110  1.4242  0.7997  0.0444
 8828SOL     OW38119   4.594   1.206   4.078  0.2578 -0.4593  0.2769
 8828SOL    HW138120   4.620   1.169   4.162 -0.2651 -1.2222  0.1094
 8828SOL    HW238121   4.645   1.166   4.008  2.1813 -0.9016  1.9483
 8829SOL     OW38122   4.169   4.049   1.953 -0.0755 -0.1239 -0.3934
 8829SOL    HW138123   4.090   4.102   1.962 -0.0688 -0.2787  0.5850
 8829SOL    HW238124   4.176   4.014   2.042  0.8677  2.1426  0.4592
 8830SOL     OW38125   4.693   0.798   5.061 -0.0147 -0.3793 -0.1838
 8830SOL    HW138126   0.032   0.785   5.002  0.0244  2.5363 -0.8060
 8830SOL    HW238127   4.682   0.893   5.054  1.6634 -0.3171 -1.7931
 8831SOL     OW38128   2.334   1.142   4.102 -0.2666  0.2967 -0.4198
 8831SOL    HW138129   2.301   1.132   4.191 -0.3548 -0.9268 -0.5793
 8831SOL    HW238130   2.347   1.236   4.095  0.4985  0.1005 -1.6549
 8832SOL     OW38131   2.781   1.779  14.603 -0.2101  0.3673  0.4976
 8832SOL    HW138132   2.793   1.710  14.668  1.9473  1.1212  0.8749
 8832SOL    HW238133   2.784   1.730  14.520 -0.8541  3.2361 -1.2224
 8833SOL     OW38134   1.605   0.238   6.962  0.2721  0.2615  0.3209
 8833SOL    HW138135   1.657   0.160   6.979 -0.0543  0.5915  2.8656
 8833SOL    HW238136   1.585   0.248   6.869  1.5409  1.0878  0.1381
 8834SOL     OW38137   4.705   2.400  15.457 -0.2313 -0.7689 -0.3882
 8834SOL    HW138138   0.061   2.374  15.475 -0.1746  1.6643  2.7397
 8834SOL    HW238139   4.694   2.486  15.498  2.1843 -0.6788  0.0565
 8835SOL     OW38140   4.601   2.285   1.779 -0.6493 -0.4909  0.2840
 8835SOL    HW138141   4.681   2.244   1.747 -1.4004  0.8916 -3.4466
 8835SOL    HW238142   4.554   2.209   1.814 -4.3454  2.0464  0.8465
 8836SOL     OW38143   3.995   4.256   6.678 -0.0970 -0.1116 -0.0293
 8836SOL    HW138144   3.959   4.341   6.702  0.8648  0.4120 -0.4629
 8836SOL    HW238145   4.049   4.288   6.607 -0.0622 -0.1722 -0.0303
 8837SOL     OW38146   1.364   1.220   3.067  0.2153 -0.1788  0.6570
 8837SOL    HW138147   1.397   1.269   3.143  0.6716 -0.2640  0.5152
 8837SOL    HW238148   1.363   1.275   2.989  1.4432  1.5215  1.8266
 8838SOL     OW38149   1.140   4.426   4.435  0.8880 -0.6929 -0.4258
 8838SOL    HW138150   1.231   4.455   4.438  1.5047 -2.8006  0.9306
 8838SOL    HW238151   1.097   4.509   4.415  3.0674  0.3412 -0.8139
 8839SOL     OW38152   2.826   4.714  12.781 -0.0660  0.1873  0.1605
 8839SOL    HW138153   2.886   0.005  12.711 -1.0820  0.2356 -0.6777
 8839SOL    HW238154   2.815   0.066  12.822 -1.5391 -0.2275  0.6140
 8840SOL     OW38155   0.829   2.438   2.672  0.1947  0.4317 -0.3917
 8840SOL    HW138156   0.797   2.361   2.717  0.9781 -0.5392 -1.4971
 8840SOL    HW238157   0.810   2.499   2.743  0.3424 -0.0756  0.0794
 8841SOL     OW38158   0.189   1.050  10.158 -0.0385  0.0432  0.4238
 8841SOL    HW138159   0.197   1.002  10.076 -1.4025  0.2271  0.1819
 8841SOL    HW238160   0.266   1.024  10.209  0.1037 -0.2753  0.0444
 8842SOL     OW38161   2.632   0.530   7.017 -0.0572  0.3070  0.0853
 8842SOL    HW138162   2.639   0.584   6.938  1.7692  1.7349  1.2177
 8842SOL    HW238163   2.698   0.464   6.999 -0.5783 -0.2490  0.2058
 8843SOL     OW38164   2.616   1.424   2.043 -0.0244 -0.2032 -0.7041
 8843SOL    HW138165   2.589   1.405   1.953  1.1554  1.4784 -1.4201
 8843SOL    HW238166   2.551   1.378   2.097  0.3544  0.4793  0.3404
 8844SOL     OW38167   1.953   4.050   0.223 -0.1146  0.0485 -0.3558
 8844SOL    HW138168   1.930   4.040   0.131 -1.5833 -1.9774  0.2518
 8844SOL    HW238169   1.952   3.956   0.243 -0.3959 -0.2019 -1.5341
 8845SOL     OW38170   0.327   3.262  14.656 -0.4074 -0.1180 -0.2184
 8845SOL    HW138171   0.362   3.270  14.745 -0.7619 -0.5197 -0.0382
 8845SOL    HW238172   0.400   3.279  14.597 -2.4455  2.2572 -2.0729
 8846SOL     OW38173   3.576   3.248   5.960  0.0944  0.1862  0.0485
 8846SOL    HW138174   3.508   3.212   6.016  2.7701 -3.5862  0.8955
 8846SOL    HW238175   3.549   3.338   5.944  0.8834  0.2717 -0.8465
 8847SOL     OW38176   1.568   1.807   5.186  0.8656 -0.2547 -0.3859
 8847SOL    HW138177   1.633   1.739   5.204 -0.2356 -0.8432  1.4184
 8847SOL    HW238178   1.496   1.755   5.150 -0.4287  1.4072 -0.1647
 8848SOL     OW38179   3.284   3.467  15.604 -0.1141 -0.4029 -0.7256
 8848SOL    HW138180   3.214   3.407  15.630  1.0917 -1.0346  1.1557
 8848SOL    HW238181   3.267   3.537  15.667  1.2197  0.0978 -0.9091
 8849SOL     OW38182   4.141   1.791   5.343  0.2135  0.5588 -0.4252
 8849SOL    HW138183   4.090   1.851   5.288 -0.6261  1.0590  0.9020
 8849SOL    HW238184   4.088   1.729   5.394  1.7912 -2.5264 -2.5583
 8850SOL     OW38185   0.433   4.689   9.765  0.1420 -0.9709 -0.3715
 8850SOL    HW138186   0.467   4.604   9.738  0.3198 -1.3642  1.0667
 8850SOL    HW238187   0.423   4.667   9.858 -0.9602 -0.0379 -0.2754
 8851SOL     OW38188   4.044   3.617   4.266 -0.4791 -0.0971  0.0891
 8851SOL    HW138189   3.964   3.569   4.243  0.1698 -0.3882 -1.5184
 8851SOL    HW238190   4.108   3.549   4.286  0.4030  0.9971  0.9692
 8852SOL     OW38191   3.674   3.677   2.109 -0.0456  0.6392 -0.1098
 8852SOL    HW138192   3.732   3.734   2.058  0.2780 -1.2655 -1.8755
 8852SOL    HW238193   3.724   3.681   2.190 -2.5319  1.4803  1.3950
 8853SOL     OW38194   4.571   2.075   8.134  0.1545  0.6102  0.2621
 8853SOL    HW138195   4.476   2.076   8.130  0.2019  0.0969 -0.8662
 8853SOL    HW238196   4.591   2.131   8.210 -0.4842  0.0406  0.8402
 8854SOL     OW38197   2.646   3.396   6.938 -0.3426  0.0666 -0.3773
 8854SOL    HW138198   2.711   3.451   6.894 -0.4630  0.4795 -0.0480
 8854SOL    HW238199   2.695   3.340   6.999 -0.6559  3.3090  2.8928
 8855SOL     OW38200   0.424   2.966   5.448  0.1267 -0.0923 -0.3847
 8855SOL    HW138201   0.476   2.898   5.404  0.4188  0.0782 -0.2994
 8855SOL    HW238202   0.460   2.951   5.535 -0.3831 -2.4956 -0.5779
 8856SOL     OW38203   3.910   3.877   1.795  0.4234  0.1039 -0.4450
 8856SOL    HW138204   3.844   3.862   1.863 -1.2168 -0.8178 -2.2425
 8856SOL    HW238205   3.984   3.820   1.816  1.0734  1.5488  1.0935
 8857SOL     OW38206   1.650   1.267  12.274 -0.2270  0.1166 -0.2858
 8857SOL    HW138207   1.623   1.358  12.287  2.0560  0.5968  1.0309
 8857SOL    HW238208   1.674   1.257  12.182 -1.1820  1.7184 -0.7102
 8858SOL     OW38209   1.492   0.297   6.720 -0.0504  0.3744 -0.3788
 8858SOL    HW138210   1.415   0.336   6.680  0.2525 -0.9406 -2.2451
 8858SOL    HW238211   1.512   0.227   6.659  2.8017  1.3493 -0.5917
 8859SOL     OW38212   2.911   0.745   9.543  0.4814  0.0267  0.2198
 8859SOL    HW138213   2.880   0.785   9.625  0.0306  0.5510 -0.2123
 8859SOL    HW238214   3.006   0.742   9.556  0.3779 -1.6351  0.6410
 8860SOL     OW38215   1.666   3.705   3.090 -0.1163 -0.5445  0.1094
 8860SOL    HW138216   1.695   3.731   3.003  1.2218  0.7628  0.9585
 8860SOL    HW238217   1.684   3.611   3.101 -2.6712 -1.3514 -2.3627
 8861SOL     OW38218   2.739   1.148   0.990  0.2505 -0.6230  0.1739
 8861SOL    HW138219   2.737   1.057   1.020 -0.8356 -1.0139 -1.1052
 8861SOL    HW238220   2.645   1.155   0.973  0.2575  0.5838  0.6064
 8862SOL     OW38221   0.906   4.354   5.055 -0.3720 -0.3734  0.5359
 8862SOL    HW138222   0.953   4.388   4.980  0.0292  2.4083  2.0703
 8862SOL    HW238223   0.837   4.419   5.068 -0.8782 -0.3265 -2.3992
 8863SOL     OW38224   3.753   2.436   3.458  0.3421  0.7561  0.2925
 8863SOL    HW138225   3.682   2.497   3.478  0.9612  0.7827  2.4146
 8863SOL    HW238226   3.775   2.469   3.371 -1.1852  0.5155 -0.1704
 8864SOL     OW38227   4.341   0.770  15.006 -0.5199  0.2870  0.0672
 8864SOL    HW138228   4.302   0.831  15.070  2.1406  0.9845  1.0110
 8864SOL    HW238229   4.406   0.728  15.062 -0.1473  1.7114  0.7031
 8865SOL     OW38230   2.271   0.854  14.923  0.0366 -0.2524  0.2242
 8865SOL    HW138231   2.356   0.891  14.946  0.4509 -0.2162 -1.4083
 8865SOL    HW238232   2.265   0.773  14.974  1.4338 -0.8631 -0.6059
 8866SOL     OW38233   2.575   0.107   2.663  0.1636 -0.0546 -0.6991
 8866SOL    HW138234   2.564   0.020   2.626  0.3573 -0.6431  0.6266
 8866SOL    HW238235   2.564   0.160   2.584 -1.5404  1.4603  0.5446
 8867SOL     OW38236   2.730   1.728   8.335  0.1960 -0.4759 -0.0941
 8867SOL    HW138237   2.711   1.809   8.383  1.6786 -0.2687  0.1425
 8867SOL    HW238238   2.686   1.663   8.390  0.5636  0.0224  0.7948
 8868SOL     OW38239   0.215   0.798   9.104 -0.1529  0.1804  0.0880
 8868SOL    HW138240   0.183   0.880   9.140  1.8082  0.3359  1.4661
 8868SOL    HW238241   0.139   0.760   9.060  0.9698 -1.1795 -0.6989
 8869SOL     OW38242   4.481   2.963   4.632 -0.1269  0.2500  0.3458
 8869SOL    HW138243   4.387   2.981   4.624 -0.6013 -2.1366  0.6368
 8869SOL    HW238244   4.493   2.986   4.724 -1.2582  1.0013  0.2996
 8870SOL     OW38245   0.593   4.374  15.805 -0.0260 -0.0328  0.2574
 8870SOL    HW138246   0.652   4.354  15.732  0.5007  2.8898 -0.1053
 8870SOL    HW238247   0.511   4.370  15.756 -0.8414  0.6349  1.5671
 8871SOL     OW38248   2.506   2.887  16.662 -0.4905 -0.3902 -0.2973
 8871SOL    HW138249   2.589   2.864  16.704  0.0505  0.0173 -1.1170
 8871SOL    HW238250   2.458   2.815  16.703 -0.4601 -1.8296 -2.7647
 8872SOL     OW38251   2.460   3.221  17.105 -0.6951  0.8753 -0.2086
 8872SOL    HW138252   2.396   3.149  17.106  0.8570 -0.4889  1.2485
 8872SOL    HW238253   2.490   3.201  17.194 -1.8852  1.1993  0.2762
 8873SOL     OW38254   1.163   2.221   1.901 -0.5368  0.4755  0.1713
 8873SOL    HW138255   1.196   2.294   1.953  0.8223  0.5147 -0.7531
 8873SOL    HW238256   1.069   2.219   1.920 -0.3539 -1.5747  0.9420
 8874SOL     OW38257   0.335   2.507  10.813  0.2741 -0.0452 -0.0661
 8874SOL    HW138258   0.370   2.573  10.874  1.2867 -0.5897 -0.0686
 8874SOL    HW238259   0.330   2.551  10.728  0.6120 -3.3315 -1.7574
 8875SOL     OW38260   3.635   2.596   4.511  0.2086  0.1032  0.0740
 8875SOL    HW138261   3.590   2.546   4.579  0.8484  0.0506  0.4644
 8875SOL    HW238262   3.724   2.570   4.535  0.3395 -1.2430 -1.8727
 8876SOL     OW38263   2.927   1.266  14.713 -0.3770  0.4679  0.2199
 8876SOL    HW138264   2.937   1.358  14.690  0.6637  0.2098 -0.3557
 8876SOL    HW238265   2.928   1.223  14.628  1.1485  1.5605 -0.3174
 8877SOL     OW38266   3.037   1.899   6.543 -0.4702  0.4339 -0.0087
 8877SOL    HW138267   2.999   1.984   6.564  0.0660  0.1399  2.0879
 8877SOL    HW238268   3.047   1.902   6.447 -0.7251 -2.0804 -0.1347
 8878SOL     OW38269   1.631   2.582   0.604  0.0794  0.0086  0.5771
 8878SOL    HW138270   1.593   2.551   0.686  0.5522 -1.5510  0.2001
 8878SOL    HW238271   1.628   2.497   0.560 -0.7637  0.2641  0.1280
 8879SOL     OW38272   1.394   4.002   4.497 -0.2858 -0.4061  0.0374
 8879SOL    HW138273   1.449   3.950   4.556  0.8953  2.0261  1.0495
 8879SOL    HW238274   1.457   4.018   4.426  0.3712  3.3194  1.4795
 8880SOL     OW38275   0.757   3.142   1.619 -0.5453  0.0513 -0.2832
 8880SOL    HW138276   0.673   3.176   1.587 -0.5507  0.5721  0.2846
 8880SOL    HW238277   0.813   3.162   1.544 -0.4789  0.2421 -0.1819
 8881SOL     OW38278   1.499   1.407   5.327  0.4165  0.0942  0.1602
 8881SOL    HW138279   1.570   1.349   5.299 -1.0562 -2.2013  1.2555
 8881SOL    HW238280   1.542   1.467   5.388 -0.0862  0.4213  0.1972
 8882SOL     OW38281   4.355   2.216  17.242 -0.6758  0.2919  0.5022
 8882SOL    HW138282   4.272   2.211  17.195 -0.3026  0.1569 -0.1555
 8882SOL    HW238283   4.322   2.286  17.297 -0.3835  1.5748 -0.9603
 8883SOL     OW38284   0.949   0.447   2.579  0.2650 -0.1219  0.0988
 8883SOL    HW138285   1.034   0.433   2.620  0.7695  2.4219 -0.0540
 8883SOL    HW238286   0.906   0.495   2.649  0.0456 -1.4268  0.8609
 8884SOL     OW38287   1.051   2.141   2.692 -0.3143  0.1119  0.0165
 8884SOL    HW138288   1.078   2.049   2.691  2.9814  1.0728 -0.5859
 8884SOL    HW238289   1.132   2.192   2.704 -0.5779  1.0616 -2.2342
 8885SOL     OW38290   0.880   2.787  15.635  0.5044 -0.5104 -0.6955
 8885SOL    HW138291   0.915   2.874  15.655  0.6546 -1.0089  1.2633
 8885SOL    HW238292   0.960   2.743  15.605 -0.6626 -2.0873 -1.4966
 8886SOL     OW38293   1.276   0.043   1.444  0.6171  0.2071  0.3087
 8886SOL    HW138294   1.253   0.065   1.354 -0.1056 -1.3673  0.1103
 8886SOL    HW238295   1.312   0.126   1.477  1.7604 -0.9813  2.0603
 8887SOL     OW38296   1.032   1.544   6.932 -0.3042 -0.3681  0.6927
 8887SOL    HW138297   0.936   1.545   6.938 -0.4054 -1.3733 -0.7239
 8887SOL    HW238298   1.058   1.630   6.899 -0.2651 -0.5365  0.2848
 8888SOL     OW38299   4.668   1.079   5.076  0.2040  0.2716 -0.1725
 8888SOL    HW138300   4.668   1.152   5.014 -1.6992  0.0152 -0.4682
 8888SOL    HW238301   4.612   1.105   5.150  0.5683 -0.3215  0.3198
 8889SOL     OW38302   1.688   1.296   4.771  0.0470  0.0976 -0.4308
 8889SOL    HW138303   1.633   1.267   4.844  0.4026  0.5976  0.0289
 8889SOL    HW238304   1.768   1.314   4.820 -0.3272 -0.4506  0.3935
 8890SOL     OW38305   1.068   2.599   6.331 -0.1514 -0.5727 -0.2511
 8890SOL    HW138306   1.141   2.568   6.277 -0.4161 -1.6035 -0.0153
 8890SOL    HW238307   1.109   2.569   6.412 -0.7412 -1.3283 -0.2437
 8891SOL     OW38308   2.912   1.839   4.995 -0.3552  0.0739 -0.2421
 8891SOL    HW138309   2.955   1.758   4.969  0.6413  0.8163 -0.9021
 8891SOL    HW238310   2.909   1.820   5.089 -0.5781  1.7590  0.0990
 8892SOL     OW38311   4.399   2.977   0.416  0.0438  0.2677 -0.0664
 8892SOL    HW138312   4.325   2.917   0.410 -0.0772  0.3788  0.3190
 8892SOL    HW238313   4.467   2.923   0.375 -0.7344  0.2557 -1.3632
 8893SOL     OW38314   3.371   0.416   5.165 -0.0649  0.0086  0.0152
 8893SOL    HW138315   3.381   0.485   5.099 -0.8734  1.4296  1.3847
 8893SOL    HW238316   3.393   0.349   5.100  0.3345  0.5743 -0.4379
 8894SOL     OW38317   4.039   1.829  16.647  0.9447  0.1581  0.2175
 8894SOL    HW138318   4.060   1.780  16.726 -1.4929 -1.5626 -0.2201
 8894SOL    HW238319   3.951   1.799  16.627  0.8261 -2.4484  4.8464
 8895SOL     OW38320   3.364   1.784  12.472 -0.2343  0.0762 -0.6502
 8895SOL    HW138321   3.370   1.863  12.418  0.2972  0.1880 -0.4288
 8895SOL    HW238322   3.444   1.742  12.442 -1.2666 -1.5849 -1.0874
 8896SOL     OW38323   1.196   4.240   5.083  0.6121 -0.4244  0.5063
 8896SOL    HW138324   1.102   4.247   5.065  0.1258  1.4062  3.6574
 8896SOL    HW238325   1.191   4.153   5.123 -2.1193  0.0057  1.1338
 8897SOL     OW38326   1.452   1.128   8.227  0.1249  0.4391 -0.1176
 8897SOL    HW138327   1.487   1.167   8.307  1.1251  0.1940 -0.4411
 8897SOL    HW238328   1.485   1.039   8.243 -0.6376 -0.2471 -2.3579
 8898SOL     OW38329   3.901   2.296   2.674  0.2949 -0.1956  0.4720
 8898SOL    HW138330   3.912   2.369   2.734  1.7468  0.0793 -0.1299
 8898SOL    HW238331   3.821   2.266   2.716  0.2399  0.5707  0.9133
 8899SOL     OW38332   3.937   4.284   7.105 -0.4387  0.2292 -0.3407
 8899SOL    HW138333   3.921   4.374   7.132  0.1457  0.3672 -0.4560
 8899SOL    HW238334   3.855   4.259   7.062  0.5641 -1.5773 -1.2487
 8900SOL     OW38335   1.495   0.959  17.394 -0.2027  0.3287  0.0041
 8900SOL    HW138336   1.405   0.977  17.368 -0.1124  1.3237  0.3963
 8900SOL    HW238337   1.537   0.973  17.310 -0.0361 -1.0084 -0.1303
 8901SOL     OW38338   4.487   0.738  15.231  0.5141  0.4053  0.1668
 8901SOL    HW138339   4.580   0.746  15.209 -0.5855 -0.4149 -4.6508
 8901SOL    HW238340   4.483   0.785  15.315 -0.6317  0.3106  0.1680
 8902SOL     OW38341   0.329   0.753   7.782 -0.1665 -0.4894  0.0250
 8902SOL    HW138342   0.326   0.717   7.870 -2.2097 -2.8141 -0.9922
 8902SOL    HW238343   0.294   0.677   7.735 -3.6526  0.3483  1.3072
 8903SOL     OW38344   4.379   3.654  15.502  0.1042 -0.2476 -0.0124
 8903SOL    HW138345   4.311   3.665  15.569 -1.4895 -0.6533 -1.5662
 8903SOL    HW238346   4.457   3.647  15.556 -0.5621 -0.4345  0.9258
 8904SOL     OW38347   2.258   2.092   8.588  0.6005 -0.2063 -0.0280
 8904SOL    HW138348   2.302   2.017   8.547 -1.2493 -1.6421  0.6119
 8904SOL    HW238349   2.235   2.048   8.670 -1.1814  1.6528  0.4556
 8905SOL     OW38350   2.001   1.394   5.697  0.1651  0.0815  0.3130
 8905SOL    HW138351   2.023   1.485   5.718  1.2803 -0.0022 -0.4638
 8905SOL    HW238352   2.031   1.354   5.778  0.0231  0.3223  0.4853
 8906SOL     OW38353   0.820   1.137   6.710  0.3948 -0.2704 -0.2904
 8906SOL    HW138354   0.795   1.087   6.631  2.4470  2.5304 -2.6967
 8906SOL    HW238355   0.788   1.225   6.689  0.7631  0.2609  1.4282
 8907SOL     OW38356   2.652   1.774   3.475 -0.2455 -0.4894  0.5186
 8907SOL    HW138357   2.630   1.687   3.508 -2.9981  1.3009  3.4014
 8907SOL    HW238358   2.657   1.820   3.558 -0.4218 -0.2826  0.4140
 8908SOL     OW38359   2.081   1.284   4.650 -0.4805  0.0759 -0.0761
 8908SOL    HW138360   2.089   1.373   4.685 -0.5148 -0.3477  1.0005
 8908SOL    HW238361   2.164   1.254   4.687  0.0202  0.1099 -1.1717
 8909SOL     OW38362   0.466   4.630  11.183 -0.2455 -0.4575 -0.0550
 8909SOL    HW138363   0.373   4.644  11.203 -0.2900  1.0660 -1.2587
 8909SOL    HW238364   0.508   4.611  11.267  2.0271  2.7757 -0.4356
 8910SOL     OW38365   3.935   2.961  15.297 -0.2863  0.1822  0.0744
 8910SOL    HW138366   4.024   2.991  15.280 -0.2248  1.1277  2.0322
 8910SOL    HW238367   3.932   2.867  15.281  0.5587  0.1428  0.1359
 8911SOL     OW38368   2.119   3.973  17.168  0.3550 -0.6283 -0.1459
 8911SOL    HW138369   2.116   3.917  17.091 -0.7729 -0.6993 -0.0484
 8911SOL    HW238370   2.212   3.967  17.192  0.5171  2.0654 -0.0098
 8912SOL     OW38371   0.515   1.877   2.620 -0.2127  0.6455 -0.0072
 8912SOL    HW138372   0.586   1.940   2.606  0.0319  0.3700 -0.0127
 8912SOL    HW238373   0.549   1.792   2.592 -0.5205  0.0033  1.5554
 8913SOL     OW38374   1.140   1.653   6.603  0.0827 -0.6570 -0.1333
 8913SOL    HW138375   1.234   1.668   6.591  0.3885 -1.3193  1.3885
 8913SOL    HW238376   1.118   1.713   6.674  2.2469  0.2008 -0.1930
 8914SOL     OW38377   1.761   2.686  15.965 -0.7427 -0.6420  0.1899
 8914SOL    HW138378   1.714   2.745  15.906  2.8152  0.0128 -1.9795
 8914SOL    HW238379   1.787   2.757  16.023  2.5091 -1.5637 -0.1377
 8915SOL     OW38380   0.331   3.121   8.543 -0.4241  0.1162 -0.5252
 8915SOL    HW138381   0.323   3.026   8.537  2.6363 -0.2505  1.5673
 8915SOL    HW238382   0.275   3.151   8.471 -1.1624 -2.6115 -1.0716
 8916SOL     OW38383   3.389   1.234   7.473  0.1232 -0.2977  0.0935
 8916SOL    HW138384   3.453   1.192   7.416 -0.4104  1.0060 -1.4676
 8916SOL    HW238385   3.309   1.189   7.447 -1.4135  1.7963  1.2478
 8917SOL     OW38386   2.925   2.061  17.508 -0.4765 -0.8718 -0.2420
 8917SOL    HW138387   2.874   2.098  17.435  0.9208 -2.0937 -1.8289
 8917SOL    HW238388   2.973   1.988  17.468  0.0496 -0.0953 -1.0192
 8918SOL     OW38389   1.447   0.591   8.200 -0.3134 -0.0439  0.3310
 8918SOL    HW138390   1.419   0.588   8.292 -1.6379  0.8570 -0.0382
 8918SOL    HW238391   1.523   0.532   8.204 -0.1884  0.0744 -0.2701
 8919SOL     OW38392   0.443   1.564   5.354  1.0934 -0.1073 -0.0452
 8919SOL    HW138393   0.460   1.490   5.297  0.7816 -0.5018  0.3784
 8919SOL    HW238394   0.468   1.531   5.440 -3.0010 -2.8924  0.0489
 8920SOL     OW38395   3.120   3.130  12.895  0.5856 -0.3042 -0.0211
 8920SOL    HW138396   3.169   3.179  12.829  0.3459  1.7226  1.3060
 8920SOL    HW238397   3.030   3.136  12.864  0.5882  0.2614  0.0837
 8921SOL     OW38398   4.711   2.206   7.334 -0.0667 -0.3499 -0.0946
 8921SOL    HW138399   4.732   2.253   7.415 -0.2492 -0.8856  0.2619
 8921SOL    HW238400   0.063   2.197   7.294  0.4369  0.2570  0.8404
 8922SOL     OW38401   2.870   0.496  16.690  0.0910  0.6067 -0.1179
 8922SOL    HW138402   2.825   0.451  16.762  0.3372 -0.2764 -0.5174
 8922SOL    HW238403   2.939   0.434  16.667  0.2986  0.8266 -0.0977
 8923SOL     OW38404   2.319   0.218   1.832 -0.2394 -0.2984 -0.3064
 8923SOL    HW138405   2.266   0.210   1.753  1.3034  1.2427 -1.4884
 8923SOL    HW238406   2.392   0.160   1.813 -0.0203  0.0545 -0.5410
 8924SOL     OW38407   2.539   4.648   3.667 -0.1140  0.5974  0.3294
 8924SOL    HW138408   2.452   4.621   3.640 -0.3422  1.6502  0.0222
 8924SOL    HW238409   2.519   4.732   3.708 -0.2590  0.3489  0.7668
 8925SOL     OW38410   4.603   2.163   2.487 -0.5926 -0.0386 -0.5189
 8925SOL    HW138411   4.592   2.173   2.582  0.2324  2.0510 -0.6583
 8925SOL    HW238412   4.698   2.162   2.475 -0.5440 -2.3364  0.0420
 8926SOL     OW38413   2.685   1.879   1.980  0.0906 -0.6594 -0.3266
 8926SOL    HW138414   2.745   1.938   1.935 -0.4027  0.6043  0.6657
 8926SOL    HW238415   2.689   1.793   1.939 -1.1590 -0.4125 -0.9880
 8927SOL     OW38416   3.331   3.417   6.226 -0.3724 -0.0576  0.4205
 8927SOL    HW138417   3.364   3.416   6.315  1.8625 -0.0242 -0.4121
 8927SOL    HW238418   3.381   3.345   6.186 -1.0241  0.3487 -1.1316
 8928SOL     OW38419   1.151   2.658  11.887  0.0129  0.1172  0.1419
 8928SOL    HW138420   1.215   2.688  11.952 -0.2472 -1.2980  1.0301
 8928SOL    HW238421   1.064   2.672  11.923  0.4111 -4.3481  2.7251
 8929SOL     OW38422   4.367   0.756   1.177 -0.4543  0.3313 -0.3989
 8929SOL    HW138423   4.357   0.762   1.082 -0.1466  0.0153 -0.4477
 8929SOL    HW238424   4.462   0.746   1.180 -0.4695  0.6152  0.8478
 8930SOL     OW38425   1.546   1.846   0.371 -0.3543 -0.0699 -0.4278
 8930SOL    HW138426   1.561   1.893   0.289 -1.8402  1.2158  0.0234
 8930SOL    HW238427   1.560   1.914   0.437 -2.3518 -1.6416  1.6187
 8931SOL     OW38428   0.404   0.167   5.155  0.4112  0.0563 -0.1605
 8931SOL    HW138429   0.481   0.209   5.193 -0.5368  1.0551  0.6383
 8931SOL    HW238430   0.418   0.077   5.186  0.8914  0.1611 -0.0749
 8932SOL     OW38431   0.857   2.068   5.599  0.1208 -0.2060 -0.1043
 8932SOL    HW138432   0.927   2.051   5.536 -0.5728 -0.3737 -0.8282
 8932SOL    HW238433   0.810   2.125   5.539  0.3686  0.6204  0.4747
 8933SOL     OW38434   1.842   0.661  10.132 -0.2872  0.1270 -0.0939
 8933SOL    HW138435   1.903   0.676  10.205 -0.8227  1.3741  0.0885
 8933SOL    HW238436   1.783   0.735  10.127  0.9330  1.1420  0.6282
 8934SOL     OW38437   2.562   1.004   2.380  0.6401  0.1202  0.1089
 8934SOL    HW138438   2.584   0.926   2.431 -0.3124  1.5408  2.7019
 8934SOL    HW238439   2.498   1.048   2.436 -1.2499 -1.3448 -0.9163
 8935SOL     OW38440   3.495   2.854   8.872 -0.1505 -0.0590 -0.2428
 8935SOL    HW138441   3.430   2.816   8.931  0.8622 -3.0264 -1.0520
 8935SOL    HW238442   3.438   2.898   8.809 -0.6663 -0.0216  0.2490
 8936SOL     OW38443   3.410   1.846   5.772 -0.3069  0.4693  0.1816
 8936SOL    HW138444   3.355   1.801   5.708 -0.4418  1.3973 -0.3500
 8936SOL    HW238445   3.402   1.939   5.752 -1.0812  1.0768  3.3587
 8937SOL     OW38446   0.257   1.617  13.931  0.2843 -1.4896 -0.3959
 8937SOL    HW138447   0.251   1.534  13.884 -0.4334 -2.2297  0.9940
 8937SOL    HW238448   0.261   1.591  14.023 -2.1432  1.0212  0.4388
 8938SOL     OW38449   1.579   2.183   2.553  0.2208  0.0217  0.0627
 8938SOL    HW138450   1.576   2.162   2.460 -0.7141 -0.7796  0.2799
 8938SOL    HW238451   1.657   2.240   2.552  0.6422 -0.5484  0.4541
 8939SOL     OW38452   2.691   2.011   8.390 -0.2424  0.2678 -0.1698
 8939SOL    HW138453   2.700   2.033   8.297  0.4480 -1.2097 -0.4500
 8939SOL    HW238454   2.708   2.097   8.429 -0.2777  0.1871  0.0217
 8940SOL     OW38455   3.942   1.548   1.005 -0.4358  0.7228 -0.1488
 8940SOL    HW138456   3.886   1.509   1.072  1.6148 -0.2260  1.0127
 8940SOL    HW238457   3.991   1.473   0.971 -0.8131  0.3346  0.1784
 8941SOL     OW38458   2.528   3.344   4.460 -0.4564  0.0577  0.2255
 8941SOL    HW138459   2.584   3.421   4.463  1.0144 -0.9939  0.1761
 8941SOL    HW238460   2.439   3.378   4.453 -0.6733 -0.5334  0.1194
 8942SOL     OW38461   1.192   4.264  10.873  0.7268 -0.0536 -0.3726
 8942SOL    HW138462   1.201   4.354  10.903  0.8507 -0.2427  0.1716
 8942SOL    HW238463   1.283   4.235  10.865  1.3264  0.9584  2.7738
 8943SOL     OW38464   4.131   2.364  15.425  0.6564 -0.3723 -0.1703
 8943SOL    HW138465   4.111   2.275  15.454  1.5742 -0.3173  0.6213
 8943SOL    HW238466   4.082   2.370  15.343  0.2620  1.6634  0.2171
 8944SOL     OW38467   2.304   2.134  11.037  0.5899 -0.0635  0.1960
 8944SOL    HW138468   2.315   2.125  10.942  1.7359 -3.3470  0.6195
 8944SOL    HW238469   2.216   2.171  11.043  0.5137 -0.3454  0.7571
 8945SOL     OW38470   0.441   0.686  17.535  0.0165 -0.5454 -0.0772
 8945SOL    HW138471   0.346   0.688  17.523 -0.2069  2.8609  2.0565
 8945SOL    HW238472   0.445   0.636  17.617 -1.1361 -0.8291 -0.2022
 8946SOL     OW38473   4.023   4.674  14.587 -0.2274 -0.4935  0.1381
 8946SOL    HW138474   3.976   4.711  14.512  2.2033 -1.7957 -2.0276
 8946SOL    HW238475   3.989   4.585  14.585  2.7299 -1.6427  0.6793
 8947SOL     OW38476   1.560   0.171  17.562  0.1352  0.3977  0.7976
 8947SOL    HW138477   1.517   0.094  17.599 -1.0457  0.7489  0.1312
 8947SOL    HW238478   1.484   0.222  17.534  0.6588  0.4390 -0.5522
 8948SOL     OW38479   4.390   3.919   6.717  0.3649  0.3021  0.4312
 8948SOL    HW138480   4.414   4.009   6.694  0.1930  0.0146 -0.8547
 8948SOL    HW238481   4.466   3.866   6.695  0.0236 -0.2686  0.6225
 8949SOL     OW38482   1.746   0.622   6.838 -0.1296 -0.2661 -0.3942
 8949SOL    HW138483   1.764   0.563   6.912  0.9690 -0.1029 -0.5257
 8949SOL    HW238484   1.800   0.700   6.850  0.6175 -1.3631  3.4664
 8950SOL     OW38485   0.083   4.442   0.954 -0.4419  0.0613  0.1369
 8950SOL    HW138486   0.020   4.486   1.010 -1.3414  0.2333 -1.0149
 8950SOL    HW238487   0.042   4.409   0.874 -1.6368 -0.9991  1.1860
 8951SOL     OW38488   1.674   4.723   6.824  0.6567 -0.2391  0.6199
 8951SOL    HW138489   1.583   4.696   6.842  1.1544 -1.6164  1.0732
 8951SOL    HW238490   1.666   0.052   6.753  0.3624 -1.5078 -0.4935
 8952SOL     OW38491   1.080   3.601   1.069 -0.3736  0.0654  0.0527
 8952SOL    HW138492   1.061   3.522   1.017 -1.3478  1.5101 -1.7865
 8952SOL    HW238493   1.009   3.651   1.029 -1.6070 -1.6143  0.1509
 8953SOL     OW38494   3.291   0.489   4.435 -0.2594 -0.4008 -0.1571
 8953SOL    HW138495   3.337   0.411   4.403 -0.9281  0.1969 -2.5388
 8953SOL    HW238496   3.260   0.533   4.356 -0.8554  1.7563  1.2981
 8954SOL     OW38497   2.238   1.633   1.707  0.0194 -0.8148 -0.1683
 8954SOL    HW138498   2.263   1.621   1.615 -0.4738 -0.7184 -0.3126
 8954SOL    HW238499   2.168   1.569   1.717  0.2068 -0.8995  0.5788
 8955SOL     OW38500   1.103   3.595   2.713  0.0266  0.3892 -1.0063
 8955SOL    HW138501   1.012   3.601   2.687 -0.1444 -2.2192 -0.9549
 8955SOL    HW238502   1.137   3.675   2.671 -0.2993 -0.1579 -2.3108
 8956SOL     OW38503   4.690   1.041   7.922  0.0254  0.6343 -0.3185
 8956SOL    HW138504   0.009   0.986   7.864 -1.3534 -2.2020  1.1233
 8956SOL    HW238505   4.618   1.076   7.869 -1.4999 -1.0021  0.7019
 8957SOL     OW38506   0.427   4.495  15.145  0.3231 -0.6403  0.4211
 8957SOL    HW138507   0.388   4.573  15.106 -0.7774 -0.2103  2.3549
 8957SOL    HW238508   0.421   4.437  15.069  2.0450  1.7438 -1.5229
 8958SOL     OW38509   3.760   4.730   0.572 -0.4836 -0.5044 -0.4074
 8958SOL    HW138510   3.743   0.006   0.478  1.3427  4.2419 -0.2093
 8958SOL    HW238511   3.832   4.668   0.562  0.7037  0.7797  0.3248
 8959SOL     OW38512   4.229   0.967  15.357  0.3322  0.1774 -0.3918
 8959SOL    HW138513   4.143   1.004  15.376 -1.2979 -2.2339 -3.0713
 8959SOL    HW238514   4.212   0.939  15.267 -1.3837  0.3655 -0.1281
 8960SOL     OW38515   3.494   4.295   2.832  0.3827 -0.6880  0.2482
 8960SOL    HW138516   3.461   4.352   2.762  0.5347 -1.7859 -0.7156
 8960SOL    HW238517   3.579   4.268   2.798 -1.1127 -2.7094 -1.8346
 8961SOL     OW38518   2.924   3.577   7.670 -0.2194 -0.0781  0.3298
 8961SOL    HW138519   2.906   3.516   7.599  0.0017  1.6011 -1.1812
 8961SOL    HW238520   2.959   3.513   7.732  1.6964  0.7521  0.0943
 8962SOL     OW38521   0.886   1.712   2.173  0.5835  0.1705  0.4663
 8962SOL    HW138522   0.854   1.631   2.133  1.6046 -0.1431  0.3007
 8962SOL    HW238523   0.815   1.737   2.232 -1.0432 -0.3275 -1.2539
 8963SOL     OW38524   4.723   2.385   4.915 -0.4955  0.5414 -0.3978
 8963SOL    HW138525   4.657   2.356   4.851 -0.2817  1.7093 -1.1564
 8963SOL    HW238526   0.016   2.303   4.954 -0.3140  0.2051 -1.2188
 8964SOL     OW38527   0.332   3.663   3.486 -0.2203  0.2412  0.0074
 8964SOL    HW138528   0.361   3.575   3.510  1.8470  0.5906 -1.2161
 8964SOL    HW238529   0.351   3.663   3.392  1.3080  0.8256  0.3214
 8965SOL     OW38530   3.323   4.594  13.441  0.4669  0.1338 -0.7937
 8965SOL    HW138531   3.380   4.521  13.417 -0.2712 -1.0867  1.1885
 8965SOL    HW238532   3.381   4.668  13.425 -0.8859  0.7342 -3.0033
 8966SOL     OW38533   1.190   1.284   3.462 -0.0043  0.1488 -0.4309
 8966SOL    HW138534   1.254   1.348   3.430  1.6426 -1.5563 -0.5466
 8966SOL    HW238535   1.127   1.286   3.390 -0.7685  0.2364  0.2508
 8967SOL     OW38536   3.144   0.233   6.050 -0.9320  0.2491 -0.1356
 8967SOL    HW138537   3.180   0.226   5.962 -0.9707  0.0192 -0.1329
 8967SOL    HW238538   3.206   0.167   6.081 -0.3492  0.6755 -0.4128
 8968SOL     OW38539   0.254   0.290   8.008  0.0970  0.2839  0.1221
 8968SOL    HW138540   0.273   0.198   8.024 -0.7337  0.0730 -0.0616
 8968SOL    HW238541   0.166   0.297   8.046 -0.0429 -3.2364  0.4101
 8969SOL     OW38542   4.628   4.266  14.839  0.0693 -0.2321  0.1056
 8969SOL    HW138543   4.630   4.352  14.796 -1.4367 -0.0940  0.3157
 8969SOL    HW238544   4.701   4.231  14.789 -0.6619  0.4360 -1.4484
 8970SOL     OW38545   0.479   1.185   6.108 -0.3364  0.1504  0.1769
 8970SOL    HW138546   0.399   1.179   6.160  1.1577  1.1670  2.5876
 8970SOL    HW238547   0.448   1.242   6.038  2.0920  2.0360  0.6509
 8971SOL     OW38548   4.496   4.221  12.227  0.1286  0.2674 -0.6712
 8971SOL    HW138549   4.590   4.226  12.214  0.4746 -0.8264  1.2450
 8971SOL    HW238550   4.480   4.129  12.252 -1.3583  0.5707 -0.5017
 8972SOL     OW38551   2.841   4.603   2.728 -0.1235  0.2883  0.4955
 8972SOL    HW138552   2.832   4.535   2.795  0.5478  0.1516  0.4460
 8972SOL    HW238553   2.854   4.554   2.648 -1.9958  0.5168  0.0466
 8973SOL     OW38554   3.451   0.978  11.510  0.6123  0.3505  0.1387
 8973SOL    HW138555   3.514   1.003  11.442  0.1080 -0.5513 -0.6488
 8973SOL    HW238556   3.390   0.926  11.458 -0.2395  0.4013  1.0946
 8974SOL     OW38557   2.781   4.211  10.209  0.2490 -0.1171 -0.0396
 8974SOL    HW138558   2.832   4.286  10.242  0.2498  0.6426 -1.7916
 8974SOL    HW238559   2.780   4.156  10.288  3.5726 -0.2377 -0.0776
 8975SOL     OW38560   3.779   0.813   7.060 -0.1852 -0.0887 -0.5429
 8975SOL    HW138561   3.786   0.761   7.140 -1.1470 -3.3917 -2.6148
 8975SOL    HW238562   3.686   0.826   7.042  0.4269 -0.2136 -3.7643
 8976SOL     OW38563   0.460   1.467   5.618 -0.2897 -0.0371 -0.8968
 8976SOL    HW138564   0.524   1.397   5.631 -1.7945 -1.5201 -1.3140
 8976SOL    HW238565   0.379   1.416   5.613  1.7767 -3.1934 -2.2571
 8977SOL     OW38566   4.551   0.373   5.000  0.5717 -0.2042  0.2027
 8977SOL    HW138567   4.535   0.301   4.939 -0.7071  0.6378 -0.4521
 8977SOL    HW238568   4.581   0.439   4.938  1.9570 -0.8768  0.1451
 8978SOL     OW38569   3.045   1.039   6.338  0.4667  0.1327  0.0464
 8978SOL    HW138570   3.111   0.997   6.284  0.9414 -0.3107  0.9679
 8978SOL    HW238571   2.969   0.987   6.309  0.6979 -0.5516  0.6412
 8979SOL     OW38572   3.115   3.954   7.646  0.4969  0.2939 -0.5675
 8979SOL    HW138573   3.050   3.887   7.667  1.3194 -0.4306 -0.3734
 8979SOL    HW238574   3.081   4.038   7.678 -1.0150  0.2149 -1.9902
 8980SOL     OW38575   0.536   3.922   7.127 -0.1523  0.0509 -0.0554
 8980SOL    HW138576   0.620   3.966   7.132 -0.7022  1.2379 -1.1829
 8980SOL    HW238577   0.544   3.848   7.187  0.8058  1.0904  1.0700
 8981SOL     OW38578   0.869   3.232   3.061  0.2844  0.2703 -0.2574
 8981SOL    HW138579   0.949   3.183   3.040 -0.1687 -0.0512 -1.2418
 8981SOL    HW238580   0.857   3.272   2.975 -1.8903  2.4060  1.0830
 8982SOL     OW38581   1.737   3.018   1.063 -0.1591 -0.6439  0.1537
 8982SOL    HW138582   1.779   2.940   1.100  1.8971  0.5056  0.2150
 8982SOL    HW238583   1.774   3.027   0.976 -1.0265  0.1072 -0.1428
 8983SOL     OW38584   1.332   4.360   2.164 -0.3472  0.1676  0.0228
 8983SOL    HW138585   1.302   4.278   2.201  0.9773 -0.3976 -0.1322
 8983SOL    HW238586   1.301   4.411   2.239  1.6763 -0.6123  1.3896
 8984SOL     OW38587   2.923   1.951   1.164 -0.5018 -0.0934 -0.3560
 8984SOL    HW138588   2.928   1.928   1.071  3.5927 -0.0550 -0.1456
 8984SOL    HW238589   2.927   1.863   1.202  0.9315 -0.5728 -1.6266
 8985SOL     OW38590   3.732   2.102   8.340  0.2177 -0.6224 -0.3629
 8985SOL    HW138591   3.782   2.083   8.260  2.5790 -0.9620  1.1853
 8985SOL    HW238592   3.698   2.186   8.311 -0.9425 -0.9813 -0.0366
 8986SOL     OW38593   2.227   4.464  11.958 -0.8653 -0.0456 -0.2409
 8986SOL    HW138594   2.210   4.421  12.042  3.4587  0.6011  0.9452
 8986SOL    HW238595   2.174   4.543  11.965 -0.6329  0.2223 -1.4802
 8987SOL     OW38596   0.763   4.345   8.505 -0.0680  0.3410  0.5788
 8987SOL    HW138597   0.670   4.341   8.525 -0.2808 -1.5045 -0.8888
 8987SOL    HW238598   0.811   4.338   8.588  0.7150  0.1194  0.1154
 8988SOL     OW38599   1.440   1.880   8.267  0.7672 -0.1453 -0.1208
 8988SOL    HW138600   1.437   1.860   8.173 -1.7998  1.0001 -0.3037
 8988SOL    HW238601   1.474   1.797   8.299 -3.4969 -2.0217 -0.4591
 8989SOL     OW38602   2.757   2.624   5.391 -0.3594  0.2828  0.0240
 8989SOL    HW138603   2.746   2.635   5.486 -1.0157 -0.4761  0.0347
 8989SOL    HW238604   2.672   2.589   5.364 -0.4070 -0.7937  1.5925
 8990SOL     OW38605   3.508   0.998   7.608 -0.5473  0.8141 -0.1827
 8990SOL    HW138606   3.540   0.971   7.693 -0.3350 -0.0791 -0.5493
 8990SOL    HW238607   3.421   1.030   7.633 -0.5696  1.3159 -0.8968
 8991SOL     OW38608   3.174   3.451   3.373  0.0983  0.1816 -0.2825
 8991SOL    HW138609   3.265   3.449   3.404  0.3852  2.3248 -0.9629
 8991SOL    HW238610   3.160   3.546   3.383  1.6387  0.3891  0.0135
 8992SOL     OW38611   3.440   2.311  11.630 -0.3964  0.1450  0.5828
 8992SOL    HW138612   3.404   2.279  11.548 -2.7634  2.9609  0.5036
 8992SOL    HW238613   3.411   2.402  11.625  0.6514  0.2981 -2.3858
 8993SOL     OW38614   4.317   0.965   7.606 -0.1749 -0.9358 -0.3160
 8993SOL    HW138615   4.384   1.028   7.634  0.2344 -0.9560 -1.2740
 8993SOL    HW238616   4.375   0.934   7.537  1.7949 -1.0651  1.3654
 8994SOL     OW38617   3.718   1.319  12.820  0.4861 -0.0853  0.4597
 8994SOL    HW138618   3.652   1.312  12.889 -0.2353  1.0810 -0.1144
 8994SOL    HW238619   3.783   1.375  12.862 -0.6885  1.8860 -0.3445
 8995SOL     OW38620   1.776   2.904   3.957  0.1163 -0.3420 -0.0817
 8995SOL    HW138621   1.857   2.947   3.929 -0.1863 -0.3432 -0.9480
 8995SOL    HW238622   1.727   2.901   3.875  0.6393  0.7128 -0.4318
 8996SOL     OW38623   1.284   3.017   0.929 -0.3636 -0.1794 -0.4592
 8996SOL    HW138624   1.321   3.084   0.987 -0.1482 -0.6851 -0.0112
 8996SOL    HW238625   1.304   2.935   0.974 -0.2644 -1.3110 -2.6040
 8997SOL     OW38626   3.360   2.189   6.081  0.0772 -0.0366  0.6306
 8997SOL    HW138627   3.453   2.198   6.063  0.6274  0.1305  3.5811
 8997SOL    HW238628   3.343   2.095   6.074 -2.1994  0.4959 -0.9016
 8998SOL     OW38629   0.502   4.626   5.245  0.1056 -0.3339  0.5646
 8998SOL    HW138630   0.545   4.637   5.329 -0.8602  0.5141  0.9319
 8998SOL    HW238631   0.419   4.590   5.277 -0.3142 -0.8307 -1.0606
 8999SOL     OW38632   0.929   0.259   1.422 -0.2367 -0.4253 -0.5424
 8999SOL    HW138633   0.843   0.300   1.414 -0.3492 -0.5237  0.1397
 8999SOL    HW238634   0.944   0.243   1.515  2.3497  0.0651 -0.8552
 9000SOL     OW38635   0.898   1.102   5.996  0.3091 -0.0194 -0.6750
 9000SOL    HW138636   0.830   1.114   6.062 -0.4191  1.0926 -1.6222
 9000SOL    HW238637   0.918   1.012   6.022  2.2918  0.0590 -1.9320
 9001SOL     OW38638   4.228   1.934   6.145 -0.0238 -0.0360 -0.2414
 9001SOL    HW138639   4.227   1.941   6.240 -0.4308  0.9292 -0.3200
 9001SOL    HW238640   4.135   1.930   6.126 -0.0489 -2.0978  0.3445
 9002SOL     OW38641   2.914   2.021  11.833  0.0873 -0.6777 -0.1230
 9002SOL    HW138642   2.852   1.963  11.788  0.7227 -1.1544 -0.3879
 9002SOL    HW238643   2.865   2.103  11.835  1.4616  0.1462 -0.2151
 9003SOL     OW38644   3.713   1.599   3.297  0.2265 -0.2985  0.6267
 9003SOL    HW138645   3.713   1.587   3.392 -2.3059  0.7335  0.7490
 9003SOL    HW238646   3.753   1.686   3.290  1.3731 -0.9652 -1.1109
 9004SOL     OW38647   3.167   3.994   3.158  0.5430 -0.2721  0.4684
 9004SOL    HW138648   3.196   4.027   3.243  2.8279  1.0579 -0.8353
 9004SOL    HW238649   3.097   3.929   3.169  1.7091 -1.4033  1.1067
 9005SOL     OW38650   3.740   2.174  11.803 -0.2617 -0.2401 -0.2003
 9005SOL    HW138651   3.794   2.182  11.881  0.8429  2.6556 -1.2357
 9005SOL    HW238652   3.677   2.107  11.827 -0.7700  0.1057 -0.5670
 9006SOL     OW38653   4.475   0.726   2.218 -0.1612  0.5001 -0.4407
 9006SOL    HW138654   4.407   0.794   2.216 -0.4404  0.2728  1.5502
 9006SOL    HW238655   4.421   0.653   2.249 -0.7336  0.9824 -0.2995
 9007SOL     OW38656   2.521   4.118  14.541 -0.0777  0.1832 -0.2143
 9007SOL    HW138657   2.598   4.165  14.508  0.4741 -0.0886  0.6735
 9007SOL    HW238658   2.481   4.084  14.461 -1.2852 -1.8791  1.2520
 9008SOL     OW38659   1.429   3.422  11.083 -0.7855 -0.2498 -0.4415
 9008SOL    HW138660   1.410   3.414  10.990 -0.0606 -1.1767 -0.5210
 9008SOL    HW238661   1.452   3.330  11.100  0.0595 -0.1429 -0.9949
 9009SOL     OW38662   2.788   0.855   4.830  0.1287  0.5706 -0.2053
 9009SOL    HW138663   2.757   0.946   4.834  0.1915  0.5452  0.9430
 9009SOL    HW238664   2.778   0.830   4.738  0.0623 -2.2756  0.5707
 9010SOL     OW38665   3.228   1.160  17.634 -0.2614  0.3887  0.7584
 9010SOL    HW138666   3.146   1.117  17.657 -0.5533 -0.0376 -1.0763
 9010SOL    HW238667   3.262   1.096  17.571 -0.6323  0.6803  0.2609
 9011SOL     OW38668   1.854   2.741   6.551  0.2884 -0.5068 -0.2129
 9011SOL    HW138669   1.819   2.720   6.637  0.0608 -3.8308 -1.1114
 9011SOL    HW238670   1.909   2.663   6.538  0.6960 -0.7601  3.1220
 9012SOL     OW38671   4.219   0.572   8.455 -0.1950 -0.2118  0.2581
 9012SOL    HW138672   4.256   0.540   8.374  0.3201 -0.8138  0.7376
 9012SOL    HW238673   4.171   0.650   8.425  0.9174  1.1101  1.8585
 9013SOL     OW38674   4.377   2.297   0.417 -0.4942  0.2479 -0.0957
 9013SOL    HW138675   4.410   2.350   0.346 -1.0423  2.5530  1.3751
 9013SOL    HW238676   4.455   2.241   0.424  0.5419  1.6902 -0.2458
 9014SOL     OW38677   2.947   0.413  13.777  0.5244  0.4199 -0.1057
 9014SOL    HW138678   3.003   0.417  13.700 -0.7715  2.1849 -0.9413
 9014SOL    HW238679   2.865   0.380  13.740  1.6047 -0.7773 -1.3926
 9015SOL     OW38680   2.604   1.510   2.512  0.3428  0.1772  0.0970
 9015SOL    HW138681   2.674   1.495   2.448  1.9404  0.6725  1.7210
 9015SOL    HW238682   2.572   1.421   2.529  0.3980  0.5508  2.1296
 9016SOL     OW38683   3.464   3.614  17.297 -0.1269 -0.4727  0.1469
 9016SOL    HW138684   3.549   3.574  17.282 -0.1460 -0.5927  0.3688
 9016SOL    HW238685   3.495   3.683  17.356 -0.8607 -3.2106  3.7251
 9017SOL     OW38686   0.958   3.944   4.274 -0.0702 -0.0910 -0.8858
 9017SOL    HW138687   1.002   4.024   4.247  0.8342  0.2920  1.7484
 9017SOL    HW238688   0.997   3.931   4.360  0.7400 -0.3740 -1.2934
 9018SOL     OW38689   4.571   3.138   8.703 -0.7387  0.0461  0.1944
 9018SOL    HW138690   4.655   3.170   8.734 -0.6989  0.5375 -0.4017
 9018SOL    HW238691   4.584   3.143   8.608 -0.0030 -1.5515  0.2243
 9019SOL     OW38692   1.349   2.170   7.057 -0.5957 -0.2565 -0.2436
 9019SOL    HW138693   1.268   2.156   7.106 -0.8337 -1.3468 -0.9384
 9019SOL    HW238694   1.414   2.141   7.121  2.6381  0.3012 -3.3342
 9020SOL     OW38695   0.831   4.447   1.435 -0.2545 -0.8018 -0.2028
 9020SOL    HW138696   0.800   4.537   1.423  0.5992 -0.3260  1.1301
 9020SOL    HW238697   0.845   4.441   1.530  1.5389  1.0012 -0.3452
 9021SOL     OW38698   1.228   2.868  12.558  0.3906  0.5450  0.7572
 9021SOL    HW138699   1.308   2.845  12.511 -0.4972 -1.8347  0.4230
 9021SOL    HW238700   1.276   2.917  12.625  2.5891 -1.0616  0.3570
 9022SOL     OW38701   2.391   1.858   7.522  0.1244 -0.1510  0.8663
 9022SOL    HW138702   2.358   1.806   7.595  0.6275 -0.3212  0.9752
 9022SOL    HW238703   2.324   1.852   7.454 -0.1511  2.0966  0.9603
 9023SOL     OW38704   2.085   4.132   4.267  0.2958  0.1985 -0.4302
 9023SOL    HW138705   2.178   4.134   4.289 -0.1963  2.3159  1.5129
 9023SOL    HW238706   2.047   4.172   4.346 -0.1793 -0.6270 -0.2374
 9024SOL     OW38707   4.047   3.243   9.437 -0.0140 -0.4362  0.3599
 9024SOL    HW138708   4.021   3.158   9.399  1.8043 -0.0442 -1.7879
 9024SOL    HW238709   4.136   3.243   9.401  0.4765 -1.0529  1.5701
 9025SOL     OW38710   1.425   2.977   6.536  0.3600  0.3769 -0.3562
 9025SOL    HW138711   1.509   2.933   6.526  0.8089  0.6990  2.2420
 9025SOL    HW238712   1.446   3.020   6.619 -0.3353  1.4669 -0.7473
 9026SOL     OW38713   2.324   3.834  16.473 -0.2619  0.2265 -0.1538
 9026SOL    HW138714   2.306   3.742  16.495 -0.2910  0.3689  0.3921
 9026SOL    HW238715   2.302   3.828  16.380 -1.5652 -1.1155  0.2312
 9027SOL     OW38716   0.913   2.125   5.853 -0.0400 -0.0100 -0.3885
 9027SOL    HW138717   0.932   2.218   5.841 -0.9117  0.0335 -1.3589
 9027SOL    HW238718   0.901   2.108   5.760 -1.6617  2.0167 -0.5363
 9028SOL     OW38719   4.645   4.068  11.915  0.3047  0.1909 -1.0179
 9028SOL    HW138720   4.590   4.004  11.870 -0.2599 -0.1889  0.2347
 9028SOL    HW238721   4.690   4.016  11.981  1.5645  2.4328 -0.1184
 9029SOL     OW38722   4.559   1.309   8.034 -0.2693 -0.3744 -0.1271
 9029SOL    HW138723   4.516   1.234   8.075 -0.6769 -0.8664 -1.4611
 9029SOL    HW238724   4.597   1.360   8.105  0.1876 -3.2775  1.7321
 9030SOL     OW38725   4.149   2.157   1.069 -0.0085 -0.1778  0.2517
 9030SOL    HW138726   4.164   2.071   1.107  0.6475 -1.0445 -1.9737
 9030SOL    HW238727   4.240   2.178   1.049 -0.1713 -1.1965 -1.5250
 9031SOL     OW38728   0.073   2.369   9.815  0.0796  0.3706  0.1395
 9031SOL    HW138729   0.080   2.360   9.720  2.4138  0.6292  0.2893
 9031SOL    HW238730   0.085   2.278   9.843  1.0886 -0.1865 -2.1243
 9032SOL     OW38731   2.166   4.653   9.310  0.0257 -0.1233  0.1022
 9032SOL    HW138732   2.085   4.698   9.286  0.1660  0.5982  1.0095
 9032SOL    HW238733   2.173   4.575   9.255  2.9888  0.4097 -0.2509
 9033SOL     OW38734   4.070   3.542  10.530 -0.2062  0.3933 -0.0818
 9033SOL    HW138735   3.988   3.517  10.486 -0.6209 -0.8951  1.3927
 9033SOL    HW238736   4.045   3.585  10.612 -0.4362  3.4588 -1.7751
 9034SOL     OW38737   1.980   1.693   5.731  0.3749 -0.3652  0.4079
 9034SOL    HW138738   2.066   1.720   5.697  0.7515 -1.3771  0.5620
 9034SOL    HW238739   1.939   1.779   5.730 -2.5179 -1.7707 -1.9353
 9035SOL     OW38740   0.249   0.711   1.147 -0.2911 -0.3473 -0.3846
 9035SOL    HW138741   0.313   0.706   1.218 -1.5520  1.2671  0.8519
 9035SOL    HW238742   0.274   0.640   1.088  0.9158  0.2590 -0.6163
 9036SOL     OW38743   3.526   1.153   6.848  0.7365  0.0638  0.1255
 9036SOL    HW138744   3.540   1.087   6.780 -2.1029 -0.5488  0.1207
 9036SOL    HW238745   3.543   1.095   6.923  0.9814  2.5274  1.9588
 9037SOL     OW38746   3.158   1.304  14.435 -0.0357  0.5439  0.3992
 9037SOL    HW138747   3.187   1.314  14.345 -1.4385 -1.2482 -0.2547
 9037SOL    HW238748   3.109   1.221  14.431 -0.4881  0.8807 -1.1333
 9038SOL     OW38749   1.178   3.999   5.210  0.7531  0.8677 -1.0108
 9038SOL    HW138750   1.112   3.978   5.277  0.3142 -0.3262 -1.8226
 9038SOL    HW238751   1.179   3.930   5.144  3.6033 -1.1620  1.1461
 9039SOL     OW38752   4.420   1.422  14.977  0.5709 -0.4857 -0.0219
 9039SOL    HW138753   4.447   1.507  14.942  1.2583  0.4857  2.9428
 9039SOL    HW238754   4.434   1.377  14.893  0.3027 -0.8676  0.1394
 9040SOL     OW38755   1.648   1.174   8.850 -0.3538 -0.2881  0.6158
 9040SOL    HW138756   1.597   1.129   8.783 -0.8898  1.0676  0.1207
 9040SOL    HW238757   1.731   1.127   8.835 -0.3942  0.2644 -1.4154
 9041SOL     OW38758   1.640   0.357   2.772 -0.2339 -0.2105 -0.7917
 9041SOL    HW138759   1.604   0.446   2.782  1.4348  0.5159 -1.2741
 9041SOL    HW238760   1.628   0.326   2.862 -0.3756  1.6629 -0.1684
 9042SOL     OW38761   3.643   0.838  14.335 -0.2228 -0.0571 -0.5853
 9042SOL    HW138762   3.706   0.798  14.396  0.0722  0.7152 -0.3902
 9042SOL    HW238763   3.562   0.790  14.351 -0.5238  0.6545 -0.0036
 9043SOL     OW38764   0.396   1.323   8.720  0.2142  0.0505 -0.0572
 9043SOL    HW138765   0.301   1.316   8.725  0.0862  1.2467 -0.7607
 9043SOL    HW238766   0.409   1.410   8.682  0.1505  0.3519  0.6174
 9044SOL     OW38767   1.447   3.650   8.864  0.3008 -0.1225 -0.1926
 9044SOL    HW138768   1.515   3.618   8.924  0.2027 -0.8409 -0.4719
 9044SOL    HW238769   1.385   3.686   8.928  2.7571 -2.0682  3.2909
 9045SOL     OW38770   4.618   2.070  17.722  0.2314 -0.0912  0.0207
 9045SOL    HW138771   4.617   1.975  17.709 -2.0033 -0.1234  0.4517
 9045SOL    HW238772   4.536   2.067   0.035  0.4085  3.0425  0.5447
 9046SOL     OW38773   2.705   0.471   1.327 -0.0273  0.3359 -0.4667
 9046SOL    HW138774   2.710   0.566   1.319 -2.5641  0.7658  2.7880
 9046SOL    HW238775   2.760   0.434   1.259  1.8545  0.1762  1.1604
 9047SOL     OW38776   0.792   0.477   0.476 -0.0562 -0.3607 -0.3551
 9047SOL    HW138777   0.819   0.466   0.567 -1.9828 -2.5705 -0.0443
 9047SOL    HW238778   0.790   0.385   0.451  0.6434 -0.5586  0.3513
 9048SOL     OW38779   4.660   3.220   1.212 -0.8260  0.0952 -0.1265
 9048SOL    HW138780   4.612   3.271   1.277 -1.0070  1.6588 -1.4778
 9048SOL    HW238781   4.608   3.147   1.179 -0.2301 -0.5466  0.3513
 9049SOL     OW38782   1.314   2.787   0.232  0.4495 -0.0782 -0.1113
 9049SOL    HW138783   1.334   2.753   0.319 -1.2713 -2.3865 -0.6097
 9049SOL    HW238784   1.380   2.856   0.223  0.8997 -0.3466  1.2034
 9050SOL     OW38785   2.264   1.248  15.055  0.0042 -0.0089  0.1312
 9050SOL    HW138786   2.332   1.188  15.087  0.1691  0.5798  0.8827
 9050SOL    HW238787   2.200   1.254  15.126  0.0061 -3.4036  0.3783
 9051SOL     OW38788   2.233   2.488   2.911  0.0011  0.4279 -0.4898
 9051SOL    HW138789   2.253   2.481   2.818  3.6867  0.5495  0.2835
 9051SOL    HW238790   2.252   2.401   2.946  1.7582  0.5827 -1.0584
 9052SOL     OW38791   2.510   1.871   0.982 -0.0761  0.1518  0.0015
 9052SOL    HW138792   2.447   1.884   0.910 -0.9928 -2.7131  0.3062
 9052SOL    HW238793   2.514   1.966   0.999  0.1218 -0.0610  1.1624
 9053SOL     OW38794   1.038   0.977   4.288 -0.4338  0.0156  0.4677
 9053SOL    HW138795   0.959   0.923   4.293  0.6148 -1.7434 -1.6663
 9053SOL    HW238796   1.096   0.933   4.350  1.8077 -0.7311 -2.1577
 9054SOL     OW38797   2.369   2.042   5.214  0.0627  0.1077 -0.3622
 9054SOL    HW138798   2.402   2.005   5.296 -2.5153 -1.5508 -0.0598
 9054SOL    HW238799   2.439   2.006   5.159  0.5127 -0.2786  0.4755
 9055SOL     OW38800   3.512   3.665   1.260  0.6476  0.7602  0.0386
 9055SOL    HW138801   3.537   3.717   1.183  0.5363  1.6237  0.5900
 9055SOL    HW238802   3.564   3.700   1.332  0.9448  0.9811 -0.2809
 9056SOL     OW38803   0.872   2.631  11.956 -0.0630  0.1081  0.5892
 9056SOL    HW138804   0.791   2.607  11.911 -0.6743  0.3016  1.5811
 9056SOL    HW238805   0.837   2.706  12.004  0.7485 -0.4112  2.0038
 9057SOL     OW38806   1.691   0.857   2.694  0.3533 -0.2002  0.3254
 9057SOL    HW138807   1.764   0.918   2.685  1.4056 -0.9762  3.4770
 9057SOL    HW238808   1.644   0.865   2.611 -0.0340 -0.9242  0.4733
 9058SOL     OW38809   3.664   0.782   4.496  0.7309 -0.3405  0.5648
 9058SOL    HW138810   3.637   0.870   4.519  0.2298 -0.0347 -1.2383
 9058SOL    HW238811   3.579   0.763   4.457 -0.1542  1.3326  1.6817
 9059SOL     OW38812   1.895   1.862   1.306 -0.2952 -1.0452 -0.2854
 9059SOL    HW138813   1.927   1.816   1.383 -0.3729 -3.1576 -1.5111
 9059SOL    HW238814   1.813   1.814   1.289 -0.3660 -1.0243  0.0010
 9060SOL     OW38815   2.261   2.109   0.395  0.6902  0.0686  0.1333
 9060SOL    HW138816   2.173   2.073   0.383 -0.2257  2.3466  0.1207
 9060SOL    HW238817   2.283   2.151   0.312  0.4363 -0.0335  0.0137
 9061SOL     OW38818   3.616   0.623   8.840  0.4822  0.3852  0.2151
 9061SOL    HW138819   3.592   0.655   8.927 -0.3405 -1.0144  0.5157
 9061SOL    HW238820   3.645   0.704   8.799  0.3890 -0.1124 -0.8408
 9062SOL     OW38821   0.806   0.454   2.356 -0.7475 -0.4700 -0.2408
 9062SOL    HW138822   0.725   0.504   2.365 -0.4960  0.1142 -1.2732
 9062SOL    HW238823   0.852   0.476   2.437 -0.8506  0.8475 -0.5459
 9063SOL     OW38824   0.378   4.126   6.232 -0.1156  0.2612 -0.5736
 9063SOL    HW138825   0.306   4.064   6.242 -1.6127  1.6786 -2.5150
 9063SOL    HW238826   0.423   4.123   6.316 -2.1873  2.8139  0.6079
 9064SOL     OW38827   2.538   1.912  17.021  0.6251  0.1233 -0.5185
 9064SOL    HW138828   2.564   2.004  17.021 -0.9743  0.5907 -0.9295
 9064SOL    HW238829   2.448   1.919  16.988  0.5420  2.3676  0.1787
 9065SOL     OW38830   0.853   0.083   5.892  0.9404  0.7050 -0.0126
 9065SOL    HW138831   0.895   0.070   5.977  0.8700  0.0938 -0.0723
 9065SOL    HW238832   0.903   0.031   5.830 -0.3475 -0.5718  0.0213
 9066SOL     OW38833   1.063   2.973  14.018 -0.1167  0.3269 -0.3151
 9066SOL    HW138834   1.105   3.025  14.087  0.0056  0.8389 -0.7822
 9066SOL    HW238835   1.127   2.977  13.947 -0.2525 -0.6517 -0.5005
 9067SOL     OW38836   4.132   2.022   3.513 -0.0218  0.4069  0.1179
 9067SOL    HW138837   4.094   1.941   3.479  0.0804  1.5408 -2.6651
 9067SOL    HW238838   4.227   2.009   3.513 -0.2160 -0.9625  0.7799
 9068SOL     OW38839   4.667   4.276   1.946 -0.3203 -0.4120  0.1546
 9068SOL    HW138840   4.682   4.289   2.039 -1.1946  0.6333  0.1499
 9068SOL    HW238841   4.577   4.243   1.957 -1.7263  2.6744 -2.1087
 9069SOL     OW38842   1.060   3.437   7.645  0.1511 -0.1261 -0.1270
 9069SOL    HW138843   0.983   3.492   7.660  0.5281 -0.0694  1.6477
 9069SOL    HW238844   1.034   3.377   7.576  0.3161  1.3103 -1.4450
 9070SOL     OW38845   2.979   0.779   7.157 -0.6541 -0.0345 -0.5639
 9070SOL    HW138846   2.886   0.757   7.152 -0.9241  1.2472 -1.2748
 9070SOL    HW238847   2.996   0.727   7.235 -0.9606 -1.1498 -1.2306
 9071SOL     OW38848   2.783   1.249  15.049 -0.5332  0.2222  0.0797
 9071SOL    HW138849   2.751   1.296  15.126 -0.8567 -1.7371  1.1368
 9071SOL    HW238850   2.750   1.302  14.976  0.8241  1.5311  0.4018
 9072SOL     OW38851   0.014   0.757   1.379 -0.1129  0.1175  0.1044
 9072SOL    HW138852   0.052   0.750   1.292 -0.5987  1.5655 -0.2349
 9072SOL    HW238853   4.726   0.665   1.393 -0.3442  0.2078  0.3367
 9073SOL     OW38854   1.278   4.559   8.970 -0.1952  0.3830 -0.0233
 9073SOL    HW138855   1.335   4.483   8.969  0.4902  0.9044 -0.4073
 9073SOL    HW238856   1.324   4.613   9.035 -1.4608  0.8875  0.4612
 9074SOL     OW38857   1.094   0.085   8.355 -0.4525 -0.4494  0.6165
 9074SOL    HW138858   1.086   0.074   8.450  0.6715  0.9251  0.8702
 9074SOL    HW238859   1.174   0.038   8.333  0.1890  0.9524 -0.0111
 9075SOL     OW38860   3.151   3.960  14.857  0.4045  0.3187  0.3279
 9075SOL    HW138861   3.109   3.972  14.942  0.2411  0.8205  0.1748
 9075SOL    HW238862   3.151   4.054  14.840  1.4895  0.6187  1.9170
 9076SOL     OW38863   3.687   2.412  13.856  0.8729 -0.5714 -0.4285
 9076SOL    HW138864   3.693   2.386  13.764 -2.1681 -2.5948 -0.0224
 9076SOL    HW238865   3.716   2.504  13.850  1.7106 -0.8741 -1.0817
 9077SOL     OW38866   0.237   4.501   8.261  0.4614 -0.0975 -0.0853
 9077SOL    HW138867   0.296   4.476   8.189  0.9748 -0.2783  0.3988
 9077SOL    HW238868   0.284   4.552   8.326  0.9644  0.8109 -1.1561
 9078SOL     OW38869   1.010   4.129   4.782 -0.8944 -0.0508  0.2778
 9078SOL    HW138870   1.093   4.084   4.798 -0.4509  0.5894 -0.1842
 9078SOL    HW238871   1.042   4.219   4.778 -0.9581 -0.1052 -1.6678
 9079SOL     OW38872   4.535   0.036   0.903  0.4118  0.5524  0.0533
 9079SOL    HW138873   4.482   0.059   0.827 -0.9877 -1.6870  0.3103
 9079SOL    HW238874   4.470   0.056   0.972 -1.0514 -0.3548 -1.0524
 9080SOL     OW38875   1.625   2.485   3.997  0.1518  0.7548 -0.3187
 9080SOL    HW138876   1.625   2.478   4.092  1.7679  1.0276 -0.3001
 9080SOL    HW238877   1.718   2.499   3.976  0.6469  0.7487  1.8587
 9081SOL     OW38878   3.555   0.887   6.709 -0.1676  0.6542 -0.4537
 9081SOL    HW138879   3.577   0.833   6.785 -0.7520 -0.3116 -0.9670
 9081SOL    HW238880   3.460   0.871   6.706 -0.2815  1.8671 -3.0986
 9082SOL     OW38881   1.151   0.553   7.633  1.0911 -0.1504 -0.2668
 9082SOL    HW138882   1.107   0.632   7.664  1.7112 -1.1059  3.0341
 9082SOL    HW238883   1.080   0.497   7.600  0.0195  0.8187  0.4079
 9083SOL     OW38884   0.374   2.257   2.343  0.0198  0.7711  0.1388
 9083SOL    HW138885   0.459   2.216   2.358 -0.3261  0.1441  0.4042
 9083SOL    HW238886   0.369   2.288   2.253 -0.1044  0.5940  0.0837
 9084SOL     OW38887   2.762   0.245  13.962  0.0863 -0.4438 -0.0766
 9084SOL    HW138888   2.772   0.304  13.887  2.3492  0.6132  1.0616
 9084SOL    HW238889   2.817   0.276  14.033 -0.5597  0.7870 -0.1231
 9085SOL     OW38890   4.362   0.775   8.907 -0.3381  0.1858 -0.1274
 9085SOL    HW138891   4.405   0.816   8.982  1.1850 -0.8514 -0.4125
 9085SOL    HW238892   4.296   0.720   8.949  0.5013 -0.7084  0.0216
 9086SOL     OW38893   3.873   3.257  16.998 -0.4829 -0.0191  0.5447
 9086SOL    HW138894   3.851   3.164  16.995 -3.0824  0.5455  2.2123
 9086SOL    HW238895   3.865   3.285  16.906  0.6785 -1.6613 -0.0466
 9087SOL     OW38896   1.725   0.277  13.376  0.3035  0.6583 -0.2494
 9087SOL    HW138897   1.718   0.183  13.358 -0.1136  0.5571  0.4275
 9087SOL    HW238898   1.713   0.276  13.471 -1.5673  0.5707 -0.4831
 9088SOL     OW38899   3.754   0.088   2.854  0.1653 -0.0804  0.4224
 9088SOL    HW138900   3.662   0.063   2.862  0.3356 -0.8217  0.0536
 9088SOL    HW238901   3.737   0.168   2.803  0.9350  0.4878  1.0599
 9089SOL     OW38902   2.570   0.347   6.259  0.2551 -0.0010 -0.0420
 9089SOL    HW138903   2.491   0.343   6.312  0.6053  1.9990  0.6467
 9089SOL    HW238904   2.598   0.256   6.261 -0.9037 -0.3276  0.9875
 9090SOL     OW38905   3.356   2.894   5.935 -0.1489  0.3844 -0.5085
 9090SOL    HW138906   3.436   2.852   5.904 -0.6256 -0.9867  0.1164
 9090SOL    HW238907   3.294   2.874   5.865  0.4203  1.4905 -1.3264
 9091SOL     OW38908   0.485   1.028   4.144  0.7620  0.1420  0.1023
 9091SOL    HW138909   0.567   1.065   4.178 -0.1240  0.6531  1.6956
 9091SOL    HW238910   0.497   0.935   4.161 -2.0931 -0.2632 -0.0916
 9092SOL     OW38911   0.521   0.800   2.471  0.1947  0.2431  0.0131
 9092SOL    HW138912   0.588   0.809   2.403  1.3996 -0.5360  1.0901
 9092SOL    HW238913   0.511   0.705   2.478 -0.9924  0.3536 -0.1661
 9093SOL     OW38914   0.968   2.918   4.273 -0.0213  0.8835  0.4329
 9093SOL    HW138915   1.019   2.949   4.198 -0.6389 -0.3685 -0.5043
 9093SOL    HW238916   1.020   2.846   4.309  1.3436  0.9191 -1.4537
 9094SOL     OW38917   4.016   3.358   1.988 -0.2732 -0.4067 -0.5647
 9094SOL    HW138918   3.933   3.364   2.036 -0.6997  1.0023 -1.4802
 9094SOL    HW238919   4.037   3.269   2.014  0.6661  0.0614  0.2755
 9095SOL     OW38920   1.445   2.169  14.244  0.0681  0.2425  0.1627
 9095SOL    HW138921   1.443   2.082  14.284  2.3664  0.1001 -0.0291
 9095SOL    HW238922   1.452   2.158  14.149 -1.2009 -1.4828  0.2778
 9096SOL     OW38923   0.841   2.705   2.104  0.4300 -0.1363 -0.2901
 9096SOL    HW138924   0.836   2.706   2.200 -0.4658 -1.3006 -0.3301
 9096SOL    HW238925   0.886   2.789   2.102 -1.5564  0.9606  0.5677
 9097SOL     OW38926   0.952   1.253   1.389 -0.1219 -0.6920 -0.0583
 9097SOL    HW138927   0.940   1.334   1.340 -0.2191  1.0277  2.8111
 9097SOL    HW238928   1.042   1.224   1.373  0.0665  1.6547 -3.1320
 9098SOL     OW38929   3.319   1.460   9.858 -0.8634 -0.3581 -0.1505
 9098SOL    HW138930   3.402   1.412   9.856 -0.1985  0.8106 -1.0231
 9098SOL    HW238931   3.350   1.524   9.922  1.2603 -0.5648 -0.9712
 9099SOL     OW38932   1.117   0.172   9.200 -0.7897  0.0755  0.7511
 9099SOL    HW138933   1.130   0.231   9.273  1.7763 -0.9691  1.1201
 9099SOL    HW238934   1.058   0.214   9.138  1.9365 -2.1488 -3.3630
 9100SOL     OW38935   2.218   0.476  12.699  0.2745 -0.6076 -0.0013
 9100SOL    HW138936   2.224   0.380  12.707 -1.7822 -0.8578 -1.6431
 9100SOL    HW238937   2.310   0.500  12.712  0.4473 -2.0349  1.4555
 9101SOL     OW38938   2.301   2.877  12.504  0.1781 -0.1642 -0.3433
 9101SOL    HW138939   2.268   2.933  12.434 -1.1915 -0.0096  0.4227
 9101SOL    HW238940   2.222   2.828  12.524  1.0406 -1.1978  0.5251
 9102SOL     OW38941   3.812   2.333  12.187 -0.1889 -0.4950  0.3434
 9102SOL    HW138942   3.728   2.290  12.172  0.6532 -0.8490 -3.2755
 9102SOL    HW238943   3.864   2.260  12.222  2.7967  0.1951 -2.5494
 9103SOL     OW38944   3.017   2.958   3.462 -0.7361 -0.6718  0.4042
 9103SOL    HW138945   3.051   3.047   3.452  0.4505 -1.3437 -1.4960
 9103SOL    HW238946   3.097   2.906   3.470 -0.2958  0.2841  2.1604
 9104SOL     OW38947   4.267   2.773   0.073  0.2580 -0.0142  0.2187
 9104SOL    HW138948   4.256   2.701   0.136  0.0450 -1.7478 -1.7867
 9104SOL    HW238949   4.195   2.833   0.089 -1.4801 -2.1291  0.3232
 9105SOL     OW38950   3.361   1.168   4.401 -0.1653 -0.7180  0.0851
 9105SOL    HW138951   3.344   1.242   4.459  2.6697  0.3047 -0.3695
 9105SOL    HW238952   3.274   1.154   4.363 -0.0807 -2.0044  0.3617
 9106SOL     OW38953   2.591   4.277   9.987 -0.4697  0.5572  0.3313
 9106SOL    HW138954   2.653   4.253  10.056 -0.4740 -0.4855 -0.0289
 9106SOL    HW238955   2.580   4.370  10.005 -0.5622  0.1956  2.2315
 9107SOL     OW38956   2.834   0.452   1.875  0.1579 -0.1581 -0.6159
 9107SOL    HW138957   2.741   0.472   1.866 -0.2187 -0.4403  2.6271
 9107SOL    HW238958   2.856   0.542   1.900  0.6808  0.3540 -2.8858
 9108SOL     OW38959   2.234   2.914  15.006 -0.6291 -0.2144  0.7189
 9108SOL    HW138960   2.152   2.874  15.034 -0.0088 -2.5758 -0.8809
 9108SOL    HW238961   2.263   2.956  15.088  0.5221 -1.4949  0.9626
 9109SOL     OW38962   0.091   0.300  15.113  0.0177  0.0885 -0.1841
 9109SOL    HW138963   0.165   0.259  15.157  0.5789  1.9368  0.5509
 9109SOL    HW238964   0.109   0.291  15.019  1.8247  0.7324  0.1051
 9110SOL     OW38965   4.494   3.896   1.541  0.5522  0.0721 -0.1081
 9110SOL    HW138966   4.422   3.884   1.604  1.0956 -1.0615  0.3059
 9110SOL    HW238967   4.470   3.842   1.466 -0.5471 -0.3038  0.5125
 9111SOL     OW38968   3.985   2.353   6.428 -0.6265  0.4528 -0.2695
 9111SOL    HW138969   4.071   2.390   6.410 -1.1504  2.1254  0.7122
 9111SOL    HW238970   4.005   2.300   6.506 -1.0307 -1.4317 -1.4613
 9112SOL     OW38971   3.483   2.735   7.229 -0.6793 -0.5238  0.3950
 9112SOL    HW138972   3.576   2.715   7.223 -0.4886 -0.3618  2.6745
 9112SOL    HW238973   3.481   2.741   7.325 -0.4923 -0.6074  0.4023
 9113SOL     OW38974   0.280   3.149   3.826 -0.3007 -0.5965 -0.1891
 9113SOL    HW138975   0.336   3.075   3.802 -0.0154  1.1415 -4.7407
 9113SOL    HW238976   0.344   3.219   3.817 -0.2167 -0.4996  1.1662
 9114SOL     OW38977   2.889   3.007  10.986  0.6415  0.2462 -0.3049
 9114SOL    HW138978   2.851   2.958  11.060  0.4874 -0.4433 -0.8372
 9114SOL    HW238979   2.970   2.956  10.983  1.2743  1.1544  1.3189
 9115SOL     OW38980   4.253   4.077  17.542  0.2114 -0.6482  0.4134
 9115SOL    HW138981   4.313   4.009  17.511  2.2279  0.4484  1.8531
 9115SOL    HW238982   4.307   4.132  17.599  0.7051  0.3628 -0.9940
 9116SOL     OW38983   3.004   4.200   7.426  0.0363 -0.3871 -0.2225
 9116SOL    HW138984   2.911   4.216   7.414 -0.2546 -1.7569  0.2766
 9116SOL    HW238985   3.022   4.256   7.501 -1.0593 -0.1384 -0.1553
 9117SOL     OW38986   1.787   3.199   7.244  0.1988  0.1423 -0.0237
 9117SOL    HW138987   1.801   3.133   7.312  0.3360 -0.3360 -0.5131
 9117SOL    HW238988   1.757   3.268   7.303  1.6442 -1.6396  2.8278
 9118SOL     OW38989   1.601   2.546   2.514  0.3294  0.3666  0.6404
 9118SOL    HW138990   1.653   2.624   2.496  0.5451  0.4324  1.5836
 9118SOL    HW238991   1.661   2.481   2.551 -2.2657 -3.7923 -2.3283
 9119SOL     OW38992   4.404   0.767   4.481 -0.6209 -0.0197 -0.1730
 9119SOL    HW138993   4.342   0.698   4.457 -0.5025 -0.8963  2.1013
 9119SOL    HW238994   4.488   0.723   4.467 -0.9436 -0.4590 -0.7485
 9120SOL     OW38995   3.651   1.940   3.994 -0.0217 -0.2395 -0.3305
 9120SOL    HW138996   3.721   1.942   4.059 -1.3038  0.3688  1.0280
 9120SOL    HW238997   3.663   2.020   3.943 -0.8401 -0.2564 -0.5513
 9121SOL     OW38998   4.551   4.228  16.285 -0.0145 -0.1104 -0.9100
 9121SOL    HW138999   4.604   4.291  16.334 -1.6522 -0.3068  1.0767
 9121SOL    HW239000   4.561   4.271  16.200  2.5987 -0.7633 -0.9284
 9122SOL     OW39001   3.516   4.244   1.238  0.2178 -0.1078 -0.3112
 9122SOL    HW139002   3.527   4.159   1.196 -1.6667 -0.5720  0.1700
 9122SOL    HW239003   3.585   4.248   1.305  0.8987 -0.5540 -0.9857
 9123SOL     OW39004   2.773   1.709   9.813 -0.6128  0.2694  0.1443
 9123SOL    HW139005   2.834   1.673   9.877 -0.5634  0.9067  0.4525
 9123SOL    HW239006   2.818   1.710   9.729  0.2142 -0.1454  0.5828
 9124SOL     OW39007   0.347   3.768  11.034 -0.2705 -0.0022 -0.1040
 9124SOL    HW139008   0.294   3.723  11.101  0.0104 -0.6002 -0.2826
 9124SOL    HW239009   0.279   3.832  11.015 -1.4233 -1.6825 -1.6025
 9125SOL     OW39010   3.551   2.597   3.476 -0.5492  0.1645 -0.2045
 9125SOL    HW139011   3.520   2.659   3.410 -0.0091  0.3490 -0.2788
 9125SOL    HW239012   3.469   2.554   3.501  0.5874 -0.7633  1.9495
 9126SOL     OW39013   2.570   0.753  13.336 -0.4537 -0.2660 -0.2619
 9126SOL    HW139014   2.587   0.724  13.425 -2.2318  2.2728  0.9014
 9126SOL    HW239015   2.558   0.670  13.291  1.0235 -0.3352 -0.5252
 9127SOL     OW39016   1.204   1.013   9.525  0.2609  0.7652  0.9519
 9127SOL    HW139017   1.132   1.070   9.552 -1.3132  0.8030 -3.3112
 9127SOL    HW239018   1.194   1.006   9.430  2.8737 -1.3375  0.8248
 9128SOL     OW39019   3.122   1.297   8.109 -0.4063 -0.5928  0.4760
 9128SOL    HW139020   3.091   1.345   8.186 -0.2332 -0.0357  0.1976
 9128SOL    HW239021   3.141   1.213   8.150  3.3297  0.2206  0.3808
 9129SOL     OW39022   0.247   3.155   9.414  0.0686  0.3823 -0.5273
 9129SOL    HW139023   0.173   3.098   9.395  0.1676  0.0547  0.0713
 9129SOL    HW239024   0.231   3.217   9.343  3.4495 -0.8619 -2.3956
 9130SOL     OW39025   4.387   0.188   1.896  0.6659 -0.0583  0.8508
 9130SOL    HW139026   4.429   0.104   1.915  1.0819  0.3672  1.8284
 9130SOL    HW239027   4.383   0.195   1.801  2.5439  1.9138  0.9060
 9131SOL     OW39028   4.273   1.383   2.202 -0.1783 -0.0283  0.6816
 9131SOL    HW139029   4.257   1.314   2.266  0.6103  0.7508  1.7377
 9131SOL    HW239030   4.188   1.425   2.187  0.5866  1.3329  0.1106
 9132SOL     OW39031   1.895   2.880   3.207 -0.2811  0.1159  0.0751
 9132SOL    HW139032   1.874   2.972   3.223 -0.6210 -0.0423  0.5418
 9132SOL    HW239033   1.980   2.883   3.163 -0.7057  1.3474 -0.6534
 9133SOL     OW39034   4.233   1.943   6.430 -0.2674 -0.4852 -0.9885
 9133SOL    HW139035   4.194   1.855   6.427  1.1833 -1.2142  2.6014
 9133SOL    HW239036   4.325   1.918   6.425 -0.9462 -2.7586 -2.3265
 9134SOL     OW39037   3.176   1.196  10.430  0.0344  0.3973 -0.0149
 9134SOL    HW139038   3.091   1.193  10.473  0.7424  1.2172  1.4262
 9134SOL    HW239039   3.171   1.283  10.391 -1.3203 -0.0334 -0.8037
 9135SOL     OW39040   0.363   0.400   3.772 -0.0339  0.1143 -0.1349
 9135SOL    HW139041   0.430   0.373   3.836  2.0727 -0.0320 -2.4065
 9135SOL    HW239042   0.390   0.342   3.701  0.5381  0.2776 -0.0462
 9136SOL     OW39043   3.801   2.867   3.878  0.9858  0.2466  0.2035
 9136SOL    HW139044   3.813   2.961   3.895 -1.6575  0.7328 -0.6794
 9136SOL    HW239045   3.739   2.844   3.947  1.2810 -0.4855  0.2148
 9137SOL     OW39046   2.345   0.667   1.867 -0.2379 -0.0276 -0.3310
 9137SOL    HW139047   2.260   0.628   1.847  0.3952 -0.2406 -2.5330
 9137SOL    HW239048   2.319   0.704   1.952 -1.0833 -0.1527 -0.5364
 9138SOL     OW39049   3.281   4.122   2.870 -0.2057  0.8918  0.4663
 9138SOL    HW139050   3.344   4.192   2.855 -1.0889  1.2069 -1.7937
 9138SOL    HW239051   3.266   4.121   2.965 -1.5675 -0.7251  0.2222
 9139SOL     OW39052   2.995   3.849  15.809  0.2869  0.6313  0.3098
 9139SOL    HW139053   3.065   3.876  15.868  0.4035  1.1725 -0.0788
 9139SOL    HW239054   3.045   3.843  15.727 -0.7324  0.7868 -0.3161
 9140SOL     OW39055   3.759   4.664  12.831 -0.2810  0.4167  0.5666
 9140SOL    HW139056   3.685   4.702  12.783 -0.0893  0.6177  0.4250
 9140SOL    HW239057   3.821   4.656  12.758  1.3498  0.7176  1.9180
 9141SOL     OW39058   0.594   3.883   2.419 -0.8924 -0.3905  0.0308
 9141SOL    HW139059   0.632   3.797   2.405 -1.8688 -0.8494  0.1889
 9141SOL    HW239060   0.669   3.941   2.405 -0.0096 -1.2049  1.3485
 9142SOL     OW39061   2.866   0.709   2.468  0.4031  0.4139 -0.2864
 9142SOL    HW139062   2.791   0.749   2.511  0.4048  0.5144 -0.3772
 9142SOL    HW239063   2.864   0.623   2.510 -0.5692  0.5942  0.0315
 9143SOL     OW39064   0.594   2.474   5.060 -0.4702  0.3006  1.0692
 9143SOL    HW139065   0.505   2.439   5.070 -1.5931  2.8685 -0.0735
 9143SOL    HW239066   0.587   2.545   4.996 -0.2457 -0.0746  0.6263
 9144SOL     OW39067   1.722   0.236   8.168  0.4027  0.0271  0.3057
 9144SOL    HW139068   1.638   0.212   8.208 -0.9146 -1.8048 -3.5248
 9144SOL    HW239069   1.723   0.209   8.076  2.0389 -0.2639  0.4211
 9145SOL     OW39070   2.821   1.608  14.797  0.0963 -0.8361 -0.8553
 9145SOL    HW139071   2.894   1.573  14.848  0.5699  2.6001  0.7907
 9145SOL    HW239072   2.749   1.552  14.825  0.2605 -1.0251 -0.8079
 9146SOL     OW39073   2.354   3.085   3.063 -0.1263  0.6325  0.3519
 9146SOL    HW139074   2.335   2.993   3.047 -0.5207  0.4217  2.0495
 9146SOL    HW239075   2.421   3.111   3.000 -0.3281 -0.0072 -0.1174
 9147SOL     OW39076   0.645   0.798   0.084  0.0457 -0.1853  0.5306
 9147SOL    HW139077   0.700   0.753   0.148  1.6438 -0.1349 -0.7981
 9147SOL    HW239078   0.625   0.731   0.019  1.3678 -0.1477  0.0901
 9148SOL     OW39079   3.348   3.182   3.156 -0.1874 -0.3632  0.3386
 9148SOL    HW139080   3.369   3.215   3.068  1.3490 -0.5768  0.6345
 9148SOL    HW239081   3.391   3.245   3.214  0.2066 -1.7677  1.5817
 9149SOL     OW39082   1.692   1.328   4.162  0.2314 -0.7108  0.0703
 9149SOL    HW139083   1.612   1.337   4.110  0.3220  1.3567  0.2773
 9149SOL    HW239084   1.743   1.398   4.121  0.4506 -0.7232  0.3199
 9150SOL     OW39085   1.051   1.188   0.542 -0.3910  0.1974 -0.1864
 9150SOL    HW139086   0.958   1.165   0.545 -0.0984 -0.5055  3.3710
 9150SOL    HW239087   1.090   1.101   0.531 -1.8491  0.0571 -4.0403
 9151SOL     OW39088   0.159   0.064   7.741 -0.1717 -0.0086  0.2432
 9151SOL    HW139089   0.086   0.077   7.801 -0.8642  1.4184 -0.8879
 9151SOL    HW239090   0.164   4.705   7.760  0.1991 -0.2954 -1.2924
 9152SOL     OW39091   3.508   3.803  16.645 -0.3301  0.5783  0.1587
 9152SOL    HW139092   3.483   3.827  16.556  0.1751  0.2030 -0.0871
 9152SOL    HW239093   3.604   3.807  16.653 -0.3090 -0.6771  0.5653
 9153SOL     OW39094   4.373   1.987   4.993 -0.4539 -0.2139  0.0809
 9153SOL    HW139095   4.326   1.904   4.984 -1.8364  0.5890 -0.1494
 9153SOL    HW239096   4.331   2.040   4.925  3.2331  2.5856  0.0280
 9154SOL     OW39097   1.077   2.197   5.074 -0.3076  0.0578 -0.1360
 9154SOL    HW139098   1.140   2.180   5.004 -0.2342  0.9101 -0.2775
 9154SOL    HW239099   1.002   2.140   5.056  0.7498 -0.7403 -2.0220
 9155SOL     OW39100   4.652   4.565   0.707  0.2188  0.0280 -0.2841
 9155SOL    HW139101   4.733   4.597   0.747  1.1319 -1.2642 -1.1296
 9155SOL    HW239102   4.626   4.652   0.678  0.1838  0.8826  2.2606
 9156SOL     OW39103   4.082   4.689   5.207  0.0363 -0.5323 -0.4082
 9156SOL    HW139104   4.143   4.616   5.213  0.7812  0.1981  0.8711
 9156SOL    HW239105   4.091   0.002   5.290 -0.5674 -0.3845 -0.4239
 9157SOL     OW39106   0.616   2.724  15.595  0.3594  0.0045  0.1076
 9157SOL    HW139107   0.709   2.741  15.608  0.3079 -0.0092  0.5017
 9157SOL    HW239108   0.576   2.810  15.604  2.4840  0.7358  2.5733
 9158SOL     OW39109   0.244   3.890  13.138  0.7421  0.3882  0.3490
 9158SOL    HW139110   0.268   3.802  13.166  2.0874  0.4192 -0.6963
 9158SOL    HW239111   0.254   3.880  13.043 -0.2041 -1.6010  0.4469
 9159SOL     OW39112   2.450   3.759   9.166  0.1484 -0.5811  0.2745
 9159SOL    HW139113   2.439   3.816   9.242 -2.4294 -1.9312  0.9295
 9159SOL    HW239114   2.479   3.810   9.091  0.7888 -0.3260  0.7067
 9160SOL     OW39115   0.745   1.024   4.792 -0.1788  0.2752  0.3007
 9160SOL    HW139116   0.662   1.046   4.833 -1.2875  0.3745 -1.9988
 9160SOL    HW239117   0.712   0.951   4.739  0.6834  1.1588 -1.4529
 9161SOL     OW39118   2.075   0.992   6.741  0.3174  0.1980 -0.1610
 9161SOL    HW139119   2.116   0.982   6.828  1.4319  0.7202 -0.6245
 9161SOL    HW239120   1.985   0.971   6.766  0.9550 -2.8660 -0.5104
 9162SOL     OW39121   2.561   4.298   0.220 -0.2011  0.2527 -0.0367
 9162SOL    HW139122   2.590   4.301   0.129  2.6880 -0.4510  0.8736
 9162SOL    HW239123   2.592   4.214   0.252  1.6302  0.1514 -2.0396
 9163SOL     OW39124   2.437   3.143  12.901 -0.2570 -0.7333 -0.1523
 9163SOL    HW139125   2.346   3.122  12.880 -0.5824  2.2301 -1.7305
 9163SOL    HW239126   2.483   3.138  12.817 -1.5726 -1.3737 -0.8330
 9164SOL     OW39127   2.376   2.260  15.012  0.2330 -0.2087  0.4199
 9164SOL    HW139128   2.346   2.286  15.099 -0.2079 -0.4936  0.3485
 9164SOL    HW239129   2.435   2.185  15.018  0.3314 -0.2820 -1.4859
 9165SOL     OW39130   1.678   0.457   4.015  0.3363 -0.6802 -0.4456
 9165SOL    HW139131   1.612   0.500   4.069  0.8167 -0.0184 -0.3967
 9165SOL    HW239132   1.753   0.469   4.074 -0.2603 -0.3134  0.2328
 9166SOL     OW39133   0.142   0.783   4.456  0.6106 -0.7543 -0.2964
 9166SOL    HW139134   0.119   0.718   4.389 -1.5728 -0.4909  0.2127
 9166SOL    HW239135   0.133   0.863   4.405 -2.5920 -1.9459 -1.5890
 9167SOL     OW39136   3.100   4.572  13.589 -0.0371  0.4993 -0.1197
 9167SOL    HW139137   3.177   4.575  13.532  0.3148  0.8952  0.3794
 9167SOL    HW239138   3.147   4.605  13.666  1.1891 -0.7525 -0.3332
 9168SOL     OW39139   4.183   0.969   8.642 -0.1382 -0.3410  0.0507
 9168SOL    HW139140   4.103   0.916   8.645  1.1650 -2.1335  3.4640
 9168SOL    HW239141   4.244   0.898   8.619  1.4902  0.9285  0.5008
 9169SOL     OW39142   3.046   3.378   7.498 -0.0931  0.2328 -0.5772
 9169SOL    HW139143   3.052   3.289   7.534 -0.5951 -0.1257 -1.3910
 9169SOL    HW239144   3.074   3.365   7.408 -1.1313  0.8929 -0.9944
 9170SOL     OW39145   4.570   1.403  12.576 -0.2282  0.4918 -0.0126
 9170SOL    HW139146   4.551   1.426  12.667 -0.8804  4.3979 -1.1211
 9170SOL    HW239147   4.649   1.352  12.594 -0.8262 -0.5510 -0.3586
 9171SOL     OW39148   0.728   1.174  14.406 -0.0730 -0.1220  0.5123
 9171SOL    HW139149   0.701   1.092  14.364 -0.3176 -0.0174  0.4631
 9171SOL    HW239150   0.714   1.155  14.499 -0.6981 -1.9925  0.0384
 9172SOL     OW39151   1.799   1.490   4.472 -0.2112 -0.4605 -0.7004
 9172SOL    HW139152   1.845   1.435   4.536 -0.2843  1.2173  0.8152
 9172SOL    HW239153   1.872   1.534   4.429 -0.7303  0.9406 -0.1542
 9173SOL     OW39154   1.360   3.309  15.920  0.1386  0.4803 -0.8607
 9173SOL    HW139155   1.315   3.300  16.004 -1.5003  2.0224 -1.5684
 9173SOL    HW239156   1.447   3.336  15.949  0.5477 -2.1294  0.2869
 9174SOL     OW39157   4.699   3.338   5.772 -0.0137 -0.0490  0.3916
 9174SOL    HW139158   0.052   3.336   5.813  1.2954 -0.4511 -2.4327
 9174SOL    HW239159   4.694   3.250   5.734 -0.9501 -0.4739  1.4889
 9175SOL     OW39160   1.501   1.323   1.270  0.2721 -0.0974  0.0347
 9175SOL    HW139161   1.470   1.269   1.197 -1.4560  1.0682 -0.1188
 9175SOL    HW239162   1.546   1.391   1.219  2.1038 -0.5932  1.0068
 9176SOL     OW39163   1.360   3.837   0.628  1.2125  0.2812 -0.5407
 9176SOL    HW139164   1.327   3.904   0.569  1.0275 -0.1471 -0.9161
 9176SOL    HW239165   1.341   3.760   0.575 -0.8696 -0.8918  1.8911
 9177SOL     OW39166   4.434   4.490  12.038  0.3255  0.4224  0.7688
 9177SOL    HW139167   4.339   4.500  12.038 -0.0309 -2.7392  1.0792
 9177SOL    HW239168   4.454   4.571  12.083  2.0047 -0.0447  0.8608
 9178SOL     OW39169   1.055   1.872   6.435 -0.8112  0.5035  0.0512
 9178SOL    HW139170   1.068   1.783   6.468 -1.1260  0.9113  1.2632
 9178SOL    HW239171   1.054   1.863   6.340  1.0248  1.4793 -0.0644
 9179SOL     OW39172   4.263   0.190  13.754 -0.3954  0.6742 -0.7609
 9179SOL    HW139173   4.264   0.285  13.737  2.4487  0.4587 -1.7930
 9179SOL    HW239174   4.189   0.160  13.702 -0.1980 -0.7528 -0.2098
 9180SOL     OW39175   1.989   2.136   6.463  0.3816  0.1156  0.4035
 9180SOL    HW139176   1.987   2.220   6.509  2.1176  1.2334 -1.5037
 9180SOL    HW239177   2.045   2.169   6.392  1.8489  1.1902  2.0459
 9181SOL     OW39178   2.798   4.623   0.320  0.2474 -0.4015 -0.4661
 9181SOL    HW139179   2.817   4.613   0.227  2.4452 -1.4941  0.1007
 9181SOL    HW239180   2.758   4.710   0.319 -2.0565 -1.4528 -0.3567
 9182SOL     OW39181   4.437   2.057  14.292 -0.4491  0.6017  0.3923
 9182SOL    HW139182   4.517   2.109  14.297 -0.4640  0.5906  0.7395
 9182SOL    HW239183   4.377   2.123  14.326 -3.4163 -0.9344 -1.8500
 9183SOL     OW39184   3.493   4.096  16.602  0.2944 -0.2335 -0.2518
 9183SOL    HW139185   3.568   4.057  16.647  0.7833  0.4988 -0.4403
 9183SOL    HW239186   3.503   4.052  16.517  0.4423  1.3514 -1.0587
 9184SOL     OW39187   0.596   4.286   5.850 -0.2743 -0.0412  0.8223
 9184SOL    HW139188   0.549   4.336   5.784 -1.9421 -0.1556  1.9271
 9184SOL    HW239189   0.543   4.308   5.927 -2.4397  1.5490 -1.1358
 9185SOL     OW39190   1.364   0.769   3.335 -0.2047  0.0078 -0.0841
 9185SOL    HW139191   1.430   0.834   3.310 -0.7349 -0.2731 -2.2470
 9185SOL    HW239192   1.292   0.829   3.354  1.8394  3.3252 -2.6819
 9186SOL     OW39193   3.544   1.340   1.974  0.4284  0.3232 -0.2700
 9186SOL    HW139194   3.566   1.420   1.926 -0.2074  0.7985  0.2217
 9186SOL    HW239195   3.530   1.284   1.898 -1.2645 -0.7657  0.8433
 9187SOL     OW39196   2.135   1.657  14.336  0.7388 -0.5156 -0.3547
 9187SOL    HW139197   2.067   1.666  14.269 -0.9352  0.3416  1.4450
 9187SOL    HW239198   2.175   1.573  14.316  0.0735 -0.5655 -1.5302
 9188SOL     OW39199   3.579   4.370  10.790 -0.4578 -0.1161 -0.8188
 9188SOL    HW139200   3.521   4.445  10.802 -2.2713 -1.1035 -3.4066
 9188SOL    HW239201   3.656   4.406  10.835 -0.5924 -2.0364  0.9224
 9189SOL     OW39202   2.805   4.290   9.012  0.3764 -0.2054 -0.3009
 9189SOL    HW139203   2.751   4.269   8.935  0.9881  1.9144 -1.3221
 9189SOL    HW239204   2.808   4.204   9.053  0.4460  0.9050  2.0013
 9190SOL     OW39205   4.505   4.503   3.841 -0.4129 -0.0495 -0.6909
 9190SOL    HW139206   4.511   4.505   3.936  0.5901 -2.5883 -0.7050
 9190SOL    HW239207   4.579   4.447   3.819 -0.8392 -1.1451  0.6780
 9191SOL     OW39208   2.912   3.434   4.194  0.2474 -0.5080  0.0497
 9191SOL    HW139209   2.994   3.440   4.144 -0.5500 -0.7230 -1.2530
 9191SOL    HW239210   2.851   3.393   4.134  3.2743 -0.5222 -2.9950
 9192SOL     OW39211   2.577   4.612   9.548  0.0824 -0.3354 -0.2831
 9192SOL    HW139212   2.529   4.632   9.468 -0.3214 -0.2899 -0.0278
 9192SOL    HW239213   2.661   4.633   9.507  0.0192  0.2088 -0.1249
 9193SOL     OW39214   3.711   0.027  10.485 -0.0351  0.2365 -0.2263
 9193SOL    HW139215   3.802   0.022  10.515  1.1890 -1.4493 -4.2985
 9193SOL    HW239216   3.675   4.725  10.566  1.6953  1.0212  0.9026
 9194SOL     OW39217   1.827   0.251  10.312 -0.3195 -0.0714  0.0191
 9194SOL    HW139218   1.827   0.177  10.251 -2.0233  3.1282 -3.8668
 9194SOL    HW239219   1.796   0.320  10.253  3.0686  1.2948 -0.1687
 9195SOL     OW39220   1.177   1.565  11.175  0.0832 -0.3400 -0.3898
 9195SOL    HW139221   1.212   1.601  11.257  1.5641 -0.3834 -1.0095
 9195SOL    HW239222   1.237   1.606  11.113 -1.5484 -0.3861 -1.9908
 9196SOL     OW39223   2.155   0.566   8.813  0.0311 -0.0880  0.1873
 9196SOL    HW139224   2.161   0.484   8.764 -0.8943 -1.8582  3.0393
 9196SOL    HW239225   2.146   0.529   8.901  0.1714  0.1470  0.3011
 9197SOL     OW39226   3.392   3.451   7.461 -0.1432 -0.0744  0.7195
 9197SOL    HW139227   3.387   3.454   7.365 -1.1973 -5.0600  0.6482
 9197SOL    HW239228   3.483   3.422   7.468  0.5628  1.2123 -2.7600
 9198SOL     OW39229   4.619   3.612   5.177  0.3646 -0.2246  0.0182
 9198SOL    HW139230   4.667   3.532   5.198 -0.9879 -1.2854 -0.8918
 9198SOL    HW239231   4.640   3.662   5.255 -1.6620  0.9769 -0.2093
 9199SOL     OW39232   2.446   0.819   7.756  0.5035 -0.5531  0.0102
 9199SOL    HW139233   2.497   0.803   7.677 -0.0662 -2.5876  0.0532
 9199SOL    HW239234   2.413   0.907   7.739 -0.3917 -1.2737 -1.9121
 9200SOL     OW39235   3.210   3.070   2.141  0.0647  0.5812  0.0607
 9200SOL    HW139236   3.212   3.106   2.230 -0.4679  0.6314  0.0501
 9200SOL    HW239237   3.147   3.136   2.111  0.3638 -0.5048 -2.8879
 9201SOL     OW39238   4.446   0.260  13.433 -0.0027 -0.4498  0.8904
 9201SOL    HW139239   4.399   0.182  13.404  1.2101 -0.1767 -1.9061
 9201SOL    HW239240   4.373   0.321  13.436  0.5666  0.1258  2.7726
 9202SOL     OW39241   2.785   3.422   6.367 -0.1796 -0.4100  0.1062
 9202SOL    HW139242   2.702   3.446   6.407 -0.3570  1.0214 -1.1468
 9202SOL    HW239243   2.742   3.365   6.304  2.6656 -1.8598 -0.5376
 9203SOL     OW39244   2.524   4.200   3.697 -0.3170  0.3487  0.3587
 9203SOL    HW139245   2.542   4.106   3.684 -2.5596 -0.4919  3.3643
 9203SOL    HW239246   2.565   4.244   3.622  1.4706 -0.2677  0.9732
 9204SOL     OW39247   3.356   1.145  16.088  0.0126 -0.3210  0.0814
 9204SOL    HW139248   3.310   1.166  16.006 -2.0038  0.5085  1.4498
 9204SOL    HW239249   3.392   1.059  16.067  2.2956  0.8117 -0.6804
 9205SOL     OW39250   0.330   1.953   2.882  0.3403 -0.2093  0.5476
 9205SOL    HW139251   0.365   1.879   2.832 -0.6813  0.5843 -1.3667
 9205SOL    HW239252   0.411   2.002   2.897  1.0291 -1.4288  0.7871
 9206SOL     OW39253   0.385   1.631   2.920 -0.1436  0.3721 -0.7611
 9206SOL    HW139254   0.443   1.558   2.900  1.4601  0.9475  1.7605
 9206SOL    HW239255   0.367   1.600   3.009  1.1075  0.1251 -0.5911
 9207SOL     OW39256   3.896   4.717   5.593 -0.6362 -0.1634 -0.3327
 9207SOL    HW139257   3.896   4.685   5.684  1.0468 -1.7258 -0.8781
 9207SOL    HW239258   3.851   0.066   5.604 -1.3241 -0.6216  0.4018
 9208SOL     OW39259   1.820   2.443   2.253  0.0677  0.2174  0.1128
 9208SOL    HW139260   1.867   2.433   2.336  0.1460 -1.8231 -0.1904
 9208SOL    HW239261   1.852   2.364   2.208  1.5941  0.3887  0.8976
 9209SOL     OW39262   4.394   4.659   1.452 -0.1455 -0.2834 -0.1563
 9209SOL    HW139263   4.394   4.607   1.532  0.4102 -0.0663 -0.0127
 9209SOL    HW239264   4.488   4.656   1.434  0.2047 -0.8824  1.7652
 9210SOL     OW39265   2.489   3.605   7.060 -0.7531  0.3127 -0.1382
 9210SOL    HW139266   2.435   3.539   7.104  0.0537  0.2958  0.8288
 9210SOL    HW239267   2.565   3.550   7.038 -0.3811  1.0415 -0.6547
 9211SOL     OW39268   0.023   0.775  15.204 -0.2539  0.4271  0.0345
 9211SOL    HW139269   0.049   0.832  15.276 -2.0166  3.4639 -1.7077
 9211SOL    HW239270   0.103   0.725  15.187  0.2752  0.8869  1.1953
 9212SOL     OW39271   2.433   0.871  11.818  0.0519  0.3542  0.3711
 9212SOL    HW139272   2.486   0.947  11.794 -0.2674 -0.0613 -1.6256
 9212SOL    HW239273   2.452   0.859  11.911  2.4055  0.4289 -0.0867
 9213SOL     OW39274   2.002   1.349   5.967  0.1565 -0.3088  0.1052
 9213SOL    HW139275   1.935   1.280   5.970 -1.2370  0.9942 -0.7502
 9213SOL    HW239276   2.066   1.303   6.020 -0.9409 -1.7649  0.1784
 9214SOL     OW39277   3.870   0.991   2.166 -0.1391  0.1719 -0.1227
 9214SOL    HW139278   3.928   0.918   2.143  1.3138  1.6296 -1.0742
 9214SOL    HW239279   3.932   1.040   2.220 -1.2658  0.9867  0.4329
 9215SOL     OW39280   4.317   3.965  16.521  0.2812  0.1155 -0.6751
 9215SOL    HW139281   4.262   4.017  16.580 -0.1041  0.8920 -1.7330
 9215SOL    HW239282   4.256   3.894  16.500 -0.3247 -0.3126  2.5008
 9216SOL     OW39283   0.414   2.844   7.191  0.1916 -0.2127 -0.7454
 9216SOL    HW139284   0.361   2.902   7.136  1.5443 -0.4010 -2.2526
 9216SOL    HW239285   0.340   2.802   7.234 -0.9506  1.7026 -0.8515
 9217SOL     OW39286   1.617   1.154   3.247 -0.4186 -0.7032 -0.0448
 9217SOL    HW139287   1.549   1.221   3.254  0.8172  0.3822  1.4877
 9217SOL    HW239288   1.676   1.184   3.316  0.2044  0.9268 -1.2826
 9218SOL     OW39289   0.114   1.011   9.893 -0.2003 -0.3675 -0.5706
 9218SOL    HW139290   0.114   1.105   9.874  1.3090 -0.6260 -1.8343
 9218SOL    HW239291   0.033   0.997   9.944  0.4453 -0.9306  0.2968
 9219SOL     OW39292   4.361   4.014  16.873  0.0499 -0.2209 -0.3472
 9219SOL    HW139293   4.299   4.058  16.814  0.3783  1.8440  0.8472
 9219SOL    HW239294   4.443   4.043  16.831 -0.3947  0.4765 -0.7325
 9220SOL     OW39295   2.929   0.714  15.498 -0.7672  0.3074  0.4595
 9220SOL    HW139296   2.880   0.711  15.580 -0.7970 -0.6421  0.4019
 9220SOL    HW239297   2.877   0.666  15.434  1.3379 -3.0984  1.3143
 9221SOL     OW39298   3.079   4.486   3.538  0.2263  0.3669  0.7187
 9221SOL    HW139299   3.088   4.493   3.633 -2.7372  2.7103  0.8201
 9221SOL    HW239300   2.991   4.522   3.528  0.9169  1.8695  0.1780
 9222SOL     OW39301   0.118   1.750  10.950  0.6347  0.1446 -0.3889
 9222SOL    HW139302   0.039   1.797  10.923  1.7353  0.1309 -3.6660
 9222SOL    HW239303   0.098   1.720  11.039 -0.6719  2.3134  0.0611
 9223SOL     OW39304   4.521   1.425   2.520  0.0196 -0.1062  0.1349
 9223SOL    HW139305   4.498   1.504   2.471  3.4415  0.5340 -0.4528
 9223SOL    HW239306   4.545   1.452   2.608  3.2582 -0.8234 -0.5419
 9224SOL     OW39307   0.724   2.334   0.910 -0.0011 -1.0599 -0.1266
 9224SOL    HW139308   0.677   2.400   0.961  0.8014 -1.4686  1.1066
 9224SOL    HW239309   0.804   2.322   0.960 -0.1530 -0.8892  0.1563
 9225SOL     OW39310   2.203   0.640   4.167  0.4748 -0.9033 -0.3852
 9225SOL    HW139311   2.287   0.648   4.121 -0.1135 -0.0093 -1.3272
 9225SOL    HW239312   2.207   0.551   4.200  0.0210 -0.8167 -0.0874
 9226SOL     OW39313   1.572   4.346   6.094 -0.0025  0.7031  0.3927
 9226SOL    HW139314   1.649   4.336   6.150 -1.1745 -0.7262  1.7301
 9226SOL    HW239315   1.505   4.283   6.120  1.1913  0.2943  2.4760
 9227SOL     OW39316   1.741   1.545   7.800 -0.1465 -0.3241  0.9525
 9227SOL    HW139317   1.710   1.610   7.863  0.8421  0.7084  0.3785
 9227SOL    HW239318   1.704   1.581   7.719 -0.4949  1.4299  1.8820
 9228SOL     OW39319   4.437   1.850   3.297  0.3341  0.2204 -0.7676
 9228SOL    HW139320   4.441   1.755   3.290 -0.3671  0.1881 -0.6276
 9228SOL    HW239321   4.396   1.875   3.214  0.5697 -0.1717 -1.0040
 9229SOL     OW39322   1.052   3.762   9.174 -0.0459  0.2688  0.2205
 9229SOL    HW139323   1.009   3.700   9.232  1.0028 -0.4556  0.2320
 9229SOL    HW239324   1.144   3.734   9.182 -0.4349 -1.0050  0.2074
 9230SOL     OW39325   2.270   0.952  11.630  0.5023 -0.0039  0.0192
 9230SOL    HW139326   2.313   0.924  11.711 -0.9733 -0.0545  0.7777
 9230SOL    HW239327   2.237   0.866  11.604  2.5208 -0.6775 -0.3320
 9231SOL     OW39328   4.673   0.264   1.054 -0.7557 -0.0728  0.0030
 9231SOL    HW139329   0.008   0.207   1.089  0.4709  0.8132 -0.9602
 9231SOL    HW239330   4.598   0.206   1.063 -2.0491  1.3626 -1.6261
 9232SOL     OW39331   1.570   4.070   9.306  0.0905 -0.1351 -0.9585
 9232SOL    HW139332   1.575   3.998   9.244  1.0188 -0.8728 -0.0147
 9232SOL    HW239333   1.483   4.065   9.345  1.2379 -2.4908  1.2779
 9233SOL     OW39334   4.179   3.777  17.307  0.4841 -0.2123 -1.0477
 9233SOL    HW139335   4.182   3.849  17.244 -1.2560 -1.4833 -2.5620
 9233SOL    HW239336   4.220   3.708  17.254  0.9181 -1.3856  0.8159
 9234SOL     OW39337   2.503   4.051  16.562  0.1543  0.3736  0.2512
 9234SOL    HW139338   2.431   4.016  16.510 -1.1525  0.7906  1.7911
 9234SOL    HW239339   2.470   4.032  16.650 -0.7099  1.3932  0.1424
 9235SOL     OW39340   0.554   0.514   2.478 -0.0503  0.3145 -0.1617
 9235SOL    HW139341   0.475   0.462   2.466  0.6431 -0.4469 -1.3547
 9235SOL    HW239342   0.600   0.460   2.542 -0.2491  1.8345  1.2717
 9236SOL     OW39343   3.956   4.034   4.856 -0.5229 -0.4386  0.2879
 9236SOL    HW139344   4.012   4.055   4.781 -0.8151 -0.2791  0.1119
 9236SOL    HW239345   3.874   4.025   4.808 -0.0311  1.4755 -0.9370
 9237SOL     OW39346   1.366   4.545   4.387 -0.0131  0.5841  0.2717
 9237SOL    HW139347   1.431   4.597   4.434 -1.2966  0.8399  1.7805
 9237SOL    HW239348   1.373   4.577   4.297 -0.4711 -0.9243 -0.2979
 9238SOL     OW39349   1.547   4.616   6.109 -0.4226  0.2453 -0.1741
 9238SOL    HW139350   1.492   4.659   6.044  0.1558  0.7641 -0.3187
 9238SOL    HW239351   1.535   4.521   6.098 -0.3290  0.3503 -1.1686
 9239SOL     OW39352   3.005   3.813   5.178 -0.1295  0.4522 -0.0119
 9239SOL    HW139353   3.028   3.864   5.256 -2.8097  2.0968 -0.3095
 9239SOL    HW239354   3.092   3.774   5.167  0.1272  1.2136 -0.7227
 9240SOL     OW39355   1.463   1.703   4.838  0.5705  0.6720  0.2671
 9240SOL    HW139356   1.515   1.664   4.767  1.6887  1.8485  0.4450
 9240SOL    HW239357   1.501   1.654   4.911  1.7809 -0.1847 -0.9333
 9241SOL     OW39358   4.413   2.734   6.835  0.2774  0.4872  0.0307
 9241SOL    HW139359   4.404   2.690   6.750 -0.2735 -0.5234  0.6108
 9241SOL    HW239360   4.359   2.679   6.892  0.3277 -0.0973 -0.4896
 9242SOL     OW39361   3.892   3.647   5.885 -0.6654 -0.2140 -0.1795
 9242SOL    HW139362   3.913   3.640   5.978 -1.0654  0.9655 -0.0027
 9242SOL    HW239363   3.908   3.560   5.849 -2.0480  0.0362 -1.3932
 9243SOL     OW39364   1.321   3.032   4.492 -0.3221 -0.5818  0.4058
 9243SOL    HW139365   1.250   3.032   4.556 -0.4315 -3.1241  0.2855
 9243SOL    HW239366   1.386   3.076   4.547  0.6632 -0.4687 -0.8543
 9244SOL     OW39367   1.418   3.415   2.792 -0.0626 -0.3521  0.2918
 9244SOL    HW139368   1.382   3.437   2.706 -2.9848 -0.3667  1.5370
 9244SOL    HW239369   1.511   3.410   2.767  0.6741  1.4943  2.7194
 9245SOL     OW39370   0.563   0.348   4.616  0.0703  0.8485  0.2184
 9245SOL    HW139371   0.622   0.275   4.638 -0.6250 -0.0135 -0.7843
 9245SOL    HW239372   0.574   0.404   4.693  0.0097 -0.0987  0.9078
 9246SOL     OW39373   3.688   4.624  11.262  0.5944 -0.4980  0.4023
 9246SOL    HW139374   3.733   4.559  11.317  0.2979 -1.8513 -0.9530
 9246SOL    HW239375   3.601   4.595  11.290  1.1465 -2.6296 -0.0610
 9247SOL     OW39376   0.357   2.810   4.557 -0.0004  0.1217  0.1917
 9247SOL    HW139377   0.298   2.810   4.482 -0.3035  3.7245  0.4237
 9247SOL    HW239378   0.382   2.903   4.562  0.7809 -0.0813  0.1399
 9248SOL     OW39379   4.468   0.567   0.751 -0.1188 -0.0741 -0.2976
 9248SOL    HW139380   4.421   0.638   0.794 -1.5314 -1.4653  0.4269
 9248SOL    HW239381   4.554   0.609   0.748 -0.1954  0.2135  1.2717
 9249SOL     OW39382   4.679   4.661  13.247 -0.2562 -0.0300  0.0552
 9249SOL    HW139383   4.716   4.713  13.176 -1.8347  0.1751 -0.6212
 9249SOL    HW239384   4.625   4.730  13.285 -1.2295 -0.8232  0.1212
 9250SOL     OW39385   0.986   4.469  16.306  0.1401  0.0058  0.0261
 9250SOL    HW139386   0.922   4.410  16.266 -0.6798 -0.3970  1.9196
 9250SOL    HW239387   0.999   4.533  16.237 -3.1269  0.3777 -0.2607
 9251SOL     OW39388   0.123   2.733   6.609 -0.6188 -0.2121  0.1613
 9251SOL    HW139389   0.215   2.715   6.626 -0.9927  0.0694  2.4944
 9251SOL    HW239390   0.094   2.743   6.700  1.1677 -1.6715  0.8721
 9252SOL     OW39391   4.702   1.464   7.774 -0.0796  0.2259  0.3487
 9252SOL    HW139392   0.050   1.446   7.821 -0.2962  2.7638  1.6395
 9252SOL    HW239393   4.715   1.406   7.699 -1.7007  0.1638  0.1198
 9253SOL     OW39394   1.481   2.475   3.297  0.5223 -0.4638 -0.2198
 9253SOL    HW139395   1.574   2.474   3.276  0.9256  0.7848  1.4806
 9253SOL    HW239396   1.455   2.506   3.210  1.5803 -1.1635 -0.7804
 9254SOL     OW39397   2.027   0.077  14.795 -0.4740  0.2733  0.1367
 9254SOL    HW139398   2.013   0.150  14.735  0.1907 -0.4749 -0.9194
 9254SOL    HW239399   2.015   0.002  14.737  1.0003  1.0558 -1.1807
 9255SOL     OW39400   3.576   1.436   2.590  0.0991  0.3294 -0.4223
 9255SOL    HW139401   3.519   1.513   2.578  0.2173  0.6175  0.8292
 9255SOL    HW239402   3.586   1.442   2.685 -0.2628 -0.2755 -0.3464
 9256SOL     OW39403   3.612   0.305  10.447  0.1063 -0.0426  0.3801
 9256SOL    HW139404   3.656   0.225  10.417 -1.7359 -0.9237  0.0300
 9256SOL    HW239405   3.605   0.289  10.541  0.8935  0.8262  0.5853
 9257SOL     OW39406   2.311   1.001   1.839  0.6264 -0.2708 -0.0197
 9257SOL    HW139407   2.220   0.978   1.818 -0.0704  2.2745  0.1570
 9257SOL    HW239408   2.354   0.953   1.768  1.8697  0.4203  0.2630
 9258SOL     OW39409   2.419   4.079   5.122  0.7277  0.2222  0.2726
 9258SOL    HW139410   2.488   4.015   5.107  0.4760  0.1312 -0.4615
 9258SOL    HW239411   2.362   4.076   5.046 -0.0446 -2.5984  0.9521
 9259SOL     OW39412   4.036   1.401   6.697  0.5053 -0.0796 -0.3537
 9259SOL    HW139413   3.985   1.477   6.672  1.6440  0.7329 -0.1914
 9259SOL    HW239414   3.972   1.335   6.668  0.0648 -0.8441  2.3991
 9260SOL     OW39415   2.758   3.109   8.216 -0.0879 -0.2470 -0.0833
 9260SOL    HW139416   2.822   3.124   8.286  0.9144  0.7821 -1.2254
 9260SOL    HW239417   2.769   3.190   8.167 -1.7118  0.0775  0.0715
 9261SOL     OW39418   1.536   2.522  13.024  0.6265 -0.3728  0.1614
 9261SOL    HW139419   1.474   2.535  12.952  1.7106 -0.0228 -0.7094
 9261SOL    HW239420   1.521   2.430  13.047  1.0546 -0.7097 -0.8906
 9262SOL     OW39421   4.707   0.405  16.633  0.2624 -0.1075  0.0562
 9262SOL    HW139422   4.628   0.366  16.596 -1.6824  3.0662  0.9184
 9262SOL    HW239423   0.018   0.403  16.549  0.0969  2.2428 -0.0715
 9263SOL     OW39424   3.339   2.163   4.150  0.5356  0.1825  0.0358
 9263SOL    HW139425   3.269   2.216   4.189 -0.0174  1.4837 -2.7569
 9263SOL    HW239426   3.409   2.164   4.215 -0.9172 -0.3718  1.6163
 9264SOL     OW39427   3.586   1.854   4.377 -0.1055  0.2144 -0.0909
 9264SOL    HW139428   3.598   1.932   4.432  1.0160  0.8837 -1.2708
 9264SOL    HW239429   3.514   1.883   4.322 -0.0165 -1.0122 -0.8429
 9265SOL     OW39430   3.675   1.940   8.802 -0.2120  0.3322 -0.5626
 9265SOL    HW139431   3.696   2.002   8.731  0.2171  0.0853 -0.6530
 9265SOL    HW239432   3.727   1.869   8.765  1.7774  0.7371  1.4532
 9266SOL     OW39433   3.670   1.796   2.804  0.3090 -0.0748 -0.0701
 9266SOL    HW139434   3.599   1.759   2.751 -0.8418  1.2701  0.5116
 9266SOL    HW239435   3.740   1.777   2.742  0.6551 -0.4438  0.4344
 9267SOL     OW39436   0.187   1.324   6.461  0.1627 -0.4921  0.2351
 9267SOL    HW139437   0.148   1.345   6.546 -0.0832 -0.4369  0.1053
 9267SOL    HW239438   0.197   1.229   6.472  0.5227 -0.5207 -0.3137
 9268SOL     OW39439   2.730   3.550   8.984  0.0315 -0.0612 -0.8240
 9268SOL    HW139440   2.824   3.569   8.976  0.2632 -0.8334 -0.0400
 9268SOL    HW239441   2.723   3.617   9.052  2.3568 -0.3882 -0.2328
 9269SOL     OW39442   0.725   1.302   4.754 -0.5724  0.1987 -0.5269
 9269SOL    HW139443   0.809   1.348   4.762 -1.5771  1.6588  1.5664
 9269SOL    HW239444   0.762   1.214   4.753  0.7173  0.7535 -1.5266
 9270SOL     OW39445   2.535   2.168   4.572  0.5907 -0.5795 -0.1904
 9270SOL    HW139446   2.574   2.246   4.532  0.0626  0.0670  0.5604
 9270SOL    HW239447   2.452   2.173   4.525  0.8477 -0.2975 -0.6117
 9271SOL     OW39448   2.736   0.998   3.565 -0.2240  0.5075  0.2432
 9271SOL    HW139449   2.648   0.961   3.555  0.0943 -0.4258  0.8767
 9271SOL    HW239450   2.750   0.988   3.659 -0.4326  0.4561  0.2683
 9272SOL     OW39451   1.332   4.430  14.254 -0.1030  0.0031  0.8748
 9272SOL    HW139452   1.272   4.467  14.318  0.2785 -0.6385  1.6191
 9272SOL    HW239453   1.335   4.484  14.176 -1.6090  1.2233  1.6698
 9273SOL     OW39454   0.506   1.435   8.158 -0.2042  0.3708  0.2536
 9273SOL    HW139455   0.557   1.368   8.114  0.5924  2.5017 -2.0635
 9273SOL    HW239456   0.550   1.516   8.130 -1.5118  0.6542 -0.9468
 9274SOL     OW39457   0.569   1.943   5.637  0.0989  0.3272  0.4291
 9274SOL    HW139458   0.657   1.926   5.670 -0.4824 -0.0126  1.7773
 9274SOL    HW239459   0.533   1.997   5.707  1.5915 -0.5671  1.8782
 9275SOL     OW39460   2.541   2.235   3.239 -0.6196 -0.2512  0.0455
 9275SOL    HW139461   2.598   2.261   3.312 -1.9543 -1.9364  1.7193
 9275SOL    HW239462   2.466   2.284   3.273  0.3791  2.2025 -1.2857
 9276SOL     OW39463   3.619   3.738   5.811 -0.0191 -0.3681 -0.2230
 9276SOL    HW139464   3.703   3.719   5.851  0.5120  1.0218 -0.6648
 9276SOL    HW239465   3.634   3.820   5.763  2.4175  0.2040  1.5248
 9277SOL     OW39466   1.435   2.408   1.868  0.0407  0.0152 -0.8699
 9277SOL    HW139467   1.401   2.329   1.911 -0.4144 -0.8629 -2.8437
 9277SOL    HW239468   1.496   2.358   1.814  0.5494 -1.7371  1.3389
 9278SOL     OW39469   2.325   1.355   2.784  0.4392 -0.0473 -0.0692
 9278SOL    HW139470   2.277   1.312   2.854 -0.7325 -0.2641 -0.9980
 9278SOL    HW239471   2.371   1.276   2.757  0.2795 -0.0529 -0.3301
 9279SOL     OW39472   3.187   1.542   5.118 -0.2999  0.2858  0.7131
 9279SOL    HW139473   3.245   1.554   5.042 -0.8032 -1.8417 -0.0146
 9279SOL    HW239474   3.185   1.446   5.111  0.1011  0.3608 -0.6059
 9280SOL     OW39475   1.314   1.257   1.057 -0.1548  0.0567 -0.0066
 9280SOL    HW139476   1.340   1.328   0.998  0.9569  0.6640  1.2062
 9280SOL    HW239477   1.344   1.183   1.005 -0.4001 -1.1225  1.5520
 9281SOL     OW39478   4.603   1.978   3.029 -0.0215 -0.2231 -0.2937
 9281SOL    HW139479   4.567   2.061   3.062  1.2975  0.5895 -0.9283
 9281SOL    HW239480   4.529   1.917   3.026  1.4989 -1.9249 -3.0790
 9282SOL     OW39481   3.063   1.337  12.142 -0.4830 -0.0351 -0.0222
 9282SOL    HW139482   2.981   1.362  12.098 -0.4168  0.1509 -0.0357
 9282SOL    HW239483   3.035   1.364  12.229  0.8081  1.5307 -0.1094
 9283SOL     OW39484   3.399   1.513   5.294 -0.0060 -0.1299 -0.0855
 9283SOL    HW139485   3.413   1.601   5.330 -2.7412  0.6693 -0.9765
 9283SOL    HW239486   3.318   1.532   5.246  0.6375  0.7396 -0.8109
 9284SOL     OW39487   4.355   1.488  10.525 -0.1358 -0.3697  0.0242
 9284SOL    HW139488   4.417   1.494  10.597 -0.1108  1.2246 -0.1299
 9284SOL    HW239489   4.367   1.568  10.474  1.5523  1.3221  3.1214
 9285SOL     OW39490   0.327   0.782   4.643  0.3419 -0.0709  0.3313
 9285SOL    HW139491   0.365   0.868   4.626 -0.2172  0.7681  3.1963
 9285SOL    HW239492   0.254   0.783   4.582  0.4411  1.2832  0.2476
 9286SOL     OW39493   2.914   4.080  12.989 -0.1397 -0.3686 -0.0363
 9286SOL    HW139494   2.886   4.166  12.959  0.0916 -0.3636 -0.2392
 9286SOL    HW239495   2.943   4.100  13.078  1.7021 -0.9927 -0.4912
 9287SOL     OW39496   0.069   0.912   7.705 -0.9533  0.4840  0.3389
 9287SOL    HW139497   0.143   0.863   7.742 -0.3170  0.2044 -1.3205
 9287SOL    HW239498   0.107   0.946   7.624  0.2697 -0.3945  0.5518
 9288SOL     OW39499   0.582   2.959   5.648 -0.5104  0.2244 -0.6460
 9288SOL    HW139500   0.594   2.959   5.743  0.5499  1.3662 -0.7713
 9288SOL    HW239501   0.643   3.031   5.632  1.8291 -0.8896  3.3614
 9289SOL     OW39502   1.941   4.199   8.075  0.8439  0.0551 -0.1316
 9289SOL    HW139503   1.998   4.270   8.105  0.4367  1.1371 -1.8982
 9289SOL    HW239504   1.996   4.121   8.066 -0.7441 -0.9990 -0.7859
 9290SOL     OW39505   3.819   1.290  16.247  0.0550 -0.5610  0.0239
 9290SOL    HW139506   3.734   1.249  16.263 -0.0610 -0.4091 -0.2022
 9290SOL    HW239507   3.878   1.215  16.259  1.1818  0.0329 -1.6651
 9291SOL     OW39508   3.253   4.155  16.901 -0.0621  0.1397  0.2744
 9291SOL    HW139509   3.309   4.103  16.844 -0.9926  2.6430 -2.9576
 9291SOL    HW239510   3.169   4.122  16.871 -0.2817  0.2984  0.7039
 9292SOL     OW39511   2.512   1.506   9.097  0.7163 -0.5167 -0.6122
 9292SOL    HW139512   2.476   1.427   9.137  0.8704  0.4532  1.4039
 9292SOL    HW239513   2.604   1.494   9.119  0.8349  0.1368 -0.7492
 9293SOL     OW39514   0.172   2.935   3.659 -0.4614  0.1819 -0.0466
 9293SOL    HW139515   0.167   2.885   3.740 -1.4834  1.6284  0.7931
 9293SOL    HW239516   0.082   2.933   3.626  0.1275 -1.2101 -1.5674
 9294SOL     OW39517   1.855   3.822   6.211  0.1809 -0.7264 -0.0930
 9294SOL    HW139518   1.808   3.895   6.251  0.4103 -0.8009  0.3091
 9294SOL    HW239519   1.781   3.764   6.191 -0.7511  1.5319 -3.1546
 9295SOL     OW39520   0.502   2.103   7.939  0.3095 -0.2372 -0.7233
 9295SOL    HW139521   0.498   2.019   7.894  0.6672 -0.3622 -0.5191
 9295SOL    HW239522   0.412   2.127   7.918 -0.0526 -0.7627  0.2290
 9296SOL     OW39523   4.154   2.733   2.883 -0.4204 -0.6908 -0.0300
 9296SOL    HW139524   4.105   2.813   2.863  0.6821 -0.1518 -0.6321
 9296SOL    HW239525   4.200   2.767   2.960  0.7544  0.4631 -1.2283
 9297SOL     OW39526   2.500   0.827  10.546 -0.2070 -0.0852 -0.7730
 9297SOL    HW139527   2.589   0.792  10.542 -0.6839 -1.4877  0.9803
 9297SOL    HW239528   2.463   0.767  10.611  3.5820  0.6145  1.9987
 9298SOL     OW39529   2.999   1.212   6.724 -0.1871 -0.6348  0.0015
 9298SOL    HW139530   3.049   1.229   6.644 -1.9026 -1.6919 -1.2815
 9298SOL    HW239531   3.003   1.118   6.741  0.3221 -0.2893  1.8060
 9299SOL     OW39532   4.323   0.318   7.194 -0.5792  0.2249 -0.1939
 9299SOL    HW139533   4.230   0.325   7.172 -0.4869  1.2760 -0.2252
 9299SOL    HW239534   4.342   0.411   7.188 -1.4768  0.5719  2.4994
 9300SOL     OW39535   2.892   3.667  10.661  0.7311  0.5372  0.0965
 9300SOL    HW139536   2.885   3.574  10.678 -0.6886  0.6408  0.0961
 9300SOL    HW239537   2.824   3.705  10.717 -0.1596 -1.8032  0.5875
 9301SOL     OW39538   3.307   4.653   0.456 -0.4249  0.0619 -0.3100
 9301SOL    HW139539   3.380   4.591   0.450  0.5629  1.3343 -1.4112
 9301SOL    HW239540   3.261   4.608   0.527 -1.3003  1.4340 -0.0114
 9302SOL     OW39541   2.922   1.732  15.814  0.0776  0.5229  0.0809
 9302SOL    HW139542   2.981   1.793  15.859 -0.1360  0.0641  0.9852
 9302SOL    HW239543   2.854   1.717  15.879 -0.1455 -0.2037 -0.3227
 9303SOL     OW39544   1.985   1.691  15.586 -0.4240  0.0047 -0.3160
 9303SOL    HW139545   1.906   1.740  15.609  0.6600  2.3993 -1.7394
 9303SOL    HW239546   2.037   1.712  15.664  2.1235 -3.8084 -0.9877
 9304SOL     OW39547   1.223   3.063   8.380 -0.0805 -0.2886  0.1715
 9304SOL    HW139548   1.214   3.152   8.416 -0.7173  0.5654 -2.1087
 9304SOL    HW239549   1.314   3.047   8.404 -0.2364 -1.5731 -0.1098
 9305SOL     OW39550   0.869   1.041  12.830 -0.7116 -0.6199  0.1694
 9305SOL    HW139551   0.921   1.016  12.753  0.7228 -0.3978  1.0682
 9305SOL    HW239552   0.900   1.127  12.858  1.2744 -0.2951 -2.9914
 9306SOL     OW39553   0.396   2.989   6.547  0.1455 -0.7934  0.1480
 9306SOL    HW139554   0.433   2.988   6.459 -0.8495 -2.0846 -0.2573
 9306SOL    HW239555   0.304   2.979   6.522 -0.3174  0.9205  1.1521
 9307SOL     OW39556   0.761   1.896   2.383  0.2320  0.2093  0.3042
 9307SOL    HW139557   0.807   1.921   2.463  0.2049  0.8183  0.1267
 9307SOL    HW239558   0.794   1.964   2.324  0.3609  0.6808  0.9154
 9308SOL     OW39559   1.248   2.783  16.429  0.0766  0.1533  0.0393
 9308SOL    HW139560   1.306   2.854  16.402  0.6499 -0.4532 -0.3200
 9308SOL    HW239561   1.287   2.763  16.514 -0.5817  0.5477  0.4368
 9309SOL     OW39562   4.229   0.118  15.227 -0.0260  0.1991 -0.0089
 9309SOL    HW139563   4.143   0.119  15.184  0.8129 -0.1721 -1.7210
 9309SOL    HW239564   4.262   0.038  15.185 -1.4490  0.2827 -1.3080
 9310SOL     OW39565   3.359   0.193   7.693  0.0907 -0.7148 -0.4118
 9310SOL    HW139566   3.387   0.281   7.720  1.0497 -1.8005  2.1256
 9310SOL    HW239567   3.418   0.133   7.738  1.7033  2.8643  2.2574
 9311SOL     OW39568   2.112   0.698  14.544  0.1299  0.1638 -0.3165
 9311SOL    HW139569   2.125   0.760  14.473 -0.7181  2.0198  1.1612
 9311SOL    HW239570   2.038   0.724  14.599  0.1729 -0.9988  0.3077
 9312SOL     OW39571   1.917   1.302   1.872  0.4087 -0.5492 -0.0557
 9312SOL    HW139572   1.834   1.297   1.921  0.9685 -2.7064  0.6672
 9312SOL    HW239573   1.925   1.214   1.835  1.5445  0.3593 -1.9494
 9313SOL     OW39574   2.022   0.764   8.663 -0.4192  0.0429  0.2850
 9313SOL    HW139575   2.096   0.804   8.709 -1.1527  0.8147  0.7778
 9313SOL    HW239576   1.997   0.698   8.727  1.5469 -1.5654 -0.5910
 9314SOL     OW39577   1.145   0.307   4.163 -0.2207  0.3975  0.5852
 9314SOL    HW139578   1.210   0.375   4.183 -0.2196  0.3430  0.7613
 9314SOL    HW239579   1.072   0.368   4.148 -0.1744  0.1469 -0.6323
 9315SOL     OW39580   0.692   1.296   7.978  0.3422 -0.0711 -0.3099
 9315SOL    HW139581   0.733   1.262   8.057  0.0518  0.0531 -0.1067
 9315SOL    HW239582   0.769   1.328   7.930 -0.0134 -3.2899 -3.0075
 9316SOL     OW39583   3.705   0.977   9.114  0.0692  0.8201 -0.0356
 9316SOL    HW139584   3.657   1.019   9.042  1.8995  1.2900 -0.9933
 9316SOL    HW239585   3.652   0.900   9.134  0.1418  0.6653 -0.4333
 9317SOL     OW39586   4.671   4.079   6.154  0.0146  0.0307 -0.6711
 9317SOL    HW139587   4.715   4.047   6.233 -2.6476 -2.8318 -0.3359
 9317SOL    HW239588   4.605   4.145   6.172  0.9337  1.1105 -1.2872
 9318SOL     OW39589   3.760   3.975  16.644 -0.4563 -0.1669  0.1280
 9318SOL    HW139590   3.813   4.055  16.647  0.6829 -0.8447 -2.6479
 9318SOL    HW239591   3.828   3.908  16.644  0.4890  0.7934  0.2765
 9319SOL     OW39592   0.156   0.079   3.087  0.3939 -0.1672  0.2771
 9319SOL    HW139593   0.071   0.076   3.043  0.0872  0.9540  0.7941
 9319SOL    HW239594   0.203   0.005   3.050  1.2478  0.0189  0.9931
 9320SOL     OW39595   4.239   0.078   3.374  0.3446 -0.2359  0.0819
 9320SOL    HW139596   4.191   0.004   3.337 -0.0160  0.4586 -0.8531
 9320SOL    HW239597   4.312   0.026   3.406  1.6634  1.6155  0.0809
 9321SOL     OW39598   1.996   3.390   4.203  0.8057  0.7294 -0.1299
 9321SOL    HW139599   1.988   3.299   4.173  0.0987  1.1845 -1.3137
 9321SOL    HW239600   2.044   3.430   4.130  1.7970 -1.6122 -0.7790
 9322SOL     OW39601   3.564   4.511   8.083 -0.2449 -0.1489 -0.3779
 9322SOL    HW139602   3.564   4.437   8.022  0.9624  1.6228 -2.5207
 9322SOL    HW239603   3.496   4.481   8.143 -0.9508  0.9461 -0.6558
 9323SOL     OW39604   3.200   1.978  14.597  0.2672  0.4089  0.0559
 9323SOL    HW139605   3.279   1.980  14.542  0.6712  0.5960  0.6396
 9323SOL    HW239606   3.217   1.894  14.641 -0.2168 -1.1413 -2.7205
 9324SOL     OW39607   1.705   2.340   6.277  0.5353  0.4886 -0.0254
 9324SOL    HW139608   1.686   2.256   6.317 -0.7675  0.7206 -0.1670
 9324SOL    HW239609   1.670   2.392   6.349  1.9500  0.7907  0.4504
 9325SOL     OW39610   3.338   2.823   5.286  0.2140 -0.1227 -0.7424
 9325SOL    HW139611   3.282   2.900   5.270 -0.9486 -0.6203  0.9243
 9325SOL    HW239612   3.278   2.755   5.254  0.1040 -1.5844  2.6167
 9326SOL     OW39613   3.855   3.663   4.917  0.0667  0.1571 -0.5281
 9326SOL    HW139614   3.898   3.718   4.852  0.1759  0.1686 -0.4450
 9326SOL    HW239615   3.929   3.641   4.973  1.0860  0.5005 -1.7341
 9327SOL     OW39616   1.281   0.129   4.032 -0.8210 -0.6210 -0.4264
 9327SOL    HW139617   1.267   0.205   4.090  0.0035  0.7542 -2.0260
 9327SOL    HW239618   1.266   0.155   3.941  1.4621 -1.0625 -0.9175
 9328SOL     OW39619   3.054   4.019  13.239 -0.0338 -0.1581 -0.0515
 9328SOL    HW139620   3.071   3.942  13.292  0.2792 -0.2434 -0.2776
 9328SOL    HW239621   3.134   4.070  13.239  0.1163 -0.3795 -1.7727
 9329SOL     OW39622   0.646   0.591  14.804  0.1232 -0.3499 -0.3949
 9329SOL    HW139623   0.612   0.665  14.756 -2.2689 -1.5088 -0.4647
 9329SOL    HW239624   0.584   0.522  14.780 -0.9144  0.1048  0.9597
 9330SOL     OW39625   3.476   0.069  11.665  0.2972  0.2013 -0.4930
 9330SOL    HW139626   3.506   0.146  11.618 -0.7014  0.0115 -1.4259
 9330SOL    HW239627   3.457   0.113  11.748  0.5820  1.4476 -1.0897
 9331SOL     OW39628   0.272   0.503   4.462  0.6005  0.1277  0.6594
 9331SOL    HW139629   0.186   0.538   4.442 -0.0587 -2.8421 -1.5857
 9331SOL    HW239630   0.266   0.407   4.459 -1.1865  0.2788 -0.2291
 9332SOL     OW39631   1.038   2.051   9.756 -0.1223  0.8495  0.8996
 9332SOL    HW139632   1.123   2.064   9.796  1.9846  0.5740 -3.4590
 9332SOL    HW239633   1.038   1.956   9.742 -1.5219  0.9784 -0.0963
 9333SOL     OW39634   4.013   2.197   3.712  0.2130  0.3303 -0.8254
 9333SOL    HW139635   4.007   2.155   3.797 -0.1418  3.0155  0.4500
 9333SOL    HW239636   4.056   2.125   3.665 -0.2080 -0.6872  0.3657
 9334SOL     OW39637   1.111   2.244   2.332  0.2661  0.1200 -0.0807
 9334SOL    HW139638   1.184   2.259   2.272 -1.4328  0.9288 -1.9435
 9334SOL    HW239639   1.139   2.162   2.374 -1.5985 -0.2044  0.5176
 9335SOL     OW39640   1.055   1.105   9.846 -0.3024 -0.7936  0.2738
 9335SOL    HW139641   1.057   1.024   9.898  0.9603 -0.3016  0.9822
 9335SOL    HW239642   1.058   1.166   9.919 -0.3471 -1.1613  0.5871
 9336SOL     OW39643   1.465   3.221  13.470 -0.6000  0.6731 -0.2774
 9336SOL    HW139644   1.485   3.272  13.549  0.7164 -0.7509  0.3123
 9336SOL    HW239645   1.541   3.163  13.472  0.5473  2.1943  1.3790
 9337SOL     OW39646   0.897   3.589   6.976  0.4528  0.1449  0.0500
 9337SOL    HW139647   0.895   3.531   7.052  0.7808  2.0418  1.4985
 9337SOL    HW239648   0.985   3.570   6.944  0.8264  0.5317  0.8488
 9338SOL     OW39649   3.541   2.928   4.780 -0.7667 -0.5948  0.0805
 9338SOL    HW139650   3.631   2.945   4.752 -0.5087 -2.4143 -0.2037
 9338SOL    HW239651   3.503   2.894   4.699  0.9822 -1.0180 -0.5590
 9339SOL     OW39652   1.701   1.344   7.390  0.0886  0.2354 -0.1930
 9339SOL    HW139653   1.735   1.374   7.306 -3.4434  1.9296 -1.0149
 9339SOL    HW239654   1.619   1.302   7.362 -1.1206  2.3269  0.2548
 9340SOL     OW39655   4.022   0.979   2.782  0.1909  0.0093  0.4101
 9340SOL    HW139656   4.061   0.956   2.866 -1.7811 -0.5844  1.1641
 9340SOL    HW239657   3.960   1.046   2.810  1.6683  1.4110  0.3414
 9341SOL     OW39658   4.564   4.695   7.515  0.3968 -0.6115  0.2990
 9341SOL    HW139659   4.606   4.612   7.491  0.6123  0.1389 -1.9313
 9341SOL    HW239660   4.604   0.029   7.461 -0.7366 -1.1709 -1.2456
 9342SOL     OW39661   2.999   3.472   8.175  0.2922  0.1766 -0.0482
 9342SOL    HW139662   3.045   3.501   8.254  1.4884 -3.3174  0.5209
 9342SOL    HW239663   3.033   3.531   8.107  0.5750 -1.1566 -1.0528
 9343SOL     OW39664   2.439   2.371   7.914 -0.4536  0.0966 -0.0000
 9343SOL    HW139665   2.504   2.441   7.919 -1.3974  0.9150  0.7521
 9343SOL    HW239666   2.500   2.301   7.895 -1.1562 -0.3244 -0.7049
 9344SOL     OW39667   3.971   1.379   5.824 -0.4718 -0.0768 -0.2065
 9344SOL    HW139668   3.990   1.286   5.831  0.7155  0.4297  3.2205
 9344SOL    HW239669   3.927   1.391   5.740  0.9488  3.7456 -0.4307
 9345SOL     OW39670   3.673   1.819   5.484 -0.1191  0.0871 -0.0776
 9345SOL    HW139671   3.714   1.749   5.535 -1.6905 -0.1023  0.9473
 9345SOL    HW239672   3.701   1.895   5.534  2.3666 -0.0067 -1.2947
 9346SOL     OW39673   4.234   0.607   2.982 -0.3892 -0.2997  0.3430
 9346SOL    HW139674   4.203   0.652   2.904  3.3918 -0.5555 -1.3223
 9346SOL    HW239675   4.329   0.622   2.978 -0.4126 -0.0057  1.0125
 9347SOL     OW39676   1.951   0.614   3.424  0.3525 -0.3779  0.0366
 9347SOL    HW139677   1.884   0.646   3.485  0.2850 -2.4822  1.0661
 9347SOL    HW239678   2.031   0.613   3.478 -0.0053 -1.1498  0.5445
 9348SOL     OW39679   2.467   0.759   4.918 -0.1416  0.4375  1.1445
 9348SOL    HW139680   2.531   0.797   4.976 -0.7249  2.0577  0.7255
 9348SOL    HW239681   2.437   0.832   4.864  1.4955 -0.1402 -0.5423
 9349SOL     OW39682   3.225   2.070   3.353  0.6540 -0.8174  0.0360
 9349SOL    HW139683   3.193   1.992   3.308 -2.4356  0.5069 -0.0479
 9349SOL    HW239684   3.169   2.073   3.431  1.5701  3.0835  0.5433
 9350SOL     OW39685   4.300   4.518   3.645  0.1474 -0.7262 -0.1304
 9350SOL    HW139686   4.357   4.499   3.720  1.6302  0.7846 -0.8799
 9350SOL    HW239687   4.356   4.573   3.591 -0.4308 -0.4424 -0.4397
 9351SOL     OW39688   1.830   0.763  17.189  0.1803  0.2218  0.7905
 9351SOL    HW139689   1.839   0.794  17.279 -0.4576  0.6071  0.7232
 9351SOL    HW239690   1.874   0.834  17.141 -0.5611 -1.4997 -2.4562
 9352SOL     OW39691   1.020   2.899   2.076  0.0284 -0.3231  0.8179
 9352SOL    HW139692   1.033   2.972   2.136  0.0729 -1.5989  2.3437
 9352SOL    HW239693   1.051   2.946   1.998 -0.9491  0.5562  0.9587
 9353SOL     OW39694   4.366   1.546   8.037 -0.3627  0.5492  0.0963
 9353SOL    HW139695   4.350   1.625   7.986  1.9122 -0.3424 -2.0458
 9353SOL    HW239696   4.411   1.487   7.976  0.2914  1.0040  0.1317
 9354SOL     OW39697   4.575   3.202   3.955  0.0303 -0.2244  0.5210
 9354SOL    HW139698   4.632   3.244   3.892  0.3633 -1.5510 -0.0540
 9354SOL    HW239699   4.550   3.118   3.917 -0.2666  0.5172 -0.9003
 9355SOL     OW39700   2.792   3.267   3.358 -0.6849 -0.7014  0.1286
 9355SOL    HW139701   2.702   3.238   3.375 -1.9311  3.0966 -0.0143
 9355SOL    HW239702   2.831   3.213   3.427 -0.8818 -1.5277 -0.4096
 9356SOL     OW39703   2.135   1.189  15.981 -0.4820  0.6892 -0.4666
 9356SOL    HW139704   2.160   1.208  15.891 -0.3403 -1.1967 -0.8099
 9356SOL    HW239705   2.053   1.144  15.965  0.0273  0.6114 -2.8302
 9357SOL     OW39706   2.767   4.161   4.363 -0.6323  0.1115 -0.2594
 9357SOL    HW139707   2.833   4.095   4.339 -0.3051  0.3118  0.0874
 9357SOL    HW239708   2.817   4.233   4.324 -3.0045  2.1416  0.4444
 9358SOL     OW39709   2.302   0.539   3.002 -0.0406 -0.3504 -0.3289
 9358SOL    HW139710   2.230   0.519   2.942  1.0318 -1.5080 -1.2451
 9358SOL    HW239711   2.312   0.448   3.028 -1.3851  0.2224  2.1979
 9359SOL     OW39712   2.116   2.691   9.429  0.0533 -0.1042  0.0528
 9359SOL    HW139713   2.100   2.637   9.507  0.6816  0.9302  0.8953
 9359SOL    HW239714   2.094   2.628   9.360 -1.0050  0.1823  0.1252
 9360SOL     OW39715   2.101   1.375  16.171  0.4935 -0.0249 -0.0915
 9360SOL    HW139716   2.119   1.307  16.107  1.3297  0.0784  0.0379
 9360SOL    HW239717   2.190   1.395  16.198  0.8287  0.5188 -1.5873
 9361SOL     OW39718   2.038   4.689   5.990 -0.6614  0.0547  0.5336
 9361SOL    HW139719   2.083   4.613   6.028 -1.1916 -0.4525  0.1472
 9361SOL    HW239720   2.089   4.712   5.913 -0.4150 -0.7501  0.4511
 9362SOL     OW39721   1.021   0.658   0.535  0.1589 -0.0583 -0.0894
 9362SOL    HW139722   1.075   0.583   0.557 -0.4384 -0.2932  0.5881
 9362SOL    HW239723   0.935   0.618   0.519 -0.4286  1.3620 -0.4920
 9363SOL     OW39724   1.118   3.523   6.852  0.1879  0.2336  0.4776
 9363SOL    HW139725   1.200   3.508   6.900  0.5981 -0.0024 -0.2906
 9363SOL    HW239726   1.105   3.441   6.804 -2.0399  0.8395  0.0760
 9364SOL     OW39727   2.908   4.092   4.966 -0.0593 -0.2898  0.2041
 9364SOL    HW139728   2.885   4.139   5.046  3.1963  2.0609 -0.2641
 9364SOL    HW239729   2.998   4.107   4.937 -0.5511  0.9806 -0.6684
 9365SOL     OW39730   2.141   3.625   5.565 -0.3155  0.0438  0.4821
 9365SOL    HW139731   2.170   3.575   5.641 -0.5829  0.8922  1.1407
 9365SOL    HW239732   2.217   3.684   5.563 -0.5862  0.4163  1.1587
 9366SOL     OW39733   1.216   3.488   7.286 -0.5039 -0.3468 -0.6262
 9366SOL    HW139734   1.213   3.516   7.378 -0.2068  1.0398 -1.0372
 9366SOL    HW239735   1.203   3.571   7.240  0.6691 -0.2711 -0.8007
 9367SOL     OW39736   1.934   3.296   5.439 -0.2485 -0.7636  0.4735
 9367SOL    HW139737   1.985   3.272   5.516 -0.1780 -0.4868  0.5099
 9367SOL    HW239738   1.846   3.306   5.474 -0.9819 -1.1737 -1.2628
 9368SOL     OW39739   2.830   4.005  16.673  0.3599 -0.1866 -0.0200
 9368SOL    HW139740   2.905   3.947  16.658  3.2904  3.9298 -1.6031
 9368SOL    HW239741   2.767   3.992  16.602 -0.4329  1.6127  0.3455
 9369SOL     OW39742   0.986   3.890   3.379  0.1946  0.0451  0.5640
 9369SOL    HW139743   0.959   3.829   3.448  0.3854  1.3881  1.8179
 9369SOL    HW239744   0.928   3.876   3.304  0.7923 -1.0732  0.3139
 9370SOL     OW39745   0.668   2.118  11.168  0.2919  0.1566 -0.4840
 9370SOL    HW139746   0.760   2.143  11.160  1.2085 -2.7610  1.1492
 9370SOL    HW239747   0.657   2.097  11.260 -0.0291 -0.2548 -0.6136
 9371SOL     OW39748   3.026   3.038   5.861 -0.4216  0.0128 -0.6151
 9371SOL    HW139749   2.952   3.082   5.902 -1.6210  0.5112 -3.2669
 9371SOL    HW239750   3.038   2.956   5.910  2.6472  0.7107 -0.2001
 9372SOL     OW39751   2.614   2.935  10.734 -0.4933  0.3930  0.4441
 9372SOL    HW139752   2.519   2.927  10.730 -0.4727  0.0629  0.6482
 9372SOL    HW239753   2.616   3.001  10.803  1.1253 -0.0977  0.8634
 9373SOL     OW39754   1.200   3.857   1.170  0.1043 -0.2567 -0.0285
 9373SOL    HW139755   1.122   3.912   1.178  0.5556  0.5117 -0.8571
 9373SOL    HW239756   1.159   3.776   1.140 -0.5490 -0.3330  1.0331
 9374SOL     OW39757   3.268   0.342   8.606 -0.3393 -0.3443  0.1029
 9374SOL    HW139758   3.318   0.342   8.524 -0.2890  2.2708  0.1401
 9374SOL    HW239759   3.289   0.434   8.623 -0.9174  0.1846 -2.1002
 9375SOL     OW39760   2.120   0.700   8.085 -0.3671 -0.2004  0.1807
 9375SOL    HW139761   2.129   0.608   8.060 -0.5618 -0.6013  1.5683
 9375SOL    HW239762   2.094   0.732   7.998 -0.1196 -0.2789  0.0778
 9376SOL     OW39763   3.009   1.436  12.390  0.1640  0.2425  0.1756
 9376SOL    HW139764   3.042   1.514  12.435 -1.1751  0.3561  0.9624
 9376SOL    HW239765   2.914   1.449  12.384  0.3050  0.8914 -0.5992
 9377SOL     OW39766   3.554   1.264  16.244 -0.2206 -0.1981  0.2593
 9377SOL    HW139767   3.480   1.287  16.300 -0.4035  1.2355 -0.5745
 9377SOL    HW239768   3.502   1.213  16.181 -1.9246  1.9383 -0.0857
 9378SOL     OW39769   2.980   0.768   3.850  0.2369 -0.6435  0.0968
 9378SOL    HW139770   2.952   0.756   3.760 -0.2191  0.0201  0.1532
 9378SOL    HW239771   2.981   0.862   3.866  0.4019 -0.5675 -0.3957
 9379SOL     OW39772   2.885   3.979   3.941  0.1432 -0.2942  0.2132
 9379SOL    HW139773   2.971   3.961   3.902  0.0212  1.8459 -1.0380
 9379SOL    HW239774   2.838   4.032   3.877  0.4972  2.2958  2.0880
 9380SOL     OW39775   3.997   2.424   2.373  0.5812 -0.4959  0.8773
 9380SOL    HW139776   4.038   2.348   2.414  1.1458 -0.0525  1.1265
 9380SOL    HW239777   3.954   2.478   2.438 -0.7077  0.8614 -1.1041
 9381SOL     OW39778   2.949   0.912   1.188  0.7516 -0.6966 -0.2504
 9381SOL    HW139779   2.869   0.924   1.137  0.0494  1.1073  1.3052
 9381SOL    HW239780   2.996   0.865   1.118 -1.2955  0.0603 -2.1482
 9382SOL     OW39781   2.815   4.465   6.764  0.3455  0.5196 -0.2130
 9382SOL    HW139782   2.772   4.518   6.698 -0.0658  0.1672 -0.2267
 9382SOL    HW239783   2.749   4.435   6.826  2.7705 -0.1774  2.0740
 9383SOL     OW39784   2.458   1.263  14.530 -0.2971 -0.1181  0.5010
 9383SOL    HW139785   2.382   1.239  14.477 -1.1210  0.9159  1.1983
 9383SOL    HW239786   2.428   1.254  14.620  0.8775 -0.0505  0.9031
 9384SOL     OW39787   0.716   1.656  11.958  0.2856  0.6733 -0.3437
 9384SOL    HW139788   0.704   1.668  11.864  1.2867 -1.7087 -0.7722
 9384SOL    HW239789   0.664   1.727  11.996 -1.5275 -0.5184 -0.6410
 9385SOL     OW39790   2.418   4.152   7.937  1.0656  0.2935 -0.3253
 9385SOL    HW139791   2.483   4.157   7.868  1.0268 -1.9708 -0.4965
 9385SOL    HW239792   2.355   4.091   7.899 -1.5383  1.0023  2.8171
 9386SOL     OW39793   4.328   4.238   0.014 -0.4373  0.0591  0.9751
 9386SOL    HW139794   4.312   4.201   0.100  0.6285 -0.2595  1.0320
 9386SOL    HW239795   4.353   4.327   0.039 -1.0126  0.8109 -1.1155
 9387SOL     OW39796   4.658   0.493   1.355 -0.0473 -0.4505 -0.2273
 9387SOL    HW139797   4.566   0.510   1.335  0.1003  0.9384  0.2418
 9387SOL    HW239798   4.654   0.398   1.355  0.4335 -0.4658  1.5631
 9388SOL     OW39799   0.258   3.796   8.157  0.6144 -0.2159  0.4576
 9388SOL    HW139800   0.324   3.733   8.126  1.3723 -0.6594  2.9735
 9388SOL    HW239801   0.313   3.862   8.199  0.4833 -1.5657  2.7003
 9389SOL     OW39802   4.446   3.506   8.311 -0.5682 -0.4503  0.4738
 9389SOL    HW139803   4.375   3.484   8.251  1.3696 -2.2517 -1.1885
 9389SOL    HW239804   4.399   3.514   8.394  1.5579  0.3628  1.6086
 9390SOL     OW39805   0.210   4.090  14.503 -0.2589 -0.4913  0.0800
 9390SOL    HW139806   0.189   4.078  14.411  0.8945 -0.4397 -0.1919
 9390SOL    HW239807   0.305   4.086  14.497 -0.0273  0.2428  3.1331
 9391SOL     OW39808   0.709   0.364   6.009 -0.6622 -0.0188 -0.8413
 9391SOL    HW139809   0.651   0.289   5.997 -0.0715 -0.7233  0.5961
 9391SOL    HW239810   0.792   0.339   5.968  0.3147 -1.0814  1.7776
 9392SOL     OW39811   0.417   1.015   2.977 -0.0986 -0.6656 -0.6925
 9392SOL    HW139812   0.403   1.107   2.952 -0.4228 -0.1750  1.2839
 9392SOL    HW239813   0.358   1.011   3.052  0.7526 -0.9121 -0.0423
 9393SOL     OW39814   2.522   4.342   3.097  0.0440  0.1443 -0.1756
 9393SOL    HW139815   2.475   4.292   3.030 -2.0657 -0.9367  2.0778
 9393SOL    HW239816   2.451   4.326   3.159  1.6811 -0.1621  1.6084
 9394SOL     OW39817   4.060   3.544   3.378  0.5633  0.2578  0.5975
 9394SOL    HW139818   4.022   3.509   3.458 -0.3675  0.5809  0.2947
 9394SOL    HW239819   4.045   3.638   3.393  2.7240  0.9287 -1.4846
 9395SOL     OW39820   4.370   0.778   8.638  0.5561  0.1036 -0.4727
 9395SOL    HW139821   4.373   0.689   8.602  0.0997 -0.1768  0.1824
 9395SOL    HW239822   4.367   0.765   8.733 -1.3479  2.0268 -0.2794
 9396SOL     OW39823   1.868   3.038   6.316 -0.1220  0.8207  0.1035
 9396SOL    HW139824   1.902   3.087   6.240 -1.6402  3.1650  0.9242
 9396SOL    HW239825   1.931   3.071   6.380 -1.2163 -0.8397  2.0418
 9397SOL     OW39826   2.775   0.167  11.426  0.3570 -0.0449 -0.3159
 9397SOL    HW139827   2.826   0.248  11.422  1.0194 -0.3862  0.9481
 9397SOL    HW239828   2.685   0.193  11.410  0.1865 -0.8339 -0.6379
 9398SOL     OW39829   1.459   0.163  17.293 -0.2774 -0.4402 -0.3626
 9398SOL    HW139830   1.547   0.196  17.308 -0.1726 -1.2537  0.8767
 9398SOL    HW239831   1.435   0.213  17.215  0.6381 -0.5636 -0.7268
 9399SOL     OW39832   1.517   2.344   6.770  0.0949 -0.7197  0.2859
 9399SOL    HW139833   1.589   2.331   6.708  0.4805 -0.1975  0.6187
 9399SOL    HW239834   1.547   2.291   6.844  3.1594 -0.5820 -0.8441
 9400SOL     OW39835   4.690   0.210   3.888 -0.4308 -0.2060 -0.5634
 9400SOL    HW139836   0.046   0.234   3.910 -1.0505  1.8466 -0.2484
 9400SOL    HW239837   4.672   0.150   3.961  0.3487  1.0831  0.6896
 9401SOL     OW39838   1.307   4.617   4.122 -0.3812  0.2928  0.0564
 9401SOL    HW139839   1.361   4.602   4.045  0.1477  2.2537  0.0421
 9401SOL    HW239840   1.267   4.701   4.101  3.0980  1.7432 -0.7391
 9402SOL     OW39841   0.866   3.406   6.566 -0.0914  0.5037  0.2517
 9402SOL    HW139842   0.779   3.445   6.571  1.0167  2.7122  2.5015
 9402SOL    HW239843   0.845   3.334   6.508  1.3548  0.6381 -0.4317
 9403SOL     OW39844   2.717   1.065   1.327  0.1252 -0.4077 -0.1016
 9403SOL    HW139845   2.624   1.044   1.317 -0.5939  2.2978  0.8531
 9403SOL    HW239846   2.717   1.097   1.417 -0.0576 -0.8266  0.0433
 9404SOL     OW39847   3.976   0.042   3.012 -0.3229 -0.9719 -0.1081
 9404SOL    HW139848   3.896   0.064   2.963 -0.0431 -0.9422 -0.5557
 9404SOL    HW239849   4.040   0.080   2.952 -1.8240  0.4309 -0.8646
 9405SOL     OW39850   1.251   1.084  17.274 -0.0174  0.1789 -0.0080
 9405SOL    HW139851   1.223   1.146  17.207  2.2391  0.7174 -0.4490
 9405SOL    HW239852   1.169   1.034  17.285  0.5945 -0.9085 -0.3918
 9406SOL     OW39853   1.751   0.053   1.796  0.4895 -0.6453  0.4842
 9406SOL    HW139854   1.747   0.004   1.714 -0.8926 -0.9485  0.7397
 9406SOL    HW239855   1.683   0.001   1.839  0.4113  0.0384  1.1848
 9407SOL     OW39856   1.736   3.702   6.775 -0.0032 -0.8408  0.6497
 9407SOL    HW139857   1.675   3.631   6.755  1.0257 -1.4347 -0.4181
 9407SOL    HW239858   1.816   3.650   6.771  0.0182 -0.7226 -0.7116
 9408SOL     OW39859   0.111   4.110   8.057 -0.3562 -0.5913 -0.0766
 9408SOL    HW139860   0.020   4.078   8.061 -0.4816 -0.2545 -0.2556
 9408SOL    HW239861   0.132   4.119   8.150  0.8648  2.0702 -0.6063
 9409SOL     OW39862   0.706   0.442  17.206 -0.2421  0.3876 -0.0398
 9409SOL    HW139863   0.618   0.467  17.178 -1.6141 -0.5423  3.4523
 9409SOL    HW239864   0.712   0.491  17.288  1.6162 -0.3910  0.2850
 9410SOL     OW39865   0.739   4.475   2.967  0.2286 -0.3310 -1.0019
 9410SOL    HW139866   0.701   4.440   3.048  2.6690  0.2437  0.3676
 9410SOL    HW239867   0.830   4.447   2.965 -0.1331 -1.5525 -0.4185
 9411SOL     OW39868   3.380   3.622  13.885 -0.1431 -0.4753  0.1881
 9411SOL    HW139869   3.442   3.695  13.888  0.8933 -1.3123 -1.0654
 9411SOL    HW239870   3.398   3.587  13.972 -1.8645 -0.2496  0.6325
 9412SOL     OW39871   4.467   2.473   0.201  0.6913 -0.0731  0.2552
 9412SOL    HW139872   4.536   2.427   0.152  0.9664  2.1509 -1.4587
 9412SOL    HW239873   4.529   2.539   0.233 -2.1277  2.4915  0.4577
 9413SOL     OW39874   1.905   2.364   0.561 -1.1759 -0.6155  0.3470
 9413SOL    HW139875   1.976   2.406   0.513 -1.8594 -1.6899 -1.6227
 9413SOL    HW239876   1.947   2.282   0.587 -0.9831 -0.3643  0.8190
 9414SOL     OW39877   2.793   1.570   3.998 -0.0085  0.1481 -0.3208
 9414SOL    HW139878   2.772   1.553   4.090  3.4930 -1.3220  0.1826
 9414SOL    HW239879   2.759   1.657   3.975  1.6193  1.3619  1.8448
 9415SOL     OW39880   0.385   2.083  14.061 -0.5338  0.5147  0.0873
 9415SOL    HW139881   0.362   2.096  14.153  2.2558 -0.2185  0.8965
 9415SOL    HW239882   0.440   2.161  14.049  0.2205 -0.0236  0.0162
 9416SOL     OW39883   0.641   4.037   5.712 -0.3600 -0.0252 -0.0786
 9416SOL    HW139884   0.725   4.048   5.669 -0.2287 -2.8934 -0.5700
 9416SOL    HW239885   0.630   4.119   5.759  1.6965  0.6141 -0.7235
 9417SOL     OW39886   0.111   0.278   7.041 -0.5274  0.1395  0.2050
 9417SOL    HW139887   0.135   0.196   7.084 -1.0889 -0.8761 -1.4151
 9417SOL    HW239888   0.131   0.256   6.950  0.7089 -2.6140  1.1582
 9418SOL     OW39889   3.710   4.185   2.066  0.4354 -0.1470 -0.0883
 9418SOL    HW139890   3.619   4.213   2.058  0.8204  1.1288 -0.1232
 9418SOL    HW239891   3.735   4.241   2.140 -2.0062  3.0741 -1.7268
 9419SOL     OW39892   0.609   1.798   2.882 -0.2561  0.3569  0.0618
 9419SOL    HW139893   0.609   1.870   2.819 -1.2250  0.3839  0.0861
 9419SOL    HW239894   0.523   1.756   2.873  0.5015 -1.5818  2.0155
 9420SOL     OW39895   1.772   0.044   2.649 -0.0995 -0.5525 -0.1650
 9420SOL    HW139896   1.862   0.018   2.627 -0.5950 -1.4118 -1.1698
 9420SOL    HW239897   1.758   0.002   2.734 -2.6134 -0.7302 -0.6683
 9421SOL     OW39898   2.713   0.186  11.001  0.2977  0.4041 -0.0125
 9421SOL    HW139899   2.702   0.110  11.059 -0.2227  0.8752  0.5105
 9421SOL    HW239900   2.774   0.244  11.047 -0.8630  1.2419  0.4691
 9422SOL     OW39901   2.306   0.503   7.265  0.2091  0.4006  0.3819
 9422SOL    HW139902   2.330   0.584   7.220 -1.7053  0.9838  0.3843
 9422SOL    HW239903   2.383   0.491   7.321  1.4411  0.2038 -1.3584
 9423SOL     OW39904   3.699   2.758  13.409  0.0234  0.0885  0.3061
 9423SOL    HW139905   3.784   2.799  13.420  0.5140 -1.1398  1.0514
 9423SOL    HW239906   3.722   2.725  13.322 -2.8774 -2.0146  0.3225
 9424SOL     OW39907   4.540   0.356   3.456 -0.1581 -0.1526 -0.0898
 9424SOL    HW139908   4.570   0.275   3.415 -0.9447 -0.4389 -0.1139
 9424SOL    HW239909   4.499   0.335   3.540  0.2575  2.0955  0.6631
 9425SOL     OW39910   0.096   3.987   6.497  0.0274 -0.5113 -0.0195
 9425SOL    HW139911   0.169   3.991   6.435  0.1795  0.2787  0.2182
 9425SOL    HW239912   0.070   4.079   6.497 -2.4072 -1.2118  1.6243
 9426SOL     OW39913   4.155   0.543   6.842 -0.2402  0.3905  0.0718
 9426SOL    HW139914   4.129   0.635   6.844  1.5498  0.9274 -1.4287
 9426SOL    HW239915   4.160   0.527   6.936  1.8080  3.5477  0.4898
 9427SOL     OW39916   4.065   4.482   0.071  0.1740 -0.2572 -0.1527
 9427SOL    HW139917   4.068   4.419   0.143  0.5829  0.5947  0.5732
 9427SOL    HW239918   3.972   4.485   0.052 -0.1782  1.2061  1.7471
 9428SOL     OW39919   4.254   4.678  10.498 -0.3646 -0.5232  0.2668
 9428SOL    HW139920   4.202   4.613  10.450  1.0140 -0.9702 -0.6242
 9428SOL    HW239921   4.306   4.713  10.426 -1.0894  0.8942  0.4325
 9429SOL     OW39922   2.706   0.912   8.933 -0.0254 -0.1822  0.1170
 9429SOL    HW139923   2.741   0.870   8.855  3.1126  2.4676  0.1167
 9429SOL    HW239924   2.675   0.995   8.897 -2.3140 -1.2723 -0.4415
 9430SOL     OW39925   1.535   3.368   5.834  0.2206 -0.1610 -0.3392
 9430SOL    HW139926   1.624   3.343   5.860 -0.2899 -0.3548  1.2162
 9430SOL    HW239927   1.482   3.340   5.908  1.4375 -0.2157  0.5093
 9431SOL     OW39928   1.831   4.656  17.074  0.3070 -0.2949 -0.2334
 9431SOL    HW139929   1.835   4.568  17.110  1.4724 -0.5049 -0.8683
 9431SOL    HW239930   1.922   4.685  17.070  0.1848  0.3740  2.1621
 9432SOL     OW39931   4.040   0.056   1.777  0.4096  0.0013 -0.3469
 9432SOL    HW139932   4.047   0.125   1.712  0.4252  1.4096  1.1678
 9432SOL    HW239933   4.037   4.709   1.725 -2.8469 -0.3657  0.3966
 9433SOL     OW39934   0.749   0.161  12.240  0.2056  0.3648 -0.3951
 9433SOL    HW139935   0.661   0.140  12.271 -0.4742  0.5065 -2.2326
 9433SOL    HW239936   0.736   0.192  12.150  0.3027  0.9050 -0.2261
 9434SOL     OW39937   4.633   1.584   6.593  0.1954  0.3689  0.2144
 9434SOL    HW139938   4.592   1.499   6.609 -0.7883  0.3491 -2.4234
 9434SOL    HW239939   4.574   1.627   6.655 -1.8556 -1.4226 -0.5147
 9435SOL     OW39940   1.906   3.954   3.752  0.5359  0.1568  0.4176
 9435SOL    HW139941   1.958   4.022   3.710  0.6730  0.0052  0.3407
 9435SOL    HW239942   1.954   3.925   3.830  2.4939  3.9184  0.6293
 9436SOL     OW39943   0.545   4.606   0.056  0.5044  0.1078 -0.1093
 9436SOL    HW139944   0.507   4.672  17.734  0.6660 -0.2069 -0.5693
 9436SOL    HW239945   0.470   4.547   0.072 -0.0027  1.2949  1.9756
 9437SOL     OW39946   0.892   1.343   0.124 -0.1046  0.8988  0.1969
 9437SOL    HW139947   0.852   1.360   0.209  0.1108 -1.8491  0.8639
 9437SOL    HW239948   0.817   1.345   0.064  0.0070 -0.5049 -0.0037
 9438SOL     OW39949   4.713   2.197  14.266 -0.3585 -0.2788 -0.2479
 9438SOL    HW139950   0.015   2.200  14.355  1.2245 -2.9280 -0.8174
 9438SOL    HW239951   4.692   2.289  14.247  1.7317  0.2822  0.1456
 9439SOL     OW39952   4.119   3.692   2.748 -0.0568 -0.1441  0.4580
 9439SOL    HW139953   4.149   3.674   2.837  0.1422  0.0219  0.4247
 9439SOL    HW239954   4.204   3.704   2.704 -0.7024 -1.7086 -1.2639
 9440SOL     OW39955   0.204   0.316   8.619 -0.2188  0.1081  0.0625
 9440SOL    HW139956   0.242   0.367   8.690 -1.9088  1.6908 -0.1920
 9440SOL    HW239957   0.220   0.381   8.550 -0.4491 -1.6129 -1.6192
 9441SOL     OW39958   0.996   0.338   7.524 -0.0784  0.1758 -0.5395
 9441SOL    HW139959   0.923   0.277   7.534 -0.6432  1.2342  1.7463
 9441SOL    HW239960   1.061   0.267   7.531 -0.0995 -0.0539 -2.7147
 9442SOL     OW39961   4.089   1.174   8.482 -0.3266 -0.1558  0.5975
 9442SOL    HW139962   4.070   1.242   8.547 -1.4393 -1.8004  2.0070
 9442SOL    HW239963   4.116   1.101   8.538  1.1685 -0.0030  0.0596
 9443SOL     OW39964   0.866   2.813   2.373 -0.1180 -0.0956  0.3961
 9443SOL    HW139965   0.804   2.811   2.446  0.1564  2.0526  0.7019
 9443SOL    HW239966   0.942   2.817   2.432  0.0281  0.0207  0.1991
 9444SOL     OW39967   4.073   0.626   3.221  0.4668 -0.3303  0.1413
 9444SOL    HW139968   4.129   0.607   3.146  1.6109 -0.7465  1.0941
 9444SOL    HW239969   4.137   0.606   3.290  0.5513 -0.6543 -0.0318
 9445SOL     OW39970   2.300   4.095   3.883  0.9308 -0.1864  0.1600
 9445SOL    HW139971   2.341   4.164   3.935 -1.6870  0.6859  1.0633
 9445SOL    HW239972   2.365   4.026   3.874 -0.6944 -1.8312  0.8687
 9446SOL     OW39973   2.271   3.102   3.798  0.2961  0.2387  0.3106
 9446SOL    HW139974   2.364   3.081   3.794 -0.0757 -0.9437 -1.5929
 9446SOL    HW239975   2.258   3.156   3.876 -0.1600 -0.3811  0.6675
 9447SOL     OW39976   2.399   2.143  16.668 -0.1722  0.7078 -0.2891
 9447SOL    HW139977   2.490   2.173  16.662  0.6673 -2.3453 -2.5436
 9447SOL    HW239978   2.356   2.190  16.597 -0.2657 -0.3752 -0.9472
 9448SOL     OW39979   2.337   4.107   4.399 -0.0786 -0.3442  0.0341
 9448SOL    HW139980   2.373   4.177   4.453  0.3173 -0.8215  0.3908
 9448SOL    HW239981   2.408   4.078   4.342  0.4499 -1.9420  1.4866
 9449SOL     OW39982   2.327   0.794  10.137  0.1658 -0.3450 -0.3730
 9449SOL    HW139983   2.390   0.788  10.065 -0.5064 -2.6244 -0.7748
 9449SOL    HW239984   2.349   0.874  10.186 -0.0110 -1.5576  1.6948
 9450SOL     OW39985   2.019   0.076  13.789  0.0911  0.5375  0.3741
 9450SOL    HW139986   2.010   4.716  13.775 -0.1883  0.7641 -0.9395
 9450SOL    HW239987   2.100   0.082  13.840  0.8849 -1.9212 -0.6114
 9451SOL     OW39988   4.365   4.274   8.761  0.4014 -0.0019 -0.2709
 9451SOL    HW139989   4.422   4.330   8.813  2.5351  0.8287 -3.4868
 9451SOL    HW239990   4.282   4.320   8.774 -0.7834 -1.2766 -3.3502
 9452SOL     OW39991   0.349   4.670  13.893 -0.7837  0.2269 -0.1919
 9452SOL    HW139992   0.430   4.692  13.939 -0.8817 -1.5858  0.8093
 9452SOL    HW239993   0.318   0.026  13.885  1.2908  1.0625  1.3272
 9453SOL     OW39994   3.828   1.934   4.211 -0.0421 -0.1655  0.0011
 9453SOL    HW139995   3.913   1.897   4.237 -0.7295 -2.8863 -1.6406
 9453SOL    HW239996   3.772   1.883   4.270  0.5060  0.3651  0.9810
 9454SOL     OW39997   4.088   2.581   0.765 -0.3729 -0.1780  0.2351
 9454SOL    HW139998   4.161   2.567   0.704  1.1358  0.0931  1.9798
 9454SOL    HW239999   4.132   2.589   0.850  1.8025 -0.2334 -0.8708
 9455SOL     OW40000   2.140   1.503   1.462  0.4003 -0.0371 -0.6931
 9455SOL    HW140001   2.173   1.415   1.476 -0.1902 -0.4321 -1.7372
 9455SOL    HW240002   2.101   1.492   1.375 -0.3069 -1.9206 -0.1253
 9456SOL     OW40003   1.480   1.343   3.987 -0.5545  0.0998  0.3686
 9456SOL    HW140004   1.388   1.349   3.960 -0.3575 -3.1004 -0.9717
 9456SOL    HW240005   1.508   1.433   3.968  0.3105 -0.0714  0.8376
 9457SOL     OW40006   2.267   1.560  15.016  0.0961  0.5815 -0.8487
 9457SOL    HW140007   2.284   1.554  15.110  1.4356 -0.2337 -1.1417
 9457SOL    HW240008   2.238   1.469  15.017  0.9042  0.3603  2.3004
 9458SOL     OW40009   2.491   2.752   4.333  0.1943 -0.6086 -0.0474
 9458SOL    HW140010   2.583   2.773   4.349 -0.3460  1.1521  0.7439
 9458SOL    HW240011   2.479   2.703   4.414  2.1958  0.0062  0.6312
 9459SOL     OW40012   4.649   3.364  16.306 -0.2651  0.4756 -0.0470
 9459SOL    HW140013   0.006   3.335  16.312 -0.1658  0.9505  0.8995
 9459SOL    HW240014   4.595   3.288  16.327 -0.7127  1.0974  1.0485
 9460SOL     OW40015   2.500   4.619   8.219  0.5826 -0.0528  0.1212
 9460SOL    HW140016   2.574   4.679   8.212  0.3687  0.4192  1.8959
 9460SOL    HW240017   2.446   4.654   8.148 -3.0385 -0.6436  2.5514
 9461SOL     OW40018   0.243   0.577   8.488  0.4616 -0.3268 -0.0277
 9461SOL    HW140019   0.186   0.603   8.416  0.9667 -0.1469 -0.3656
 9461SOL    HW240020   0.325   0.560   8.442 -0.1570 -2.0084 -0.4788
 9462SOL     OW40021   2.787   0.454  14.970  0.2570 -0.2698 -0.6970
 9462SOL    HW140022   2.818   0.442  15.060  1.4260  0.3301 -1.0191
 9462SOL    HW240023   2.766   0.362  14.952  2.5040 -0.8325 -0.4482
 9463SOL     OW40024   4.217   1.970  12.347 -0.7756 -0.1230  0.1302
 9463SOL    HW140025   4.154   1.899  12.341 -0.5154 -0.4588  1.4704
 9463SOL    HW240026   4.231   1.996  12.256 -0.7734  0.0965  0.1933
 9464SOL     OW40027   0.421   0.047   8.455 -0.0512 -0.6855 -0.2265
 9464SOL    HW140028   0.496   0.106   8.462 -0.9300  0.2149  1.5421
 9464SOL    HW240029   0.449   4.716   8.519  1.5021  0.7443  0.5512
 9465SOL     OW40030   3.182   0.298   2.441 -0.0539  0.0820 -0.0800
 9465SOL    HW140031   3.159   0.214   2.482  1.1063 -0.4053 -0.3997
 9465SOL    HW240032   3.096   0.315   2.403 -0.4170  0.0256  0.7141
 9466SOL     OW40033   2.097   4.300  15.442  0.6358 -0.2594 -0.1001
 9466SOL    HW140034   2.173   4.243  15.455  1.1488 -0.0555 -2.1603
 9466SOL    HW240035   2.141   4.362  15.383  0.8377 -0.1178  0.1950
 9467SOL     OW40036   1.893   0.785   0.921  0.1076  0.3333 -0.4092
 9467SOL    HW140037   1.984   0.813   0.907  0.7983 -1.0204  1.2884
 9467SOL    HW240038   1.862   0.862   0.873  0.1123  0.1451 -0.7129
 9468SOL     OW40039   2.884   4.487  17.451  1.0425  0.5670 -0.2991
 9468SOL    HW140040   2.926   4.419  17.398 -1.0147  0.2534 -1.4984
 9468SOL    HW240041   2.911   4.571  17.414 -1.9393  1.8293  0.4265
 9469SOL     OW40042   1.074   1.887   6.166 -0.4201 -0.5572  0.8014
 9469SOL    HW140043   0.983   1.901   6.142 -0.3231  1.0312  1.3169
 9469SOL    HW240044   1.088   1.792   6.162  1.8596 -0.2190  0.2851
 9470SOL     OW40045   1.264   2.773   5.754 -0.6450 -0.0558  0.2915
 9470SOL    HW140046   1.234   2.862   5.769 -1.6002 -0.7335  2.4705
 9470SOL    HW240047   1.283   2.772   5.660  0.6055  0.6870  0.5366
 9471SOL     OW40048   2.093   1.649   3.073  1.0303  0.1003  1.0911
 9471SOL    HW140049   2.105   1.735   3.033 -2.0628  0.7756  1.6110
 9471SOL    HW240050   2.055   1.596   3.003 -2.9328  1.6494  2.0872
 9472SOL     OW40051   4.016   3.949   0.256  0.0979 -0.7456  0.0992
 9472SOL    HW140052   4.103   3.975   0.286  0.1117  0.0852 -0.6433
 9472SOL    HW240053   3.998   4.012   0.186 -1.0683  0.7294  1.7674
 9473SOL     OW40054   3.915   0.526   4.665  0.2802  0.5489  0.5653
 9473SOL    HW140055   4.005   0.559   4.671  0.1209  1.0354  0.1590
 9473SOL    HW240056   3.933   0.432   4.658 -0.7350  0.1023  3.6906
 9474SOL     OW40057   4.349   3.914   0.680 -0.0856 -0.0795  0.2684
 9474SOL    HW140058   4.351   3.828   0.721  2.2474 -0.2607 -0.1912
 9474SOL    HW240059   4.400   3.970   0.739  0.3315 -0.8693  0.6534
 9475SOL     OW40060   4.666   2.558   5.463  0.1554  0.5072  0.3437
 9475SOL    HW140061   4.582   2.527   5.429 -0.7414  1.5372  1.5623
 9475SOL    HW240062   4.654   2.650   5.441 -1.8370  0.3022  0.5388
 9476SOL     OW40063   1.077   4.420  12.022 -0.0457 -0.6526 -0.2204
 9476SOL    HW140064   1.078   4.357  11.949  2.7025 -0.3259 -0.4397
 9476SOL    HW240065   1.094   4.503  11.978 -0.6957 -0.8783 -0.9074
 9477SOL     OW40066   1.173   4.453  11.726 -0.5771 -0.2057 -0.3413
 9477SOL    HW140067   1.176   4.364  11.690  0.2389 -0.6194  0.7067
 9477SOL    HW240068   1.255   4.443  11.776  0.0040  1.5116 -0.9626
 9478SOL     OW40069   3.576   3.030   0.124  0.3991  0.5681  0.0185
 9478SOL    HW140070   3.668   3.010   0.139  0.3436  0.7775  0.6603
 9478SOL    HW240071   3.580   3.121   0.156 -1.7373  0.3606  0.8865
 9479SOL     OW40072   1.241   3.256   0.759  0.1194  0.2513  0.1943
 9479SOL    HW140073   1.317   3.273   0.814 -0.2510  1.5104  0.3322
 9479SOL    HW240074   1.272   3.231   0.672 -0.8694 -0.8761  0.1588
 9480SOL     OW40075   1.586   1.494   8.272  0.0129 -0.2735 -0.5154
 9480SOL    HW140076   1.579   1.431   8.344 -0.5561 -1.6625 -1.7920
 9480SOL    HW240077   1.602   1.575   8.320 -1.6689 -0.5677  0.5183
 9481SOL     OW40078   2.668   1.378  14.823 -0.1603  0.6356 -0.0830
 9481SOL    HW140079   2.686   1.336  14.739  3.5579  3.0523 -0.5159
 9481SOL    HW240080   2.583   1.421  14.814 -1.3525 -1.2015  2.5858
 9482SOL     OW40081   0.041   3.920   9.160  0.1671  0.2126 -0.5232
 9482SOL    HW140082   0.073   3.835   9.128 -0.1540  0.1596 -0.7053
 9482SOL    HW240083   4.697   3.897   9.210  1.7597 -2.4834  0.7351
 9483SOL     OW40084   1.988   4.556   7.931 -0.3947  0.0075 -0.0629
 9483SOL    HW140085   1.919   4.534   7.868 -1.6452 -0.4210  1.4441
 9483SOL    HW240086   2.006   4.645   7.902  1.3209 -1.4873 -3.5359
 9484SOL     OW40087   2.735   3.740   7.514  0.9156  0.3367 -0.1642
 9484SOL    HW140088   2.667   3.684   7.552  0.7000  0.7189  0.0027
 9484SOL    HW240089   2.799   3.756   7.583  0.6073 -1.3997  0.5354
 9485SOL     OW40090   0.471   0.432  11.881 -0.2723 -0.2438  0.0644
 9485SOL    HW140091   0.556   0.400  11.851 -0.4476 -0.7189  0.0676
 9485SOL    HW240092   0.491   0.460  11.970 -0.6833  0.3865 -0.0363
 9486SOL     OW40093   4.259   3.513   2.403 -0.2411  0.0091  0.4449
 9486SOL    HW140094   4.214   3.556   2.330 -0.4118 -1.3816 -0.2616
 9486SOL    HW240095   4.257   3.591   2.458 -0.7960  1.4342 -1.5716
 9487SOL     OW40096   2.551   2.518   2.646  0.2165  0.2996  0.2611
 9487SOL    HW140097   2.571   2.568   2.566  0.0708 -0.7167 -0.4101
 9487SOL    HW240098   2.588   2.432   2.627 -1.3167 -0.1406 -0.6971
 9488SOL     OW40099   2.542   2.442   3.021 -0.2040 -0.1559 -0.3639
 9488SOL    HW140100   2.467   2.389   2.997 -1.8840  1.6999  0.8244
 9488SOL    HW240101   2.606   2.374   3.043 -0.2186 -0.0957 -0.1255
 9489SOL     OW40102   4.374   1.380   7.418 -0.2601 -0.5233 -0.0489
 9489SOL    HW140103   4.454   1.393   7.468 -0.6503  2.0906 -0.0661
 9489SOL    HW240104   4.416   1.365   7.333  0.1544  1.4142 -0.2022
 9490SOL     OW40105   0.467   0.976   2.148 -0.1363 -0.3058  0.0861
 9490SOL    HW140106   0.511   1.046   2.196  1.0154 -0.1899 -1.1440
 9490SOL    HW240107   0.384   0.976   2.197 -0.1320  0.5490  0.0838
 9491SOL     OW40108   3.141   3.707   9.284  0.6015  0.2530 -0.2003
 9491SOL    HW140109   3.089   3.633   9.314  0.8348  0.5510  0.9486
 9491SOL    HW240110   3.133   3.777   9.349  0.2616 -0.4256  0.4799
 9492SOL     OW40111   3.381   1.951   1.881 -0.1983  0.2320  0.8619
 9492SOL    HW140112   3.445   1.883   1.860 -0.6798 -0.1081  0.5139
 9492SOL    HW240113   3.342   1.971   1.796  1.5314 -0.1031 -0.0140
 9493SOL     OW40114   1.910   3.765   7.023  0.1156 -0.4614 -0.3837
 9493SOL    HW140115   1.815   3.776   7.027  0.0452  0.0851 -3.5470
 9493SOL    HW240116   1.923   3.677   7.059  1.0786  0.0736  0.5774
 9494SOL     OW40117   4.515   0.445   9.103 -0.6908  0.0327 -0.2375
 9494SOL    HW140118   4.463   0.386   9.158  0.6001 -0.4833  0.4198
 9494SOL    HW240119   4.575   0.385   9.059  0.0660 -0.6797  1.7544
 9495SOL     OW40120   0.562   3.187   5.959 -0.3839 -0.1402  0.4559
 9495SOL    HW140121   0.642   3.234   5.935 -0.6265  0.2801  0.4625
 9495SOL    HW240122   0.573   3.094   5.937 -2.1158 -0.1005 -0.5785
 9496SOL     OW40123   2.270   1.270   9.431  0.0464 -0.1037 -0.4567
 9496SOL    HW140124   2.179   1.279   9.402 -0.7651 -0.3700  2.0570
 9496SOL    HW240125   2.252   1.208   9.502 -1.6708 -0.8738 -1.5560
 9497SOL     OW40126   2.223   0.359  10.158 -0.4823  0.2993 -0.0131
 9497SOL    HW140127   2.310   0.388  10.185  1.3907 -3.7332 -1.6732
 9497SOL    HW240128   2.241   0.380  10.066 -0.3556 -2.4244 -0.6085
 9498SOL     OW40129   3.519   0.195   7.440  0.7014  0.2797  0.6880
 9498SOL    HW140130   3.492   0.168   7.528  0.4010  0.7942  0.7514
 9498SOL    HW240131   3.561   0.118   7.402  0.5408  0.1866  0.6995
 9499SOL     OW40132   0.287   0.888   8.199 -0.2217 -0.6258 -0.0007
 9499SOL    HW140133   0.248   0.809   8.160  0.4580 -0.4095 -1.1231
 9499SOL    HW240134   0.244   0.956   8.147  1.1891 -0.7692 -1.3690
 9500SOL     OW40135   0.508   0.249   3.973  0.1357 -0.0849  0.5792
 9500SOL    HW140136   0.530   0.157   3.959 -0.0823  0.1509 -1.3438
 9500SOL    HW240137   0.442   0.236   4.042 -0.9500 -0.7183 -0.5656
 9501SOL     OW40138   1.002   3.534   9.803 -0.0349  0.0350  0.0241
 9501SOL    HW140139   1.034   3.445   9.820 -2.1378 -1.0544 -1.7342
 9501SOL    HW240140   1.008   3.525   9.708  0.8034  1.6679 -0.0840
 9502SOL     OW40141   0.704   2.776  11.215 -0.5285 -0.2794  0.4986
 9502SOL    HW140142   0.736   2.862  11.188  1.8500 -1.3475 -0.0390
 9502SOL    HW240143   0.710   2.785  11.310 -1.9800  0.4142  0.5324
 9503SOL     OW40144   2.599   0.919  10.148 -0.4672  0.0333 -0.1055
 9503SOL    HW140145   2.686   0.932  10.185  0.0409 -2.2098 -0.4691
 9503SOL    HW240146   2.541   0.902  10.221  1.6817 -1.2221  1.3328
 9504SOL     OW40147   3.762   0.813   3.883 -0.1844 -0.4867 -0.4628
 9504SOL    HW140148   3.670   0.824   3.908  0.3024  2.3117  0.0726
 9504SOL    HW240149   3.799   0.778   3.963  0.4276 -0.5265 -0.7677
 9505SOL     OW40150   1.061   1.913   6.831 -0.1393  0.2035 -0.2716
 9505SOL    HW140151   1.126   1.977   6.801  1.1321 -1.0694 -0.2666
 9505SOL    HW240152   1.085   1.925   6.923  0.6470 -0.7830 -0.3461
 9506SOL     OW40153   2.888   3.786   1.887  0.2386 -0.2730 -0.1565
 9506SOL    HW140154   2.835   3.860   1.916 -1.5768 -1.4364 -0.4509
 9506SOL    HW240155   2.892   3.799   1.793  0.4947 -1.9177 -0.3765
 9507SOL     OW40156   4.144   0.759   4.228 -0.1868 -0.3857 -0.2154
 9507SOL    HW140157   4.103   0.725   4.149 -0.8113  1.1578 -0.5551
 9507SOL    HW240158   4.180   0.679   4.268  3.5424  0.3685 -2.1162
 9508SOL     OW40159   2.817   2.134   6.037  0.3792 -0.4050  0.1389
 9508SOL    HW140160   2.794   2.053   5.993 -1.7529 -1.1484  2.6404
 9508SOL    HW240161   2.846   2.175   5.956  0.4405  1.7743  1.2546
 9509SOL     OW40162   2.086   1.766   4.065  0.1436 -0.5368 -0.0578
 9509SOL    HW140163   2.068   1.673   4.069  0.1509 -0.4811  1.2234
 9509SOL    HW240164   2.098   1.777   3.970 -1.2463 -2.4898 -0.4480
 9510SOL     OW40165   3.630   0.516   6.902  0.3303 -0.5917  0.1091
 9510SOL    HW140166   3.681   0.587   6.940 -0.4367 -0.2314  0.4567
 9510SOL    HW240167   3.651   0.503   6.809 -0.0695 -0.0365 -0.0600
 9511SOL     OW40168   2.981   1.465  14.220  0.6409  0.3414  0.2804
 9511SOL    HW140169   2.957   1.406  14.149  1.7446  0.1616  0.0468
 9511SOL    HW240170   3.071   1.433  14.232 -0.5494 -1.9174  3.1454
 9512SOL     OW40171   2.392   2.453   4.231  0.2926 -0.1126  0.5461
 9512SOL    HW140172   2.422   2.537   4.267  0.3615  1.1565 -2.4031
 9512SOL    HW240173   2.360   2.474   4.143  0.6414 -0.9166  0.2349
 9513SOL     OW40174   0.760   3.155   3.671  0.1047 -0.5470  0.0483
 9513SOL    HW140175   0.802   3.130   3.753 -0.0477  0.2857  0.3765
 9513SOL    HW240176   0.673   3.131   3.702 -0.6493  1.9744 -0.1490
 9514SOL     OW40177   0.845   2.253  14.162 -0.1342 -0.0188 -0.5818
 9514SOL    HW140178   0.844   2.346  14.139 -0.1123  0.1901  0.2465
 9514SOL    HW240179   0.814   2.263  14.252 -1.5534  0.0157 -1.0674
 9515SOL     OW40180   3.796   3.133  14.063 -0.0561 -0.3732  0.4364
 9515SOL    HW140181   3.802   3.124  13.968 -1.4476  2.3651  0.0824
 9515SOL    HW240182   3.809   3.044  14.096 -0.8352 -0.3983  0.6573
 9516SOL     OW40183   0.171   3.249   0.642 -0.1469 -0.0727 -0.1842
 9516SOL    HW140184   0.230   3.230   0.569 -0.3481 -1.1613 -0.0602
 9516SOL    HW240185   0.089   3.220   0.602 -0.9608  1.2012  0.5620
 9517SOL     OW40186   4.170   1.739  10.073 -0.6708 -0.8079  0.6629
 9517SOL    HW140187   4.118   1.772  10.146  0.1476  0.4706  0.6825
 9517SOL    HW240188   4.211   1.666  10.119  2.1162 -0.1924 -0.7899
 9518SOL     OW40189   3.709   1.610   7.258 -0.6024 -0.6399  0.0568
 9518SOL    HW140190   3.743   1.671   7.324 -2.1961  0.3262 -0.0252
 9518SOL    HW240191   3.660   1.547   7.310 -0.3759 -0.3105  0.6753
 9519SOL     OW40192   2.247   0.063   2.167  0.3951  0.9747 -0.4948
 9519SOL    HW140193   2.342   0.068   2.173  0.4755  0.8642 -1.8146
 9519SOL    HW240194   2.225   0.152   2.139 -1.5517  0.2887 -1.1816
 9520SOL     OW40195   1.624   0.522   4.828 -0.2359 -0.3066  0.2442
 9520SOL    HW140196   1.552   0.472   4.788 -0.0050  0.6832 -1.3845
 9520SOL    HW240197   1.608   0.484   4.915 -1.2437 -0.3226  0.0610
 9521SOL     OW40198   2.686   3.818   6.683  0.0498 -0.9534 -0.5723
 9521SOL    HW140199   2.769   3.811   6.635  0.1975  2.0515 -0.8121
 9521SOL    HW240200   2.675   3.913   6.690  2.7162 -0.6264 -0.9628
 9522SOL     OW40201   2.781   2.075   5.453 -0.0456  0.0132  0.0983
 9522SOL    HW140202   2.771   2.141   5.521 -0.1915 -0.4685  0.5409
 9522SOL    HW240203   2.777   1.996   5.508 -0.7589 -0.2057 -0.2664
 9523SOL     OW40204   2.330   1.623   3.218 -0.2596  0.5556 -0.5710
 9523SOL    HW140205   2.243   1.638   3.183 -0.8928  0.1888  0.8320
 9523SOL    HW240206   2.375   1.571   3.151  2.6092  0.4301  1.4315
 9524SOL     OW40207   2.264   4.298  14.737 -0.3803 -0.1837 -0.0245
 9524SOL    HW140208   2.271   4.210  14.701 -3.3441 -0.4600  0.0232
 9524SOL    HW240209   2.169   4.307  14.735 -0.3259  0.1757 -0.7966
 9525SOL     OW40210   1.649   3.490   1.629  0.1103 -0.3813 -0.5417
 9525SOL    HW140211   1.601   3.561   1.586 -0.0404  0.6335  1.3413
 9525SOL    HW240212   1.714   3.472   1.560  0.6594 -0.7539  0.0736
 9526SOL     OW40213   3.145   4.225  14.842  0.2788 -0.1183  0.2173
 9526SOL    HW140214   3.071   4.255  14.790  1.7314  0.7443 -1.3373
 9526SOL    HW240215   3.222   4.253  14.792  1.9910 -1.7501  1.9089
 9527SOL     OW40216   1.456   4.170   2.358 -0.3959  0.1998  0.2396
 9527SOL    HW140217   1.533   4.188   2.413 -0.3892  1.5769 -0.2337
 9527SOL    HW240218   1.402   4.244   2.385 -1.3337 -0.6967  0.7811
 9528SOL     OW40219   4.406   3.922   2.890  0.6375 -0.9528 -0.6931
 9528SOL    HW140220   4.323   3.968   2.874  1.9380  1.1977 -1.1488
 9528SOL    HW240221   4.477   3.981   2.866  1.7555 -1.6150  0.9245
 9529SOL     OW40222   0.899   1.590   5.445 -0.1207 -0.0543 -0.2453
 9529SOL    HW140223   0.827   1.627   5.496  0.5255 -1.4737  1.7231
 9529SOL    HW240224   0.976   1.637   5.478 -1.8120  1.2057  1.8786
 9530SOL     OW40225   1.967   2.145  13.564 -0.1189  1.3601  0.5325
 9530SOL    HW140226   2.011   2.198  13.630 -0.6097  0.9252  1.2167
 9530SOL    HW240227   1.951   2.069  13.621  1.7813  0.7983  0.3079
 9531SOL     OW40228   1.116   3.968   7.410  0.3389 -1.2172  0.6777
 9531SOL    HW140229   1.122   3.881   7.450  1.5714 -0.6126  1.7821
 9531SOL    HW240230   1.096   4.029   7.481 -0.8799  2.8577 -3.1864
 9532SOL     OW40231   4.588   3.510   7.308  0.4939  0.6486 -0.1482
 9532SOL    HW140232   4.500   3.485   7.335  1.3848  0.2583  2.3471
 9532SOL    HW240233   4.583   3.601   7.335  0.7569  1.0929 -1.5813
 9533SOL     OW40234   4.541   2.943   5.861  0.1939 -0.5147 -0.5814
 9533SOL    HW140235   4.482   2.988   5.920  3.0049  1.6946  0.5370
 9533SOL    HW240236   4.476   2.930   5.791 -1.4845  0.8316  0.7458
 9534SOL     OW40237   3.979   4.142   4.592 -0.2562  0.1732  0.0338
 9534SOL    HW140238   3.938   4.228   4.602  0.6357  0.5420  0.5098
 9534SOL    HW240239   3.950   4.130   4.502  0.6523  2.3627 -0.5338
 9535SOL     OW40240   3.083   3.390   7.850  0.6908  0.7373  0.1827
 9535SOL    HW140241   3.165   3.375   7.802  0.9557  0.1866  0.7992
 9535SOL    HW240242   3.107   3.466   7.903  3.4767 -0.7795  1.1510
 9536SOL     OW40243   2.395   3.582   2.747 -0.1978 -0.8530  0.1316
 9536SOL    HW140244   2.361   3.646   2.685 -1.1093 -1.5240 -0.0641
 9536SOL    HW240245   2.319   3.579   2.806 -2.8600  0.6316 -3.2195
 9537SOL     OW40246   0.260   0.463   1.808  0.2728 -0.0073  0.4515
 9537SOL    HW140247   0.197   0.409   1.761 -3.0968  3.5610  0.8649
 9537SOL    HW240248   0.232   0.465   1.899  0.6810  0.0117  0.5762
 9538SOL     OW40249   2.916   4.063   6.506 -0.6365  0.2108  0.0270
 9538SOL    HW140250   2.945   4.119   6.578 -0.0769  1.1884 -0.9485
 9538SOL    HW240251   2.851   4.127   6.475  1.8166  2.0047 -1.4548
 9539SOL     OW40252   4.109   4.587  12.370 -0.2745 -0.2448  0.0472
 9539SOL    HW140253   4.130   4.538  12.450 -0.5658  1.1668  0.9947
 9539SOL    HW240254   4.045   4.531  12.327 -1.4247  1.9956 -1.1684
 9540SOL     OW40255   3.476   2.238   8.584 -0.5312 -0.4005  0.2326
 9540SOL    HW140256   3.382   2.251   8.570 -1.0361 -1.6958  2.2876
 9540SOL    HW240257   3.511   2.254   8.497 -0.9991  1.4176  0.3712
 9541SOL     OW40258   1.876   4.009   4.829 -0.3414 -0.2426  0.5854
 9541SOL    HW140259   1.957   3.959   4.818  0.0326  0.3607  0.6076
 9541SOL    HW240260   1.834   3.970   4.752 -0.9154  2.6926 -0.5785
 9542SOL     OW40261   3.563   4.712   7.276 -0.3041  0.5030  0.1319
 9542SOL    HW140262   3.584   4.629   7.317 -3.3452 -0.9058 -1.1327
 9542SOL    HW240263   3.472   4.696   7.251 -0.4654  0.5900  0.6646
 9543SOL     OW40264   1.298   3.570   6.006  0.0736  0.1096  0.0913
 9543SOL    HW140265   1.259   3.628   5.940  1.4636  1.8379  0.7656
 9543SOL    HW240266   1.322   3.634   6.074  0.6330  1.2310 -1.1551
 9544SOL     OW40267   1.993   0.727   9.825 -0.0915 -0.1298 -0.5728
 9544SOL    HW140268   1.910   0.680   9.834 -0.3653  0.5769  0.6727
 9544SOL    HW240269   2.003   0.758   9.915 -1.7590  1.1236 -0.8192
 9545SOL     OW40270   0.525   3.670   8.134  0.2389 -0.3631 -0.4267
 9545SOL    HW140271   0.592   3.729   8.170  3.5010 -3.7327 -0.9217
 9545SOL    HW240272   0.551   3.595   8.188  0.3138 -0.0510 -0.0225
 9546SOL     OW40273   2.013   2.670  15.869  0.2745  0.6005 -0.0575
 9546SOL    HW140274   2.018   2.760  15.838 -0.9336  0.8483  0.4734
 9546SOL    HW240275   1.919   2.654  15.868  0.3831  0.1454 -4.4000
 9547SOL     OW40276   4.121   0.691  17.310  0.4245 -0.0217  0.3207
 9547SOL    HW140277   4.215   0.698  17.297  0.5319  1.9268  2.0753
 9547SOL    HW240278   4.083   0.776  17.332 -0.0549 -0.0184 -0.5243
 9548SOL     OW40279   0.215   2.062   2.664 -1.2084 -0.8393 -0.1997
 9548SOL    HW140280   0.265   2.015   2.731 -1.9154 -1.4275 -0.0754
 9548SOL    HW240281   0.130   2.020   2.650 -0.9669 -0.2999 -3.1640
 9549SOL     OW40282   3.138   3.814   6.198 -0.1345  0.7174 -0.2458
 9549SOL    HW140283   3.052   3.823   6.240  0.2488 -0.2441  0.7382
 9549SOL    HW240284   3.128   3.719   6.192 -1.4913  0.7803  1.1177
 9550SOL     OW40285   2.411   2.551   1.155  0.7425  0.1666  0.0110
 9550SOL    HW140286   2.461   2.482   1.198 -0.3141 -1.1156 -0.8288
 9550SOL    HW240287   2.369   2.601   1.225 -1.1718 -0.4509 -0.6896
 9551SOL     OW40288   4.220   4.648   9.334  0.6198 -0.1780  0.3893
 9551SOL    HW140289   4.229   4.664   9.428 -0.3089 -1.3273  0.6739
 9551SOL    HW240290   4.309   4.615   9.319 -0.4168 -1.8120 -2.1496
 9552SOL     OW40291   4.047   2.589  14.107 -0.1920 -0.2598 -0.0639
 9552SOL    HW140292   4.089   2.646  14.172 -0.2293  1.2962 -1.4084
 9552SOL    HW240293   3.955   2.590  14.137 -0.5255 -0.7069 -1.0849
 9553SOL     OW40294   4.726   0.667   6.312  0.3880  0.0661  0.2196
 9553SOL    HW140295   0.013   0.730   6.243  0.9437  1.7067  1.8723
 9553SOL    HW240296   0.072   0.616   6.306 -0.6613 -1.4645 -0.9605
 9554SOL     OW40297   3.680   0.896  11.972 -0.1642 -0.4032 -0.4475
 9554SOL    HW140298   3.672   0.838  11.895  0.7143 -1.5002  0.2745
 9554SOL    HW240299   3.690   0.984  11.935 -1.4624  0.0960  0.4214
 9555SOL     OW40300   4.111   3.908   1.440 -0.1361  0.0437 -0.0376
 9555SOL    HW140301   4.096   3.814   1.433 -2.7963  0.6857 -2.9528
 9555SOL    HW240302   4.024   3.942   1.418  0.0747  1.3117  1.0262
 9556SOL     OW40303   4.028   1.176   6.362 -0.2328 -0.5474  0.4013
 9556SOL    HW140304   3.966   1.213   6.426  1.3524 -0.6966  2.0114
 9556SOL    HW240305   4.073   1.112   6.417  0.6031 -1.1111 -0.9580
 9557SOL     OW40306   3.374   3.135   6.117  0.1240  0.6726 -0.3730
 9557SOL    HW140307   3.301   3.136   6.179  1.1710 -0.4964  0.8729
 9557SOL    HW240308   3.362   3.048   6.077 -0.2030 -0.1109  1.4329
 9558SOL     OW40309   2.682   0.563   9.873 -0.3916  0.3047  0.5496
 9558SOL    HW140310   2.749   0.586   9.938 -1.1289  1.2968  0.9769
 9558SOL    HW240311   2.729   0.549   9.791  1.2883  1.3968  1.3212
 9559SOL     OW40312   0.957   0.036   1.250 -0.5747  0.0151 -0.0536
 9559SOL    HW140313   0.949   0.109   1.311 -0.6444  0.2717 -0.3680
 9559SOL    HW240314   0.882   4.721   1.283 -2.5825  2.7329 -0.5281
 9560SOL     OW40315   2.895   2.242   8.322  0.4002 -0.7408  0.4272
 9560SOL    HW140316   2.903   2.147   8.312 -2.5957 -0.8631 -0.5824
 9560SOL    HW240317   2.927   2.274   8.237 -1.4083  0.1817  0.0996
 9561SOL     OW40318   3.811   1.687   5.670  0.8133  0.2499 -0.1523
 9561SOL    HW140319   3.774   1.603   5.699 -2.3445  1.3568 -0.9910
 9561SOL    HW240320   3.857   1.720   5.747  0.5265  1.7158 -0.6157
 9562SOL     OW40321   1.659   3.905   6.595  0.0846  0.3057 -0.0313
 9562SOL    HW140322   1.698   3.843   6.656  1.1936  1.0071 -0.0315
 9562SOL    HW240323   1.664   3.984   6.649 -2.6655 -0.3185  1.1688
 9563SOL     OW40324   0.483   1.228   1.959 -0.1180  0.0353  0.2327
 9563SOL    HW140325   0.492   1.150   2.014  0.2066 -1.0802 -1.4030
 9563SOL    HW240326   0.534   1.207   1.881  1.6934  0.1374  1.3901
 9564SOL     OW40327   2.716   0.869   1.013 -0.4868  0.3975  0.4297
 9564SOL    HW140328   2.645   0.808   1.034 -0.3067  0.2706  0.6681
 9564SOL    HW240329   2.744   0.847   0.924 -0.3526  0.2876  0.4988
 9565SOL     OW40330   3.158   0.826   9.658 -0.3968 -0.2459  0.2621
 9565SOL    HW140331   3.176   0.762   9.727  0.0210  1.1222  1.4210
 9565SOL    HW240332   3.202   0.902   9.697 -2.3332  0.1258  1.6902
 9566SOL     OW40333   1.319   0.761   4.259 -0.1541  0.2099  0.1305
 9566SOL    HW140334   1.367   0.787   4.337 -1.8101 -0.3408  1.3394
 9566SOL    HW240335   1.276   0.842   4.229 -1.7223 -0.6013  0.1787
 9567SOL     OW40336   1.719   3.488   7.354 -0.3354  0.3918  0.6987
 9567SOL    HW140337   1.715   3.583   7.362  2.1776  0.5155  0.4959
 9567SOL    HW240338   1.724   3.469   7.448 -0.6378 -0.7358  0.4963
 9568SOL     OW40339   4.596   0.553  11.125 -0.2580  0.1180  0.9932
 9568SOL    HW140340   4.627   0.641  11.146  0.4546 -0.1114  0.8801
 9568SOL    HW240341   4.683   0.514  11.122 -0.6483 -0.6648 -0.3616
 9569SOL     OW40342   0.189   1.914   6.905  0.8177  0.5054  0.3580
 9569SOL    HW140343   0.171   1.820   6.892 -1.9712  1.0395  0.3687
 9569SOL    HW240344   0.120   1.963   6.861  1.8000  0.2142 -1.4905
   4.73426   4.73426  17.73610
