Membrane in water
40344
    1TMC1    C1    1   1.767   1.484  11.873  0.0939  0.3319  0.5024
    1TMC1    C2    2   1.675   1.573  11.928 -0.0172 -0.4093  0.1193
    1TMC1    C3    3   1.707   1.700  11.934 -0.1495  0.5232  0.1899
    1TMC1    C4    4   1.887   1.528  11.820  0.3903 -0.2079  0.4603
    1TMC1    C5    5   1.913   1.659  11.817  0.0152 -0.6856 -0.1712
    1TMC1    C6    6   1.826   1.747  11.881  0.3655  0.2011 -0.5799
    1TMC1     C    7   1.724   1.349  11.854  0.1086  0.3920 -0.4611
    1TMC1     O    8   1.649   1.306  11.941 -0.3910  0.6139 -0.0033
    1TMC1     H    9   1.589   1.526  11.974 -1.1257  0.9437 -0.5662
    1TMC1    H1   10   1.968   1.458  11.800  0.1050  0.0475 -1.6014
    1TMC1    H2   11   1.860   1.847  11.906 -1.6103  0.7277  0.0145
    1TMC1    C7   12   2.045   1.697  11.775 -0.2593 -0.7662 -0.1467
    1TMC1    C8   13   1.634   1.790  12.030  0.1750 -1.1494 -0.0859
    1TMC1    O1   14   2.138   1.615  11.762 -0.2257  0.4654  0.6245
    1TMC1    O2   15   1.594   1.762  12.139  0.3818  0.6484 -0.0937
    1TMC1    O3   16   2.065   1.830  11.768 -0.3651 -0.7937  0.1625
    1TMC1    H3   17   1.981   1.878  11.756 -0.4262 -0.2060  2.9470
    1TMC1    O5   18   1.654   1.913  11.982 -0.4013  0.0956  0.3155
    1TMC1    H5   19   1.663   1.902  11.884 -1.1081  0.1235  0.2471
    2MPD2     C   20   1.619   0.923  11.591 -0.5135 -1.0131 -0.5467
    2MPD2    C1   21   1.619   0.949  11.727  0.3322  0.1510  0.3537
    2MPD2    C2   22   1.648   1.074  11.767 -0.3046  0.4483  0.0334
    2MPD2    C3   23   1.702   1.171  11.684  0.5442 -0.3215 -0.2390
    2MPD2    C4   24   1.716   1.139  11.552  0.5224 -0.0829  0.4175
    2MPD2    C5   25   1.674   1.019  11.503  0.0216 -0.1259  0.4970
    2MPD2     H   26   1.634   1.100  11.871  3.6102 -3.1141  1.4885
    2MPD2    H1   27   1.758   1.215  11.487 -0.6724 -0.2517 -0.5738
    2MPD2    H2   28   1.589   0.828  11.548 -1.9619  0.5394 -2.9877
    2MPD2    H3   29   1.680   0.999  11.397 -0.8808 -0.2949  0.4824
    2MPD2     N   30   1.746   1.296  11.727  0.0914 -0.2198 -0.3760
    2MPD2    H5   31   1.787   1.351  11.651 -1.2869 -2.5656 -2.8295
    2MPD2    N1   32   1.572   0.860  11.823 -0.3160 -0.3416  0.3403
    2MPD2    H7   33   1.575   0.882  11.922 -0.0770 -1.0143  0.4834
    3TMC1    C1   34   0.118   1.554  10.356  0.1185 -0.2205 -0.3270
    3TMC1    C2   35   0.150   1.682  10.322  0.1630  0.5365 -0.8172
    3TMC1    C3   36   0.082   1.729  10.218 -0.6259  0.5128  0.3545
    3TMC1    C4   37   0.015   1.479  10.297 -0.3431  0.4691 -0.6473
    3TMC1    C5   38   4.689   1.540  10.193 -0.2826 -0.7330  0.4437
    3TMC1    C6   39   4.723   1.668  10.152  0.1432 -0.7301 -0.9320
    3TMC1     C   40   0.195   1.485  10.458 -0.0884 -0.0532 -0.1470
    3TMC1     O   41   0.190   1.365  10.477 -0.2132  0.2055 -0.2445
    3TMC1     H   42   0.237   1.728  10.368 -1.3064  3.5921 -1.1242
    3TMC1    H1   43   4.731   1.379  10.332 -0.8581  0.6886 -0.3683
    3TMC1    H2   44   4.683   1.711  10.061 -1.4907  0.9682  0.5778
    3TMC1    C7   45   4.583   1.468  10.127 -0.3491 -0.1923 -0.1253
    3TMC1    C8   46   0.115   1.865  10.173 -0.3059 -0.4984  0.2746
    3TMC1    O1   47   4.539   1.495  10.018  0.0060  0.0051  0.1598
    3TMC1    O2   48   0.147   1.882  10.056 -0.2774  0.0292  0.3821
    3TMC1    O3   49   4.512   1.405  10.228  0.5882 -0.1813 -0.0033
    3TMC1    H3   50   4.559   1.418  10.313  1.8756  0.4051 -0.8195
    3TMC1    O5   51   0.155   1.936  10.278  0.1094 -0.3236  0.8100
    3TMC1    H5   52   0.095   1.910  10.352  0.7552  0.4545  1.6116
    4MPD2     C   53   0.493   1.452  10.874 -0.0406 -0.0724 -0.0146
    4MPD2    C1   54   0.439   1.582  10.870  0.0239 -0.1370  0.5126
    4MPD2    C2   55   0.356   1.616  10.769 -0.3285  0.0644  0.4118
    4MPD2    C3   56   0.324   1.528  10.665  0.1461 -0.4308 -0.3927
    4MPD2    C4   57   0.386   1.407  10.675  0.0032 -0.8297 -0.0042
    4MPD2    C5   58   0.459   1.362  10.777 -0.0071 -0.1398 -0.7798
    4MPD2     H   59   0.316   1.717  10.761 -0.0399  0.3418  2.4808
    4MPD2    H1   60   0.372   1.328  10.602 -0.0714 -1.6038  0.8462
    4MPD2    H2   61   0.534   1.411  10.966  0.6941 -1.0099 -0.7510
    4MPD2    H3   62   0.496   1.262  10.766  2.0177  0.3180  1.7870
    4MPD2     N   63   0.247   1.566  10.551 -0.2008 -0.1358 -0.7174
    4MPD2    H5   64   0.217   1.663  10.545  0.7492  0.1286 -1.1325
    4MPD2    N1   65   0.444   1.674  10.980  0.4483 -0.2960  0.1132
    4MPD2    H7   66   0.373   1.746  10.979  0.3152 -0.4184  0.6620
    5TCq1    O1   67   2.146   3.327  11.918  0.2879 -0.4341  0.2327
    5TCq1    C1   68   2.106   3.453  11.962 -0.5932  0.1206  0.1771
    5TCq1    O2   69   2.164   3.522  12.046  0.3055 -0.0628 -0.1095
    5TCq1    C2   70   1.969   3.471  11.921  0.0133 -0.7396 -0.4865
    5TCq1    C3   71   1.885   3.558  11.986 -0.1338 -0.2354  0.2421
    5TCq1    C4   72   1.772   3.596  11.919  0.1860  0.5849 -0.9064
    5TCq1    C5   73   1.741   3.553  11.798 -0.2677  0.1901  0.4587
    5TCq1    C6   74   1.822   3.456  11.740  0.6066 -0.9521  0.3547
    5TCq1    C7   75   1.939   3.418  11.798  0.2551 -0.2619  0.4942
    5TCq1    C8   76   1.788   3.406  11.604 -0.6057 -0.6448  0.4248
    5TCq1    O4   77   1.852   3.313  11.558 -0.1044  0.6507 -0.1483
    5TCq1    C9   78   1.682   3.681  11.984 -0.1353 -0.4730 -0.4419
    5TCq1    O5   79   1.683   3.672  12.109  0.5653 -0.2048 -0.2982
    5TCq1    O6   80   1.585   3.723  11.908 -0.3794 -0.7623 -0.1875
    5TCq1    H1   81   2.073   3.272  11.883  0.9478 -0.9426 -0.3634
    5TCq1    H2   82   1.897   3.596  12.087 -1.7004  0.1046  0.3072
    5TCq1    H3   83   1.646   3.580  11.753  0.0655 -0.2357 -0.5037
    5TCq1    H4   84   2.008   3.363  11.735  0.0129  0.1611 -0.1352
    6MPD2     C   85   1.535   3.540  11.369 -0.4767 -0.0291 -0.8413
    6MPD2    C1   86   1.612   3.441  11.428 -0.2027 -0.2709 -0.7135
    6MPD2    C2   87   1.612   3.305  11.378  0.2139  0.3290  0.2808
    6MPD2    C3   88   1.526   3.275  11.276  0.0213 -0.4288 -0.2272
    6MPD2    C4   89   1.451   3.375  11.221 -0.0113  1.1943 -0.0272
    6MPD2    C5   90   1.465   3.507  11.259  0.0239 -0.0591 -0.3742
    6MPD2     H   91   1.675   3.236  11.433 -0.3882 -1.2020 -0.9534
    6MPD2    H1   92   1.386   3.363  11.136  0.5438 -0.3197 -0.2369
    6MPD2    H2   93   1.536   3.646  11.392 -1.3152 -0.1032 -0.4784
    6MPD2    H3   94   1.413   3.592  11.215 -1.3560 -1.0828 -0.7227
    6MPD2     N   95   1.546   3.145  11.212 -0.5905 -0.7155 -0.4778
    6MPD2    H5   96   1.633   3.102  11.241 -0.3128 -0.7919 -1.4402
    6MPD2    N1   97   1.691   3.487  11.537 -0.2171 -0.1698  0.9406
    6MPD2    H7   98   1.675   3.581  11.570 -1.6355  0.1869 -0.7897
    7TCq1    O1   99   3.378   3.039  13.807  0.0886  0.2642 -0.5423
    7TCq1    C1  100   3.464   2.992  13.714 -0.0051 -0.0347 -0.7983
    7TCq1    O2  101   3.547   3.053  13.646  0.3309 -0.0659  0.3365
    7TCq1    C2  102   3.441   2.847  13.693 -0.3588 -0.1261 -0.8922
    7TCq1    C3  103   3.369   2.772  13.782  0.2037 -0.0058 -0.6644
    7TCq1    C4  104   3.343   2.642  13.752 -0.4241  0.6404  1.0610
    7TCq1    C5  105   3.395   2.585  13.636  0.3870 -1.6069 -0.3131
    7TCq1    C6  106   3.468   2.663  13.546 -0.3270  0.5929 -0.2912
    7TCq1    C7  107   3.487   2.799  13.576  0.1959  0.0603 -0.2398
    7TCq1    C8  108   3.553   2.589  13.454  0.0543  0.0877 -0.0549
    7TCq1    O4  109   3.528   2.469  13.436  0.8737 -0.0700 -0.3161
    7TCq1    C9  110   3.270   2.559  13.845  0.0598 -0.0208 -0.1965
    7TCq1    O5  111   3.232   2.616  13.950  0.0457 -0.2313  0.1900
    7TCq1    O6  112   3.242   2.450  13.793  0.2615 -0.0072  0.3104
    7TCq1    H1  113   3.315   2.969  13.835 -3.2557  2.0944 -3.4753
    7TCq1    H2  114   3.335   2.809  13.878  3.6276  0.9543  0.1932
    7TCq1    H3  115   3.386   2.480  13.612 -0.3364 -0.8811 -3.2539
    7TCq1    H4  116   3.518   2.864  13.495  0.9143  1.5542  1.2574
    8MPD2     C  117   3.976   2.528  13.182 -0.0739 -0.3469  0.1868
    8MPD2    C1  118   3.895   2.438  13.235  0.4636 -0.9704  0.2733
    8MPD2    C2  119   3.785   2.481  13.300  0.0281 -0.3250  0.5241
    8MPD2    C3  120   3.757   2.614  13.320  0.5173 -0.7659  0.5380
    8MPD2    C4  121   3.837   2.704  13.258  0.3471  0.1671  0.1299
    8MPD2    C5  122   3.946   2.661  13.181  0.6906  0.1766  0.1012
    8MPD2     H  123   3.720   2.406  13.343 -0.9625 -0.0723 -0.5314
    8MPD2    H1  124   3.829   2.811  13.278  2.9228  0.6020 -1.1474
    8MPD2    H2  125   4.073   2.506  13.138 -1.3377 -1.1094 -2.2288
    8MPD2    H3  126   4.025   2.723  13.140 -0.6884  1.3965 -0.7242
    8MPD2     N  127   3.651   2.661  13.398 -0.0962  0.4036 -0.0255
    8MPD2    H5  128   3.645   2.760  13.417 -0.0894  0.5303 -0.7016
    8MPD2    N1  129   3.930   2.305  13.254 -0.0132  0.1963 -0.2986
    8MPD2    H7  130   3.884   2.258  13.331  0.2389 -2.1797 -1.5988
    9TMC1    C1  131   1.275   1.567  11.112 -0.0018  0.0734  0.5215
    9TMC1    C2  132   1.386   1.620  11.048  0.5508 -0.3139  0.4948
    9TMC1    C3  133   1.387   1.745  10.995 -0.1652 -0.5074  0.2688
    9TMC1    C4  134   1.155   1.634  11.115 -0.4842  0.0926 -0.2854
    9TMC1    C5  135   1.157   1.758  11.058 -0.1172  0.0025 -1.3092
    9TMC1    C6  136   1.267   1.818  10.995 -0.5839 -0.3492  0.5050
    9TMC1     C  137   1.293   1.457  11.207  0.7301  0.7533 -0.4518
    9TMC1     O  138   1.383   1.376  11.192 -0.0701 -0.2481  0.5176
    9TMC1     H  139   1.482   1.573  11.029 -0.9297 -3.5798  1.0996
    9TMC1    H1  140   1.060   1.590  11.140 -0.0665 -0.4734  0.3164
    9TMC1    H2  141   1.268   1.924  10.973 -1.3339 -0.5490 -0.4751
    9TMC1    C7  142   1.034   1.826  11.035  0.2804  0.5154 -0.6117
    9TMC1    C8  143   1.502   1.815  10.939  0.2968 -0.4450  0.2656
    9TMC1    O1  144   1.014   1.892  10.934 -0.0373 -0.0334  0.1733
    9TMC1    O2  145   1.520   1.934  10.956  0.0615 -0.0806 -0.1668
    9TMC1    O3  146   0.994   1.859  11.154  0.3732 -0.3960  0.3435
    9TMC1    H3  147   1.038   1.804  11.222  1.5157  0.8181  0.5985
    9TMC1    O5  148   1.605   1.730  10.918 -0.3982 -0.2330 -0.3622
    9TMC1    H5  149   1.566   1.650  10.877 -0.8171  0.5559 -1.5031
   10MPD2     C  150   1.304   1.275  11.443  0.6935  0.1925 -0.6461
   10MPD2    C1  151   1.217   1.379  11.437  0.2746  0.1662 -0.1864
   10MPD2    C2  152   1.137   1.419  11.539 -0.2537  0.2341  0.0199
   10MPD2    C3  153   1.161   1.357  11.661 -0.4263 -0.2702  0.2811
   10MPD2    C4  154   1.253   1.248  11.674 -0.5972  0.7992  0.3018
   10MPD2    C5  155   1.331   1.212  11.562  0.2202  0.2547 -0.2894
   10MPD2     H  156   1.070   1.501  11.514  1.0855  1.6654  1.1386
   10MPD2    H1  157   1.268   1.199  11.769 -0.0814  2.6376  1.1629
   10MPD2    H2  158   1.361   1.229  11.363  2.5115  1.4666 -0.0770
   10MPD2    H3  159   1.394   1.124  11.561  0.3433  0.3875 -4.3997
   10MPD2     N  160   1.095   1.394  11.779 -0.2977 -0.6055  0.4129
   10MPD2    H5  161   1.125   1.342  11.861 -0.3569 -1.5010 -0.1358
   10MPD2    N1  162   1.207   1.465  11.316  0.4147 -0.4256  0.5612
   10MPD2    H7  163   1.155   1.550  11.332 -0.0345 -0.0518 -2.9401
   11TCq1    O1  164   1.655   2.041  13.880  0.4606  0.5415  0.1096
   11TCq1    C1  165   1.567   1.990  13.965  0.5790  0.2582  0.7221
   11TCq1    O2  166   1.445   2.002  13.972  0.1327 -0.1695 -0.0472
   11TCq1    C2  167   1.626   1.864  14.014 -0.8921 -0.3752 -0.3858
   11TCq1    C3  168   1.760   1.855  14.062 -0.3355 -0.2713 -0.1130
   11TCq1    C4  169   1.810   1.738  14.102  0.6321 -0.0048 -0.1578
   11TCq1    C5  170   1.729   1.627  14.105 -0.3607  0.1743  0.2025
   11TCq1    C6  171   1.598   1.631  14.059 -0.0368  0.1151 -0.2971
   11TCq1    C7  172   1.545   1.753  14.016 -0.6947  0.4332 -0.0214
   11TCq1    C8  173   1.512   1.522  14.124  0.3373 -0.5861 -0.0484
   11TCq1    O4  174   1.406   1.548  14.181  0.2317  0.4863  0.5016
   11TCq1    C9  175   1.938   1.726  14.163 -0.0757 -0.3240  0.3896
   11TCq1    O5  176   1.989   1.833  14.200 -0.5262  0.3424 -0.3728
   11TCq1    O6  177   1.973   1.613  14.206 -0.3068 -0.5245 -0.0449
   11TCq1    H1  178   1.747   2.008  13.874  0.5225  0.3743  1.9432
   11TCq1    H2  179   1.821   1.945  14.073 -0.5017  0.0013 -1.4035
   11TCq1    H3  180   1.769   1.534  14.142  2.9538  1.1775 -0.9057
   11TCq1    H4  181   1.439   1.758  13.991 -0.5541 -0.6005 -0.8064
   12MPD2     C  182   1.449   1.263  14.254 -0.0241  0.1576 -0.8645
   12MPD2    C1  183   1.535   1.278  14.153 -0.3332 -0.0466 -0.3652
   12MPD2    C2  184   1.580   1.164  14.089  0.0453  0.1787  0.4888
   12MPD2    C3  185   1.548   1.043  14.142  1.4203  0.4496 -0.2153
   12MPD2    C4  186   1.461   1.032  14.249  0.9946  0.0543 -0.8712
   12MPD2    C5  187   1.407   1.144  14.303 -0.8903  0.0837 -0.3638
   12MPD2     H  188   1.640   1.181  14.000 -0.2053 -2.2760 -0.1270
   12MPD2    H1  189   1.435   0.936  14.290 -0.2689  0.5270 -0.5637
   12MPD2    H2  190   1.416   1.354  14.302 -0.4118 -1.1860  1.4549
   12MPD2    H3  191   1.333   1.132  14.380  0.6699 -2.0283  0.7923
   12MPD2     N  192   1.595   0.918  14.085 -0.0831 -0.2929  0.6170
   12MPD2    H5  193   1.603   0.836  14.143  1.4482 -0.1753  0.5644
   12MPD2    N1  194   1.575   1.399  14.097  0.1906  0.4973  0.3020
   12MPD2    H7  195   1.654   1.414  14.034 -0.2244  0.8026 -0.1487
   13TCq1    O1  196   2.167   2.059  11.326 -0.2530 -0.2158  0.9575
   13TCq1    C1  197   2.056   2.066  11.252 -0.5302 -0.3356  0.4295
   13TCq1    O2  198   2.053   2.075  11.133 -0.3190 -0.5898  0.9349
   13TCq1    C2  199   1.955   1.986  11.327 -0.6643 -0.6010 -0.1878
   13TCq1    C3  200   1.928   2.010  11.460 -0.1444 -0.9292 -0.8021
   13TCq1    C4  201   1.813   1.962  11.512  0.2071  0.9872  0.1472
   13TCq1    C5  202   1.735   1.875  11.440  0.4318  0.0205 -0.4241
   13TCq1    C6  203   1.776   1.838  11.319  0.4877  0.7543 -0.0647
   13TCq1    C7  204   1.874   1.903  11.253  0.2339  0.4682  0.1969
   13TCq1    C8  205   1.742   1.708  11.266  0.3032 -0.1514 -0.5809
   13TCq1    O4  206   1.629   1.674  11.299 -0.0156 -0.1224 -0.3188
   13TCq1    C9  207   1.776   1.992  11.651 -0.8867 -0.2965 -0.1954
   13TCq1    O5  208   1.877   2.012  11.723 -0.1208 -0.7330  0.7897
   13TCq1    O6  209   1.668   1.943  11.695 -0.5445  0.2496 -0.2897
   13TCq1    H1  210   2.139   2.025  11.414  0.8055 -0.8483  1.0505
   13TCq1    H2  211   1.992   2.069  11.525  1.0331 -1.2241 -1.6991
   13TCq1    H3  212   1.655   1.821  11.490  1.3865  0.2893  1.4066
   13TCq1    H4  213   1.886   1.877  11.148 -0.8122  4.0955 -0.8317
   14MPD2     C  214   1.948   1.484  11.061 -1.0585  0.0093  0.5027
   14MPD2    C1  215   1.830   1.526  11.125 -0.0416 -0.4809 -0.4433
   14MPD2    C2  216   1.723   1.446  11.126  0.1857  0.0697 -0.3604
   14MPD2    C3  217   1.730   1.318  11.073  0.2623  0.6600 -0.0324
   14MPD2    C4  218   1.850   1.276  11.015 -0.6774  0.3902 -0.0622
   14MPD2    C5  219   1.955   1.365  11.008  0.1182  0.1278  0.6575
   14MPD2     H  220   1.635   1.480  11.178 -1.8941 -1.3615 -2.9489
   14MPD2    H1  221   1.868   1.181  10.967  1.7362 -0.5251  2.6574
   14MPD2    H2  222   2.039   1.541  11.043 -0.3102 -0.5763  2.4735
   14MPD2    H3  223   2.050   1.343  10.959 -0.0518 -0.9116  0.7907
   14MPD2     N  224   1.612   1.240  11.080 -0.5995 -0.2709  0.0497
   14MPD2    H5  225   1.529   1.289  11.111 -0.1135 -0.0004  0.9400
   14MPD2    N1  226   1.834   1.650  11.189  0.8548 -0.9654  0.3835
   14MPD2    H7  227   1.914   1.712  11.181 -0.4001  0.0548 -4.1713
   15TCq1    O1  228   3.951   1.494   1.223 -0.9231  0.1031 -0.0568
   15TCq1    C1  229   3.863   1.395   1.231 -0.0910  0.1688  0.2418
   15TCq1    O2  230   3.750   1.410   1.266  0.3505  0.1100  0.1003
   15TCq1    C2  231   3.916   1.272   1.170 -0.4915 -0.1325 -0.0567
   15TCq1    C3  232   4.047   1.238   1.149 -0.2772 -0.0826 -0.0589
   15TCq1    C4  233   4.084   1.109   1.118 -0.5505  0.5722  0.7908
   15TCq1    C5  234   3.988   1.023   1.072  0.6000 -0.6938 -0.1252
   15TCq1    C6  235   3.858   1.058   1.081 -0.0938  0.5795 -0.0810
   15TCq1    C7  236   3.820   1.182   1.132  1.1996  0.4762 -0.0961
   15TCq1    C8  237   3.754   0.963   1.056  0.6251  0.2086 -0.1547
   15TCq1    O4  238   3.784   0.846   1.054 -0.1300 -0.0287  0.0325
   15TCq1    C9  239   4.228   1.081   1.101 -0.7351  0.6906 -0.4052
   15TCq1    O5  240   4.255   0.974   1.041 -0.2617 -0.1304  0.1200
   15TCq1    O6  241   4.314   1.165   1.141  0.1256 -0.2063  0.1001
   15TCq1    H1  242   4.021   1.475   1.158  0.9614  1.7467  1.4735
   15TCq1    H2  243   4.119   1.315   1.173 -1.3572  0.2339  2.1887
   15TCq1    H3  244   4.004   0.924   1.031 -0.5516 -0.7799 -0.3824
   15TCq1    H4  245   3.717   1.213   1.136  1.3241  0.8616  0.0675
   16MPD2     C  246   3.402   1.031   0.948 -0.7179  0.0768  0.4466
   16MPD2    C1  247   3.511   0.953   0.980  0.4122  0.6782 -0.0380
   16MPD2    C2  248   3.505   0.822   0.944 -0.3613 -0.2982  0.4497
   16MPD2    C3  249   3.394   0.767   0.881  0.1113 -0.4427  0.2344
   16MPD2    C4  250   3.291   0.852   0.844 -0.0242 -0.4012  0.1585
   16MPD2    C5  251   3.293   0.980   0.880  0.1760 -0.0926 -0.5401
   16MPD2     H  252   3.589   0.755   0.963 -1.2462 -0.0798  5.0218
   16MPD2    H1  253   3.199   0.816   0.799  1.0843 -0.8612 -1.7379
   16MPD2    H2  254   3.401   1.139   0.963  1.0016  0.2249 -0.4251
   16MPD2    H3  255   3.203   1.038   0.862  0.8632  0.2575 -2.9110
   16MPD2     N  256   3.393   0.625   0.861 -0.0365 -0.2031 -0.1840
   16MPD2    H5  257   3.485   0.583   0.851 -0.5406 -1.1654 -0.6650
   16MPD2    N1  258   3.625   1.021   1.032 -0.1426  0.5798  0.4629
   16MPD2    H7  259   3.629   1.123   1.032  0.9518  0.5455  1.5763
   17TMC1    C1  260   0.962   0.129  10.759 -0.2847  0.3831 -0.1210
   17TMC1    C2  261   0.948   0.219  10.658  0.0771  1.3932 -0.8417
   17TMC1    C3  262   0.823   0.211  10.592  0.2853  0.4018 -0.6075
   17TMC1    C4  263   0.862   0.051  10.799  0.1110 -0.3929  0.3205
   17TMC1    C5  264   0.739   0.048  10.733  0.3349  0.0787 -1.1825
   17TMC1    C6  265   0.715   0.135  10.628  0.0171  0.1810 -0.0608
   17TMC1     C  266   1.086   0.088  10.814  0.4474  0.4867 -0.4904
   17TMC1     O  267   1.089   4.729  10.885 -0.2894 -0.3599  0.0366
   17TMC1     H  268   1.021   0.295  10.634  1.0351  1.2999  1.7226
   17TMC1    H1  269   0.870   4.723  10.883  1.2711 -0.5537  0.0828
   17TMC1    H2  270   0.616   0.150  10.588 -0.1951  2.7707  1.4249
   17TMC1    C7  271   0.641   4.696  10.796  0.0458 -0.3102  0.3138
   17TMC1    C8  272   0.800   0.302  10.483  0.2091 -0.5352 -0.9387
   17TMC1    O1  273   0.630   4.684  10.912  0.4076 -0.3486  0.1843
   17TMC1    O2  274   0.889   0.326  10.404  0.4424  0.3034  0.3935
   17TMC1    O3  275   0.542   4.685  10.703 -0.1392  0.4567  0.4604
   17TMC1    H3  276   0.582   4.709  10.617 -2.4434  4.0454  0.3882
   17TMC1    O5  277   0.726   0.398  10.538  0.3839  0.1451  0.7260
   17TMC1    H5  278   0.675   0.373  10.618 -1.4023 -2.1390 -1.1644
   18MPD2     C  279   1.374   0.011  10.859  0.4855  0.7259 -0.1052
   18MPD2    C1  280   1.329   0.132  10.806 -0.0556  0.5158 -0.0044
   18MPD2    C2  281   1.425   0.224  10.773  0.5927  0.4128  0.7052
   18MPD2    C3  282   1.557   0.210  10.802  0.9548 -0.0893 -0.2471
   18MPD2    C4  283   1.607   0.092  10.852 -0.0195 -0.0878 -0.0488
   18MPD2    C5  284   1.512   4.734  10.867 -0.3635 -0.3369  0.0651
   18MPD2     H  285   1.388   0.316  10.728  0.5786 -0.9502 -2.0537
   18MPD2    H1  286   1.713   0.072  10.856 -0.0091 -0.2900 -1.3149
   18MPD2    H2  287   1.311   4.665  10.873 -1.1207  1.6257 -1.7173
   18MPD2    H3  288   1.549   4.634  10.888 -2.4489 -1.0928  0.1029
   18MPD2     N  289   1.646   0.312  10.797  0.0052  0.3669  0.0415
   18MPD2    H5  290   1.736   0.297  10.841 -0.2566 -2.4632 -0.3733
   18MPD2    N1  291   1.196   0.163  10.768  0.6763 -0.0953 -0.1913
   18MPD2    H7  292   1.176   0.250  10.720 -2.5928 -1.3035 -0.9809
   19TMC2    C1  293   2.938   1.501  13.910 -0.2748 -0.2097 -0.2136
   19TMC2    C2  294   2.864   1.612  13.898 -0.3639  0.4134 -0.1787
   19TMC2    C3  295   2.734   1.600  13.930  0.1660 -0.2388 -0.1851
   19TMC2    C4  296   2.885   1.385  13.962  0.0962 -0.1671  0.2300
   19TMC2    C5  297   2.752   1.388  13.999  0.7932 -0.5335  0.1707
   19TMC2    C6  298   2.670   1.493  13.977  0.7690 -0.8179  0.0991
   19TMC2     C  299   3.078   1.518  13.896  0.0921  0.3375  0.2823
   19TMC2     O  300   3.112   1.605  13.818 -0.7754  0.3450 -0.2539
   19TMC2     H  301   2.904   1.708  13.868  2.3250 -0.3986  0.7294
   19TMC2    H1  302   2.941   1.294  13.983 -0.1447 -0.9148 -2.4007
   19TMC2    H2  303   2.575   1.505  14.028  0.0093 -0.5169 -1.3999
   19TMC2    C7  304   2.692   1.264  14.040  0.1926 -0.4908 -0.1168
   19TMC2    C8  305   2.647   1.717  13.906 -0.1815 -0.1232 -0.1436
   19TMC2    O1  306   2.770   1.177  14.072  1.0204 -0.1209  0.6803
   19TMC2    O2  307   2.537   1.744  13.958 -0.4390 -0.1470 -0.2646
   19TMC2    O5  308   2.664   1.736  13.773 -0.0769  0.3058  0.1744
   19TMC2    H5  309   2.741   1.690  13.734 -1.2406 -0.8793 -0.7124
   20MPD2     C  310   3.377   1.514  13.880 -0.0517 -0.0772 -1.0239
   20MPD2    C1  311   3.302   1.435  13.959 -0.1933  0.3906  0.0459
   20MPD2    C2  312   3.367   1.337  14.037  0.9524  0.6808  0.7352
   20MPD2    C3  313   3.499   1.322  14.024 -0.6733 -0.6031  0.2689
   20MPD2    C4  314   3.578   1.409  13.950  0.0418 -0.2801 -0.3892
   20MPD2    C5  315   3.510   1.501  13.876  0.1032 -0.3210 -0.1381
   20MPD2     H  316   3.297   1.275  14.092 -0.9190  1.7557 -0.4213
   20MPD2    H1  317   3.684   1.392  13.935  0.1831  1.4649 -1.3700
   20MPD2    H2  318   3.337   1.597  13.823  1.5693  0.2492 -1.6900
   20MPD2    H3  319   3.565   1.562  13.804  0.7150 -0.2880  0.3551
   20MPD2     N  320   3.568   1.221  14.091 -0.1696  0.4344 -0.8138
   20MPD2    H5  321   3.669   1.231  14.087 -0.2560  2.0582  1.4058
   20MPD2    N1  322   3.165   1.442  13.973 -0.3664 -0.8775 -0.0988
   20MPD2    H7  323   3.119   1.376  14.036 -1.6315 -1.5564 -1.7415
   21TMC2    C1  324   0.371   1.615  13.764 -0.2697 -0.2746  0.3959
   21TMC2    C2  325   0.425   1.490  13.750 -0.0163 -0.2115 -0.0292
   21TMC2    C3  326   0.432   1.401  13.848  0.5971 -0.2687  0.2546
   21TMC2    C4  327   0.326   1.661  13.884  0.2772  0.7221  0.7546
   21TMC2    C5  328   0.331   1.573  13.985  0.4517 -0.1793 -0.1300
   21TMC2    C6  329   0.386   1.447  13.972  0.1229 -0.3515 -0.1262
   21TMC2     C  330   0.384   1.702  13.649  0.4519 -0.2406  0.0290
   21TMC2     O  331   0.375   1.650  13.542  0.0979  0.0106  0.3974
   21TMC2     H  332   0.463   1.458  13.653 -3.5629 -0.4783 -1.3127
   21TMC2    H1  333   0.266   1.751  13.885  0.4932  0.8798 -0.1898
   21TMC2    H2  334   0.379   1.376  14.054 -0.9811  0.4710  0.4995
   21TMC2    C7  335   0.292   1.607  14.124 -0.0027  0.2985  0.2618
   21TMC2    C8  336   0.477   1.269  13.822  0.1247  0.4568  0.7187
   21TMC2    O1  337   0.312   1.520  14.208  0.4838 -0.0585  0.4939
   21TMC2    O2  338   0.499   1.226  13.709  0.4700 -0.5343  0.4286
   21TMC2    O5  339   0.504   1.205  13.941  0.2515  0.6262 -0.1407
   21TMC2    H5  340   0.522   1.254  14.024  1.7228 -1.8943  1.0285
   22MPD2     C  341   0.652   1.982  13.982  0.1587  0.2856  0.0181
   22MPD2    C1  342   0.653   1.854  13.950 -0.1020 -0.5472 -0.4876
   22MPD2    C2  343   0.583   1.804  13.837 -0.6900  0.5934 -0.5217
   22MPD2    C3  344   0.495   1.890  13.768 -0.4489 -0.1940 -0.2456
   22MPD2    C4  345   0.501   2.021  13.798  0.6003 -0.0340 -0.2843
   22MPD2    C5  346   0.575   2.071  13.901  0.3534 -0.2254  0.0486
   22MPD2     H  347   0.582   1.697  13.819 -2.3912  0.6024 -0.5188
   22MPD2    H1  348   0.449   2.101  13.746 -0.0468  0.6811  1.4686
   22MPD2    H2  349   0.699   2.025  14.070  0.0330 -1.3021  0.8690
   22MPD2    H3  350   0.551   2.170  13.938  2.5141  0.6646 -0.9097
   22MPD2     N  351   0.404   1.836  13.675  0.2327  0.0066  0.6660
   22MPD2    H5  352   0.401   1.902  13.598 -0.8039 -0.1775  0.5559
   22MPD2    N1  353   0.706   1.749  14.034  0.5279 -0.0486  0.3725
   22MPD2    H7  354   0.704   1.656  13.994 -0.6279  1.1089 -2.2846
   23TMC2    C1  355   1.781   2.945  14.680  0.3508 -0.0477  0.3518
   23TMC2    C2  356   1.723   3.069  14.668  1.0570 -0.4370  0.9420
   23TMC2    C3  357   1.596   3.078  14.618 -0.5988  0.5221  0.3556
   23TMC2    C4  358   1.711   2.831  14.633  0.1964 -0.2070 -0.0317
   23TMC2    C5  359   1.591   2.848  14.573 -0.2080 -0.3435 -0.1190
   23TMC2    C6  360   1.530   2.968  14.564 -0.0223  0.2296 -0.7351
   23TMC2     C  361   1.886   2.925  14.782  1.0570  1.0510  0.1775
   23TMC2     O  362   1.920   2.812  14.810 -0.6819 -0.0626  0.5219
   23TMC2     H  363   1.768   3.165  14.693 -0.7056  0.1568  1.8434
   23TMC2    H1  364   1.756   2.734  14.655 -0.9370 -0.3138  1.8610
   23TMC2    H2  365   1.438   2.989  14.511 -0.1326 -0.8965 -0.9793
   23TMC2    C7  366   1.530   2.727  14.540 -0.4674 -0.8082 -0.2712
   23TMC2    C8  367   1.532   3.204  14.596 -0.0831  0.3543 -0.2871
   23TMC2    O1  368   1.598   2.625  14.537  0.6553 -0.4064 -0.2046
   23TMC2    O2  369   1.594   3.308  14.602 -0.1013  0.3492  0.1858
   23TMC2    O5  370   1.411   3.192  14.651 -0.0281 -0.1468 -0.0020
   23TMC2    H5  371   1.383   3.101  14.676 -0.6471  0.7477  2.5434
   24MPD2     C  372   2.155   3.101  15.179 -0.4180 -0.1678  0.2011
   24MPD2    C1  373   2.142   2.967  15.139  0.2029 -0.2709  0.0513
   24MPD2    C2  374   2.064   2.947  15.031  0.4374  0.0766 -0.2941
   24MPD2    C3  375   2.007   3.050  14.951  0.1808  0.6031  0.1086
   24MPD2    C4  376   2.021   3.178  15.001 -0.3932 -0.2140  0.1444
   24MPD2    C5  377   2.095   3.203  15.111  1.1075 -0.1731 -0.1036
   24MPD2     H  378   2.045   2.846  14.995 -1.3795  0.3657 -0.1614
   24MPD2    H1  379   1.979   3.265  14.951 -1.4175 -0.2415  0.9498
   24MPD2    H2  380   2.214   3.134  15.264  0.9195 -0.6976 -0.5124
   24MPD2    H3  381   2.103   3.307  15.139 -1.3073  0.3381 -1.2859
   24MPD2     N  382   1.916   3.043  14.841 -0.2113 -0.7663 -0.0557
   24MPD2    H5  383   1.876   3.130  14.807  0.7742 -0.6849 -0.9895
   24MPD2    N1  384   2.188   2.847  15.202 -0.8448 -0.1426 -0.3637
   24MPD2    H7  385   2.181   2.761  15.147 -0.8422 -0.7712  0.6178
   25TMC2    C1  386   0.774   4.442  11.132 -0.0543 -0.0513 -0.7594
   25TMC2    C2  387   0.901   4.478  11.083  0.3952  0.3247 -0.7682
   25TMC2    C3  388   0.976   4.571  11.148 -0.3847 -0.6440  0.1709
   25TMC2    C4  389   0.731   4.486  11.254  0.1706 -0.5306 -0.4389
   25TMC2    C5  390   0.816   4.573  11.322 -0.0909  0.1304 -0.2992
   25TMC2    C6  391   0.931   4.620  11.265 -0.2449 -0.2544 -0.1442
   25TMC2     C  392   0.724   4.316  11.088  0.2948 -0.4631 -0.5107
   25TMC2     O  393   0.806   4.234  11.047  0.1869 -0.1299  0.3384
   25TMC2     H  394   0.936   4.429  10.993  2.7569  0.6922 -0.0654
   25TMC2    H1  395   0.643   4.450  11.306 -1.3734  2.0666 -1.2363
   25TMC2    H2  396   0.996   4.692  11.315  0.1227 -0.8119  0.1765
   25TMC2    C7  397   0.803   4.580  11.463 -0.3194 -0.1310 -0.3229
   25TMC2    C8  398   1.110   4.529  11.162  0.0446 -1.0013  0.2027
   25TMC2    O1  399   0.693   4.576  11.521 -0.4950 -0.2611 -0.1057
   25TMC2    O2  400   1.157   4.508  11.271  1.3699  0.2513  0.1926
   25TMC2    O5  401   1.182   4.550  11.050 -0.0629 -0.2628  0.3944
   25TMC2    H5  402   1.133   4.591  10.976  1.4025 -0.4945 -0.7065
   26MPD2     C  403   0.382   3.984  10.912  0.0297  0.2958  0.4084
   26MPD2    C1  404   0.315   4.100  10.941  0.2195  0.4631 -0.3035
   26MPD2    C2  405   0.385   4.204  11.006  0.7721 -0.6155  0.3666
   26MPD2    C3  406   0.516   4.187  11.044  0.1428  0.2563 -0.1307
   26MPD2    C4  407   0.574   4.066  11.001 -0.2434  0.4840 -0.5643
   26MPD2    C5  408   0.509   3.974  10.938 -0.1219  0.2224  0.4852
   26MPD2     H  409   0.349   4.305  11.023 -0.9906 -1.2385  0.3577
   26MPD2    H1  410   0.675   4.046  11.036  0.6020  1.3331 -2.5467
   26MPD2    H2  411   0.333   3.908  10.853  0.8611 -0.9001  1.2565
   26MPD2    H3  412   0.565   3.885  10.910  0.9020  1.2414 -0.6716
   26MPD2     N  413   0.590   4.300  11.100 -0.1685  0.0593  0.3165
   26MPD2    H5  414   0.548   4.386  11.135 -0.5475 -0.3053  0.7637
   26MPD2    N1  415   0.187   4.112  10.879  0.4104  0.1736  0.1124
   26MPD2    H7  416   0.152   4.039  10.818  2.0421 -1.0990  0.7063
   27TMC2    C1  417   4.599   2.754  11.932  0.2759  0.4000 -0.5174
   27TMC2    C2  418   4.660   2.813  11.825  0.0258  0.9309 -0.1826
   27TMC2    C3  419   0.036   2.890  11.842  0.5418 -0.4172 -0.6234
   27TMC2    C4  420   4.653   2.759  12.058  0.3064  0.6406  0.3564
   27TMC2    C5  421   0.026   2.837  12.064  0.1550 -0.0948  0.3800
   27TMC2    C6  422   0.089   2.906  11.965  0.0977  0.5590  0.5192
   27TMC2     C  423   4.513   2.644  11.913 -0.1863  0.9304 -0.4892
   27TMC2     O  424   4.517   2.577  11.814  1.4769  0.0624  0.3895
   27TMC2     H  425   4.612   2.823  11.728 -2.6848 -0.7963  0.9834
   27TMC2    H1  426   4.599   2.729  12.147  0.0490 -3.4918 -1.1670
   27TMC2    H2  427   0.176   2.966  11.987  0.1183  0.5960  0.3359
   27TMC2    C7  428   0.110   2.799  12.167  0.4915 -0.3745  0.3729
   27TMC2    C8  429   0.077   2.973  11.733  0.5633  0.3236 -0.5003
   27TMC2    O1  430   0.210   2.866  12.205 -0.0092 -0.2836 -0.4128
   27TMC2    O2  431   0.011   3.000  11.632 -0.9668 -0.3157  0.1320
   27TMC2    O5  432   0.208   3.015  11.756 -0.2038 -0.2101 -0.0503
   27TMC2    H5  433   0.255   2.949  11.811  1.8039  0.2081 -1.2893
   28MPD2     C  434   4.143   2.311  12.043 -0.0763 -0.1048 -0.0317
   28MPD2    C1  435   4.148   2.414  12.138  0.8124  0.2143  0.8589
   28MPD2    C2  436   4.250   2.512  12.128 -0.7276  0.6735 -0.3479
   28MPD2    C3  437   4.340   2.510  12.022  0.0065 -0.3053  0.4154
   28MPD2    C4  438   4.338   2.398  11.939 -0.0658 -0.0968 -0.2820
   28MPD2    C5  439   4.245   2.297  11.953 -0.1199 -0.1359 -0.1367
   28MPD2     H  440   4.248   2.595  12.198  2.2301  1.5235 -1.2924
   28MPD2    H1  441   4.406   2.384  11.856  2.1312  0.9698  1.3318
   28MPD2    H2  442   4.059   2.242  12.040 -1.8077  2.1502 -2.7027
   28MPD2    H3  443   4.242   2.210  11.888 -1.1488 -1.3214  1.5032
   28MPD2     N  444   4.431   2.620  12.013 -0.5099  0.5725  0.1784
   28MPD2    H5  445   4.427   2.695  12.082  0.1103  0.2415  0.5767
   28MPD2    N1  446   4.049   2.409  12.236  0.5152  0.2378  0.6570
   28MPD2    H7  447   3.985   2.330  12.227  3.5577 -1.9712 -1.7397
   29TMC2    C1  448   3.677   4.724  14.340  0.3369  0.4642 -0.2503
   29TMC2    C2  449   3.702   0.011  14.472  0.3923 -0.1513 -0.3136
   29TMC2    C3  450   3.730   0.140  14.503 -0.3385 -0.3279 -0.0279
   29TMC2    C4  451   3.667   0.077  14.244 -0.2806  0.4338  0.2952
   29TMC2    C5  452   3.687   0.206  14.282  0.2279  0.0269 -0.5567
   29TMC2    C6  453   3.728   0.235  14.408 -0.4696  0.1455 -0.0585
   29TMC2     C  454   3.669   4.585  14.310 -0.1734  0.0530  0.1158
   29TMC2     O  455   3.760   4.517  14.355  0.3326  0.6107  0.3245
   29TMC2     H  456   3.697   4.684  14.558  3.6837  2.0965  1.6139
   29TMC2    H1  457   3.645   0.058  14.140  1.2578 -0.4931  0.1424
   29TMC2    H2  458   3.742   0.341  14.426  1.2780  0.3587 -2.6671
   29TMC2    C7  459   3.709   0.294  14.177  0.2359 -0.3439  0.2501
   29TMC2    C8  460   3.771   0.165  14.640  0.2481  0.2167  0.3715
   29TMC2    O1  461   3.652   0.266  14.070  0.4007  0.0288  0.0050
   29TMC2    O2  462   3.726   0.093  14.730  0.4634 -0.0931  0.1718
   29TMC2    O5  463   3.820   0.290  14.650  0.5646  0.4052  0.5011
   29TMC2    H5  464   3.878   0.321  14.578 -1.0359  0.6393 -0.6932
   30MPD2     C  465   3.380   4.194  14.172  0.1222  0.4297  0.1973
   30MPD2    C1  466   3.501   4.202  14.238 -0.2990  0.4294 -0.4204
   30MPD2    C2  467   3.565   4.324  14.248  0.0031 -0.1990 -0.0980
   30MPD2    C3  468   3.496   4.442  14.222  0.0659 -0.0327 -0.3037
   30MPD2    C4  469   3.367   4.430  14.171 -0.2632  0.4505 -0.3148
   30MPD2    C5  470   3.308   4.308  14.153  0.0414 -0.3202  0.0586
   30MPD2     H  471   3.662   4.319  14.296 -0.5948  1.1560  1.2349
   30MPD2    H1  472   3.310   4.518  14.144 -1.1167  0.1736  0.5550
   30MPD2    H2  473   3.323   4.106  14.148  3.9332 -2.3007  1.0071
   30MPD2    H3  474   3.204   4.299  14.122 -0.4518  1.1606  1.2657
   30MPD2     N  475   3.550   4.569  14.245  0.0395 -0.0789  0.7596
   30MPD2    H5  476   3.496   4.654  14.235 -0.1931 -0.4708 -1.2156
   30MPD2    N1  477   3.578   4.087  14.275  0.5192  0.1577 -0.9426
   30MPD2    H7  478   3.671   4.112  14.307 -0.6860  0.0516  2.5864
   31TMC2    C1  479   1.453   3.761  15.429  0.9117  0.1033 -0.3533
   31TMC2    C2  480   1.330   3.820  15.456 -0.0444 -0.0217  0.4413
   31TMC2    C3  481   1.295   3.842  15.585 -0.2253  0.8542  0.3099
   31TMC2    C4  482   1.540   3.711  15.529  0.4008  0.9314  0.1682
   31TMC2    C5  483   1.502   3.747  15.658  0.0384 -0.0225  0.2946
   31TMC2    C6  484   1.388   3.818  15.688  0.0800 -0.2285  0.2230
   31TMC2     C  485   1.485   3.762  15.293  0.3167 -0.2973  0.3614
   31TMC2     O  486   1.451   3.852  15.218 -0.0867  0.5879  0.4366
   31TMC2     H  487   1.265   3.836  15.371 -1.5916 -1.6812  1.3030
   31TMC2    H1  488   1.642   3.683  15.509  0.0491 -1.5682  1.8077
   31TMC2    H2  489   1.365   3.859  15.786 -1.3609 -0.3572 -0.0754
   31TMC2    C7  490   1.581   3.719  15.786 -0.1045 -0.9197  0.1443
   31TMC2    C8  491   1.157   3.847  15.637  0.2244  0.1745  0.1077
   31TMC2    O1  492   1.537   3.764  15.889 -0.0424  0.0249 -0.0697
   31TMC2    O2  493   1.136   3.793  15.742 -0.3832 -0.0419  0.0189
   31TMC2    O5  494   1.070   3.903  15.551  0.0076  0.2096 -0.0907
   31TMC2    H5  495   1.109   3.945  15.471  2.9077 -0.5163  0.9732
   32MPD2     C  496   1.789   3.630  14.907 -0.2975  0.3260 -0.5527
   32MPD2    C1  497   1.691   3.720  14.910 -0.2479 -0.8002  0.0036
   32MPD2    C2  498   1.611   3.743  15.026 -0.4833  0.4107  0.4862
   32MPD2    C3  499   1.634   3.653  15.132  0.8624 -1.0740 -0.4688
   32MPD2    C4  500   1.727   3.556  15.120 -0.1015  0.3225 -0.1989
   32MPD2    C5  501   1.805   3.543  15.004 -0.5718 -0.5524 -0.3322
   32MPD2     H  502   1.539   3.823  15.014  0.2155  1.4055  2.8994
   32MPD2    H1  503   1.762   3.504  15.209 -1.1849 -0.0523  0.0117
   32MPD2    H2  504   1.842   3.606  14.815 -1.0341 -0.4212 -0.7786
   32MPD2    H3  505   1.887   3.473  14.991  1.3735  0.8601  4.2467
   32MPD2     N  506   1.571   3.660  15.263  0.1818  0.0063 -0.2438
   32MPD2    H5  507   1.605   3.603  15.340 -0.4761  2.0204  1.5852
   32MPD2    N1  508   1.674   3.796  14.790 -0.3214  0.2709 -0.1231
   32MPD2    H7  509   1.746   3.769  14.723 -0.5415 -1.7126  0.4391
   33TMC2    C1  510   1.418   1.429  10.407  0.0803 -0.2279  0.3492
   33TMC2    C2  511   1.288   1.403  10.419 -0.4285  1.2777  0.4672
   33TMC2    C3  512   1.204   1.472  10.345 -0.6049  0.2104  0.5854
   33TMC2    C4  513   1.480   1.507  10.310 -0.0045  0.2910  0.3184
   33TMC2    C5  514   1.394   1.561  10.217  0.2351 -0.2026 -0.2009
   33TMC2    C6  515   1.255   1.547  10.237  0.4401 -0.0102  0.4850
   33TMC2     C  516   1.505   1.337  10.484 -0.0139 -0.2340  0.0700
   33TMC2     O  517   1.460   1.227  10.515 -0.1811  0.0361  0.1425
   33TMC2     H  518   1.250   1.337  10.496 -0.6467 -0.0995 -0.7967
   33TMC2    H1  519   1.587   1.513  10.296  0.1293 -2.7792  0.0399
   33TMC2    H2  520   1.178   1.606  10.189  0.5149  1.5264  2.2583
   33TMC2    C7  521   1.458   1.643  10.120  0.2826  1.0057  0.0886
   33TMC2    C8  522   1.070   1.422  10.355 -0.5172 -0.0763  0.2393
   33TMC2    O1  523   1.580   1.641  10.108  0.7159  0.0977 -0.1548
   33TMC2    O2  524   1.031   1.363  10.456 -0.2146  0.4190 -0.4964
   33TMC2    O5  525   1.007   1.434  10.233  0.3449  0.0488 -0.1516
   33TMC2    H5  526   1.064   1.475  10.165  1.8187 -1.9562 -0.1381
   34MPD2     C  527   1.961   1.196  10.655 -0.1451  0.1969 -0.4790
   34MPD2    C1  528   1.842   1.122  10.649 -0.0138 -0.4879 -0.7064
   34MPD2    C2  529   1.738   1.182  10.580  0.9412 -0.4053 -0.1732
   34MPD2    C3  530   1.740   1.317  10.551 -0.4399  1.2227  0.1848
   34MPD2    C4  531   1.851   1.387  10.572 -0.2724  0.0383  0.2903
   34MPD2    C5  532   1.961   1.330  10.628  0.0440 -0.0662 -0.1408
   34MPD2     H  533   1.654   1.119  10.551 -0.5322 -0.1280  3.5413
   34MPD2    H1  534   1.869   1.489  10.538 -0.2470  0.2213  0.8584
   34MPD2    H2  535   2.052   1.152  10.695  1.0896  2.1727 -1.1618
   34MPD2    H3  536   2.048   1.393  10.645  0.7139 -1.2907  0.9339
   34MPD2     N  537   1.632   1.388  10.496 -0.0561  0.1921  0.3402
   34MPD2    H5  538   1.655   1.478  10.456 -0.1420 -0.7367 -1.8186
   34MPD2    N1  539   1.840   0.995  10.705  0.4097 -0.0459 -0.7220
   34MPD2    H7  540   1.929   0.975  10.750  0.1052 -0.5918 -0.3537
   35TMC2    C1  541   2.800   2.553  11.584 -0.0572  0.4440  0.6966
   35TMC2    C2  542   2.677   2.592  11.538 -0.0573  0.9359  0.2808
   35TMC2    C3  543   2.570   2.514  11.577 -0.1163 -0.7313 -0.0290
   35TMC2    C4  544   2.823   2.449  11.678 -0.0596 -0.9683 -0.4073
   35TMC2    C5  545   2.707   2.386  11.721 -0.0638 -0.1862  0.1673
   35TMC2    C6  546   2.581   2.409  11.667  0.4091 -0.6887 -0.4057
   35TMC2     C  547   2.915   2.613  11.522  0.4592 -0.5983 -0.3008
   35TMC2     O  548   2.888   2.696  11.437  0.5697  0.1767  0.8536
   35TMC2     H  549   2.658   2.672  11.467 -0.8696  0.3607 -0.1569
   35TMC2    H1  550   2.923   2.428  11.714 -0.5621  0.1171  1.6632
   35TMC2    H2  551   2.492   2.359  11.706 -0.3540  0.7251 -0.3462
   35TMC2    C7  552   2.713   2.262  11.801 -0.5602 -0.0390  0.3168
   35TMC2    C8  553   2.444   2.541  11.508 -0.7733  0.2407 -0.4081
   35TMC2    O1  554   2.823   2.235  11.851 -0.0292 -0.3010  0.5431
   35TMC2    O2  555   2.432   2.642  11.438  0.7006 -0.2707  0.2757
   35TMC2    O5  556   2.373   2.428  11.486  1.0039  0.0798  0.3173
   35TMC2    H5  557   2.414   2.343  11.512 -0.7951 -1.0726 -0.6163
   36MPD2     C  558   3.412   2.633  11.388  0.2291 -0.0091  0.0320
   36MPD2    C1  559   3.397   2.540  11.487  0.0246  0.5872 -0.1672
   36MPD2    C2  560   3.271   2.524  11.538  0.0711 -0.2248  0.4163
   36MPD2    C3  561   3.161   2.590  11.490  0.7219 -0.8477 -0.2327
   36MPD2    C4  562   3.171   2.669  11.377  0.5447  0.2592  0.0917
   36MPD2    C5  563   3.299   2.688  11.328  0.4478 -0.4759 -0.0779
   36MPD2     H  564   3.260   2.463  11.627 -0.3947 -0.5397  0.1427
   36MPD2    H1  565   3.080   2.712  11.338 -0.0800 -0.6402  0.5505
   36MPD2    H2  566   3.511   2.648  11.345  0.5580  0.6403  1.0158
   36MPD2    H3  567   3.320   2.755  11.246  0.7215 -0.1450  0.2641
   36MPD2     N  568   3.038   2.554  11.550  0.7841  0.0893 -0.6190
   36MPD2    H5  569   3.051   2.506  11.638  0.8200  1.8590  0.3290
   36MPD2    N1  570   3.512   2.489  11.551 -0.3887 -0.0307 -0.1419
   36MPD2    H7  571   3.602   2.523  11.519 -0.2573  2.7341  3.1445
   37TMC2    C1  572   0.572   2.409  11.878  0.3370  0.5694 -0.9412
   37TMC2    C2  573   0.469   2.316  11.845 -1.0131  0.6508 -0.6359
   37TMC2    C3  574   0.518   2.202  11.781 -0.4260 -0.8908 -0.1759
   37TMC2    C4  575   0.703   2.398  11.832  0.1055  0.4251 -0.0527
   37TMC2    C5  576   0.739   2.286  11.759 -0.0601  0.3473 -0.7097
   37TMC2    C6  577   0.648   2.189  11.723  0.5750  0.1175 -0.0050
   37TMC2     C  578   0.530   2.527  11.958  0.4363  0.0095  1.0919
   37TMC2     O  579   0.414   2.567  11.943 -0.1193 -0.3676 -0.3860
   37TMC2     H  580   0.367   2.340  11.873 -1.4548 -1.6175 -0.2808
   37TMC2    H1  581   0.759   2.491  11.825  2.2504 -0.9545 -1.2668
   37TMC2    H2  582   0.681   2.102  11.668  0.1319  0.0431 -0.1609
   37TMC2    C7  583   0.877   2.301  11.728 -0.2307  0.5737  0.1383
   37TMC2    C8  584   0.446   2.080  11.755 -0.2420 -0.0021 -0.0256
   37TMC2    O1  585   0.944   2.364  11.807 -0.0406 -0.3751 -0.5080
   37TMC2    O2  586   0.479   1.991  11.676  0.0665  0.2839 -0.3890
   37TMC2    O5  587   0.347   2.078  11.839  0.2589  0.4417 -0.6466
   37TMC2    H5  588   0.355   2.135  11.918  4.5772 -1.2132  0.1172
   38MPD2     C  589   0.649   2.930  12.272  0.1187 -0.6950  0.2185
   38MPD2    C1  590   0.753   2.845  12.258  0.2740  0.1142  0.4056
   38MPD2    C2  591   0.746   2.719  12.190 -0.4625  0.4436 -0.7563
   38MPD2    C3  592   0.631   2.687  12.122 -1.3082 -0.0092  0.3710
   38MPD2    C4  593   0.526   2.772  12.140  0.1737 -0.0561  0.3118
   38MPD2    C5  594   0.529   2.887  12.220 -0.5385  0.1336 -0.8755
   38MPD2     H  595   0.828   2.649  12.179  1.2298  2.5968 -2.0741
   38MPD2    H1  596   0.429   2.755  12.095 -0.8645  0.7427  2.2241
   38MPD2    H2  597   0.645   3.025  12.324 -0.2259 -0.6254  0.0686
   38MPD2    H3  598   0.437   2.940  12.236 -1.1618 -1.2639  0.1532
   38MPD2     N  599   0.627   2.572  12.032 -0.5996 -0.5445 -0.3075
   38MPD2    H5  600   0.716   2.522  12.032 -0.2476  0.0714 -0.3104
   38MPD2    N1  601   0.879   2.864  12.335  0.4240 -0.3074  0.0430
   38MPD2    H7  602   0.944   2.787  12.330  2.6260  1.5702  0.0731
   39TMC2    C1  603   3.479   4.500   1.265 -0.2851 -0.0647  1.0683
   39TMC2    C2  604   3.398   4.464   1.369 -0.0631 -0.1270  0.5171
   39TMC2    C3  605   3.442   4.482   1.495 -0.6245 -0.5383 -0.5435
   39TMC2    C4  606   3.603   4.561   1.293 -0.1298 -0.6241 -0.1032
   39TMC2    C5  607   3.648   4.575   1.422  0.1617  0.0233  0.3232
   39TMC2    C6  608   3.566   4.531   1.520 -0.7723  0.3253  0.2899
   39TMC2     C  609   3.436   4.498   1.131 -0.6409  0.5269 -0.3282
   39TMC2     O  610   3.482   4.581   1.051 -0.0657  0.1055  0.8864
   39TMC2     H  611   3.293   4.436   1.361 -0.8102  3.6257 -3.0059
   39TMC2    H1  612   3.667   4.583   1.209  1.0497  1.0203  1.2557
   39TMC2    H2  613   3.605   4.540   1.621 -1.5675  3.3213  0.3230
   39TMC2    C7  614   3.788   4.592   1.451  0.5369 -0.0165 -0.4413
   39TMC2    C8  615   3.402   4.378   1.590  0.1455 -0.1679  0.8621
   39TMC2    O1  616   3.839   4.523   1.533 -0.7937 -0.1119 -0.2152
   39TMC2    O2  617   3.361   4.267   1.555 -0.4686  0.1443  0.1341
   39TMC2    O5  618   3.429   4.420   1.711  0.5372  0.3529  0.0724
   39TMC2    H5  619   3.433   4.518   1.722  0.5149  0.1457  1.8740
   40MPD2     C  620   3.164   4.289   0.996 -0.3783  0.3328 -0.2828
   40MPD2    C1  621   3.247   4.391   0.991  0.4175 -0.5796 -0.8917
   40MPD2    C2  622   3.254   4.476   0.881 -0.2226 -0.6981  0.2650
   40MPD2    C3  623   3.160   4.453   0.780  0.0829  0.3869 -0.0211
   40MPD2    C4  624   3.077   4.343   0.783  0.0531 -0.3690  0.6398
   40MPD2    C5  625   3.080   4.261   0.899 -0.5879 -0.6335 -0.7159
   40MPD2     H  626   3.331   4.551   0.872  0.4347 -1.6117 -1.7051
   40MPD2    H1  627   2.999   4.332   0.709  0.7975  0.9878 -0.3515
   40MPD2    H2  628   3.170   4.227   1.085 -1.1386  3.2623  1.8233
   40MPD2    H3  629   3.021   4.170   0.906  1.4673 -1.7643  1.6003
   40MPD2     N  630   3.138   4.534   0.675 -0.2313  0.1881  0.3317
   40MPD2    H5  631   3.070   4.504   0.605 -0.5593 -0.6961  1.0275
   40MPD2    N1  632   3.331   4.404   1.104 -0.4438 -0.3964  0.0589
   40MPD2    H7  633   3.307   4.337   1.176  0.5847 -0.2398  0.5441
   41TMC2    C1  634   2.753   2.689  13.891  0.7143  0.1153  0.6680
   41TMC2    C2  635   2.791   2.682  14.024 -0.5373 -0.9662 -0.5681
   41TMC2    C3  636   2.915   2.735  14.050  0.0584 -0.1666  0.4562
   41TMC2    C4  637   2.837   2.733  13.793 -0.2168  0.2546 -0.1051
   41TMC2    C5  638   2.951   2.796  13.829  0.1234 -0.0506  0.0858
   41TMC2    C6  639   2.998   2.785  13.955  0.0652 -0.2954  0.1978
   41TMC2     C  640   2.612   2.683  13.851 -0.0978  0.1518  0.4813
   41TMC2     O  641   2.576   2.651  13.740  0.1052 -0.2537 -0.4046
   41TMC2     H  642   2.723   2.647  14.101 -1.5323  0.7730 -0.6521
   41TMC2    H1  643   2.801   2.749  13.692  2.0613  1.3585 -0.7483
   41TMC2    H2  644   3.091   2.826  13.992 -2.0385  0.6763  4.3073
   41TMC2    C7  645   3.039   2.854  13.731  0.4637  0.2052  0.4490
   41TMC2    C8  646   2.969   2.711  14.181  0.0773  0.4415  0.2185
   41TMC2    O1  647   3.114   2.944  13.770 -0.4304 -0.5612 -0.0918
   41TMC2    O2  648   2.903   2.704  14.289  0.4294 -0.1352  0.6606
   41TMC2    O5  649   3.078   2.637  14.162  0.4976 -0.5105  0.1771
   41TMC2    H5  650   3.109   2.638  14.069  0.9562  2.4378  0.3501
   42MPD2     C  651   2.309   2.672  13.859 -0.1406  0.2044  0.7565
   42MPD2    C1  652   2.384   2.740  13.952  0.5731  0.4850 -0.2827
   42MPD2    C2  653   2.333   2.827  14.041 -0.2255 -0.4775 -0.0906
   42MPD2    C3  654   2.195   2.859  14.025 -0.1266 -0.1508  0.3475
   42MPD2    C4  655   2.122   2.789  13.933 -0.4097 -0.2362 -0.1744
   42MPD2    C5  656   2.174   2.697  13.850 -0.7529 -0.0157 -0.9564
   42MPD2     H  657   2.390   2.878  14.118  0.0414 -1.5366  0.4225
   42MPD2    H1  658   2.019   2.819  13.918  0.0074  0.3916 -1.7974
   42MPD2    H2  659   2.355   2.610  13.784  0.3316  1.1388  0.2795
   42MPD2    H3  660   2.116   2.652  13.770 -1.2794  1.0463 -1.1721
   42MPD2     N  661   2.126   2.952  14.102 -0.2488 -0.1398 -0.0628
   42MPD2    H5  662   2.025   2.944  14.100 -0.0989 -2.1637  0.5975
   42MPD2    N1  663   2.525   2.726  13.956  0.5962 -0.4489  0.4431
   42MPD2    H7  664   2.572   2.763  14.038  2.5833 -0.4221 -0.7154
   43TMC2    C1  665   4.082   1.747   0.639 -0.2301  0.2629  0.1305
   43TMC2    C2  666   3.949   1.763   0.676 -0.3356  0.3512 -0.3242
   43TMC2    C3  667   3.931   1.811   0.802 -0.5441  0.5407  0.1643
   43TMC2    C4  668   4.188   1.794   0.713 -0.3025  0.4758  0.7470
   43TMC2    C5  669   4.162   1.841   0.842  0.0478  0.0004 -0.4925
   43TMC2    C6  670   4.035   1.842   0.889 -0.2136  0.5679  0.0184
   43TMC2     C  671   4.118   1.670   0.527 -0.1179 -0.4156 -0.3412
   43TMC2     O  672   4.233   1.634   0.518 -0.2755 -0.0710  0.2343
   43TMC2     H  673   3.860   1.735   0.622  0.2983 -2.3746  0.0382
   43TMC2    H1  674   4.290   1.789   0.675 -0.1164  1.6157  1.0941
   43TMC2    H2  675   4.009   1.881   0.986 -0.7819  1.4487 -0.4879
   43TMC2    C7  676   4.274   1.883   0.922 -0.5764 -0.2986  0.6138
   43TMC2    C8  677   3.800   1.788   0.864  0.2089  0.3668  0.4955
   43TMC2    O1  678   4.389   1.856   0.889  0.3039 -0.2068 -0.1546
   43TMC2    O2  679   3.806   1.754   0.981  0.4943 -0.0421  0.2502
   43TMC2    O5  680   3.724   1.895   0.832 -0.0338 -1.1844  0.0969
   43TMC2    H5  681   3.738   1.907   0.735  2.6594 -0.7724  0.5409
   44MPD2     C  682   4.017   1.457   0.077 -0.0873  0.3857  0.1789
   44MPD2    C1  683   4.113   1.423   0.163  0.0367 -0.3675  0.2321
   44MPD2    C2  684   4.114   1.493   0.283  0.2798 -0.1087  1.0458
   44MPD2    C3  685   4.030   1.603   0.300 -0.2837  0.4494  0.5334
   44MPD2    C4  686   3.945   1.638   0.203  0.3643 -0.5009  0.5136
   44MPD2    C5  687   3.935   1.563   0.092 -0.0465 -0.2682  0.1353
   44MPD2     H  688   4.181   1.459   0.360 -1.0522  0.8855  2.6499
   44MPD2    H1  689   3.875   1.720   0.211  0.9881 -0.1881  2.9870
   44MPD2    H2  690   4.018   1.407  17.739 -0.5444  0.4608  0.1360
   44MPD2    H3  691   3.863   1.585   0.014  0.5010 -4.7979 -1.6870
   44MPD2     N  692   4.031   1.679   0.417 -0.7529 -0.6567 -0.1058
   44MPD2    H5  693   3.953   1.740   0.439 -0.2613 -0.7471  1.8913
   44MPD2    N1  694   4.201   1.324   0.127 -0.4381 -0.6138  0.1946
   44MPD2    H7  695   4.191   1.283   0.035  0.2194  2.1066 -1.0932
   45TMC2    C1  696   0.424   2.568   9.414  0.0175  0.1265  0.3524
   45TMC2    C2  697   0.536   2.499   9.375  0.2535 -0.4937 -0.4770
   45TMC2    C3  698   0.644   2.573   9.340  0.0951  0.5529  0.1624
   45TMC2    C4  699   0.425   2.700   9.416 -0.2488 -0.2173 -0.4569
   45TMC2    C5  700   0.534   2.772   9.384 -0.4760  0.2323 -0.0204
   45TMC2    C6  701   0.648   2.706   9.341  0.2534  0.1484  0.1981
   45TMC2     C  702   0.314   2.477   9.442 -0.4534 -0.1124 -0.1751
   45TMC2     O  703   0.346   2.363   9.474 -0.3938  0.1308 -0.4478
   45TMC2     H  704   0.533   2.392   9.355  1.0761 -0.1809 -2.3181
   45TMC2    H1  705   0.342   2.755   9.458 -1.2196 -1.0252 -1.3177
   45TMC2    H2  706   0.737   2.756   9.306 -0.4413  0.8949 -0.4800
   45TMC2    C7  707   0.529   2.915   9.406 -0.1440  0.0800  0.2158
   45TMC2    C8  708   0.779   2.521   9.326 -0.1147 -0.2422  0.1741
   45TMC2    O1  709   0.430   2.957   9.468  0.9006  0.6897 -0.2614
   45TMC2    O2  710   0.873   2.578   9.273  0.8460 -0.3460 -0.3010
   45TMC2    O5  711   0.779   2.402   9.378 -0.6233 -0.1026  0.0781
   45TMC2    H5  712   0.707   2.377   9.440 -0.1285  0.3318  0.8280
   46MPD2     C  713   0.068   2.301   9.423  0.5938 -0.3467  0.7933
   46MPD2    C1  714   0.074   2.439   9.408  0.5029  0.0408  0.5328
   46MPD2    C2  715   4.695   2.503   9.375 -0.2899  0.2450  0.6620
   46MPD2    C3  716   4.572   2.437   9.392  0.4052 -0.4466 -0.2281
   46MPD2    C4  717   4.571   2.297   9.410  0.1661  0.0751 -0.1849
   46MPD2    C5  718   4.688   2.229   9.423  0.0638 -0.6036 -0.3930
   46MPD2     H  719   4.693   2.612   9.371  3.1830  0.3680  1.9094
   46MPD2    H1  720   4.478   2.242   9.406  0.8438 -1.0556 -0.2158
   46MPD2    H2  721   0.158   2.243   9.434  2.4880  2.4593  0.0712
   46MPD2    H3  722   4.684   2.121   9.433  1.2161 -0.6069  0.1118
   46MPD2     N  723   4.450   2.505   9.375 -0.2797  0.4403  0.1486
   46MPD2    H5  724   4.467   2.604   9.365 -0.6314  0.6361  1.5271
   46MPD2    N1  725   0.192   2.520   9.408 -0.4046  0.5172 -0.5599
   46MPD2    H7  726   0.186   2.614   9.370  3.0429  1.7395  1.9218
   47TMC2    C1  727   1.788   3.725   8.958 -0.7231 -0.2497  0.2469
   47TMC2    C2  728   1.738   3.842   9.007 -0.2555 -0.1900  0.5267
   47TMC2    C3  729   1.601   3.845   9.020  0.5184 -0.2256 -0.3570
   47TMC2    C4  730   1.715   3.625   8.909 -0.1873 -0.5750 -0.5023
   47TMC2    C5  731   1.580   3.632   8.910 -0.4050  0.6809  0.4845
   47TMC2    C6  732   1.523   3.746   8.964  0.1387 -0.2199  0.5130
   47TMC2     C  733   1.931   3.713   8.942 -0.0698 -0.8468 -0.3332
   47TMC2     O  734   1.988   3.822   8.944 -0.1335  0.9447 -0.0524
   47TMC2     H  735   1.792   3.935   9.016  3.4760 -2.3880  0.8224
   47TMC2    H1  736   1.759   3.531   8.875 -1.4099 -1.4791  0.4015
   47TMC2    H2  737   1.417   3.751   8.986  0.0147  0.6480 -0.3059
   47TMC2    C7  738   1.494   3.520   8.870 -0.3201  0.4328 -0.4423
   47TMC2    C8  739   1.533   3.964   9.071  0.7272 -0.1061 -0.5451
   47TMC2    O1  740   1.386   3.511   8.927  0.1693 -0.3303  0.3074
   47TMC2    O2  741   1.420   3.983   9.031 -0.0109 -0.2728 -0.0739
   47TMC2    O5  742   1.572   3.992   9.200  0.0759  0.6400  0.0128
   47TMC2    H5  743   1.665   3.966   9.214  0.0981  1.2240  1.0184
   48MPD2     C  744   2.210   3.628   8.886  0.5170 -0.0329  0.2819
   48MPD2    C1  745   2.121   3.545   8.948 -0.5650  0.2089 -0.2362
   48MPD2    C2  746   2.167   3.422   8.990  0.7122  0.5731  0.7005
   48MPD2    C3  747   2.296   3.371   8.972 -0.1897  0.1470 -0.5536
   48MPD2    C4  748   2.378   3.457   8.913 -0.2758  0.5331  0.5398
   48MPD2    C5  749   2.337   3.583   8.872 -0.7464  0.5460  0.3544
   48MPD2     H  750   2.099   3.363   9.050 -0.1973  1.6089  0.6961
   48MPD2    H1  751   2.481   3.439   8.888 -0.1908 -1.1262  2.1007
   48MPD2    H2  752   2.180   3.718   8.833 -1.1058 -1.0704 -0.5927
   48MPD2    H3  753   2.415   3.642   8.827  0.3829 -0.4225  1.0605
   48MPD2     N  754   2.325   3.251   9.036  0.0393  0.6961 -0.1276
   48MPD2    H5  755   2.255   3.195   9.082  1.3938 -1.1845 -0.3635
   48MPD2    N1  756   1.978   3.586   8.959 -0.1124 -0.0207  0.7958
   48MPD2    H7  757   1.913   3.514   8.989  1.0466 -1.1676  0.5454
   49TMC2    C1  758   0.831   0.575  10.068  0.2527 -0.1744  0.0460
   49TMC2    C2  759   0.789   0.642   9.954  0.1869  0.1351 -1.2847
   49TMC2    C3  760   0.676   0.597   9.889  0.1917  0.2765  0.3834
   49TMC2    C4  761   0.763   0.467  10.116  0.2782 -0.3001  0.5901
   49TMC2    C5  762   0.654   0.421  10.048 -0.0111 -0.3539  0.3101
   49TMC2    C6  763   0.613   0.487   9.927 -0.3077  0.0323  0.2240
   49TMC2     C  764   0.943   0.624  10.140  0.2608  0.1438 -0.0089
   49TMC2     O  765   1.016   0.689  10.064  0.5932  1.0327 -0.4722
   49TMC2     H  766   0.828   0.738   9.924  0.3989 -0.5977 -3.3226
   49TMC2    H1  767   0.786   0.426  10.214  1.5549 -1.8681 -0.3527
   49TMC2    H2  768   0.513   0.461   9.895  0.0327 -0.0634 -0.7539
   49TMC2    C7  769   0.567   0.316  10.098 -0.2019 -0.7487 -0.1497
   49TMC2    C8  770   0.689   0.610   9.744 -0.1266  0.4861 -0.2014
   49TMC2    O1  771   0.448   0.320  10.070 -0.2344 -0.1036  0.4138
   49TMC2    O2  772   0.801   0.613   9.695 -0.0742 -0.0678  0.3931
   49TMC2    O5  773   0.590   0.541   9.695  0.3726 -0.2421 -0.2360
   49TMC2    H5  774   0.503   0.546   9.740  0.9676  0.2907  0.8464
   50MPD2     C  775   1.203   0.668  10.284 -0.7712 -0.5569  0.5660
   50MPD2    C1  776   1.090   0.611  10.343  0.0255 -0.3546  0.7951
   50MPD2    C2  777   1.097   0.581  10.479  0.0698  0.0604 -0.4214
   50MPD2    C3  778   1.222   0.586  10.545 -0.0923 -0.1900 -1.1701
   50MPD2    C4  779   1.329   0.634  10.480 -0.3160  0.0985 -0.0894
   50MPD2    C5  780   1.319   0.672  10.351  0.1475  0.2028 -0.1648
   50MPD2     H  781   1.009   0.551  10.535 -0.3822  1.0977 -0.5861
   50MPD2    H1  782   1.426   0.636  10.527 -0.0698 -0.1427 -0.5807
   50MPD2    H2  783   1.208   0.717  10.187 -2.7523  0.3351  0.9286
   50MPD2    H3  784   1.410   0.700  10.300  0.6156 -0.8689  0.0641
   50MPD2     N  785   1.248   0.551  10.679  0.7769  0.8322  0.6984
   50MPD2    H5  786   1.345   0.549  10.709  1.6575 -0.3483 -2.3077
   50MPD2    N1  787   0.967   0.594  10.276 -0.1547 -0.8543 -0.4993
   50MPD2    H7  788   0.890   0.553  10.328 -1.0216 -1.2704 -2.1049
   51TMC2    C1  789   2.759   4.116   1.700 -0.3783 -0.6140  0.4743
   51TMC2    C2  790   2.789   4.100   1.833 -0.1865 -0.1704  0.3556
   51TMC2    C3  791   2.872   4.190   1.894  0.5706 -0.0592  0.1739
   51TMC2    C4  792   2.808   4.220   1.624 -0.3140 -0.8706 -1.0106
   51TMC2    C5  793   2.884   4.310   1.688 -0.1418 -0.2131 -0.6910
   51TMC2    C6  794   2.906   4.304   1.824  0.0989  0.3997  0.0019
   51TMC2     C  795   2.651   4.035   1.637 -0.1944 -0.0989 -1.0548
   51TMC2     O  796   2.660   4.010   1.514  0.1102 -0.5121 -0.3872
   51TMC2     H  797   2.753   4.015   1.890  0.8786 -0.4730  0.5811
   51TMC2    H1  798   2.789   4.211   1.518  0.5268  0.2560 -1.2674
   51TMC2    H2  799   2.955   4.384   1.878 -0.9097  2.8471 -2.6761
   51TMC2    C7  800   2.947   4.419   1.614  0.3935  0.2719 -0.1645
   51TMC2    C8  801   2.898   4.183   2.033 -0.5332  1.2742 -0.3525
   51TMC2    O1  802   2.992   4.524   1.669  0.4718  0.4111 -0.1296
   51TMC2    O2  803   2.836   4.103   2.100 -0.6440  0.1711  0.1643
   51TMC2    O5  804   3.026   4.230   2.058  0.0032  0.4209 -0.2946
   51TMC2    H5  805   3.057   4.293   1.990 -0.1903 -0.6918 -1.4265
   52MPD2     C  806   2.356   3.628   1.667  0.4543 -0.1028 -0.5609
   52MPD2    C1  807   2.375   3.712   1.559 -0.1238 -0.1075  0.0193
   52MPD2    C2  808   2.449   3.829   1.575  0.0444 -0.1606 -0.9259
   52MPD2    C3  809   2.483   3.864   1.699  0.0054  0.1918 -0.5188
   52MPD2    C4  810   2.440   3.791   1.808  0.4215 -0.4289  0.7088
   52MPD2    C5  811   2.377   3.675   1.794 -0.0531  0.6317  0.0492
   52MPD2     H  812   2.478   3.890   1.490 -2.2023  1.0055 -0.8643
   52MPD2    H1  813   2.473   3.825   1.905  0.8993 -0.8586  0.6970
   52MPD2    H2  814   2.309   3.530   1.659  0.5967  0.1278 -4.2927
   52MPD2    H3  815   2.332   3.620   1.875 -2.6927  3.4408  0.5038
   52MPD2     N  816   2.568   3.976   1.729  0.2477 -0.0100 -0.3167
   52MPD2    H5  817   2.583   3.992   1.828  2.2438 -1.4509 -0.3845
   52MPD2    N1  818   2.333   3.692   1.427 -0.0517  0.3458 -0.3621
   52MPD2    H7  819   2.362   3.759   1.357  1.4581  0.4799  0.3915
   53TMC2    C1  820   1.560   2.511  11.670  0.2186  0.1069  0.5783
   53TMC2    C2  821   1.688   2.498  11.709  0.1704  0.0144 -0.0956
   53TMC2    C3  822   1.737   2.585  11.805 -0.4662 -0.5201 -0.6262
   53TMC2    C4  823   1.484   2.624  11.713 -0.2562 -0.2073 -0.5275
   53TMC2    C5  824   1.543   2.718  11.797 -0.3959 -0.5227  0.5436
   53TMC2    C6  825   1.671   2.696  11.853 -0.5331  0.0177 -0.1270
   53TMC2     C  826   1.498   2.395  11.602  0.0543 -0.1297  0.4657
   53TMC2     O  827   1.567   2.313  11.541 -0.0120  0.1198 -0.2876
   53TMC2     H  828   1.746   2.419  11.662 -0.8617 -0.6548 -0.2287
   53TMC2    H1  829   1.379   2.629  11.688 -0.7663  1.8086  1.9844
   53TMC2    H2  830   1.714   2.759  11.929 -0.0942 -1.4941  0.8662
   53TMC2    C7  831   1.448   2.797  11.865  0.5621  0.4116 -0.5663
   53TMC2    C8  832   1.880   2.580  11.839 -0.4560 -0.5255 -0.3947
   53TMC2    O1  833   1.332   2.767  11.861 -0.1557  0.3195  0.5436
   53TMC2    O2  834   1.932   2.683  11.878 -0.4444  0.5411  0.0141
   53TMC2    O5  835   1.944   2.464  11.807 -0.0097 -0.0810  0.5245
   53TMC2    H5  836   1.879   2.391  11.803 -0.9424  0.7062  1.1268
   54MPD2     C  837   1.308   2.194  11.476 -0.0504  0.0261  0.1880
   54MPD2    C1  838   1.273   2.288  11.568  0.9347  0.6756  0.0726
   54MPD2    C2  839   1.143   2.304  11.600  0.6108 -0.6630  1.0921
   54MPD2    C3  840   1.042   2.219  11.558 -0.1671  0.1024 -0.1241
   54MPD2    C4  841   1.075   2.130  11.460  0.1608 -0.8864  0.2049
   54MPD2    C5  842   1.207   2.117  11.425  0.0457  0.6755  0.8468
   54MPD2     H  843   1.112   2.382  11.668 -0.2163  0.1004 -0.1638
   54MPD2    H1  844   1.004   2.055  11.425  2.0133 -0.8937 -3.5627
   54MPD2    H2  845   1.414   2.182  11.458 -0.0317 -0.7424  0.8095
   54MPD2    H3  846   1.230   2.039  11.354  1.8746  3.0198 -1.1409
   54MPD2     N  847   0.915   2.221  11.620  0.0872  0.2820 -0.5457
   54MPD2    H5  848   0.845   2.156  11.587  1.2241 -1.4493  0.4587
   54MPD2    N1  849   1.359   2.391  11.610  0.0428 -0.6700  0.7436
   54MPD2    H7  850   1.319   2.465  11.667  3.2414  0.0833  2.0395
   55TMC2    C1  851   2.161   0.917  17.555 -0.6138  0.5202 -0.0211
   55TMC2    C2  852   2.162   0.853  17.431 -0.2160  0.0957  0.0221
   55TMC2    C3  853   2.130   0.720  17.433 -0.5889  0.2553 -0.3292
   55TMC2    C4  854   2.130   0.851  17.670 -0.0099  0.4233  0.7772
   55TMC2    C5  855   2.089   0.721  17.664  0.0247 -0.6870  0.1056
   55TMC2    C6  856   2.103   0.656  17.547  0.3792  0.3673  0.3503
   55TMC2     C  857   2.179   1.061  17.561 -0.3907 -0.2725 -0.8964
   55TMC2     O  858   2.181   1.108  17.674 -0.5376 -0.3822 -0.5242
   55TMC2     H  859   2.162   0.897  17.332  1.4080 -0.7548 -0.3515
   55TMC2    H1  860   2.120   0.904   0.006 -2.9415 -0.9077  1.2332
   55TMC2    H2  861   2.085   0.549  17.546  0.2350  0.3922  0.2946
   55TMC2    C7  862   2.023   0.653   0.016  1.0798  0.3618  0.2585
   55TMC2    C8  863   2.180   0.644  17.320 -0.0961 -0.4923  0.8903
   55TMC2    O1  864   1.996   0.532  17.758 -0.8485 -0.1614 -0.4758
   55TMC2    O2  865   2.283   0.684  17.267 -0.1942  0.2453 -0.2029
   55TMC2    O5  866   2.118   0.519  17.318 -0.2660  0.2123 -0.5389
   55TMC2    H5  867   2.026   0.537  17.347 -0.2992  0.9429 -1.0751
   56MPD2     C  868   2.242   1.308  17.293 -0.7356  0.4031 -0.3534
   56MPD2    C1  869   2.224   1.261  17.423 -0.2180 -0.1617 -0.0812
   56MPD2    C2  870   2.197   1.358  17.519  0.1233  0.2425 -0.0417
   56MPD2    C3  871   2.183   1.492  17.493 -0.7693 -0.0421  0.9821
   56MPD2    C4  872   2.197   1.531  17.367  0.5604 -0.6133 -0.3782
   56MPD2    C5  873   2.229   1.447  17.261  0.3274  0.2866 -0.2299
   56MPD2     H  874   2.187   1.324  17.621 -1.3954  0.8061 -0.0138
   56MPD2    H1  875   2.194   1.636  17.340 -1.7210  0.1405  2.7136
   56MPD2    H2  876   2.256   1.246  17.205 -1.1775  1.7104 -1.3436
   56MPD2    H3  877   2.239   1.495  17.164  1.8010 -1.1488 -0.7946
   56MPD2     N  878   2.142   1.578  17.594  0.6972 -0.2750  0.0842
   56MPD2    H5  879   2.145   1.525  17.681 -0.2729 -0.7978 -0.2171
   56MPD2    N1  880   2.199   1.123  17.438  0.3183  0.3007  0.0182
   56MPD2    H7  881   2.210   1.064  17.356  0.0629  0.2192  0.0420
   57TMC2    C1  882   1.250   1.342  13.946  0.1277 -0.6552  0.3339
   57TMC2    C2  883   1.170   1.300  14.051  0.3928  0.7900 -0.7347
   57TMC2    C3  884   1.165   1.165  14.080  0.7358  0.3890 -0.1781
   57TMC2    C4  885   1.309   1.248  13.865  0.4616  0.1960  0.3392
   57TMC2    C5  886   1.310   1.112  13.904 -0.5017  0.2434  0.0307
   57TMC2    C6  887   1.233   1.072  14.007 -0.1361 -0.3888  1.5638
   57TMC2     C  888   1.205   1.470  13.885 -0.0914 -0.4594  0.1211
   57TMC2     O  889   1.168   1.463  13.768 -0.3215 -0.0970 -0.4957
   57TMC2     H  890   1.116   1.376  14.106 -2.0345 -1.2200 -0.3812
   57TMC2    H1  891   1.353   1.289  13.775 -0.5069 -1.5592 -0.9431
   57TMC2    H2  892   1.239   0.966  14.032 -0.4366 -0.5389  1.0069
   57TMC2    C7  893   1.312   1.012  13.797  0.0993  0.0936 -0.0233
   57TMC2    C8  894   1.057   1.129  14.168 -0.1927 -0.1878 -0.3054
   57TMC2    O1  895   1.245   0.910  13.810  0.3825 -0.7319  0.3935
   57TMC2    O2  896   1.013   1.208  14.251 -0.0250 -0.7922  0.4734
   57TMC2    O5  897   0.982   1.046  14.093 -0.1210 -0.3122  0.4014
   57TMC2    H5  898   1.018   1.016  14.007  3.4191 -0.4633  1.9491
   58MPD2     C  899   0.999   1.954  13.922 -0.0246 -0.4695 -0.0671
   58MPD2    C1  900   0.987   1.860  13.820  0.2703  0.2378 -0.1591
   58MPD2    C2  901   1.053   1.736  13.835  1.3257  0.2874  0.1011
   58MPD2    C3  902   1.129   1.703  13.947  1.1772 -0.0212  0.6909
   58MPD2    C4  903   1.127   1.791  14.044  0.3883 -0.4040 -0.1178
   58MPD2    C5  904   1.075   1.912  14.029  0.4052  0.6981  0.2158
   58MPD2     H  905   1.043   1.670  13.750 -1.4026  0.5548  0.1929
   58MPD2    H1  906   1.175   1.776  14.140  0.5156 -0.8587 -0.2484
   58MPD2    H2  907   0.948   2.049  13.930  2.0114  0.7793 -1.7949
   58MPD2    H3  908   1.088   1.984  14.110 -1.1830  2.2414 -0.8864
   58MPD2     N  909   1.195   1.576  13.967  0.2383  0.2922 -0.3135
   58MPD2    H5  910   1.242   1.565  14.057  0.9990 -0.6852 -0.8333
   58MPD2    N1  911   0.907   1.879  13.704 -0.0570  0.3207  0.0075
   58MPD2    H7  912   0.891   1.797  13.646  2.8955 -0.1865 -0.0506
   59TMC2    C1  913   4.018   1.972  12.663  0.2917  0.5619 -0.6856
   59TMC2    C2  914   3.966   1.984  12.790  0.2302 -0.0098 -0.3933
   59TMC2    C3  915   3.855   1.902  12.816  0.3994  0.3502  0.6665
   59TMC2    C4  916   3.973   1.881  12.572  0.0759 -0.3575  0.2000
   59TMC2    C5  917   3.863   1.803  12.606  0.1090 -0.2259 -0.0101
   59TMC2    C6  918   3.803   1.818  12.729  0.8099  0.3104  0.0402
   59TMC2     C  919   4.110   2.067  12.609 -0.8372 -0.7781 -0.3059
   59TMC2     O  920   4.093   2.093  12.492  0.3428  0.1008 -0.1788
   59TMC2     H  921   3.986   2.069  12.855 -0.1007  1.6571 -2.4766
   59TMC2    H1  922   4.024   1.864  12.478  0.2669  0.5979  0.1401
   59TMC2    H2  923   3.712   1.762  12.747  0.7224  0.6160  0.5483
   59TMC2    C7  924   3.784   1.759  12.491  0.0639 -0.1476 -0.5091
   59TMC2    C8  925   3.806   1.911  12.947 -0.1044  0.3201 -0.0945
   59TMC2    O1  926   3.694   1.677  12.506 -0.3154 -0.0160 -0.2132
   59TMC2    O2  927   3.807   2.007  13.022  0.5205 -0.2015 -0.2678
   59TMC2    O5  928   3.766   1.785  12.975  0.0286  0.3808 -0.5981
   59TMC2    H5  929   3.785   1.716  12.907  1.6274 -0.8335  1.0926
   60MPD2     C  930   4.282   2.314  12.578 -0.5020  0.0738 -0.8354
   60MPD2    C1  931   4.285   2.230  12.685  0.2214 -0.3520 -0.7806
   60MPD2    C2  932   4.382   2.255  12.785  0.2691 -0.5108 -0.0128
   60MPD2    C3  933   4.473   2.358  12.767 -0.2131  0.4053  0.2448
   60MPD2    C4  934   4.466   2.438  12.655 -0.4313 -0.1032  0.1890
   60MPD2    C5  935   4.364   2.422  12.567  0.6011 -0.3458  0.4286
   60MPD2     H  936   4.403   2.180  12.861  1.2616 -1.2521 -1.0274
   60MPD2    H1  937   4.543   2.508  12.623 -1.0974  1.1441  1.2803
   60MPD2    H2  938   4.222   2.282  12.493  0.6209 -0.4975 -1.4220
   60MPD2    H3  939   4.373   2.477  12.474  0.3224 -0.7001  0.1937
   60MPD2     N  940   4.567   2.389  12.860 -0.7430  0.1469  0.1659
   60MPD2    H5  941   4.606   2.481  12.840  0.0954 -0.5894 -1.5867
   60MPD2    N1  942   4.199   2.123  12.708  0.4277 -0.5177 -0.7001
   60MPD2    H7  943   4.213   2.070  12.793  1.1622  1.0012  0.1338
   61TMC2    C1  944   3.214   2.949  15.803  0.1053  0.8808  0.2747
   61TMC2    C2  945   3.186   2.884  15.924 -0.3180 -0.2385  0.7321
   61TMC2    C3  946   3.126   2.957  16.020 -0.7786  0.1744 -0.2677
   61TMC2    C4  947   3.199   3.084  15.794  0.0168 -0.5019 -0.1336
   61TMC2    C5  948   3.142   3.149  15.900  0.1819 -0.1974  0.0515
   61TMC2    C6  949   3.098   3.089  16.015 -0.3382  0.0151 -0.6277
   61TMC2     C  950   3.199   2.865  15.680 -0.2589  0.0326  0.6465
   61TMC2     O  951   3.236   2.749  15.693  0.9753  0.1446 -0.6291
   61TMC2     H  952   3.211   2.779  15.928  0.7128 -0.0536 -1.3239
   61TMC2    H1  953   3.231   3.123  15.699 -1.7404  0.1278 -0.4686
   61TMC2    H2  954   3.062   3.141  16.103  0.3833 -1.4847  0.5624
   61TMC2    C7  955   3.128   3.298  15.887 -0.4853 -0.0711  0.1102
   61TMC2    C8  956   3.095   2.885  16.138 -0.0957 -1.0293  0.8072
   61TMC2    O1  957   3.162   3.351  15.784 -0.6178 -0.1099  0.8439
   61TMC2    O2  958   3.087   2.938  16.250  0.1183  0.1503  0.3577
   61TMC2    O5  959   3.046   2.764  16.107 -0.9822 -0.4858 -0.6734
   61TMC2    H5  960   3.049   2.731  16.014  2.1303 -1.2521 -0.3092
   62MPD2     C  961   3.173   2.757  15.414  0.0325 -0.2746 -0.0942
   62MPD2    C1  962   3.136   2.884  15.447  0.4297 -0.5323 -0.3313
   62MPD2    C2  963   3.082   2.967  15.354  0.1488 -0.2107  0.8513
   62MPD2    C3  964   3.055   2.922  15.225  0.6026  0.8090  0.0616
   62MPD2    C4  965   3.081   2.792  15.197 -0.1602 -0.1059  0.0172
   62MPD2    C5  966   3.144   2.713  15.290 -0.6063 -0.4063 -0.1715
   62MPD2     H  967   3.059   3.071  15.376 -3.0106 -0.7305 -0.0425
   62MPD2    H1  968   3.059   2.741  15.104  1.6522 -2.3917  0.8342
   62MPD2    H2  969   3.221   2.680  15.474 -1.8447  0.3689  2.1795
   62MPD2    H3  970   3.181   2.616  15.258  2.5337  0.6773  0.1786
   62MPD2     N  971   3.008   3.018  15.125  0.3268  0.4845 -0.1273
   62MPD2    H5  972   2.981   3.110  15.156 -1.8063 -0.5714  1.1451
   62MPD2    N1  973   3.145   2.933  15.574  0.0111 -0.1821  0.0673
   62MPD2    H7  974   3.110   3.027  15.588  0.3100 -0.2446  1.2208
   63TMC2    C1  975   2.452   3.378  10.968  0.1643 -0.3137 -0.5103
   63TMC2    C2  976   2.501   3.433  11.086  0.4484  0.1494  0.2969
   63TMC2    C3  977   2.629   3.454  11.098  0.7961  0.4193 -0.0806
   63TMC2    C4  978   2.544   3.342  10.869  0.0440  0.2396  0.2288
   63TMC2    C5  979   2.671   3.382  10.886 -0.6604  0.3996  0.2583
   63TMC2    C6  980   2.716   3.435  11.000 -0.1348  0.4764 -0.3406
   63TMC2     C  981   2.325   3.310  10.967  0.2461 -0.5393 -0.5841
   63TMC2     O  982   2.243   3.350  11.048 -0.0024  0.5862  0.1515
   63TMC2     H  983   2.437   3.467  11.167  1.7721 -0.5117  1.6135
   63TMC2    H1  984   2.502   3.316  10.772 -2.0018  1.4852  0.7720
   63TMC2    H2  985   2.824   3.437  11.009 -0.0785 -0.6587 -0.7103
   63TMC2    C7  986   2.772   3.325  10.789 -0.6071 -0.1960 -0.1630
   63TMC2    C8  987   2.669   3.515  11.218  0.4072 -0.0567 -0.5566
   63TMC2    O1  988   2.726   3.230  10.728  0.4988 -0.0310  0.0523
   63TMC2    O2  989   2.614   3.505  11.326 -0.1704 -0.0356 -0.3655
   63TMC2    O5  990   2.783   3.589  11.192  0.2297  0.6903 -0.6772
   63TMC2    H5  991   2.801   3.619  11.100 -0.7261 -0.7928 -1.3544
   64MPD2     C  992   2.065   2.887  10.830 -0.1522 -0.3324 -0.1705
   64MPD2    C1  993   2.194   2.865  10.793  0.1135  0.0791  0.4025
   64MPD2    C2  994   2.287   2.965  10.826  0.4828 -0.0017 -0.5270
   64MPD2    C3  995   2.250   3.085  10.882 -0.5340  0.1760 -0.1711
   64MPD2    C4  996   2.123   3.101  10.924  0.0425  0.1563  0.1759
   64MPD2    C5  997   2.030   3.006  10.890  0.2997 -0.9434  0.0967
   64MPD2     H  998   2.389   2.939  10.800  0.9797 -0.6469  2.0149
   64MPD2    H1  999   2.086   3.189  10.975  3.1828  0.5539  1.7458
   64MPD2    H2 1000   1.983   2.818  10.818 -1.1722  0.6067  1.3857
   64MPD2    H3 1001   1.926   3.016  10.919 -0.0941 -1.6412 -1.0476
   64MPD2     N 1002   2.346   3.186  10.907 -0.3543  0.6195 -0.0063
   64MPD2    H5 1003   2.432   3.162  10.859 -0.4045 -1.7250  1.0394
   64MPD2    N1 1004   2.246   2.739  10.756  0.5491 -0.3343  0.9357
   64MPD2    H7 1005   2.347   2.729  10.752  0.3578 -1.9640 -0.0447
   65TMC2    C1 1006   3.984   2.925  15.588 -0.1208  0.3100  0.0401
   65TMC2    C2 1007   4.020   2.876  15.467 -0.4970  0.3328 -0.4127
   65TMC2    C3 1008   4.041   2.968  15.366 -0.0948  0.2170  0.6683
   65TMC2    C4 1009   3.975   3.056  15.608 -0.9522 -0.1056 -0.5264
   65TMC2    C5 1010   4.004   3.138  15.502  0.4560  0.8120 -0.1124
   65TMC2    C6 1011   4.042   3.101  15.379 -0.3622 -0.3511  0.2435
   65TMC2     C 1012   3.913   2.846  15.687  0.3314 -0.8493  0.3909
   65TMC2     O 1013   3.855   2.896  15.783  0.1952 -0.0514 -0.2238
   65TMC2     H 1014   4.049   2.773  15.448 -1.2601  0.3235 -1.5077
   65TMC2    H1 1015   3.939   3.095  15.703  0.5415 -1.3335  0.5526
   65TMC2    H2 1016   4.058   3.173  15.299  1.7423 -2.0125 -0.8270
   65TMC2    C7 1017   3.960   3.272  15.510  0.2158  0.0001  0.1759
   65TMC2    C8 1018   4.074   2.919  15.240 -0.5240  0.4430 -0.0086
   65TMC2    O1 1019   3.985   3.340  15.411  0.3547 -0.5805 -0.3980
   65TMC2    O2 1020   4.138   2.974  15.150  0.2628 -0.5204 -0.3217
   65TMC2    O5 1021   4.019   2.798  15.224  0.7971  0.1801 -0.1028
   65TMC2    H5 1022   3.961   2.764  15.296  2.0585  0.4171  1.0228
   66MPD2     C 1023   3.807   2.605  15.847 -0.0632 -0.0707  0.0200
   66MPD2    C1 1024   3.851   2.599  15.716 -0.5716 -0.4360  0.6901
   66MPD2    C2 1025   3.844   2.479  15.651  0.8464  1.0886  0.4284
   66MPD2    C3 1026   3.774   2.372  15.704  0.4446 -0.1479 -0.2288
   66MPD2    C4 1027   3.727   2.380  15.835  0.1355 -0.2453  0.5813
   66MPD2    C5 1028   3.742   2.495  15.904  0.0373  0.4395  0.2343
   66MPD2     H 1029   3.881   2.465  15.550 -0.7282 -0.4715  0.0721
   66MPD2    H1 1030   3.686   2.288  15.877 -0.1638 -1.0074 -1.3818
   66MPD2    H2 1031   3.812   2.700  15.899 -0.6664 -0.3950  0.6703
   66MPD2    H3 1032   3.702   2.503  16.004  0.6809 -0.7446  0.5812
   66MPD2     N 1033   3.734   2.254  15.626 -0.0442 -0.1017 -0.4096
   66MPD2    H5 1034   3.685   2.181  15.678 -0.8758 -0.6075 -1.8953
   66MPD2    N1 1035   3.908   2.710  15.647  0.2112  0.0092 -0.5800
   66MPD2    H7 1036   3.929   2.684  15.551  0.5852 -0.8186 -0.2796
   67TMC2    C1 1037   4.313   2.159  14.320 -0.6020  0.4049  0.3408
   67TMC2    C2 1038   4.215   2.256  14.318 -0.9605  0.7104  1.0779
   67TMC2    C3 1039   4.235   2.362  14.407 -0.0754 -0.2893  0.2066
   67TMC2    C4 1040   4.424   2.165  14.403  0.6215  0.2322  0.5730
   67TMC2    C5 1041   4.437   2.267  14.488  0.3266  0.1525  0.2872
   67TMC2    C6 1042   4.346   2.374  14.491  0.1455  1.1460  0.1311
   67TMC2     C 1043   4.302   2.038  14.240  0.9045 -0.1642  0.6669
   67TMC2     O 1044   4.389   1.952  14.254 -0.0234  0.3013  0.1151
   67TMC2     H 1045   4.133   2.254  14.248  0.3599 -0.6218 -0.4245
   67TMC2    H1 1046   4.495   2.083  14.406 -0.2078 -0.4695  0.8084
   67TMC2    H2 1047   4.357   2.459  14.558  0.4704 -0.2593  1.8767
   67TMC2    C7 1048   4.533   2.255  14.586  0.3443  0.2357  0.4066
   67TMC2    C8 1049   4.159   2.483  14.379 -0.2724  0.0047 -0.4246
   67TMC2    O1 1050   4.640   2.197  14.562  0.7675  0.4403  0.2241
   67TMC2    O2 1051   4.055   2.472  14.320 -1.1189 -0.4527 -0.0124
   67TMC2    O5 1052   4.244   2.591  14.368 -0.4308 -0.5218 -0.6608
   67TMC2    H5 1053   4.338   2.566  14.385 -0.8562 -1.2171  0.6771
   68MPD2     C 1054   4.204   1.872  14.032  0.4629 -0.1674 -0.1005
   68MPD2    C1 1055   4.118   1.923  14.128 -0.4799 -0.0636 -0.7382
   68MPD2    C2 1056   3.990   1.877  14.139  0.4379 -0.0140  0.1364
   68MPD2    C3 1057   3.947   1.787  14.041  1.0815 -0.2110  0.3754
   68MPD2    C4 1058   4.023   1.746  13.938  0.0073  0.0935  0.4266
   68MPD2    C5 1059   4.154   1.783  13.939 -0.0408  0.0978 -0.1981
   68MPD2     H 1060   3.924   1.919  14.214  2.8829  0.0189  2.2768
   68MPD2    H1 1061   3.984   1.685  13.858 -0.4188  1.4267 -0.3886
   68MPD2    H2 1062   4.301   1.914  14.008  0.3386  0.8784  1.2708
   68MPD2    H3 1063   4.216   1.748  13.857 -0.1905  2.5875 -1.3678
   68MPD2     N 1064   3.810   1.748  14.033 -0.2398  0.3449 -0.5480
   68MPD2    H5 1065   3.781   1.702  13.948  3.7875  0.8110 -2.1644
   68MPD2    N1 1066   4.170   2.013  14.223  0.7705 -0.3057 -0.0963
   68MPD2    H7 1067   4.103   2.048  14.291  2.3045  2.1208  0.1686
   69TMC2    C1 1068   1.352   3.492  12.139 -0.0638  0.6062 -0.1072
   69TMC2    C2 1069   1.290   3.582  12.059 -0.1979  0.1286 -0.6494
   69TMC2    C3 1070   1.309   3.577  11.925 -0.6541 -0.1465  0.6272
   69TMC2    C4 1071   1.439   3.400  12.081 -0.4590  0.5970  0.5459
   69TMC2    C5 1072   1.457   3.407  11.945  0.3553  0.0484 -0.1590
   69TMC2    C6 1073   1.390   3.489  11.859 -0.2263 -0.0270 -0.0215
   69TMC2     C 1074   1.303   3.464  12.276 -0.2715 -1.0308  0.1694
   69TMC2     O 1075   1.187   3.481  12.300 -0.6164  0.5188 -0.0553
   69TMC2     H 1076   1.218   3.650  12.102 -0.5637 -0.6583 -0.0219
   69TMC2    H1 1077   1.476   3.312  12.131  2.2853  1.0178 -0.7162
   69TMC2    H2 1078   1.410   3.491  11.753 -0.9983 -0.3590 -0.1791
   69TMC2    C7 1079   1.550   3.309  11.892  0.2403  0.2211  0.3469
   69TMC2    C8 1080   1.264   3.690  11.844 -0.2981 -0.1978  0.2649
   69TMC2    O1 1081   1.643   3.288  11.968  0.5316 -0.1948  0.3760
   69TMC2    O2 1082   1.148   3.716  11.810 -0.9971 -0.3521  0.3620
   69TMC2    O5 1083   1.368   3.731  11.778 -0.3346  0.1343  1.0032
   69TMC2    H5 1084   1.451   3.711  11.827  0.7507 -1.0887 -1.2867
   70MPD2     C 1085   1.499   3.338  12.566  0.3003  0.2222  0.3329
   70MPD2    C1 1086   1.391   3.387  12.496  0.0775  0.2168  0.1966
   70MPD2    C2 1087   1.270   3.389  12.566  0.1862 -0.5124  0.7294
   70MPD2    C3 1088   1.253   3.351  12.694  0.2762  0.0453  0.3398
   70MPD2    C4 1089   1.370   3.323  12.765  0.0922  0.3243 -0.1733
   70MPD2    C5 1090   1.486   3.309  12.699  0.3503  1.1050 -0.0119
   70MPD2     H 1091   1.179   3.423  12.519  0.3661 -0.1015  0.6849
   70MPD2    H1 1092   1.350   3.300  12.869  1.6012 -0.9234 -0.1627
   70MPD2    H2 1093   1.600   3.321  12.529 -1.1344  0.2261 -3.6239
   70MPD2    H3 1094   1.578   3.266  12.739  1.1352  0.8733 -2.0676
   70MPD2     N 1095   1.123   3.352  12.764 -0.0047  0.4446  0.0128
   70MPD2    H5 1096   1.127   3.325  12.862  2.6246  0.7095 -0.0189
   70MPD2    N1 1097   1.404   3.418  12.357  0.0184  0.7517 -0.1903
   70MPD2    H7 1098   1.494   3.430  12.312 -0.2753  0.7879 -0.7791
   71TMC2    C1 1099   3.432   4.247   0.648 -0.5311  0.3217 -0.1298
   71TMC2    C2 1100   3.530   4.323   0.701 -0.6648 -0.9331  0.1220
   71TMC2    C3 1101   3.575   4.290   0.823  0.0769 -0.7394 -0.0791
   71TMC2    C4 1102   3.375   4.147   0.718  0.4804 -0.8508 -1.0072
   71TMC2    C5 1103   3.423   4.120   0.846 -0.1370 -0.0933  0.2305
   71TMC2    C6 1104   3.527   4.190   0.897 -0.4402 -0.1181  0.7370
   71TMC2     C 1105   3.383   4.283   0.512  0.4526  0.0278  0.1652
   71TMC2     O 1106   3.413   4.394   0.475 -0.0771  0.3969  0.8300
   71TMC2     H 1107   3.570   4.407   0.644  0.3251 -0.8441  0.9487
   71TMC2    H1 1108   3.277   4.107   0.695  0.2455 -1.1361  0.5042
   71TMC2    H2 1109   3.557   4.175   0.999  1.2397  0.9609  0.3985
   71TMC2    C7 1110   3.351   4.032   0.940  0.5624  0.0526  0.8583
   71TMC2    C8 1111   3.675   4.372   0.893  0.1902  0.8046  0.1714
   71TMC2    O1 1112   3.394   4.037   1.055  0.6952 -0.2518  0.5653
   71TMC2    O2 1113   3.758   4.326   0.968 -0.2595  0.2044 -0.0028
   71TMC2    O5 1114   3.707   4.483   0.818 -0.0763 -0.3520  0.1865
   71TMC2    H5 1115   3.623   4.527   0.794  0.9125  1.8082  0.6858
   72MPD2     C 1116   3.136   4.139   0.079 -1.1625  0.2892 -0.3444
   72MPD2    C1 1117   3.215   4.251   0.100  0.2090  1.0015 -0.0217
   72MPD2    C2 1118   3.277   4.263   0.218  0.2873  0.0367 -0.4832
   72MPD2    C3 1119   3.260   4.169   0.322  0.6939 -0.5157 -0.1506
   72MPD2    C4 1120   3.186   4.061   0.292  0.2379 -0.6902 -0.6866
   72MPD2    C5 1121   3.122   4.040   0.169  0.5535  0.9456  0.2009
   72MPD2     H 1122   3.339   4.351   0.234 -1.5296  1.2913 -0.4142
   72MPD2    H1 1123   3.177   3.972   0.354 -1.5363  0.0114  0.0718
   72MPD2    H2 1124   3.077   4.121  17.747 -0.4247  1.0954 -0.9843
   72MPD2    H3 1125   3.070   3.950   0.141 -0.2842  0.9036  1.8425
   72MPD2     N 1126   3.313   4.179   0.453  0.0177  0.3643 -0.0255
   72MPD2    H5 1127   3.286   4.098   0.506 -0.1997  1.7843  2.0227
   72MPD2    N1 1128   3.236   4.363   0.014 -0.1408 -0.0518 -0.1148
   72MPD2    H7 1129   3.286   4.441   0.057  0.9248  0.7531 -2.8019
   73TMC2    C1 1130   3.056   0.856  13.929  0.2395 -0.5122  0.1584
   73TMC2    C2 1131   3.027   0.916  14.051  0.2122 -0.0817  0.1352
   73TMC2    C3 1132   3.118   0.891  14.152 -0.5514 -0.0295 -0.0313
   73TMC2    C4 1133   3.158   0.766  13.913 -0.8793 -0.1629  0.2695
   73TMC2    C5 1134   3.247   0.737  14.010 -0.6424  0.6726 -0.0727
   73TMC2    C6 1135   3.217   0.792  14.138 -0.1217  0.2695 -0.5573
   73TMC2     C 1136   3.041   0.950  13.828  0.0536  0.2898 -0.5353
   73TMC2     O 1137   3.138   0.966  13.754  0.5287  0.6908  0.3827
   73TMC2     H 1138   2.972   1.010  14.055  1.7780  0.8578 -0.2479
   73TMC2    H1 1139   3.189   0.738  13.813  0.2971  1.7730  0.0859
   73TMC2    H2 1140   3.283   0.764  14.220 -1.0119  1.5337  0.5721
   73TMC2    C7 1141   3.375   0.783  13.978 -0.4600 -0.4260  0.1547
   73TMC2    C8 1142   3.100   0.957  14.277  0.3665 -0.0644  0.2415
   73TMC2    O1 1143   3.460   0.705  14.014  0.0981  0.3044  0.0923
   73TMC2    O2 1144   3.001   1.020  14.304  0.9703  0.0854 -0.6881
   73TMC2    O5 1145   3.223   0.976  14.337  0.1589 -0.6038  0.1983
   73TMC2    H5 1146   3.292   0.990  14.268  0.6447 -0.4451  0.7147
   74MPD2     C 1147   2.825   1.314  13.560 -0.2601 -0.2818 -0.1715
   74MPD2    C1 1148   2.955   1.285  13.578  0.2058 -0.6071 -0.2810
   74MPD2    C2 1149   2.976   1.181  13.672 -0.1298  0.6583 -0.1197
   74MPD2    C3 1150   2.874   1.107  13.729 -0.6886 -0.0117 -1.3896
   74MPD2    C4 1151   2.747   1.139  13.713  0.6394 -0.2598  0.2389
   74MPD2    C5 1152   2.724   1.248  13.628  0.0877  0.5319  0.1975
   74MPD2     H 1153   3.079   1.170  13.707 -0.3972  1.9293  1.0398
   74MPD2    H1 1154   2.658   1.086  13.744  0.8478 -0.7583 -0.0224
   74MPD2    H2 1155   2.799   1.389  13.487  0.1500  0.1398  0.1154
   74MPD2    H3 1156   2.621   1.276  13.608 -0.1653  0.7586  1.8594
   74MPD2     N 1157   2.911   0.997  13.813  0.4356 -0.5969  0.1047
   74MPD2    H5 1158   2.838   0.945  13.861  1.2299 -2.0171 -0.2252
   74MPD2    N1 1159   3.054   1.372  13.521  0.1143 -0.0595 -0.0269
   74MPD2    H7 1160   3.024   1.454  13.469 -1.3700 -0.2976  0.4514
   75TMC2    C1 1161   3.581   1.738  14.098  0.5644 -0.2973 -0.5853
   75TMC2    C2 1162   3.519   1.664  14.195  0.5637 -0.6836  0.0865
   75TMC2    C3 1163   3.380   1.661  14.197  0.5215  0.0567  0.3719
   75TMC2    C4 1164   3.507   1.818  14.020  0.3073 -0.0927  0.2866
   75TMC2    C5 1165   3.370   1.829  14.030 -0.4938  0.0529 -0.0515
   75TMC2    C6 1166   3.304   1.747  14.115  0.2297  0.2937 -0.5334
   75TMC2     C 1167   3.712   1.774  14.132  0.2814 -0.1069 -0.2869
   75TMC2     O 1168   3.738   1.817  14.243  0.0669 -0.0445 -0.1311
   75TMC2     H 1169   3.585   1.621  14.270  2.2193  0.6412 -0.6136
   75TMC2    H1 1170   3.554   1.888  13.952 -0.6690 -1.3044 -1.6241
   75TMC2    H2 1171   3.197   1.729  14.110  0.3514 -0.2704 -1.1152
   75TMC2    C7 1172   3.295   1.892  13.923  0.1745 -0.1701 -0.1341
   75TMC2    C8 1173   3.334   1.638  14.337  0.3015  0.0379 -0.7376
   75TMC2    O1 1174   3.357   1.906  13.817  0.0321 -0.2198 -0.3369
   75TMC2    O2 1175   3.382   1.557  14.414  0.2101  0.1083  0.5939
   75TMC2    O5 1176   3.273   1.754  14.378  0.0194  0.2217 -0.0107
   75TMC2    H5 1177   3.271   1.822  14.307  0.5997  0.6983  0.4393
   76TMC2    C1 1178   2.363   2.211  12.200  0.4460 -0.0219 -0.5672
   76TMC2    C2 1179   2.234   2.163  12.209 -0.2423  0.0190 -0.3893
   76TMC2    C3 1180   2.217   2.036  12.258  0.4396  0.5059 -0.0940
   76TMC2    C4 1181   2.468   2.146  12.258 -1.0111  0.4560  0.7129
   76TMC2    C5 1182   2.444   2.025  12.318  0.2737 -0.1641  0.1578
   76TMC2    C6 1183   2.322   1.968  12.309 -0.6184 -0.6883  0.7457
   76TMC2     C 1184   2.385   2.333  12.127  0.6605 -0.5751 -0.0191
   76TMC2     O 1185   2.280   2.382  12.084 -0.8359  0.2700  0.4477
   76TMC2     H 1186   2.152   2.223  12.170  0.1321  1.9551  1.7980
   76TMC2    H1 1187   2.569   2.186  12.260  0.0946 -2.4055  1.5396
   76TMC2    H2 1188   2.297   1.868  12.343 -1.7970 -1.4402 -2.3129
   76TMC2    C7 1189   2.550   1.949  12.370 -0.4040  0.0754 -0.6042
   76TMC2    C8 1190   2.110   1.962  12.190 -0.2680  0.6542  0.2786
   76TMC2    O1 1191   2.546   1.827  12.370 -0.4160  0.4437 -0.2892
   76TMC2    O2 1192   2.102   1.842  12.186 -0.2373 -0.3434  0.3411
   76TMC2    O5 1193   2.011   2.049  12.202  0.0352  0.4524 -0.2248
   76TMC2    H5 1194   2.045   2.133  12.238 -0.0943 -0.4515  2.0236
   77MPD2     C 1195   2.664   2.716  11.919 -0.1394  0.2736 -0.3933
   77MPD2    C1 1196   2.522   2.694  11.916  0.0800  0.2551  0.1890
   77MPD2    C2 1197   2.479   2.581  11.979 -0.0964 -0.4232 -0.1803
   77MPD2    C3 1198   2.563   2.494  12.050  0.5644 -0.2172  0.3898
   77MPD2    C4 1199   2.697   2.512  12.045  0.2111  0.0076 -0.2057
   77MPD2    C5 1200   2.746   2.617  11.975 -0.9059  0.2868 -0.1320
   77MPD2     H 1201   2.377   2.548  11.964  0.5078 -1.4960 -1.8893
   77MPD2    H1 1202   2.768   2.449  12.098 -2.2205 -1.4466  1.2839
   77MPD2    H2 1203   2.716   2.803  11.882  0.6639  0.2367  0.6545
   77MPD2    H3 1204   2.854   2.628  11.972 -0.7542 -0.8586  1.1415
   77MPD2     N 1205   2.518   2.378  12.116  0.2407 -0.1202  0.0630
   77MPD2    H5 1206   2.593   2.316  12.146 -0.1473 -1.3283 -1.4622
   77MPD2    N1 1207   2.425   2.778  11.845  0.5022 -0.1038 -0.3736
   77MPD2    H7 1208   2.328   2.748  11.846 -0.1800  2.1892  1.2450
   78TMC2    C1 1209   2.698   3.427   0.454  0.0410 -0.0738  0.0885
   78TMC2    C2 1210   2.671   3.511   0.354 -0.0941  0.7229 -0.5383
   78TMC2    C3 1211   2.737   3.635   0.355 -0.0347 -0.4211  0.7392
   78TMC2    C4 1212   2.790   3.451   0.553 -0.5318 -0.1065  0.0185
   78TMC2    C5 1213   2.847   3.568   0.545  0.2287  1.0072 -0.0616
   78TMC2    C6 1214   2.820   3.666   0.456 -0.1748  0.5262 -0.1278
   78TMC2     C 1215   2.642   3.301   0.460  0.1965 -0.2054 -0.1825
   78TMC2     O 1216   2.636   3.253   0.571  0.2643 -0.1966  0.0499
   78TMC2     H 1217   2.594   3.493   0.280  0.0077  0.0158 -0.4641
   78TMC2    H1 1218   2.811   3.370   0.622  0.7037 -0.6124 -0.9444
   78TMC2    H2 1219   2.859   3.766   0.470  1.2963 -0.1457  0.5133
   78TMC2    C7 1220   2.974   3.590   0.619 -0.4099 -0.5600  0.3441
   78TMC2    C8 1221   2.725   3.735   0.246  0.6399  0.1829  0.5791
   78TMC2    O1 1222   3.059   3.657   0.557  0.2004 -0.0298 -0.3994
   78TMC2    O2 1223   2.780   3.843   0.256 -0.4338 -0.4170  0.1545
   78TMC2    O5 1224   2.680   3.679   0.131 -0.2160  0.4493  0.4011
   78TMC2    H5 1225   2.641   3.589   0.136  1.5387 -0.2162  2.2378
   79MPD1     C 1226   2.403   2.894   0.262 -0.3426 -0.4940  0.2793
   79MPD1    C1 1227   2.437   2.928   0.389 -0.9372  0.2249 -0.2163
   79MPD1    C2 1228   2.487   3.050   0.417  0.0973  0.5225  0.4395
   79MPD1    C3 1229   2.511   3.138   0.312  0.1041 -0.8520 -0.2983
   79MPD1    C4 1230   2.476   3.108   0.186  1.0063  0.1655 -0.0553
   79MPD1    C5 1231   2.419   2.989   0.158 -0.8138  0.1621 -0.0779
   79MPD1     H 1232   2.520   3.072   0.518  1.7565  0.5848 -0.1151
   79MPD1    H1 1233   2.496   3.183   0.110  0.6704 -0.2500 -0.5481
   79MPD1    H2 1234   2.363   2.796   0.238 -0.3266 -1.1769  3.0922
   79MPD1    H3 1235   2.394   2.954   0.058  0.3404  0.0048 -0.3084
   79MPD1     N 1236   2.583   3.260   0.339 -0.4665  0.2150 -0.5740
   79MPD1    H5 1237   2.609   3.315   0.257  1.7363 -0.2679 -0.1830
   79MPD1    N1 1238   2.438   2.829   0.493  0.5512 -0.8462 -0.7586
   79MPD1    H6 1239   2.367   2.755   0.487 -0.4503 -0.1190  1.8334
   79MPD1    H7 1240   2.433   2.866   0.588  1.2191 -1.3736 -0.5238
   80TMC2    C1 1241   1.308   2.129  11.881  0.2931  0.8510  0.1476
   80TMC2    C2 1242   1.364   2.041  11.789  0.6737  0.1059  0.0612
   80TMC2    C3 1243   1.274   1.950  11.736 -0.0583  0.4319  0.3294
   80TMC2    C4 1244   1.177   2.132  11.930 -0.6146 -0.3990  0.2947
   80TMC2    C5 1245   1.099   2.027  11.878 -0.9949  0.0833 -0.0305
   80TMC2    C6 1246   1.144   1.940  11.783 -0.0597  0.1697 -1.7365
   80TMC2     C 1247   1.400   2.236  11.929 -0.4577 -0.6930 -1.0723
   80TMC2     O 1248   1.502   2.250  11.869 -0.1075  0.5181 -0.1615
   80TMC2     H 1249   1.471   2.039  11.771  0.2481  0.9678 -2.5809
   80TMC2    H1 1250   1.133   2.207  11.995 -0.2221 -0.3870  0.5485
   80TMC2    H2 1251   1.079   1.861  11.747  0.8823 -0.4155 -2.1660
   80TMC2    C7 1252   0.968   2.009  11.942  0.4071  0.0969 -0.0343
   80TMC2    C8 1253   1.322   1.843  11.658  0.5802 -0.0961  0.5052
   80TMC2    O1 1254   0.876   1.962  11.874 -0.4124 -0.5722  0.1689
   80TMC2    O2 1255   1.232   1.784  11.597  0.1887 -0.2096 -0.0491
   80TMC2    O5 1256   1.438   1.872  11.604  0.4443 -0.7577 -0.7528
   80TMC2    H5 1257   1.498   1.917  11.668 -1.0805  0.5582 -0.2518
   81MPD2     C 1258   1.551   2.439  12.071  0.1497 -0.2129 -0.3445
   81MPD2    C1 1259   1.416   2.430  12.080  0.6180 -0.3170  0.5840
   81MPD2    C2 1260   1.345   2.519  12.158 -0.1682 -0.1851  0.0561
   81MPD2    C3 1261   1.404   2.622  12.225  0.0785  0.1921 -0.5183
   81MPD2    C4 1262   1.536   2.644  12.200  0.0166  0.3506 -0.0585
   81MPD2    C5 1263   1.610   2.552  12.127  0.0566 -0.0833  0.1442
   81MPD2     H 1264   1.239   2.504  12.178  0.6051 -1.8220  2.9965
   81MPD2    H1 1265   1.594   2.719  12.253  2.2015 -2.3226  1.3160
   81MPD2    H2 1266   1.614   2.369  12.019  0.2176 -0.3720 -0.0486
   81MPD2    H3 1267   1.719   2.553  12.127  0.0484  1.2738 -0.0749
   81MPD2     N 1268   1.326   2.706  12.302 -0.2566  0.4699 -0.0548
   81MPD2    H5 1269   1.227   2.683  12.304 -0.9994  3.7737  1.1020
   81MPD2    N1 1270   1.347   2.320  12.024  0.5165 -0.9021 -0.3350
   81MPD2    H7 1271   1.254   2.313  12.064  0.7868  0.2497  0.5017
   82TMC2    C1 1272   3.823   1.980  10.895  0.4896 -0.0131  0.1763
   82TMC2    C2 1273   3.931   2.016  10.826 -0.4533  0.4857 -0.6397
   82TMC2    C3 1274   4.036   1.930  10.816  0.1718  0.0102 -0.3001
   82TMC2    C4 1275   3.804   1.851  10.935  0.6746 -0.2173 -0.2325
   82TMC2    C5 1276   3.911   1.772  10.937 -0.3735  0.1902  0.1341
   82TMC2    C6 1277   4.032   1.808  10.877 -0.5302  0.3907  0.1410
   82TMC2     C 1278   3.709   2.058  10.858 -0.4953  0.3960 -0.1601
   82TMC2     O 1279   3.715   2.135  10.765  0.4954  0.1804  0.2033
   82TMC2     H 1280   3.947   2.113  10.781  1.3805  0.9889  1.1078
   82TMC2    H1 1281   3.713   1.824  10.987  0.7353  1.7118  0.8819
   82TMC2    H2 1282   4.122   1.750  10.884  0.7676  2.4490  0.6325
   82TMC2    C7 1283   3.898   1.634  10.986  0.6669  0.3527  0.5167
   82TMC2    C8 1284   4.148   1.971  10.725  0.0360 -1.0640 -0.2636
   82TMC2    O1 1285   3.796   1.607  11.050  0.0893 -0.4475 -0.3627
   82TMC2    O2 1286   4.250   1.903  10.725 -0.5114  0.0613 -0.2360
   82TMC2    O5 1287   4.099   2.043  10.617 -0.4849 -0.3640 -0.4657
   82TMC2    H5 1288   4.001   2.037  10.607 -0.4620 -1.3039 -0.1447
   83MPD2     C 1289   3.193   2.146  10.832 -0.2771  0.5930 -0.6200
   83MPD2    C1 1290   3.297   2.177  10.741  0.5257 -0.3595  0.2961
   83MPD2    C2 1291   3.429   2.145  10.771 -0.0053 -0.3038  0.4156
   83MPD2    C3 1292   3.470   2.077  10.888  0.1264  0.6048 -0.4426
   83MPD2    C4 1293   3.366   2.052  10.979  0.5213 -0.4103  0.4844
   83MPD2    C5 1294   3.235   2.093  10.951  0.8184 -0.2508  0.4335
   83MPD2     H 1295   3.500   2.146  10.689  0.0541 -0.6687  0.4607
   83MPD2    H1 1296   3.384   1.999  11.072  0.5646  1.4321  1.5170
   83MPD2    H2 1297   3.087   2.161  10.813 -0.1525  1.3986 -0.6606
   83MPD2    H3 1298   3.166   2.069  11.031 -0.6385 -0.8016 -0.9726
   83MPD2     N 1299   3.595   2.033  10.929 -0.2391 -0.1335 -0.5907
   83MPD2    H5 1300   3.609   1.994  11.022  2.3314  1.8994 -0.1592
   83MPD2    N1 1301   3.245   2.234  10.622 -0.2400  0.3912 -0.5248
   83MPD2    H7 1302   3.144   2.241  10.620 -0.2520  0.7722  1.4423
   84TMC2    C1 1303   1.157   0.494  11.126 -0.4429  0.5475 -0.3544
   84TMC2    C2 1304   1.286   0.503  11.162 -0.1668 -0.1865  0.2282
   84TMC2    C3 1305   1.377   0.533  11.070 -0.2155  0.0116  0.2193
   84TMC2    C4 1306   1.119   0.516  11.000 -0.0752 -0.4000  0.0051
   84TMC2    C5 1307   1.205   0.543  10.904  0.1330  0.1089  0.9191
   84TMC2    C6 1308   1.337   0.559  10.937  0.2912  0.5797  0.0389
   84TMC2     C 1309   1.074   0.567  11.212  0.1175  1.2349 -0.4437
   84TMC2     O 1310   1.000   0.638  11.143  0.4647  0.2543  0.5447
   84TMC2     H 1311   1.320   0.505  11.265 -0.8961 -3.3007  0.5252
   84TMC2    H1 1312   1.016   0.496  10.974 -0.4652 -0.6064  1.7768
   84TMC2    H2 1313   1.411   0.591  10.864  0.7574  1.4991  0.9079
   84TMC2    C7 1314   1.154   0.538  10.771  0.5335  0.4681 -0.6963
   84TMC2    C8 1315   1.518   0.541  11.105  0.0394  0.5197 -0.5869
   84TMC2    O1 1316   1.035   0.519  10.761  0.4074 -0.0906  0.4117
   84TMC2    O2 1317   1.581   0.629  11.049 -0.8164 -0.4070 -0.6452
   84TMC2    O5 1318   1.551   0.409  11.100 -0.3637 -0.9077  0.3431
   84TMC2    H5 1319   1.475   0.360  11.139  0.4117 -1.1742  1.5165
   85TMC2    C1 1320   1.277   4.402  15.989 -0.0336 -0.5767 -1.3821
   85TMC2    C2 1321   1.162   4.454  16.037 -0.1276 -0.1521 -0.5373
   85TMC2    C3 1322   1.128   4.582  16.012  0.1585  0.2632  0.1593
   85TMC2    C4 1323   1.358   4.479  15.912 -0.5731  0.7059 -0.3887
   85TMC2    C5 1324   1.316   4.605  15.875 -0.6484  0.0811  0.2574
   85TMC2    C6 1325   1.192   4.654  15.916  0.1779  0.2559 -0.7888
   85TMC2     C 1326   1.314   4.265  16.030  0.0496  0.4269  0.1768
   85TMC2     O 1327   1.434   4.244  16.050 -0.3639  0.0467 -0.0277
   85TMC2     H 1328   1.111   4.394  16.112 -1.0265 -0.0412 -1.0646
   85TMC2    H1 1329   1.438   4.432  15.857 -0.3755  1.0089 -0.3617
   85TMC2    H2 1330   1.156   0.009  15.881  0.9359  0.9920  0.4324
   85TMC2    C7 1331   1.352   4.637  15.741  0.1737  0.1682 -0.9745
   85TMC2    C8 1332   1.010   4.637  16.076  0.0213  0.1518 -0.0682
   85TMC2    O1 1333   1.263   4.662  15.661  0.8769 -0.1639 -0.2648
   85TMC2    O2 1334   1.022   0.010  16.115  0.9022  0.7733  0.0169
   85TMC2    O5 1335   0.935   4.539  16.136 -0.3035  0.0573  0.3342
   85TMC2    H5 1336   0.940   4.452  16.091 -1.8831  0.4824 -0.6874
   86MPD2     C 1337   1.219   3.800  16.201 -0.1374 -0.6047 -0.2316
   86MPD2    C1 1338   1.137   3.817  16.086 -0.3299  0.9405  0.1991
   86MPD2    C2 1339   1.121   3.951  16.035 -1.2820  0.3411  0.6938
   86MPD2    C3 1340   1.205   4.054  16.077  0.6434  0.3319  0.2640
   86MPD2    C4 1341   1.299   4.021  16.177  0.1115  0.3224 -0.3930
   86MPD2    C5 1342   1.297   3.904  16.242  0.7766  0.3451 -0.0448
   86MPD2     H 1343   1.054   3.958  15.949 -2.2781 -0.5028  1.4068
   86MPD2    H1 1344   1.373   4.089  16.218  1.6843 -0.3612 -2.1072
   86MPD2    H2 1345   1.244   3.706  16.248 -0.2284 -0.1050  0.8185
   86MPD2    H3 1346   1.359   3.884  16.329  0.4775  0.3437  0.1678
   86MPD2     N 1347   1.203   4.180  16.023  0.4912  0.1041  0.0785
   86MPD2    H5 1348   1.128   4.202  15.958  0.0474 -1.5405  0.0331
   86MPD2    N1 1349   1.055   3.711  16.041 -0.1686  0.2155 -0.4368
   86MPD2    H7 1350   0.998   3.718  15.956  0.9220 -0.1747 -1.1960
   87TMC2    C1 1351   3.474   2.474   1.184 -0.2480  0.3404  0.7018
   87TMC2    C2 1352   3.589   2.459   1.259 -0.4090 -0.3996  0.2617
   87TMC2    C3 1353   3.604   2.541   1.368  0.0174  0.3377  0.2210
   87TMC2    C4 1354   3.387   2.579   1.211 -0.8660 -0.0390  0.0537
   87TMC2    C5 1355   3.418   2.667   1.310 -0.0499  0.4389 -0.4834
   87TMC2    C6 1356   3.524   2.648   1.390  0.1913 -0.8218 -0.3900
   87TMC2     C 1357   3.477   2.414   1.056  0.2099 -0.1407  0.0717
   87TMC2     O 1358   3.577   2.350   1.024 -0.0388 -0.5190  0.5258
   87TMC2     H 1359   3.668   2.389   1.235 -1.6562 -2.4721  2.2664
   87TMC2    H1 1360   3.299   2.603   1.151 -0.5893  1.7728  0.3480
   87TMC2    H2 1361   3.553   2.717   1.470 -0.3548 -1.3841  0.2913
   87TMC2    C7 1362   3.379   2.801   1.277 -0.3496 -0.2469 -0.0447
   87TMC2    C8 1363   3.730   2.540   1.440  0.1724 -0.1249 -0.4024
   87TMC2    O1 1364   3.270   2.828   1.229  0.1692  0.1406  0.0263
   87TMC2    O2 1365   3.838   2.494   1.396  0.1333  0.3005 -0.3796
   87TMC2    O5 1366   3.681   2.502   1.559 -0.1490 -0.0068 -0.3361
   87TMC2    H5 1367   3.586   2.523   1.575  0.1995  0.9470  0.5150
   88MPD2     C 1368   3.592   3.096   1.285 -0.2069 -1.2002 -0.3528
   88MPD2    C1 1369   3.495   3.014   1.235  0.0913  0.2898  0.6861
   88MPD2    C2 1370   3.414   3.053   1.124 -0.5936  0.5113 -0.2415
   88MPD2    C3 1371   3.454   3.174   1.063  0.0750 -0.5060  0.9668
   88MPD2    C4 1372   3.544   3.263   1.121 -0.3583  0.0698 -0.8107
   88MPD2    C5 1373   3.624   3.220   1.230  0.4054  0.3060 -0.1956
   88MPD2     H 1374   3.333   2.990   1.090 -1.5858  0.9834  1.2536
   88MPD2    H1 1375   3.576   3.354   1.071 -0.1990  1.8285  2.5005
   88MPD2    H2 1376   3.650   3.076   1.374 -1.1060 -2.0636  0.0382
   88MPD2    H3 1377   3.692   3.288   1.279 -0.4978  0.5339  0.7615
   88MPD2     N 1378   3.380   3.227   0.952 -0.3508 -0.5745  1.0021
   88MPD2    H5 1379   3.413   3.321   0.933  0.5080 -1.4175 -1.7793
   88MPD2    N1 1380   3.481   2.890   1.301  0.8327  0.3024 -0.2072
   88MPD2    H7 1381   3.569   2.862   1.342 -0.6482 -0.2467  2.6832
   89TMC2    C1 1382   4.280   0.378   1.032 -1.1686  0.9500  0.4199
   89TMC2    C2 1383   4.148   0.403   0.983  0.8185 -0.4892 -0.3162
   89TMC2    C3 1384   4.149   0.492   0.879 -0.9603  0.3302 -0.0602
   89TMC2    C4 1385   4.400   0.398   0.960 -0.1751 -0.5639 -0.0991
   89TMC2    C5 1386   4.392   0.490   0.859  0.8128  0.7640  0.6213
   89TMC2    C6 1387   4.267   0.537   0.830 -0.5490 -0.4061 -0.5916
   89TMC2     C 1388   4.298   0.278   1.140  0.4525 -0.8346 -0.5187
   89TMC2     O 1389   4.411   0.242   1.169 -0.5957  0.1718 -0.8718
   89TMC2     H 1390   4.060   0.350   1.016  0.7981 -0.3175 -0.0947
   89TMC2    H1 1391   4.492   0.381   1.015 -0.9138 -1.0087  0.9997
   89TMC2    H2 1392   4.244   0.602   0.746 -1.1934 -2.2287 -1.8178
   89TMC2    C7 1393   4.514   0.540   0.800  0.3727 -0.6294 -0.1993
   89TMC2    C8 1394   4.031   0.540   0.824  0.2779  0.1742 -0.2145
   89TMC2    O1 1395   4.617   0.472   0.798  0.6743  0.4526 -1.3889
   89TMC2    O2 1396   3.930   0.474   0.845  0.3977 -0.0206 -0.1586
   89TMC2    O5 1397   4.020   0.669   0.865 -0.0018  0.0535 -0.4473
   89TMC2    H5 1398   4.103   0.718   0.844 -0.8096  0.9768 -1.4607
   90MPD2     C 1399   4.078   4.680   1.465  0.6671 -0.4672 -0.3675
   90MPD2    C1 1400   3.981   4.737   1.380  0.2002  0.7614 -0.5360
   90MPD2    C2 1401   4.024   0.099   1.296 -0.2180 -0.0529 -0.3602
   90MPD2    C3 1402   4.154   0.150   1.295  0.2100 -0.0438  0.8667
   90MPD2    C4 1403   4.247   0.098   1.383 -0.7784  0.0434  0.0837
   90MPD2    C5 1404   4.208   4.730   1.467  0.0717  0.2280  0.1619
   90MPD2     H 1405   3.945   0.138   1.233 -1.2782  1.7109  2.0830
   90MPD2    H1 1406   4.350   0.132   1.383 -1.5504  2.3627  0.2013
   90MPD2    H2 1407   4.061   4.593   1.526 -1.0048  0.1436  0.0323
   90MPD2    H3 1408   4.266   4.680   1.544 -1.0549  0.5568  1.2363
   90MPD2     N 1409   4.181   0.253   1.195  0.0274 -0.0880  0.1676
   90MPD2    H5 1410   4.096   0.291   1.153  1.0009  1.5887 -0.2664
   90MPD2    N1 1411   3.846   4.684   1.367 -0.1122  1.5842  0.6173
   90MPD2    H7 1412   3.786   0.001   1.308  0.3653 -0.0404 -1.4470
   91TMC2    C1 1413   0.837   0.263  16.186  0.1129  0.0446  0.1125
   91TMC2    C2 1414   0.893   0.254  16.315 -0.7587  0.3874  0.5678
   91TMC2    C3 1415   0.821   0.193  16.410  0.5506  0.0006 -0.0654
   91TMC2    C4 1416   0.725   0.192  16.150 -0.4143 -0.3501  0.3533
   91TMC2    C5 1417   0.657   0.124  16.251 -0.1204  0.0544  0.3539
   91TMC2    C6 1418   0.712   0.124  16.379  0.8353  1.1447 -0.1301
   91TMC2     C 1419   0.921   0.317  16.075 -0.4283  0.1843 -0.4622
   91TMC2     O 1420   0.867   0.379  15.987  0.2213 -0.3952  0.3080
   91TMC2     H 1421   0.985   0.304  16.343 -0.4922  1.1030 -1.5223
   91TMC2    H1 1422   0.694   0.187  16.046  1.9348 -1.0970 -0.3138
   91TMC2    H2 1423   0.663   0.075  16.462  0.8731  1.8979  0.3279
   91TMC2    C7 1424   0.598   4.735  16.221 -0.2421  0.1640 -0.2434
   91TMC2    C8 1425   0.854   0.201  16.546  0.1698 -0.6367  0.1603
   91TMC2    O1 1426   0.606   4.648  16.307 -0.0067 -0.2879 -0.4600
   91TMC2    O2 1427   0.776   0.185  16.634 -0.1323 -0.0381 -0.0597
   91TMC2    O5 1428   0.981   0.166  16.558  0.5317 -0.2709  0.4091
   91TMC2    H5 1429   1.025   0.163  16.470 -1.5412  1.5364 -0.6867
   92MPD2     C 1430   1.085   0.266  15.848  0.3400 -0.1391  0.4453
   92MPD2    C1 1431   1.136   0.282  15.980  0.1725  0.6620 -0.5385
   92MPD2    C2 1432   1.274   0.269  15.999 -0.4289 -0.5711 -0.1172
   92MPD2    C3 1433   1.356   0.268  15.887 -0.1895 -0.3582  0.7127
   92MPD2    C4 1434   1.301   0.241  15.763 -0.7193 -0.5889 -0.0873
   92MPD2    C5 1435   1.169   0.246  15.742 -0.0380  0.0958  0.5264
   92MPD2     H 1436   1.312   0.294  16.097  1.0830  2.6832 -1.5413
   92MPD2    H1 1437   1.367   0.230  15.678  0.8335  1.1028  0.8961
   92MPD2    H2 1438   0.980   0.260  15.820 -0.1600 -0.0832  2.3150
   92MPD2    H3 1439   1.128   0.243  15.641  0.9874 -1.3422  0.1646
   92MPD2     N 1440   1.495   0.275  15.907  0.2826 -0.5876  0.0423
   92MPD2    H5 1441   1.528   0.302  15.999  0.4219  0.3157 -0.2692
   92MPD2    N1 1442   1.055   0.299  16.090 -0.3846  0.2420  0.2929
   92MPD2    H7 1443   1.099   0.290  16.181  0.0302  0.8682  0.1545
   93TMC2    C1 1444   3.019   4.536  14.082 -0.0221  0.3466 -1.4386
   93TMC2    C2 1445   2.972   4.612  14.181  0.1487 -0.7365 -0.3904
   93TMC2    C3 1446   3.028   4.732  14.198 -0.2252  0.2022 -0.9856
   93TMC2    C4 1447   3.110   4.583  13.992  0.0504 -0.3044  0.1591
   93TMC2    C5 1448   3.154   4.711  14.003 -0.4384  0.7004  0.6099
   93TMC2    C6 1449   3.121   0.038  14.112 -0.2399  0.0223 -0.1257
   93TMC2     C 1450   2.943   4.415  14.045 -0.2432  0.0199 -0.7433
   93TMC2     O 1451   3.006   4.312  14.020  0.7024  0.1185 -0.0654
   93TMC2     H 1452   2.899   4.583  14.255 -2.8191  3.3825 -1.6624
   93TMC2    H1 1453   3.136   4.525  13.904 -0.0917  1.0026 -0.7315
   93TMC2    H2 1454   3.177   0.127  14.135  0.5236 -0.0200 -1.8241
   93TMC2    C7 1455   3.237   0.034  13.906 -0.0910 -0.2072  0.2899
   93TMC2    C8 1456   2.980   0.082  14.303 -0.2811  0.5258  0.0985
   93TMC2    O1 1457   3.313   4.699  13.841 -0.2461  0.0131  0.2822
   93TMC2    O2 1458   3.056   0.132  14.382 -0.3124  0.3779  0.7964
   93TMC2    O5 1459   2.841   0.086  14.302 -0.8459 -0.0032 -0.1925
   93TMC2    H5 1460   2.810   0.040  14.221  1.2944  0.9079 -1.5413
   94MPD2     C 1461   2.725   4.221  13.984 -0.2443  0.1795 -0.0731
   94MPD2    C1 1462   2.706   4.354  14.016  0.3581  0.0859 -0.1039
   94MPD2    C2 1463   2.583   4.415  13.983  0.7681 -0.5846  0.0933
   94MPD2    C3 1464   2.495   4.336  13.912 -0.7361 -0.3883 -0.9618
   94MPD2    C4 1465   2.518   4.206  13.874  0.4455 -0.3705  0.6748
   94MPD2    C5 1466   2.629   4.152  13.915  0.1804  0.2082 -0.0025
   94MPD2     H 1467   2.558   4.517  14.009  1.2035 -0.6973  0.9586
   94MPD2    H1 1468   2.455   4.149  13.807 -0.5879 -0.6975  1.9277
   94MPD2    H2 1469   2.814   4.166  14.012  0.3913  1.2906  0.0838
   94MPD2    H3 1470   2.633   4.047  13.891 -0.5035  0.4042 -0.9687
   94MPD2     N 1471   2.368   4.381  13.872  0.1334 -0.1089 -0.7761
   94MPD2    H5 1472   2.311   4.317  13.817 -1.3571  0.8341 -0.3335
   94MPD2    N1 1473   2.804   4.439  14.057  0.0181  0.4669 -0.1522
   94MPD2    H7 1474   2.775   4.536  14.062 -0.9976  0.1068  1.0041
   95TMC2    C1 1475   2.802   2.424  15.559 -0.1000 -0.4332 -0.2100
   95TMC2    C2 1476   2.844   2.503  15.664  0.0434  0.1888  0.2969
   95TMC2    C3 1477   2.861   2.639  15.644 -0.4359  0.1330 -0.6197
   95TMC2    C4 1478   2.772   2.478  15.441 -0.2832 -0.1848 -0.1175
   95TMC2    C5 1479   2.790   2.616  15.422 -0.0852 -0.2553 -0.5599
   95TMC2    C6 1480   2.839   2.701  15.524 -0.4053  0.3581  0.0871
   95TMC2     C 1481   2.888   2.314  15.554 -0.5888 -0.2220  0.1793
   95TMC2     O 1482   2.981   2.303  15.630 -0.1088 -0.3558  0.0566
   95TMC2     H 1483   2.876   2.459  15.758  0.2222 -0.8235 -0.2270
   95TMC2    H1 1484   2.724   2.422  15.362  2.1574 -0.9816 -1.0156
   95TMC2    H2 1485   2.874   2.802  15.508  0.3115  0.2530  1.0176
   95TMC2    C7 1486   2.742   2.679  15.297 -0.3084  0.1019  0.4593
   95TMC2    C8 1487   2.921   2.714  15.750  0.0313  0.3319  0.3588
   95TMC2    O1 1488   2.717   2.598  15.209 -0.3445 -0.2585 -0.3225
   95TMC2    O2 1489   2.984   2.665  15.845  0.4787 -0.2667  0.0501
   95TMC2    O5 1490   2.872   2.842  15.749  0.8160  0.5085  1.0159
   95TMC2    H5 1491   2.814   2.866  15.674  2.6295 -0.7358 -0.7809
   96MPD2     C 1492   3.020   1.868  15.356 -0.3241  1.0618  0.5681
   96MPD2    C1 1493   3.098   1.959  15.424 -0.4227  0.0257  0.1015
   96MPD2    C2 1494   3.035   2.076  15.464  0.4200 -0.2144 -0.4405
   96MPD2    C3 1495   2.901   2.099  15.437  0.3273  0.6059  0.7644
   96MPD2    C4 1496   2.827   2.003  15.366  0.0858 -0.5223  0.1039
   96MPD2    C5 1497   2.889   1.885  15.328 -0.3461  0.1309  0.0907
   96MPD2     H 1498   3.093   2.151  15.516  0.8080 -2.0992  1.8413
   96MPD2    H1 1499   2.722   2.016  15.341 -0.2568  1.4403  2.6093
   96MPD2    H2 1500   3.069   1.776  15.324 -1.5205  0.5454  0.2105
   96MPD2    H3 1501   2.834   1.819  15.262  0.3804  0.3303 -0.7049
   96MPD2     N 1502   2.841   2.223  15.465  0.1060 -0.1379 -0.3704
   96MPD2    H5 1503   2.758   2.244  15.409  0.3637  0.4508 -0.5299
   96MPD2    N1 1504   3.240   1.936  15.432 -0.2678  0.2708  0.3437
   96MPD2    H7 1505   3.284   1.855  15.390 -1.9381 -0.1569 -0.5964
   97TMC2    C1 1506   0.557   0.384  17.440  0.0874 -0.1714  1.0478
   97TMC2    C2 1507   0.416   0.377  17.440 -0.2574  0.9507 -0.1736
   97TMC2    C3 1508   0.347   0.499  17.449  0.0437  0.8832  0.5333
   97TMC2    C4 1509   0.622   0.506  17.452 -0.4534 -0.1577 -0.2150
   97TMC2    C5 1510   0.554   0.620  17.449  0.4326  0.3695  0.0501
   97TMC2    C6 1511   0.415   0.615  17.457  0.1772  0.1260 -0.1056
   97TMC2     C 1512   0.638   0.279  17.500 -0.2144  0.5024  0.3339
   97TMC2     O 1513   0.758   0.291  17.496  0.3560  0.4290 -0.4524
   97TMC2     H 1514   0.363   0.283  17.430  1.0574  0.0440  1.6326
   97TMC2    H1 1515   0.730   0.515  17.460 -0.0171 -0.6823 -5.4419
   97TMC2    H2 1516   0.354   0.703  17.472  1.3089  0.5555  1.9531
   97TMC2    C7 1517   0.619   0.739  17.504  0.3001  0.0619  0.4866
   97TMC2    C8 1518   0.203   0.505  17.421 -0.3654  0.4857 -0.4862
   97TMC2    O1 1519   0.713   0.710  17.581  0.6970  0.1610  0.1096
   97TMC2    O2 1520   0.141   0.601  17.376 -0.1503  0.4105 -0.5889
   97TMC2    O5 1521   0.144   0.401  17.483 -0.2356  0.1303 -1.0365
   97TMC2    H5 1522   0.205   0.356  17.545  0.5523  1.5724 -0.7972
   98MPD2     C 1523   0.683   4.609   0.038  0.3064 -0.2972 -0.0574
   98MPD2    C1 1524   0.549   4.636   0.024  0.1624 -0.4384 -0.1049
   98MPD2    C2 1525   0.513   4.738  17.703 -0.3704 -0.2654 -0.2927
   98MPD2    C3 1526   0.603   0.070  17.627  0.0506 -0.0021 -0.4249
   98MPD2    C4 1527   0.737   0.038  17.643 -0.6113  0.3713 -0.6071
   98MPD2    C5 1528   0.775   4.678  17.731 -0.0589 -0.0555  0.1154
   98MPD2     H 1529   0.406   0.019  17.701 -0.4234 -0.5325 -0.2216
   98MPD2    H1 1530   0.817   0.092  17.594 -0.6557  0.4501 -0.5936
   98MPD2    H2 1531   0.721   4.529   0.101 -2.5652 -2.1016 -0.6120
   98MPD2    H3 1532   0.877   4.642  17.740 -0.7885 -1.7423  1.5636
   98MPD2     N 1533   0.556   0.191  17.569 -0.5885 -0.3605 -0.4931
   98MPD2    H5 1534   0.457   0.211  17.582 -0.3442  0.6264 -0.1974
   98MPD2    N1 1535   0.459   4.562   0.107 -0.3363  0.4587 -0.6262
   98MPD2    H7 1536   0.501   4.495   0.171 -0.8226  1.8345  1.1480
   99TMC2    C1 1537   4.250   2.087   1.743  0.1013 -0.3700 -0.7924
   99TMC2    C2 1538   4.323   2.069   1.859  0.2839 -0.2972  0.3410
   99TMC2    C3 1539   4.256   2.044   1.972  0.6201 -0.3034  0.5875
   99TMC2    C4 1540   4.117   2.077   1.733  0.3867 -0.0030  0.5086
   99TMC2    C5 1541   4.057   2.070   1.854 -0.1237  0.1705  0.2237
   99TMC2    C6 1542   4.118   2.056   1.979 -0.1177  0.2303  0.2018
   99TMC2     C 1543   4.337   2.090   1.626  0.5456  0.0562  0.2536
   99TMC2     O 1544   4.452   2.135   1.643  0.3497  0.1627  0.2794
   99TMC2     H 1545   4.424   2.108   1.866 -1.0838  3.4829 -0.9779
   99TMC2    H1 1546   4.066   2.109   1.643  0.7189  1.3312  0.7911
   99TMC2    H2 1547   4.061   2.056   2.071 -0.2720  1.2183  0.1022
   99TMC2    C7 1548   3.911   2.056   1.868  0.1005 -0.2882 -0.4486
   99TMC2    C8 1549   4.320   2.041   2.098  0.4092  0.1482  0.5504
   99TMC2    O1 1550   3.857   2.097   1.966  0.1986 -0.1388 -0.6643
   99TMC2    O2 1551   4.274   2.067   2.208  0.1810  0.0029 -0.0752
   99TMC2    O5 1552   4.421   1.952   2.066 -0.0987  0.5390  0.4501
   99TMC2    H5 1553   4.416   1.923   1.972  1.1555  2.5851 -0.2356
  100MPD2     C 1554   4.475   2.009   1.373  0.3544  0.5820 -0.0738
  100MPD2    C1 1555   4.338   2.007   1.391 -0.4828  0.2809 -0.1898
  100MPD2    C2 1556   4.254   1.972   1.284  0.9350 -0.4848 -0.8718
  100MPD2    C3 1557   4.315   1.946   1.160  0.3315  0.1615  0.4066
  100MPD2    C4 1558   4.449   1.966   1.143  0.2856  0.3934  0.3169
  100MPD2    C5 1559   4.527   1.996   1.248 -0.4280  0.0359 -0.5185
  100MPD2     H 1560   4.147   1.959   1.293  1.1326 -1.0694  0.8427
  100MPD2    H1 1561   4.505   1.957   1.050  1.4128  3.0365  0.7159
  100MPD2    H2 1562   4.544   2.039   1.451 -1.6330  0.2185  1.8255
  100MPD2    H3 1563   4.633   2.004   1.227 -0.3191  0.1445  0.0735
  100MPD2     N 1564   4.231   1.925   1.046 -0.4790  0.2905 -0.2994
  100MPD2    H5 1565   4.133   1.923   1.070 -0.1709  0.0586  0.9282
  100MPD2    N1 1566   4.277   2.032   1.516  0.2929 -0.2061  0.4766
  100MPD2    H7 1567   4.178   2.008   1.521  0.1445  0.5836  1.3115
  101TMC2    C1 1568   4.617   3.273  12.670  0.3685  1.0733 -0.6271
  101TMC2    C2 1569   4.550   3.376  12.731 -0.3821  0.0085 -0.3267
  101TMC2    C3 1570   4.494   3.472  12.654 -0.1473  0.0514  0.1889
  101TMC2    C4 1571   4.662   3.290  12.542 -0.4067  0.2848 -0.6146
  101TMC2    C5 1572   4.626   3.402  12.477  0.3256 -1.3726 -0.9475
  101TMC2    C6 1573   4.533   3.494  12.526  1.0909  0.0072  0.5191
  101TMC2     C 1574   4.679   3.172  12.750 -0.5098  0.2518  0.2073
  101TMC2     O 1575   4.626   3.140  12.853  0.1795 -0.0471 -0.1238
  101TMC2     H 1576   4.504   3.361  12.828 -1.9897  0.0744 -1.0722
  101TMC2    H1 1577   4.726   3.216  12.494 -0.2539  0.2173 -0.3105
  101TMC2    H2 1578   4.482   3.576  12.477 -0.1955 -0.2663  1.3785
  101TMC2    C7 1579   4.675   3.433  12.343  0.6254 -0.5814 -0.0496
  101TMC2    C8 1580   4.427   3.580  12.726 -0.8037  0.3541  0.7085
  101TMC2    O1 1581   4.636   3.530  12.284  0.4506  0.2344  0.4774
  101TMC2    O2 1582   4.342   3.654  12.676 -0.7943 -0.1801 -0.1507
  101TMC2    O5 1583   4.537   3.623  12.795  0.0869  0.6308  0.3597
  101TMC2    H5 1584   4.609   3.556  12.799  1.2737  1.8502 -0.3422
  102MPD2     C 1585   0.273   3.054  12.760  0.2737 -0.1728  0.7055
  102MPD2    C1 1586   0.140   3.052  12.784  0.3940  0.1254 -0.9355
  102MPD2    C2 1587   0.093   2.943  12.865  0.4978  0.2405  1.3567
  102MPD2    C3 1588   0.183   2.847  12.921  0.5606 -0.1080 -1.0665
  102MPD2    C4 1589   0.316   2.858  12.892 -0.0098  0.5758 -0.1982
  102MPD2    C5 1590   0.360   2.953  12.811  0.4617 -0.0204  0.8217
  102MPD2     H 1591   4.729   2.939  12.893  0.2429 -0.3989  0.2977
  102MPD2    H1 1592   0.395   2.793  12.926 -0.7042  0.2054  0.7157
  102MPD2    H2 1593   0.314   3.129  12.694 -1.4449 -0.3507 -0.5785
  102MPD2    H3 1594   0.467   2.959  12.792  0.6025 -0.8354  1.3555
  102MPD2     N 1595   0.136   2.729  12.989  0.5235  0.1622 -0.1726
  102MPD2    H5 1596   0.041   2.697  12.975  0.6185  0.8573 -2.3422
  102MPD2    N1 1597   0.062   3.153  12.720 -0.8722 -0.2694 -0.6622
  102MPD2    H7 1598   0.107   3.222  12.660  2.1551 -1.8491 -0.2094
  103TMC2    C1 1599   3.059   2.382  12.818 -0.1489  0.1593 -0.1180
  103TMC2    C2 1600   3.178   2.397  12.763  0.2694 -0.3122 -0.3772
  103TMC2    C3 1601   3.268   2.482  12.814 -0.6860  0.1719  0.4762
  103TMC2    C4 1602   3.017   2.459  12.926 -0.0122 -0.3063  0.2094
  103TMC2    C5 1603   3.108   2.553  12.971  0.5552 -0.5430  0.1363
  103TMC2    C6 1604   3.235   2.569  12.919 -0.0335  0.4528 -0.0045
  103TMC2     C 1605   2.958   2.287  12.761  0.2754  0.1910 -0.1917
  103TMC2     O 1606   2.841   2.296  12.801  0.2508 -0.0163 -0.2895
  103TMC2     H 1607   3.195   2.350  12.667  0.5981 -0.0101 -0.4696
  103TMC2    H1 1608   2.913   2.452  12.957  0.0703 -2.5430 -0.0015
  103TMC2    H2 1609   3.307   2.631  12.971 -0.1928  0.3597  0.3279
  103TMC2    C7 1610   3.095   2.584  13.114  0.6513  0.1542 -0.0499
  103TMC2    C8 1611   3.376   2.525  12.727 -0.2970  0.2369  0.2914
  103TMC2    O1 1612   3.029   2.508  13.186  0.0928 -0.1007  0.6904
  103TMC2    O2 1613   3.431   2.447  12.659 -0.0378 -0.5653 -0.0894
  103TMC2    O5 1614   3.328   2.652  12.696 -0.5794  0.4950 -0.6654
  103TMC2    H5 1615   3.260   2.685  12.757 -1.8659 -3.1549 -0.0952
  104MPD2     C 1616   3.021   1.973  12.585 -1.1752  0.2119  0.2687
  104MPD2    C1 1617   2.949   2.088  12.620 -0.4332  0.5807  0.8541
  104MPD2    C2 1618   2.816   2.103  12.577 -0.3024 -0.2757 -0.0541
  104MPD2    C3 1619   2.760   2.001  12.496 -0.1292 -1.1241  0.0332
  104MPD2    C4 1620   2.828   1.880  12.481 -0.4772 -0.1322 -0.2603
  104MPD2    C5 1621   2.959   1.871  12.526 -0.5551  0.7205 -0.2940
  104MPD2     H 1622   2.753   2.189  12.595  0.3913  0.1118  0.5109
  104MPD2    H1 1623   2.772   1.805  12.426 -0.2272 -0.0153 -0.6755
  104MPD2    H2 1624   3.119   1.952  12.625 -2.1503 -1.3031  1.8039
  104MPD2    H3 1625   3.010   1.777  12.506  0.9940  1.3136  0.8593
  104MPD2     N 1626   2.635   2.035  12.439 -0.6533 -0.3994 -0.2207
  104MPD2    H5 1627   2.599   2.128  12.460  1.3612  0.2553  0.3003
  104MPD2    N1 1628   3.014   2.187  12.690 -0.1303  0.0411  0.7146
  104MPD2    H7 1629   3.114   2.173  12.688  0.1187  1.8010  0.6261
  105TMC2    C1 1630   3.764   2.193   0.157 -0.2442 -0.9818  0.3294
  105TMC2    C2 1631   3.852   2.300   0.168  0.3787 -0.4709 -0.0397
  105TMC2    C3 1632   3.829   2.397   0.264  0.4438  0.2349 -0.6524
  105TMC2    C4 1633   3.672   2.179   0.257  0.3372  0.2668  0.3621
  105TMC2    C5 1634   3.655   2.270   0.357 -0.2123 -0.4031  0.5443
  105TMC2    C6 1635   3.726   2.391   0.351 -0.8360 -0.2819 -0.3530
  105TMC2     C 1636   3.804   2.069   0.089 -0.2884 -0.6721 -0.2814
  105TMC2     O 1637   3.751   1.967   0.130  0.0710 -0.3945 -0.3794
  105TMC2     H 1638   3.939   2.312   0.104  0.1954  1.5282  0.1008
  105TMC2    H1 1639   3.600   2.098   0.255 -1.1050  1.5718 -0.2957
  105TMC2    H2 1640   3.725   2.456   0.438  1.4269 -0.0882 -0.4858
  105TMC2    C7 1641   3.525   2.299   0.415 -0.4996 -0.0002 -0.1206
  105TMC2    C8 1642   3.931   2.495   0.279  0.6311 -0.1112  0.3835
  105TMC2    O1 1643   3.427   2.302   0.338  0.0668  0.1161 -0.4858
  105TMC2    O2 1644   4.042   2.491   0.230  0.7719  0.3643  0.1022
  105TMC2    O5 1645   3.881   2.614   0.330 -0.0240  0.0808 -0.5580
  105TMC2    H5 1646   3.784   2.613   0.343  0.0302 -0.7625 -0.2137
  106MPD2     C 1647   4.146   1.842  17.530 -0.2672 -0.0790  0.2935
  106MPD2    C1 1648   4.147   1.978  17.514  0.0499 -0.6930  0.2570
  106MPD2    C2 1649   4.065   2.060  17.588  0.0232  0.5290 -0.4713
  106MPD2    C3 1650   3.983   2.009  17.682 -0.6176 -0.5191  0.9754
  106MPD2    C4 1651   3.991   1.875  17.706  0.7796  0.3635  0.1658
  106MPD2    C5 1652   4.071   1.789  17.634  0.8980  0.1000 -0.4950
  106MPD2     H 1653   4.065   2.163  17.555 -0.5616  1.1199  1.3737
  106MPD2    H1 1654   3.928   1.828   0.022  0.4575 -0.8033 -0.8386
  106MPD2    H2 1655   4.217   1.786  17.470  1.3907  0.9307  1.3301
  106MPD2    H3 1656   4.060   1.682  17.646 -2.1970  0.4436 -0.4275
  106MPD2     N 1657   3.907   2.098   0.001  0.6530 -0.0024  0.6425
  106MPD2    H5 1658   3.914   2.195  17.730 -0.3252  0.5192  2.1264
  106MPD2    N1 1659   4.220   2.034  17.410 -0.0239  0.0148 -0.0896
  106MPD2    H7 1660   4.216   2.135  17.413 -1.1085 -0.0908  2.6588
  107TMC2    C1 1661   0.315   1.071  11.428  0.0946  0.0698 -0.6946
  107TMC2    C2 1662   0.301   1.043  11.294  0.6223  0.7510  0.3792
  107TMC2    C3 1663   0.399   0.960  11.241 -0.1092 -0.2502 -0.0307
  107TMC2    C4 1664   0.420   1.033  11.503 -0.4698  0.3608  0.0461
  107TMC2    C5 1665   0.518   0.964  11.443 -0.0811  0.1485 -0.3887
  107TMC2    C6 1666   0.513   0.924  11.312  0.6545 -0.0447 -0.2532
  107TMC2     C 1667   0.200   1.112  11.503  0.4798  1.0515  0.8596
  107TMC2     O 1668   0.201   1.096  11.626 -0.0054 -0.3324 -0.2860
  107TMC2     H 1669   0.221   1.085  11.233  0.2974  1.0241  0.9977
  107TMC2    H1 1670   0.435   1.066  11.605  2.4001  0.7630 -0.5027
  107TMC2    H2 1671   0.594   0.872  11.260  0.7379 -0.4518  0.2813
  107TMC2    C7 1672   0.624   0.918  11.522 -0.6612 -0.8296 -0.1565
  107TMC2    C8 1673   0.402   0.937  11.102  0.5472 -0.2554  0.0384
  107TMC2    O1 1674   0.611   0.941  11.644 -0.6903  0.2199 -0.0564
  107TMC2    O2 1675   0.507   0.966  11.041  0.9959  0.0855 -0.1446
  107TMC2    O5 1676   0.267   0.945  11.066 -0.0578 -0.0116  0.5473
  107TMC2    H5 1677   0.205   0.914  11.135 -1.3580  2.1265  0.3126
  108MPD2     C 1678   4.638   1.267  11.369 -0.4774 -0.5392  0.3830
  108MPD2    C1 1679   4.722   1.231  11.468 -0.1006 -0.5000 -0.3740
  108MPD2    C2 1680   4.685   1.264  11.597 -0.2378 -0.5555 -0.3001
  108MPD2    C3 1681   4.564   1.325  11.628  0.4157  0.1365 -0.1965
  108MPD2    C4 1682   4.473   1.347  11.528 -0.4106  0.5632  0.7975
  108MPD2    C5 1683   4.511   1.312  11.401 -0.4023  0.7888  0.6673
  108MPD2     H 1684   0.021   1.252  11.673  0.9774 -3.1358 -1.9329
  108MPD2    H1 1685   4.370   1.380  11.543 -0.5107  0.7383 -0.2671
  108MPD2    H2 1686   4.676   1.254  11.269  0.9266  1.9607  0.6168
  108MPD2    H3 1687   4.446   1.341  11.319 -2.5160  1.3237  2.5276
  108MPD2     N 1688   4.526   1.368  11.755  0.4790 -0.3726  0.2558
  108MPD2    H5 1689   4.429   1.397  11.759  0.5807  0.0595 -0.5697
  108MPD2    N1 1690   0.100   1.177  11.421  0.4340  0.0779  0.2064
  108MPD2    H7 1691   0.117   1.179  11.321  0.5405 -2.0740  0.1713
  109TMC2    C1 1692   3.909   4.722   0.340  0.4493  0.4685  0.4469
  109TMC2    C2 1693   3.884   0.110   0.289 -0.5348 -0.8956 -0.1747
  109TMC2    C3 1694   3.992   0.190   0.285  0.6048 -0.5192 -0.3019
  109TMC2    C4 1695   4.024   4.676   0.393  0.4310  1.1914  0.6000
  109TMC2    C5 1696   4.121   0.032   0.394 -0.2336 -0.1428 -0.1158
  109TMC2    C6 1697   4.115   0.157   0.334  0.9480  0.1517 -0.7359
  109TMC2     C 1698   3.815   4.623   0.291  0.3308  0.6305  0.5251
  109TMC2     O 1699   3.728   4.662   0.213 -0.1716 -0.2795 -0.3726
  109TMC2     H 1700   3.784   0.141   0.263 -0.6186  0.0990  1.3640
  109TMC2    H1 1701   4.035   4.573   0.425 -5.2771  0.6396  0.7567
  109TMC2    H2 1702   4.203   0.220   0.324  0.7482  0.1240 -2.6919
  109TMC2    C7 1703   4.249   4.715   0.439  0.4868 -0.9448  0.2961
  109TMC2    C8 1704   3.987   0.304   0.203 -0.0518  1.1463 -0.3897
  109TMC2    O1 1705   4.342   0.027   0.391 -0.0453 -0.0534 -0.0077
  109TMC2    O2 1706   3.878   0.339   0.164  0.6015 -0.1492  0.1675
  109TMC2    O5 1707   4.089   0.275   0.120 -0.6396  0.3317 -0.4525
  109TMC2    H5 1708   4.176   0.262   0.164  0.1055  0.7938 -1.7858
  110MPD2     C 1709   3.650   4.136   0.251  0.3852  0.1009  0.2290
  110MPD2    C1 1710   3.721   4.155   0.370 -0.3225  0.0755  0.3839
  110MPD2    C2 1711   3.778   4.275   0.402  0.1260 -0.7731  0.5242
  110MPD2    C3 1712   3.755   4.381   0.316  0.8218  0.0173  0.4890
  110MPD2    C4 1713   3.681   4.367   0.204 -0.0471 -0.5234  0.2625
  110MPD2    C5 1714   3.636   4.240   0.170  0.0555 -0.6728 -0.8655
  110MPD2     H 1715   3.855   4.294   0.475  0.7828 -2.9952  0.4397
  110MPD2    H1 1716   3.672   4.447   0.131 -0.9476 -1.3648 -0.5455
  110MPD2    H2 1717   3.619   4.036   0.222  1.9282  0.6995 -3.5235
  110MPD2    H3 1718   3.588   4.228   0.074 -0.5669  4.1936 -1.1876
  110MPD2     N 1719   3.827   4.497   0.353 -0.2138 -0.0702 -0.2627
  110MPD2    H5 1720   3.890   4.476   0.430  1.4679  0.0187 -1.6074
  110MPD2    N1 1721   3.715   4.041   0.462  0.2177  0.1437 -0.5486
  110MPD2    H7 1722   3.651   3.966   0.434 -0.4168 -0.2495  1.9517
  111TMC2    C1 1723   0.285   2.361  11.281 -0.2000  0.6042  0.5376
  111TMC2    C2 1724   0.345   2.291  11.181 -0.0722  0.3626  0.2307
  111TMC2    C3 1725   0.483   2.272  11.202  0.3726  0.0896 -0.2655
  111TMC2    C4 1726   0.358   2.412  11.381  0.3516  0.4157  0.5793
  111TMC2    C5 1727   0.492   2.394  11.395  0.4713 -0.3096 -0.1838
  111TMC2    C6 1728   0.561   2.314  11.305 -0.2680 -0.7211  0.6080
  111TMC2     C 1729   0.183   2.448  11.226 -0.3123 -0.1960 -0.1137
  111TMC2     O 1730   0.186   2.445  11.104  0.1833  0.7622  0.1314
  111TMC2     H 1731   0.285   2.245  11.104 -1.2913 -2.0255  2.5857
  111TMC2    H1 1732   0.317   2.487  11.448 -1.3347  0.3624 -0.3937
  111TMC2    H2 1733   0.664   2.279  11.317  1.3891  3.7177 -0.7921
  111TMC2    C7 1734   0.564   2.481  11.483  0.1999 -0.2091  0.0910
  111TMC2    C8 1735   0.540   2.177  11.113  0.1007 -0.1100 -0.6552
  111TMC2    O1 1736   0.506   2.530  11.581  0.3973  0.6942  0.0064
  111TMC2    O2 1737   0.475   2.098  11.046  0.6877 -0.0791  0.0610
  111TMC2    O5 1738   0.658   2.227  11.080 -0.3720  0.3033  0.0498
  111TMC2    H5 1739   0.670   2.317  11.119 -0.4280  0.1566  0.4027
  112MPD2     C 1740   4.600   2.847  11.228  0.0775 -0.5380 -0.4318
  112MPD2    C1 1741   4.674   2.794  11.125  0.0892 -0.4822  0.3699
  112MPD2    C2 1742   0.016   2.680  11.151 -0.0855 -0.3967 -0.0547
  112MPD2    C3 1743   0.036   2.639  11.284  0.5888  0.3571  0.9559
  112MPD2    C4 1744   4.714   2.704  11.385 -0.4391  0.3915  0.0705
  112MPD2    C5 1745   4.630   2.813  11.362  0.3488 -0.5911  0.1041
  112MPD2     H 1746   0.082   2.649  11.072  0.0932 -2.0088  0.7323
  112MPD2    H1 1747   4.718   2.664  11.486  1.4808 -1.9753 -0.9342
  112MPD2    H2 1748   4.534   2.931  11.211  2.2824  1.6133  1.6040
  112MPD2    H3 1749   4.580   2.862  11.445  0.3923  1.0333 -0.8252
  112MPD2     N 1750   0.117   2.532  11.312  0.0308 -0.7740 -0.4994
  112MPD2    H5 1751   0.126   2.502  11.408  0.9819 -1.0839 -0.6808
  112MPD2    N1 1752   4.659   2.832  10.991  0.3898  0.3462 -0.0022
  112MPD2    H7 1753   4.710   2.782  10.919  0.5620  1.2532 -0.5100
  113TMC2    C1 1754   2.707   1.753   0.161 -0.3789  0.6202  0.3227
  113TMC2    C2 1755   2.633   1.862   0.123 -0.4368 -0.2683 -0.0027
  113TMC2    C3 1756   2.527   1.834   0.044 -0.1472 -0.2831  0.5167
  113TMC2    C4 1757   2.666   1.624   0.144  0.3623 -0.0110  0.1030
  113TMC2    C5 1758   2.546   1.608   0.078  0.0724  0.3766 -0.2471
  113TMC2    C6 1759   2.484   1.709   0.015  0.7771 -0.0060  0.2653
  113TMC2     C 1760   2.828   1.783   0.242  1.0525 -0.0287 -0.5202
  113TMC2     O 1761   2.834   1.897   0.273 -0.4604 -0.1899 -0.3487
  113TMC2     H 1762   2.669   1.964   0.124 -3.9024  0.9513  1.6696
  113TMC2    H1 1763   2.716   1.544   0.197  0.8781 -0.3043 -0.8203
  113TMC2    H2 1764   2.397   1.687  17.712 -0.0380  0.6197  1.1957
  113TMC2    C7 1765   2.472   1.482   0.090  0.2078 -0.0601  0.0620
  113TMC2    C8 1766   2.470   1.938  17.735  0.2024 -0.4519 -0.1615
  113TMC2    O1 1767   2.379   1.464   0.014 -0.0589 -0.2808 -0.4137
  113TMC2    O2 1768   2.478   2.052   0.016 -0.1109 -0.2957 -0.4445
  113TMC2    O5 1769   2.456   1.902  17.607  0.5368 -0.0607 -0.1184
  113TMC2    H5 1770   2.491   1.812  17.589 -0.3057 -0.0834 -1.7105
  114MPD2     C 1771   3.237   1.599   0.531  0.6233 -0.2410 -0.2646
  114MPD2    C1 1772   3.168   1.724   0.538  0.1974  0.1354 -0.6190
  114MPD2    C2 1773   3.067   1.749   0.450 -0.7141  0.0507 -0.4734
  114MPD2    C3 1774   3.023   1.653   0.354 -0.1096  0.2647  0.4778
  114MPD2    C4 1775   3.082   1.528   0.362 -0.1978 -0.4297 -0.2213
  114MPD2    C5 1776   3.186   1.495   0.449  0.7131  0.2375 -0.3457
  114MPD2     H 1777   3.002   1.836   0.460  2.9645  2.8275 -0.9115
  114MPD2    H1 1778   3.045   1.452   0.294 -1.0680 -0.7811  0.6440
  114MPD2    H2 1779   3.331   1.573   0.579  0.4474 -1.9158 -0.8104
  114MPD2    H3 1780   3.230   1.396   0.447  0.2779  0.0343  0.4393
  114MPD2     N 1781   2.901   1.667   0.274 -0.1395  0.7212 -0.0473
  114MPD2    H5 1782   2.880   1.594   0.207  1.3358  1.2011 -1.0366
  114MPD2    N1 1783   3.205   1.824   0.633 -0.4254 -0.1537  0.0764
  114MPD2    H7 1784   3.151   1.910   0.631  0.4156  0.3377 -1.5630
  115TMC2    C1 1785   3.832   4.302  17.242  0.3732  0.3453 -0.3793
  115TMC2    C2 1786   3.931   4.298  17.336 -0.1840 -0.0607  0.2316
  115TMC2    C3 1787   4.009   4.409  17.349  0.4991  0.5075  0.2327
  115TMC2    C4 1788   3.811   4.408  17.159  0.4161 -0.0580 -0.1558
  115TMC2    C5 1789   3.895   4.517  17.178 -0.0299 -0.4653 -0.7475
  115TMC2    C6 1790   3.997   4.512  17.273  0.4845  0.3575 -0.2306
  115TMC2     C 1791   3.734   4.198  17.221  0.0964 -0.1293  0.9492
  115TMC2     O 1792   3.771   4.087  17.264  0.1225  0.5619  0.3376
  115TMC2     H 1793   3.931   4.215  17.406  0.0928 -1.3687 -1.3301
  115TMC2    H1 1794   3.759   4.395  17.065  2.6945  0.0052 -1.4062
  115TMC2    H2 1795   4.046   4.606  17.297  0.0606  0.6013 -0.3278
  115TMC2    C7 1796   3.828   4.643  17.137  0.2133 -1.4251 -0.3000
  115TMC2    C8 1797   4.128   4.412  17.433  0.0779  0.1421  0.8470
  115TMC2    O1 1798   3.711   4.630  17.103 -0.2038  0.7357  0.2263
  115TMC2    O2 1799   4.221   4.487  17.401 -0.1059  0.4044 -0.4916
  115TMC2    O5 1800   4.139   4.285  17.473  0.3930  0.0753  0.3219
  115TMC2    H5 1801   4.052   4.242  17.488  1.3546 -1.9819 -0.0479
  116MPD2     C 1802   3.240   4.058  17.219  0.7515  0.5201 -0.2969
  116MPD2    C1 1803   3.352   3.982  17.201  0.5083 -0.0416  0.1770
  116MPD2    C2 1804   3.479   4.044  17.211  0.3087  0.4855  0.0258
  116MPD2    C3 1805   3.492   4.185  17.224  0.4589  0.1464 -0.0303
  116MPD2    C4 1806   3.369   4.259  17.238  0.1533 -0.3528  0.2833
  116MPD2    C5 1807   3.251   4.191  17.227 -0.0227 -0.3176 -0.2535
  116MPD2     H 1808   3.570   3.985  17.215  0.0982  0.1509 -0.1206
  116MPD2    H1 1809   3.363   4.367  17.251 -2.3212 -0.4699  0.0122
  116MPD2    H2 1810   3.141   4.015  17.204  0.1090  1.1273  2.2818
  116MPD2    H3 1811   3.155   4.242  17.234 -0.4199 -1.0679 -0.2131
  116MPD2     N 1812   3.610   4.255  17.226 -0.0848  0.4670 -0.3526
  116MPD2    H5 1813   3.612   4.356  17.230  1.8030  0.4307 -0.3493
  116MPD2    N1 1814   3.329   3.838  17.170 -0.2581  0.0589 -0.5632
  116MPD2    H7 1815   3.235   3.800  17.161  0.3293 -0.8548 -2.9949
  117TMC2    C1 1816   2.610   0.382  14.070  0.4113  0.2089 -0.5372
  117TMC2    C2 1817   2.745   0.343  14.073 -0.8667  0.3679  0.2500
  117TMC2    C3 1818   2.833   0.434  14.017 -0.2527 -0.3899  0.0907
  117TMC2    C4 1819   2.577   0.507  14.016 -0.6577 -0.5523  0.2470
  117TMC2    C5 1820   2.671   0.597  13.969 -0.3577  0.4250 -0.1574
  117TMC2    C6 1821   2.800   0.554  13.959  0.1822  0.4054  0.0760
  117TMC2     C 1822   2.509   0.287  14.116  0.3898 -0.0811  0.0009
  117TMC2     O 1823   2.536   0.173  14.142  0.0746 -0.0092 -0.1903
  117TMC2     H 1824   2.771   0.245  14.109 -1.2089  0.6030  1.1464
  117TMC2    H1 1825   2.474   0.532  13.991 -0.4928 -0.8811 -0.7651
  117TMC2    H2 1826   2.882   0.616  13.924 -1.1838  4.6787  4.3534
  117TMC2    C7 1827   2.643   0.735  13.940 -0.0882 -0.3872 -0.6663
  117TMC2    C8 1828   2.976   0.417  14.056 -0.1866  0.3724  0.0560
  117TMC2    O1 1829   2.737   0.809  13.910 -0.2299  0.1194 -0.2854
  117TMC2    O2 1830   3.028   0.310  14.045  0.4512 -0.0304 -0.0046
  117TMC2    O5 1831   3.019   0.523  14.126  0.7506 -0.3299  0.3967
  117TMC2    H5 1832   2.955   0.589  14.159 -0.8182 -0.7807 -1.7411
  118MPD2     C 1833   2.320   0.913  13.946  0.3763 -0.2540  0.3248
  118MPD2    C1 1834   2.459   0.903  13.957  1.0378 -0.0840 -0.9025
  118MPD2    C2 1835   2.534   1.018  13.995  0.2392  0.5314  0.0414
  118MPD2    C3 1836   2.480   1.141  14.016 -0.4991 -1.2238 -0.3320
  118MPD2    C4 1837   2.340   1.147  14.011 -0.3430  0.2637  0.1950
  118MPD2    C5 1838   2.264   1.033  13.976 -1.1097 -0.7118  0.3747
  118MPD2     H 1839   2.641   1.009  14.011  0.5138  2.6350 -0.6143
  118MPD2    H1 1840   2.280   1.231  14.047  0.7048  0.3452  1.7640
  118MPD2    H2 1841   2.259   0.827  13.920 -0.7261  0.5689  0.1963
  118MPD2    H3 1842   2.156   1.036  13.968 -0.8804  1.3328 -1.9900
  118MPD2     N 1843   2.558   1.260  14.027  0.1989 -0.0048 -0.0644
  118MPD2    H5 1844   2.504   1.346  14.019 -0.0273 -0.0754  0.6605
  118MPD2    N1 1845   2.513   0.770  13.944  0.0954 -0.1112  0.2335
  118MPD2    H7 1846   2.447   0.693  13.944  0.8581 -0.7652 -0.5941
  119TMC2    C1 1847   0.981   1.257  12.835  0.3414 -0.0315 -0.1566
  119TMC2    C2 1848   1.094   1.215  12.769  0.5585 -0.2105  0.3411
  119TMC2    C3 1849   1.083   1.105  12.695  0.4287 -0.0914  0.0919
  119TMC2    C4 1850   0.862   1.183  12.831  0.4687  0.4346  0.1509
  119TMC2    C5 1851   0.863   1.066  12.765 -0.7616  0.3131  0.8310
  119TMC2    C6 1852   0.969   1.033  12.686  0.6631  0.4599  0.6420
  119TMC2     C 1853   0.987   1.379  12.917  0.3233 -1.1454 -0.8169
  119TMC2     O 1854   0.881   1.438  12.937 -0.2935 -0.5295  0.5134
  119TMC2     H 1855   1.186   1.272  12.762 -0.0692  0.9225  1.3360
  119TMC2    H1 1856   0.775   1.221  12.884 -0.4418  0.6871 -1.5348
  119TMC2    H2 1857   0.964   0.934  12.641  1.5736  0.1427  1.2430
  119TMC2    C7 1858   0.739   0.991  12.764  0.0001 -0.8503 -0.4797
  119TMC2    C8 1859   1.178   1.094  12.587  0.0168  0.2017  0.8269
  119TMC2    O1 1860   0.723   0.907  12.682 -0.1162 -0.4425  0.4340
  119TMC2    O2 1861   1.230   1.193  12.539  0.3488 -0.1584 -0.1584
  119TMC2    O5 1862   1.245   0.978  12.621 -0.0376  0.0380  0.0354
  119TMC2    H5 1863   1.187   0.914  12.669 -1.4099  1.1543 -0.1334
  120MPD2     C 1864   1.241   1.707  13.212 -0.0393  0.0380 -0.2915
  120MPD2    C1 1865   1.109   1.700  13.177 -0.2174 -0.2739 -0.4152
  120MPD2    C2 1866   1.063   1.593  13.099  0.3771  0.0608 -0.0703
  120MPD2    C3 1867   1.147   1.500  13.056  0.2955  0.0791  0.1113
  120MPD2    C4 1868   1.271   1.498  13.110  0.5548 -0.1217 -0.3634
  120MPD2    C5 1869   1.322   1.608  13.177  0.2542 -1.5448  0.3751
  120MPD2     H 1870   0.960   1.593  13.066  0.1313  0.1212  0.7159
  120MPD2    H1 1871   1.344   1.422  13.083 -1.1515 -2.1944  0.8304
  120MPD2    H2 1872   1.280   1.786  13.276  0.4806 -1.0816  0.7723
  120MPD2    H3 1873   1.426   1.613  13.207  0.2650 -2.2366  0.4615
  120MPD2     N 1874   1.104   1.389  12.983 -0.0712 -0.8169  0.6291
  120MPD2    H5 1875   1.173   1.320  12.957 -1.5957 -1.2805 -2.2343
  120MPD2    N1 1876   1.029   1.796  13.233 -0.0043  0.0981  0.5221
  120MPD2    H7 1877   1.071   1.870  13.287  0.2690 -0.0016  0.4474
  121TMC2    C1 1878   1.832   3.651  14.200  0.3186  0.0564 -0.3753
  121TMC2    C2 1879   1.784   3.617  14.320 -0.3364 -0.2213  1.0756
  121TMC2    C3 1880   1.650   3.656  14.339  0.3048  0.3738  0.5683
  121TMC2    C4 1881   1.769   3.738  14.120 -0.0472  0.0782 -0.3712
  121TMC2    C5 1882   1.643   3.778  14.149  0.4348 -0.6064  0.0085
  121TMC2    C6 1883   1.575   3.739  14.258  0.2173  0.1374  0.3185
  121TMC2     C 1884   1.950   3.575  14.147  0.2263 -0.4572  0.1122
  121TMC2     O 1885   2.006   3.513  14.233  0.6890 -0.0621 -0.9271
  121TMC2     H 1886   1.830   3.539  14.380  1.3146 -1.0332 -1.2704
  121TMC2    H1 1887   1.828   3.777  14.038 -2.4532  1.3926 -1.4584
  121TMC2    H2 1888   1.475   3.778  14.276  0.5270  0.7929  0.6401
  121TMC2    C7 1889   1.572   3.818  14.033  0.7971  0.5588  0.3325
  121TMC2    C8 1890   1.610   3.625  14.475  0.6864 -0.2533  0.6447
  121TMC2    O1 1891   1.625   3.899  13.957  0.1373  0.4917 -0.4394
  121TMC2    O2 1892   1.684   3.629  14.570 -0.1229  0.1754 -0.5401
  121TMC2    O5 1893   1.474   3.614  14.481 -0.2495  0.2008  0.1526
  121TMC2    H5 1894   1.429   3.608  14.393  0.1469  0.9558 -0.1001
  122MPD2     C 1895   2.140   3.399  14.003  1.2280  0.2805  0.2017
  122MPD2    C1 1896   2.085   3.514  13.940 -0.5448 -0.2399 -0.7786
  122MPD2    C2 1897   2.129   3.542  13.815  0.2371 -0.0838 -0.1888
  122MPD2    C3 1898   2.229   3.466  13.749 -0.4157 -0.2991  0.6859
  122MPD2    C4 1899   2.275   3.352  13.809 -0.2199 -0.6053  0.2265
  122MPD2    C5 1900   2.238   3.325  13.936 -0.1180  0.2446  0.4524
  122MPD2     H 1901   2.093   3.636  13.774  4.3964  1.7513  0.3310
  122MPD2    H1 1902   2.361   3.305  13.763 -0.8860  1.7802 -3.5088
  122MPD2    H2 1903   2.101   3.359  14.096  1.1693  0.7282  0.3666
  122MPD2    H3 1904   2.279   3.237  13.985 -0.9295 -0.7929 -0.7025
  122MPD2     N 1905   2.287   3.503  13.624  0.7853  0.2054  0.2820
  122MPD2    H5 1906   2.368   3.450  13.595  1.1489  1.3129 -0.7162
  122MPD2    N1 1907   1.976   3.588  14.010 -0.4566  0.1196 -0.4227
  122MPD2    H7 1908   1.928   3.659  13.956  2.2617  0.3183 -2.6139
  123TMC2    C1 1909   0.996   2.295  10.328 -0.8380  0.0686  0.2039
  123TMC2    C2 1910   0.941   2.417  10.307  0.4725  0.3940  0.5582
  123TMC2    C3 1911   0.899   2.442  10.178 -0.6998 -0.3432 -0.3893
  123TMC2    C4 1912   1.020   2.209  10.219 -0.2907  0.0703 -0.6531
  123TMC2    C5 1913   0.973   2.237  10.091 -0.5007 -0.1553  0.1852
  123TMC2    C6 1914   0.903   2.359  10.071 -0.3062  0.6861  0.1917
  123TMC2     C 1915   0.980   2.230  10.455  0.4180 -0.6890 -0.4055
  123TMC2     O 1916   1.002   2.299  10.552 -0.6588  0.9415 -0.5557
  123TMC2     H 1917   0.921   2.475  10.396 -0.7012 -1.2045  1.3322
  123TMC2    H1 1918   1.067   2.114  10.240 -1.4199 -0.5526 -0.9537
  123TMC2    H2 1919   0.872   2.390   9.972  0.8706 -1.6943 -0.9235
  123TMC2    C7 1920   0.967   2.125   9.993  0.1211  0.1604  0.1022
  123TMC2    C8 1921   0.907   2.583  10.128  0.2646 -0.0884 -0.2945
  123TMC2    O1 1922   1.010   2.019  10.044 -0.6654 -0.5962 -0.0981
  123TMC2    O2 1923   0.948   2.615  10.015 -0.4424  0.3950 -0.2487
  123TMC2    O5 1924   0.880   2.673  10.226 -0.2551  0.0439  0.3004
  123TMC2    H5 1925   0.853   2.626  10.308 -1.9863  0.1733 -0.1994
  124MPD2     C 1926   0.738   1.857  10.722 -0.0913 -0.8671  0.3822
  124MPD2    C1 1927   0.780   1.811  10.596 -0.2296  0.1009 -0.5677
  124MPD2    C2 1928   0.842   1.895  10.509  0.2287 -0.1580 -0.5431
  124MPD2    C3 1929   0.871   2.022  10.537 -0.6213  0.0190 -0.1806
  124MPD2    C4 1930   0.844   2.065  10.669  0.4913 -0.3208 -0.8474
  124MPD2    C5 1931   0.775   1.984  10.754 -0.7258  0.2799  0.3608
  124MPD2     H 1932   0.885   1.859  10.416  1.8167 -0.8487  0.4572
  124MPD2    H1 1933   0.870   2.165  10.703  1.5578  0.1573 -3.0447
  124MPD2    H2 1934   0.671   1.800  10.785 -2.1853  2.2580  1.0113
  124MPD2    H3 1935   0.739   2.030  10.845  3.8310  0.9863  1.8554
  124MPD2     N 1936   0.935   2.102  10.439  0.2363  0.1038 -0.8221
  124MPD2    H5 1937   0.949   2.059  10.348 -3.8825  0.8503 -1.8328
  124MPD2    N1 1938   0.747   1.680  10.558 -0.4746 -0.7668 -0.7196
  124MPD2    H7 1939   0.699   1.625  10.629 -1.1024  0.9535  0.1720
  125TMC2    C1 1940   1.184   2.698   9.151  0.3666 -0.4553 -0.3605
  125TMC2    C2 1941   1.074   2.774   9.168  0.0844  0.6266 -0.1608
  125TMC2    C3 1942   1.052   2.880   9.088  0.6765  0.2719 -0.2757
  125TMC2    C4 1943   1.263   2.729   9.040 -0.2071 -0.0074 -0.0198
  125TMC2    C5 1944   1.233   2.832   8.959  0.1381 -0.0675 -0.3294
  125TMC2    C6 1945   1.135   2.918   8.991 -0.6545 -0.5483  0.1417
  125TMC2     C 1946   1.238   2.620   9.256  0.0204 -0.0478  0.2999
  125TMC2     O 1947   1.361   2.613   9.255 -0.1041 -0.3017  0.2671
  125TMC2     H 1948   1.006   2.758   9.251  0.3768 -0.3710 -0.1198
  125TMC2    H1 1949   1.344   2.660   9.020  0.1825 -0.2598  2.4365
  125TMC2    H2 1950   1.110   3.002   8.927  2.3369 -0.5760 -1.0659
  125TMC2    C7 1951   1.329   2.877   8.858 -0.4814 -0.1707  0.6919
  125TMC2    C8 1952   0.924   2.942   9.102  0.2996  0.4624 -1.0058
  125TMC2    O1 1953   1.403   2.791   8.815 -0.2166  0.0370 -0.2516
  125TMC2    O2 1954   0.828   2.893   9.171 -0.6767 -0.0852 -0.0860
  125TMC2    O5 1955   0.933   3.075   9.083 -0.3445 -0.4575  0.2925
  125TMC2    H5 1956   1.023   3.110   9.061 -1.0083  1.0118 -0.1243
  126MPD1     C 1957   1.191   2.417   9.727 -0.3980  0.5419  0.0601
  126MPD1    C1 1958   1.073   2.469   9.687 -0.2883 -0.5677  0.2678
  126MPD1    C2 1959   1.063   2.521   9.561 -0.2441 -0.2522 -0.3256
  126MPD1    C3 1960   1.172   2.522   9.474 -0.4931 -0.1894 -0.1567
  126MPD1    C4 1961   1.295   2.474   9.519  0.1037  0.2156 -0.4861
  126MPD1    C5 1962   1.301   2.421   9.645 -0.5287 -0.5219 -0.0125
  126MPD1     H 1963   0.967   2.560   9.529 -1.1954 -1.8432  0.6273
  126MPD1    H1 1964   1.378   2.466   9.451  1.4511 -0.7115  1.2562
  126MPD1    H2 1965   1.203   2.374   9.826  0.9150 -1.2238 -0.8558
  126MPD1    H3 1966   1.400   2.387   9.675  1.0943  1.7160 -2.7288
  126MPD1     N 1967   1.147   2.570   9.342 -0.8156 -0.1638  0.3673
  126MPD1    H5 1968   1.049   2.587   9.320 -0.5485  1.8395  0.7774
  126MPD1    N1 1969   0.962   2.469   9.766  0.0353  0.2677  0.0639
  126MPD1    H6 1970   0.979   2.523   9.850 -1.1418  0.3740  0.2412
  126MPD1    H7 1971   0.885   2.524   9.728 -0.0828  1.2206  1.6809
  127TMC2    C1 1972   2.081   2.148   9.580 -0.1444 -0.1981  0.7844
  127TMC2    C2 1973   2.156   2.114   9.691 -0.2713 -0.5711  0.5399
  127TMC2    C3 1974   2.081   2.085   9.801 -0.1116  0.8146  0.3185
  127TMC2    C4 1975   1.948   2.125   9.575  0.0339  0.1935  0.6056
  127TMC2    C5 1976   1.887   2.076   9.681 -0.3459 -0.0279  0.0243
  127TMC2    C6 1977   1.951   2.056   9.795  0.2452 -0.3427 -0.3847
  127TMC2     C 1978   2.140   2.240   9.481  0.2070  0.0461 -0.4841
  127TMC2     O 1979   2.239   2.295   9.513 -0.9816  0.7912 -0.2877
  127TMC2     H 1980   2.264   2.122   9.693 -0.3080  0.0371  0.1204
  127TMC2    H1 1981   1.889   2.170   9.496  3.2484  0.6717 -1.5072
  127TMC2    H2 1982   1.894   2.042   9.886  1.2525  0.6635  0.4069
  127TMC2    C7 1983   1.740   2.047   9.675  0.5999  0.3356  0.2193
  127TMC2    C8 1984   2.157   2.028   9.914 -0.7538 -0.5900  0.7661
  127TMC2    O1 1985   1.694   2.074   9.565  0.4548  0.1871  0.1866
  127TMC2    O2 1986   2.094   1.958   9.993  0.1642  0.0453 -0.2953
  127TMC2    O5 1987   2.264   2.104   9.943  0.7499 -0.4161  0.1031
  127TMC2    H5 1988   2.268   2.193   9.901  3.1002 -0.3566  0.4485
  128MPD2     C 1989   2.005   2.329   9.151  0.0388 -0.0558  0.5338
  128MPD2    C1 1990   2.095   2.340   9.255  0.3682 -0.8282 -0.7904
  128MPD2    C2 1991   2.186   2.448   9.255 -0.1076 -0.2397 -0.4254
  128MPD2    C3 1992   2.186   2.534   9.149 -1.0554 -0.1524  0.5867
  128MPD2    C4 1993   2.101   2.515   9.036  0.8526 -0.3308  0.2010
  128MPD2    C5 1994   2.011   2.410   9.044  0.6525  0.2984  0.1168
  128MPD2     H 1995   2.259   2.455   9.334 -2.4702  1.9749  1.5655
  128MPD2    H1 1996   2.094   2.587   8.956  2.4138 -0.4623 -0.0468
  128MPD2    H2 1997   1.932   2.249   9.157 -0.6498  0.5133 -0.3090
  128MPD2    H3 1998   1.946   2.396   8.959  0.9343 -0.4106  0.0204
  128MPD2     N 1999   2.288   2.636   9.156 -0.2410  0.0284  0.5606
  128MPD2    H5 2000   2.335   2.643   9.246  1.1795  3.3740 -0.4623
  128MPD2    N1 2001   2.074   2.250   9.364  0.4098 -0.2836 -0.3070
  128MPD2    H7 2002   1.998   2.183   9.355 -0.8377  1.0078  0.8136
  129TMC2    C1 2003   1.635   2.842   1.242  0.4356 -0.4779  0.2227
  129TMC2    C2 2004   1.605   2.973   1.275 -0.5001  0.9192  0.4568
  129TMC2    C3 2005   1.488   2.988   1.338 -0.2482  0.0452 -0.6930
  129TMC2    C4 2006   1.542   2.738   1.264  0.1856 -0.7241  0.5398
  129TMC2    C5 2007   1.426   2.764   1.322  0.1539 -0.1782 -0.8926
  129TMC2    C6 2008   1.400   2.885   1.365  0.1077  0.0806 -0.0489
  129TMC2     C 2009   1.755   2.803   1.171 -0.1856  0.0669 -0.2027
  129TMC2     O 2010   1.790   2.686   1.166  0.4197 -0.4262 -0.1049
  129TMC2     H 2011   1.662   3.065   1.270 -0.7827  0.9192 -3.1302
  129TMC2    H1 2012   1.570   2.635   1.242 -0.2332 -0.8008  0.3659
  129TMC2    H2 2013   1.308   2.913   1.413 -0.4626  0.2773 -1.2549
  129TMC2    C7 2014   1.328   2.658   1.348 -0.4432  0.0665 -0.4275
  129TMC2    C8 2015   1.416   3.115   1.344 -0.5284  0.5757  0.5871
  129TMC2    O1 2016   1.220   2.707   1.370  0.0471 -0.1556  0.8342
  129TMC2    O2 2017   1.452   3.204   1.268 -0.3155 -0.6953 -0.2496
  129TMC2    O5 2018   1.390   3.129   1.477 -0.4507  0.9015 -0.2011
  129TMC2    H5 2019   1.390   3.048   1.533  1.5291 -0.4715 -2.2090
  130MPD2     C 2020   2.053   2.818   1.080 -0.5895 -0.1071 -0.1642
  130MPD2    C1 2021   1.968   2.924   1.109 -0.3623  0.2216 -0.1244
  130MPD2    C2 2022   2.017   3.058   1.107  1.0050  0.1077  0.2222
  130MPD2    C3 2023   2.151   3.080   1.067  0.5083 -0.0476  0.5332
  130MPD2    C4 2024   2.234   2.969   1.057  0.1843  0.1534  0.3747
  130MPD2    C5 2025   2.184   2.844   1.062 -0.4079 -0.0783  0.1744
  130MPD2     H 2026   1.948   3.138   1.132 -0.5866 -1.4870  0.9824
  130MPD2    H1 2027   2.339   2.981   1.034 -0.0659  0.9569 -0.3579
  130MPD2    H2 2028   2.024   2.713   1.086  1.7956 -0.7870 -0.3183
  130MPD2    H3 2029   2.246   2.759   1.037 -0.8276 -0.2401 -0.3098
  130MPD2     N 2030   2.212   3.207   1.055  0.4323 -0.0142 -0.1446
  130MPD2    H5 2031   2.313   3.202   1.066  0.3503 -1.8315 -0.3379
  130MPD2    N1 2032   1.835   2.911   1.147 -0.0998 -0.3783  0.2785
  130MPD2    H7 2033   1.795   3.004   1.152 -0.7785 -0.7366  1.6126
  131TMC2    C1 2034   0.570   1.816   9.633 -0.0697 -0.4297  0.4775
  131TMC2    C2 2035   0.620   1.791   9.506 -0.2148  0.0976  0.5318
  131TMC2    C3 2036   0.655   1.899   9.432  0.3729 -0.2800  0.5661
  131TMC2    C4 2037   0.563   1.945   9.681  1.0408  0.1923 -0.0305
  131TMC2    C5 2038   0.594   2.048   9.596 -0.0131  0.0518  0.5738
  131TMC2    C6 2039   0.648   2.030   9.473  0.3860 -0.2681 -0.3223
  131TMC2     C 2040   0.571   1.706   9.728  0.0894 -1.0630  0.5040
  131TMC2     O 2041   0.579   1.737   9.849  0.1286 -0.2963 -0.2749
  131TMC2     H 2042   0.635   1.690   9.468 -0.2127  0.6768 -1.0101
  131TMC2    H1 2043   0.530   1.957   9.784  1.0576 -0.8141  0.0851
  131TMC2    H2 2044   0.662   2.110   9.401  0.5305 -0.2853 -0.3122
  131TMC2    C7 2045   0.593   2.193   9.636 -0.2481 -0.6126  0.1884
  131TMC2    C8 2046   0.681   1.862   9.295  0.3850 -0.5140  1.1062
  131TMC2    O1 2047   0.624   2.275   9.547  0.0421  0.5315 -0.5002
  131TMC2    O2 2048   0.730   1.756   9.265 -0.1528  0.4634 -0.0717
  131TMC2    O5 2049   0.623   1.948   9.216 -0.2838  0.0249 -0.1789
  131TMC2    H5 2050   0.575   2.019   9.263  1.4069  0.9727  0.1331
  132MPD2     C 2051   0.482   1.353   9.675  0.1407 -0.0174 -0.4720
  132MPD2    C1 2052   0.547   1.461   9.735 -0.6170 -0.6580  0.2056
  132MPD2    C2 2053   0.603   1.444   9.857 -0.2242  0.3246  0.2989
  132MPD2    C3 2054   0.574   1.337   9.936  0.8337  0.1923 -0.2925
  132MPD2    C4 2055   0.504   1.234   9.888  0.5185  0.2005 -0.4696
  132MPD2    C5 2056   0.469   1.239   9.752  0.3954 -0.0689  0.2536
  132MPD2     H 2057   0.645   1.534   9.901  2.0632 -0.2140 -0.7732
  132MPD2    H1 2058   0.499   1.143   9.947  0.0294  0.2486 -0.4360
  132MPD2    H2 2059   0.443   1.351   9.574 -1.4426  1.2530  0.0919
  132MPD2    H3 2060   0.410   1.159   9.708  1.0033  1.7132 -3.7584
  132MPD2     N 2061   0.625   1.342  10.066  0.0248  0.6304  0.4431
  132MPD2    H5 2062   0.685   1.420  10.089  1.4868 -0.7775  1.3683
  132MPD2    N1 2063   0.551   1.582   9.667 -0.4094 -0.1112  0.4388
  132MPD2    H7 2064   0.509   1.579   9.575 -0.0390 -0.6473  0.2818
  133TMC2    C1 2065   4.529   3.455   9.219 -0.0823  0.4482  0.0709
  133TMC2    C2 2066   4.655   3.435   9.177 -0.6552  0.0213 -0.1940
  133TMC2    C3 2067   4.733   3.543   9.150  0.5724  0.0163  0.2999
  133TMC2    C4 2068   4.483   3.576   9.255 -0.2525 -0.0786 -0.1066
  133TMC2    C5 2069   4.568   3.684   9.238 -0.1099  0.3261 -0.6809
  133TMC2    C6 2070   4.693   3.665   9.187  0.2333  0.4344  0.6883
  133TMC2     C 2071   4.440   3.350   9.184 -0.5682 -0.4858 -0.2346
  133TMC2     O 2072   4.486   3.237   9.173 -0.3160 -0.3479  1.1076
  133TMC2     H 2073   4.689   3.338   9.144  2.4475  0.7186  0.9649
  133TMC2    H1 2074   4.387   3.586   9.304  0.0996 -1.0263  0.7939
  133TMC2    H2 2075   0.024   3.746   9.185 -0.4863  1.0209 -1.2375
  133TMC2    C7 2076   4.542   3.811   9.306 -0.0853 -0.3427 -1.0153
  133TMC2    C8 2077   0.108   3.517   9.074 -0.5234  0.5197 -0.6032
  133TMC2    O1 2078   4.454   3.809   9.390 -0.5382  0.3142  0.6103
  133TMC2    O2 2079   0.165   3.407   9.076  0.5988  0.0690 -0.3704
  133TMC2    O5 2080   0.130   3.618   8.985  0.4149 -0.8820  0.0261
  133TMC2    H5 2081   0.064   3.691   8.982  1.9350  0.5330  0.4658
  134MPD2     C 2082   4.074   3.379   9.137  0.0810  0.2153 -0.0104
  134MPD2    C1 2083   4.196   3.312   9.153 -0.0274  0.2438 -0.1424
  134MPD2    C2 2084   4.209   3.179   9.166 -1.0323 -0.5517 -0.0081
  134MPD2    C3 2085   4.091   3.103   9.153 -0.0790  0.0362  0.4480
  134MPD2    C4 2086   3.970   3.162   9.123 -0.9232  0.8549  0.4800
  134MPD2    C5 2087   3.958   3.298   9.132 -0.8034 -0.9604  0.0151
  134MPD2     H 2088   4.303   3.124   9.171 -0.4240  0.4678 -0.1360
  134MPD2    H1 2089   3.882   3.102   9.101 -0.8447  0.2779  1.7496
  134MPD2    H2 2090   4.071   3.487   9.138 -1.8829  0.1752 -0.7581
  134MPD2    H3 2091   3.860   3.342   9.115  1.2864  3.4210 -0.7282
  134MPD2     N 2092   4.083   2.960   9.150  0.0367  0.7489  0.0822
  134MPD2    H5 2093   3.992   2.919   9.135 -0.0555  1.6403 -1.7918
  134MPD2    N1 2094   4.311   3.393   9.159 -0.1893 -0.3312  1.0142
  134MPD2    H7 2095   4.297   3.491   9.137 -1.7857 -0.8926 -0.5136
  135TMC2    C1 2096   1.754   3.275   9.784 -0.6435 -0.8396  0.4465
  135TMC2    C2 2097   1.764   3.174   9.867  0.4267 -0.5236  0.2878
  135TMC2    C3 2098   1.705   3.186   9.992  0.5705  0.2623  0.2033
  135TMC2    C4 2099   1.697   3.394   9.827  0.0624 -0.1524  0.0665
  135TMC2    C5 2100   1.639   3.401   9.953 -0.5463 -0.1593 -0.2427
  135TMC2    C6 2101   1.636   3.295  10.037  0.0182 -0.3703 -0.4009
  135TMC2     C 2102   1.854   3.283   9.681  0.0649 -0.0530 -0.3360
  135TMC2     O 2103   1.962   3.226   9.696  0.1717 -0.2381 -0.1307
  135TMC2     H 2104   1.810   3.080   9.837 -2.9850 -2.2490  0.5211
  135TMC2    H1 2105   1.692   3.485   9.767 -0.9121 -0.7511 -0.7739
  135TMC2    H2 2106   1.608   3.312  10.140 -0.5986 -0.6563 -0.5189
  135TMC2    C7 2107   1.563   3.526   9.986 -0.1993 -0.3123  0.0802
  135TMC2    C8 2108   1.718   3.083  10.086 -0.0890  0.0430  0.1710
  135TMC2    O1 2109   1.583   3.622   9.919  0.1669  0.4474 -0.3033
  135TMC2    O2 2110   1.812   3.007  10.097  0.3563  0.8138 -0.3919
  135TMC2    O5 2111   1.599   3.074  10.151  0.0335 -0.3500 -0.2921
  135TMC2    H5 2112   1.524   3.125  10.113  0.4304 -1.4359 -2.4797
  136MPD2     C 2113   1.816   3.493   9.381 -0.3258 -0.5308  0.1864
  136MPD2    C1 2114   1.882   3.409   9.468 -0.1234  0.1231  0.1276
  136MPD2    C2 2115   2.018   3.388   9.446 -0.0086  1.3236  0.3114
  136MPD2    C3 2116   2.090   3.468   9.357  1.1325 -0.0984  0.3754
  136MPD2    C4 2117   2.026   3.561   9.280 -0.1424 -0.2490  0.1524
  136MPD2    C5 2118   1.889   3.559   9.291 -0.2235  0.8067  0.0619
  136MPD2     H 2119   2.062   3.332   9.528 -1.0853 -0.9153 -0.6552
  136MPD2    H1 2120   2.069   3.638   9.216 -0.3289 -1.3804 -1.3375
  136MPD2    H2 2121   1.713   3.514   9.407  0.3478  2.6663  0.2454
  136MPD2    H3 2122   1.826   3.624   9.232  0.5752  1.2629 -0.2855
  136MPD2     N 2123   2.234   3.459   9.338  0.1540 -0.2094 -0.4703
  136MPD2    H5 2124   2.277   3.535   9.285  1.4085  0.3723  1.3773
  136MPD2    N1 2125   1.806   3.366   9.578 -0.2843  0.2572 -0.1457
  136MPD2    H7 2126   1.709   3.397   9.588 -0.0668  1.4092 -1.6638
  137TMC2    C1 2127   1.858   2.945   9.539  0.1873 -0.4656 -0.0534
  137TMC2    C2 2128   1.986   2.982   9.493  0.1104  0.5352  0.2545
  137TMC2    C3 2129   1.994   3.044   9.373 -0.4083 -0.4027  1.2670
  137TMC2    C4 2130   1.745   2.994   9.477 -0.5454  0.2768  0.4971
  137TMC2    C5 2131   1.757   3.057   9.360  0.4434  0.0499 -0.3554
  137TMC2    C6 2132   1.885   3.082   9.305  0.4661  0.0547  0.5085
  137TMC2     C 2133   1.843   2.865   9.661 -0.0628  0.2918  0.4697
  137TMC2     O 2134   1.946   2.847   9.728 -0.2414  0.3087 -0.5091
  137TMC2     H 2135   2.075   2.944   9.543  1.5840  1.5170 -1.6089
  137TMC2    H1 2136   1.654   3.003   9.535 -1.8300  0.5947 -1.5526
  137TMC2    H2 2137   1.889   3.099   9.198  1.5754 -0.6659  0.4422
  137TMC2    C7 2138   1.652   3.131   9.300 -0.1182  0.2018  0.6390
  137TMC2    C8 2139   2.123   3.057   9.305 -0.4728  0.4775 -0.2667
  137TMC2    O1 2140   1.680   3.220   9.226 -0.0240  0.1205 -0.3614
  137TMC2    O2 2141   2.142   3.134   9.211 -0.2655 -0.7358 -0.9565
  137TMC2    O5 2142   2.197   2.944   9.340 -0.9643 -0.2294  0.3826
  137TMC2    H5 2143   2.137   2.877   9.380 -0.6606 -0.5824  0.2438
  138MPD2     C 2144   1.564   2.659   9.760  0.0497 -0.2531 -0.1146
  138MPD2    C1 2145   1.671   2.740   9.779  0.3286 -0.0217  0.2637
  138MPD2    C2 2146   1.726   2.760   9.908  0.3301 -0.1990 -0.1717
  138MPD2    C3 2147   1.672   2.695  10.018  0.9543  0.3016  0.2194
  138MPD2    C4 2148   1.576   2.607   9.988  0.3935  0.8631  0.5594
  138MPD2    C5 2149   1.518   2.590   9.865  0.6757  0.2122  0.3328
  138MPD2     H 2150   1.819   2.809   9.932  0.4443 -0.1750 -0.6636
  138MPD2    H1 2151   1.534   2.540  10.063  0.2185 -0.9226 -1.1230
  138MPD2    H2 2152   1.521   2.639   9.663  3.1894 -3.4275 -0.8865
  138MPD2    H3 2153   1.444   2.514   9.842 -0.8011  1.0321  2.2772
  138MPD2     N 2154   1.714   2.719  10.146  0.0089 -0.3369  0.2891
  138MPD2    H5 2155   1.777   2.798  10.153 -1.4449  0.9752 -1.4061
  138MPD2    N1 2156   1.725   2.799   9.665  0.0697  0.7833  0.4017
  138MPD2    H7 2157   1.670   2.790   9.580 -0.2009 -0.1935  0.6816
  139TMC2    C1 2158   2.072   1.521  13.416  0.3447  0.7206 -1.4069
  139TMC2    C2 2159   2.179   1.603  13.374  0.2844 -0.1441  0.2488
  139TMC2    C3 2160   2.155   1.730  13.331 -0.6635 -0.0153  0.2042
  139TMC2    C4 2161   1.943   1.574  13.409  0.2182  0.1403  0.3015
  139TMC2    C5 2162   1.920   1.703  13.366  0.2456  0.5140 -0.6920
  139TMC2    C6 2163   2.022   1.780  13.325 -0.0614  0.5057 -0.2762
  139TMC2     C 2164   2.107   1.409  13.506 -0.0013 -0.1674  0.2394
  139TMC2     O 2165   2.230   1.386  13.506  0.2403  0.0237 -0.0342
  139TMC2     H 2166   2.281   1.575  13.401  0.6947  0.6287 -0.5209
  139TMC2    H1 2167   1.861   1.508  13.436  0.6483  0.3658  2.1786
  139TMC2    H2 2168   2.009   1.887  13.310  2.9193  0.7172 -1.3894
  139TMC2    C7 2169   1.794   1.777  13.373  0.5706  0.1140 -0.2551
  139TMC2    C8 2170   2.258   1.809  13.264  0.2441  0.1858  0.2102
  139TMC2    O1 2171   1.792   1.876  13.300  0.6074 -0.4579 -0.9143
  139TMC2    O2 2172   2.227   1.896  13.183  0.2299  0.0298  0.3275
  139TMC2    O5 2173   2.378   1.779  13.307  0.0553  0.2222 -0.5283
  139TMC2    H5 2174   2.388   1.717  13.383 -0.0087  1.3418  0.3991
  140MPD2     C 2175   1.911   1.127  13.651 -0.8796 -0.8089 -0.5825
  140MPD2    C1 2176   2.019   1.198  13.601  0.1849 -0.5565 -0.1418
  140MPD2    C2 2177   2.141   1.129  13.606  0.1339 -0.3735 -0.4832
  140MPD2    C3 2178   2.167   1.003  13.650  0.2624 -0.4664  0.4745
  140MPD2    C4 2179   2.059   0.942  13.710  0.0980 -0.5547  0.6919
  140MPD2    C5 2180   1.934   1.009  13.717  0.2793 -0.7871 -0.5527
  140MPD2     H 2181   2.224   1.174  13.552  0.4515 -0.1169  0.2122
  140MPD2    H1 2182   2.069   0.853  13.772 -0.8132 -0.3450  1.1445
  140MPD2    H2 2183   1.812   1.170  13.648 -0.6560 -0.3623 -1.5839
  140MPD2    H3 2184   1.850   0.962  13.768 -0.5086 -0.1008 -1.2208
  140MPD2     N 2185   2.290   0.947  13.627 -0.1725  0.1432 -0.1796
  140MPD2    H5 2186   2.365   0.997  13.580  0.6351 -0.0690  0.8706
  140MPD2    N1 2187   2.006   1.334  13.551  0.7037 -0.1085 -0.1718
  140MPD2    H7 2188   1.909   1.365  13.547  0.6899 -0.2483 -0.8711
  141TMC2    C1 2189   2.077   3.129  14.250  0.5624  0.3587  0.1877
  141TMC2    C2 2190   1.947   3.134  14.203  0.2423 -0.1342 -0.8456
  141TMC2    C3 2191   1.857   3.199  14.282  0.0748 -0.9823 -0.1954
  141TMC2    C4 2192   2.112   3.184  14.369 -0.0470  0.2979 -0.0376
  141TMC2    C5 2193   2.019   3.253  14.446  0.1060  0.2289 -0.0213
  141TMC2    C6 2194   1.891   3.263  14.398 -0.2276  0.4850  0.5946
  141TMC2     C 2195   2.176   3.055  14.177 -0.3423 -0.4826 -0.0239
  141TMC2     O 2196   2.299   3.085  14.183  0.0356 -0.3632 -0.3286
  141TMC2     H 2197   1.917   3.090  14.109 -3.0717  0.0259  0.1205
  141TMC2    H1 2198   2.214   3.161  14.398  0.0061 -0.7376 -1.0155
  141TMC2    H2 2199   1.814   3.301  14.464 -1.0032 -2.1930  1.2544
  141TMC2    C7 2200   2.050   3.311  14.579 -0.1177 -0.6568 -0.2275
  141TMC2    C8 2201   1.730   3.232  14.229 -0.2050 -0.8012  0.2508
  141TMC2    O1 2202   1.962   3.364  14.644  0.3454  0.0181  0.4412
  141TMC2    O2 2203   1.649   3.303  14.289 -0.6046 -0.6144 -0.2654
  141TMC2    O5 2204   1.746   3.243  14.093  0.0133  0.2127 -0.0015
  141TMC2    H5 2205   1.832   3.218  14.054 -0.6397 -0.0439 -1.2850
  142TMC2    C1 2206   0.882   1.268   9.686 -0.0600 -0.4685 -0.1198
  142TMC2    C2 2207   0.887   1.239   9.555  0.7847  0.0699 -0.3311
  142TMC2    C3 2208   0.901   1.352   9.473  0.1082  0.4618  0.8887
  142TMC2    C4 2209   0.914   1.395   9.737  0.3636  0.5834 -0.3263
  142TMC2    C5 2210   0.922   1.500   9.646  0.3830  0.5731 -0.0632
  142TMC2    C6 2211   0.912   1.481   9.508  0.1546 -0.0850 -0.8671
  142TMC2     C 2212   0.838   1.165   9.782 -0.6531 -0.2978  0.1442
  142TMC2     O 2213   0.778   1.069   9.735  0.1978  0.4020  0.0822
  142TMC2     H 2214   0.856   1.147   9.509  1.7620  0.6060 -2.0652
  142TMC2    H1 2215   0.917   1.424   9.841  1.6014 -1.7989  0.3177
  142TMC2    H2 2216   0.943   1.554   9.434 -2.3423  0.0109 -1.8086
  142TMC2    C7 2217   0.939   1.632   9.704 -0.5699 -0.8218  0.4129
  142TMC2    C8 2218   0.909   1.341   9.333  0.2435 -1.2053 -0.8909
  142TMC2    O1 2219   0.936   1.648   9.827  0.2694 -0.4648  0.2214
  142TMC2    O2 2220   0.858   1.426   9.264  0.3497  0.0690 -0.0077
  142TMC2    O5 2221   0.922   1.212   9.299 -0.3044  0.0002 -0.3551
  142TMC2    H5 2222   0.986   1.162   9.355 -0.4666 -0.7058 -0.7996
  143MPD2     C 2223   0.823   0.939  10.238  0.0008  0.7058 -0.5181
  143MPD2    C1 2224   0.734   0.927  10.135  0.1912  0.0886  0.0722
  143MPD2    C2 2225   0.751   1.005  10.018 -0.6090 -0.1919  0.2351
  143MPD2    C3 2226   0.849   1.102  10.021 -0.0962 -0.1282 -0.0664
  143MPD2    C4 2227   0.932   1.111  10.132 -0.5233 -0.0956  0.4567
  143MPD2    C5 2228   0.926   1.018  10.235  1.1882  0.1184  0.2201
  143MPD2     H 2229   0.690   0.992   9.930 -1.0702 -0.1917  0.5552
  143MPD2    H1 2230   1.009   1.186  10.125  0.8731 -1.8387 -2.9284
  143MPD2    H2 2231   0.818   0.882  10.330 -2.6257  0.2333 -0.9627
  143MPD2    H3 2232   0.995   1.029  10.318  1.4796  1.2729 -0.1703
  143MPD2     N 2233   0.891   1.179   9.908  0.4045  0.2946 -0.3368
  143MPD2    H5 2234   0.969   1.241   9.928  2.1138 -1.8234 -0.5545
  143MPD2    N1 2235   0.612   0.844  10.146  0.1954 -0.8104  0.8763
  143MPD2    H7 2236   0.592   0.799  10.235  0.6911  0.2948  1.5489
  144TMC2    C1 2237   3.524   0.767   0.510 -1.1472 -0.2166  0.5085
  144TMC2    C2 2238   3.591   0.648   0.505  0.3220 -0.3513  0.6815
  144TMC2    C3 2239   3.722   0.641   0.542  0.3433  0.2551  0.2129
  144TMC2    C4 2240   3.593   0.882   0.559 -0.0249 -0.1497 -0.7503
  144TMC2    C5 2241   3.717   0.860   0.606 -0.2817 -0.1274  0.1570
  144TMC2    C6 2242   3.782   0.746   0.602  0.1744  0.4760 -0.1324
  144TMC2     C 2243   3.373   0.759   0.508 -0.0821 -0.7351  0.6396
  144TMC2     O 2244   3.326   0.657   0.473 -0.1313  0.2429  0.1050
  144TMC2     H 2245   3.545   0.560   0.462  1.7341 -0.1389 -1.2968
  144TMC2    H1 2246   3.545   0.979   0.554  1.2455  0.6866  3.6747
  144TMC2    H2 2247   3.879   0.733   0.647  0.3209  0.1694 -0.5333
  144TMC2    C7 2248   3.803   0.966   0.656  0.2240 -0.1948 -0.1158
  144TMC2    C8 2249   3.784   0.509   0.548  0.1543 -0.2227  0.3366
  144TMC2    O1 2250   3.922   0.945   0.666  0.3599 -0.1835  0.0218
  144TMC2    O2 2251   3.719   0.406   0.560  0.1297  0.1046 -0.2095
  144TMC2    O5 2252   3.911   0.528   0.497 -0.9988 -0.1104 -0.6084
  144TMC2    H5 2253   3.923   0.624   0.485  0.4639 -0.4162 -1.6143
  145MPD2     C 2254   2.888   0.921   0.512  0.1821  0.4049  1.1797
  145MPD2    C1 2255   2.937   0.791   0.508 -0.5623  0.6174  0.1895
  145MPD2    C2 2256   3.073   0.772   0.522  0.1791 -0.4137 -0.3305
  145MPD2    C3 2257   3.162   0.884   0.521 -0.1446 -0.4474  0.6203
  145MPD2    C4 2258   3.108   1.008   0.521  0.3123 -0.2462 -1.1361
  145MPD2    C5 2259   2.973   1.031   0.520  0.7387 -0.2732  0.4414
  145MPD2     H 2260   3.109   0.670   0.530  0.3263 -0.3868 -0.6769
  145MPD2    H1 2261   3.172   1.096   0.522 -0.6356  0.4158  1.9510
  145MPD2    H2 2262   2.781   0.935   0.514 -0.0119 -0.8972 -0.1064
  145MPD2    H3 2263   2.936   1.131   0.537  1.1592 -0.4357  2.2488
  145MPD2     N 2264   3.302   0.877   0.519  0.3688  0.5011 -0.0562
  145MPD2    H5 2265   3.357   0.962   0.520  0.3670  0.4838  2.5840
  145MPD2    N1 2266   2.864   0.667   0.479 -0.5248 -0.6076  0.2991
  145MPD2    H7 2267   2.907   0.575   0.486  0.7439 -0.1267 -1.4736
  146TMC2    C1 2268   4.378   4.619  12.705 -0.4458 -0.4965  0.5469
  146TMC2    C2 2269   4.319   4.738  12.677 -0.2238  0.5465  0.1524
  146TMC2    C3 2270   4.294   0.031  12.546 -0.2946  0.1716  0.1698
  146TMC2    C4 2271   4.441   4.540  12.608 -0.4181 -0.0512  0.2178
  146TMC2    C5 2272   4.438   4.590  12.480 -0.1047  0.3932  0.2585
  146TMC2    C6 2273   4.358   4.701  12.448 -1.0885  0.5780 -0.4166
  146TMC2     C 2274   4.351   4.561  12.840  0.2554 -0.0996  0.0175
  146TMC2     O 2275   4.283   4.632  12.910  0.8120  0.2432  0.2265
  146TMC2     H 2276   4.267   0.058  12.751 -1.2782 -0.4361  0.2132
  146TMC2    H1 2277   4.477   4.441  12.629 -0.5225  0.2816  1.9254
  146TMC2    H2 2278   4.329   4.713  12.344  1.1187 -1.8646 -1.3301
  146TMC2    C7 2279   4.489   4.511  12.370  0.1320 -0.6835 -1.1075
  146TMC2    C8 2280   4.212   0.144  12.523  0.6785  0.2291  0.2510
  146TMC2    O1 2281   4.474   4.553  12.252 -0.4259  0.0107 -0.2546
  146TMC2    O2 2282   4.194   0.229  12.608 -0.0785  0.3437  0.2759
  146TMC2    O5 2283   4.116   0.099  12.438  0.4947  0.3075 -0.1363
  146TMC2    H5 2284   4.141   0.009  12.408  0.7426  0.8276 -1.4717
  147MPD2     C 2285   4.650   4.054  12.185  0.0615  0.4102 -0.6675
  147MPD2    C1 2286   4.682   4.060  12.317 -1.5066  0.3241 -0.0598
  147MPD2    C2 2287   4.647   4.174  12.388 -0.3612  0.1369  0.6788
  147MPD2    C3 2288   4.589   4.280  12.326  0.0535 -0.8113  0.6627
  147MPD2    C4 2289   4.567   4.278  12.190  0.1023  0.2145 -0.0519
  147MPD2    C5 2290   4.594   4.159  12.124 -0.1924  0.6526  0.0791
  147MPD2     H 2291   4.667   4.180  12.494  2.5377 -2.4965  0.2775
  147MPD2    H1 2292   4.527   4.363  12.137 -1.7508 -0.2535  0.5807
  147MPD2    H2 2293   4.659   3.966  12.121 -0.9445 -0.1225 -0.0847
  147MPD2    H3 2294   4.566   4.157  12.019 -2.2614  0.2345  0.6467
  147MPD2     N 2295   4.552   4.390  12.403 -0.3697 -0.0021  0.4770
  147MPD2    H5 2296   4.564   4.380  12.503  0.6600 -0.6132  0.2976
  147MPD2    N1 2297   0.005   3.945  12.380 -0.2335 -0.3084 -0.1005
  147MPD2    H7 2298   0.046   3.876  12.318 -2.7669 -0.2280 -1.8471
  148TMC2    C1 2299   0.252   2.268  10.561 -0.0268 -0.0626  0.2841
  148TMC2    C2 2300   0.343   2.357  10.613 -0.7057  0.6884 -0.1267
  148TMC2    C3 2301   0.457   2.294  10.666 -0.8817 -0.4807 -0.2615
  148TMC2    C4 2302   0.256   2.130  10.585 -0.2458 -0.0171 -0.2716
  148TMC2    C5 2303   0.364   2.081  10.653 -0.2459 -0.1651 -0.5051
  148TMC2    C6 2304   0.472   2.158  10.681 -0.2492 -0.2146  0.2471
  148TMC2     C 2305   0.168   2.317  10.459  0.8529 -0.4059  0.4061
  148TMC2     O 2306   0.190   2.434  10.432  0.3620 -0.1578 -0.0616
  148TMC2     H 2307   0.335   2.465  10.600 -0.8599  0.4612 -2.0045
  148TMC2    H1 2308   0.185   2.061  10.540  0.5662  0.1364 -1.8198
  148TMC2    H2 2309   0.548   2.113  10.743 -1.6355 -2.6612  0.1770
  148TMC2    C7 2310   0.414   1.970  10.578  0.6295 -0.1817  0.4964
  148TMC2    C8 2311   0.583   2.375  10.650  0.1276 -0.6392  0.5392
  148TMC2    O1 2312   0.342   1.874  10.558  0.4936 -0.3225 -0.3271
  148TMC2    O2 2313   0.657   2.358  10.554 -0.1123 -0.2106 -0.3336
  148TMC2    O5 2314   0.551   2.493  10.695 -0.5625  0.3250  0.1309
  148TMC2    H5 2315   0.498   2.497  10.777  0.7672  2.8235  0.8881
  149MPD2     C 2316   4.704   2.392  10.262  1.0670  0.2606  0.4280
  149MPD2    C1 2317   4.709   2.268  10.322 -0.2993  0.7247  0.0457
  149MPD2    C2 2318   4.628   2.170  10.268 -1.0224 -0.1397  0.2424
  149MPD2    C3 2319   4.527   2.197  10.173 -0.2090  0.0997 -0.4675
  149MPD2    C4 2320   4.522   2.325  10.122  0.0463 -0.8122  0.4376
  149MPD2    C5 2321   4.619   2.412  10.166  0.1849  0.1828  0.3325
  149MPD2     H 2322   4.631   2.067  10.301  1.4918  0.6588  2.5519
  149MPD2    H1 2323   4.457   2.352  10.039  0.5204  0.5399  0.5026
  149MPD2    H2 2324   0.032   2.473  10.287  0.8743  0.0038  1.7924
  149MPD2    H3 2325   4.613   2.506  10.112 -0.0667 -1.0656 -1.7972
  149MPD2     N 2326   4.442   2.104  10.112 -0.6591  0.6696  0.0302
  149MPD2    H5 2327   4.371   2.154  10.059 -2.8637 -0.9840  1.4187
  149MPD2    N1 2328   0.074   2.230  10.411  0.2960 -0.4455 -0.1950
  149MPD2    H7 2329   0.070   2.130  10.430 -1.4316 -0.6020 -1.4301
  150TMC2    C1 2330   1.775   1.837  12.475  0.8792 -0.2189  0.2369
  150TMC2    C2 2331   1.764   1.724  12.396 -0.1915 -0.2144  0.6728
  150TMC2    C3 2332   1.876   1.646  12.396 -0.1625 -0.0759  0.0667
  150TMC2    C4 2333   1.891   1.885  12.521  1.1739  0.0973  0.6372
  150TMC2    C5 2334   2.000   1.800  12.517  0.0819 -0.4794  0.3038
  150TMC2    C6 2335   1.994   1.680  12.453 -0.5613  0.5097  0.2145
  150TMC2     C 2336   1.653   1.906  12.522 -0.0433  0.2691  0.6535
  150TMC2     O 2337   1.658   1.989  12.609 -0.0542  0.0108 -0.0815
  150TMC2     H 2338   1.674   1.676  12.361  0.3457 -2.1114  1.9117
  150TMC2    H1 2339   1.887   1.981  12.572  1.4271  1.3035 -1.6263
  150TMC2    H2 2340   2.079   1.615  12.433 -1.2808 -0.3475 -0.0431
  150TMC2    C7 2341   2.124   1.843  12.590 -0.5144  0.6243 -0.2825
  150TMC2    C8 2342   1.880   1.515  12.334  0.4731 -0.6316 -0.0380
  150TMC2    O1 2343   2.121   1.963  12.604 -0.0106  0.4604  0.2432
  150TMC2    O2 2344   1.801   1.471  12.250  0.1753 -0.1683 -0.1299
  150TMC2    O5 2345   1.960   1.431  12.403  0.3035  0.4059  0.1025
  150TMC2    H5 2346   2.005   1.474  12.479  0.2016 -1.7671  1.4265
  151MPD2     C 2347   1.144   1.903  12.503 -0.5640  0.6558  0.1479
  151MPD2    C1 2348   1.185   1.844  12.388 -0.9025  0.0640 -0.3478
  151MPD2    C2 2349   1.320   1.838  12.373  0.1779  0.6617  0.7362
  151MPD2    C3 2350   1.414   1.898  12.456  0.4895  0.2818  1.0156
  151MPD2    C4 2351   1.364   1.980  12.562  0.7568  0.0027  0.0609
  151MPD2    C5 2352   1.229   1.975  12.584  0.1666 -0.2384 -0.2136
  151MPD2     H 2353   1.363   1.780  12.292  1.9550  2.1942  0.5914
  151MPD2    H1 2354   1.430   2.032  12.631 -0.0388 -1.6436  2.0659
  151MPD2    H2 2355   1.041   1.901  12.535 -1.5912 -0.6338 -3.1638
  151MPD2    H3 2356   1.181   2.032  12.663  1.2639  1.3196 -0.6602
  151MPD2     N 2357   1.551   1.868  12.433 -0.1252  0.1254  0.2098
  151MPD2    H5 2358   1.565   1.828  12.340 -3.6472 -0.9271  0.1567
  151MPD2    N1 2359   1.087   1.788  12.304  0.4692 -0.0504  0.8562
  151MPD2    H7 2360   0.993   1.780  12.340 -1.1186 -1.2459 -3.4895
  152TMC2    C1 2361   1.788   1.860  12.937  0.8290  0.2894 -0.3467
  152TMC2    C2 2362   1.838   1.731  12.916  0.1370  0.1783 -0.8620
  152TMC2    C3 2363   1.975   1.724  12.925 -0.0300  0.3115 -0.4465
  152TMC2    C4 2364   1.860   1.977  12.963  0.1591  0.6004  0.0463
  152TMC2    C5 2365   1.992   1.958  12.966  0.3475  0.4990 -0.2749
  152TMC2    C6 2366   2.054   1.834  12.949 -0.7465 -0.7553 -0.4063
  152TMC2     C 2367   1.647   1.886  12.896  0.0654 -0.2692  0.3807
  152TMC2     O 2368   1.586   1.983  12.946  1.0860 -0.6541 -0.1439
  152TMC2     H 2369   1.779   1.640  12.915 -1.1735  1.0208  0.0621
  152TMC2    H1 2370   1.806   2.071  12.965 -0.3192  0.3144  1.0950
  152TMC2    H2 2371   2.161   1.828  12.930 -0.6730 -0.3366 -0.1257
  152TMC2    C7 2372   2.067   2.081  12.940 -0.1114 -0.3313  0.7020
  152TMC2    C8 2373   2.043   1.589  12.931 -0.9300  0.3614  0.1386
  152TMC2    O1 2374   2.010   2.166  12.876 -0.3225  0.4232  0.5391
  152TMC2    O2 2375   2.158   1.579  12.897  0.2431  0.9371  0.4183
  152TMC2    O5 2376   1.966   1.485  12.969 -0.6269  0.0256  0.0297
  152TMC2    H5 2377   1.877   1.505  13.004 -1.3084 -1.0274 -1.1032
  153MPD2     C 2378   1.430   1.610  12.760 -0.6803 -0.2231  0.9999
  153MPD2    C1 2379   1.457   1.731  12.823  0.0188 -0.6928 -0.2488
  153MPD2    C2 2380   1.353   1.808  12.862  0.7377  0.1213  0.6897
  153MPD2    C3 2381   1.223   1.767  12.844 -0.1557  0.4038 -0.3667
  153MPD2    C4 2382   1.192   1.647  12.779 -0.4421 -0.0226  0.1508
  153MPD2    C5 2383   1.300   1.575  12.740 -0.0901  0.4335 -0.2468
  153MPD2     H 2384   1.362   1.908  12.903  2.1625 -0.4327  1.7039
  153MPD2    H1 2385   1.095   1.602  12.766 -0.0950  0.2088 -3.2830
  153MPD2    H2 2386   1.509   1.542  12.729 -0.9854 -0.6031  1.0476
  153MPD2    H3 2387   1.288   1.478  12.693 -0.7691  1.2164 -1.6783
  153MPD2     N 2388   1.124   1.869  12.880  0.4248  0.1413 -0.0478
  153MPD2    H5 2389   1.157   1.957  12.916  1.3845  0.2013 -1.0885
  153MPD2    N1 2390   1.591   1.770  12.845 -0.2141  0.3840 -0.1002
  153MPD2    H7 2391   1.661   1.705  12.809  0.3539  0.6945  0.4428
  154TMC2    C1 2392   3.282   1.716   0.044 -0.0980  1.1726 -0.3196
  154TMC2    C2 2393   3.352   1.714   0.156 -0.4868 -0.1806 -0.0068
  154TMC2    C3 2394   3.487   1.710   0.138 -0.3680 -0.6386  0.3399
  154TMC2    C4 2395   3.346   1.710  17.677 -0.6898 -0.5509 -0.3866
  154TMC2    C5 2396   3.478   1.724  17.666 -0.9272 -0.5359 -0.7547
  154TMC2    C6 2397   3.551   1.712   0.018 -0.1500  0.2720 -0.0007
  154TMC2     C 2398   3.150   1.778   0.051 -0.3307 -0.0161  0.8228
  154TMC2     O 2399   3.151   1.870   0.131 -0.3282  0.3669 -0.4820
  154TMC2     H 2400   3.297   1.723   0.249 -1.3174 -2.9476 -0.2110
  154TMC2    H1 2401   3.293   1.703  17.583  1.0198  3.1705 -1.6330
  154TMC2    H2 2402   3.659   1.714   0.016 -0.1976  0.3339 -2.4959
  154TMC2    C7 2403   3.525   1.652  17.549  0.2990 -0.1632 -0.5947
  154TMC2    C8 2404   3.567   1.695   0.264  0.1927  0.0730 -0.1918
  154TMC2    O1 2405   3.457   1.577  17.486 -0.1859 -0.3147 -0.0759
  154TMC2    O2 2406   3.530   1.737   0.369  0.5819  0.1874  0.0010
  154TMC2    O5 2407   3.627   1.573   0.247 -0.2212 -0.1000 -0.1878
  154TMC2    H5 2408   3.616   1.537   0.157 -0.0689 -0.7093  0.0350
  155MPD2     C 2409   2.924   1.854  17.522  0.7600 -0.3134 -0.7191
  155MPD2    C1 2410   2.971   1.865  17.650 -0.8894  0.0326 -0.8443
  155MPD2    C2 2411   2.931   1.982  17.719 -0.2531  0.7060 -0.4330
  155MPD2    C3 2412   2.837   2.075  17.672  0.3511 -0.3196 -0.9202
  155MPD2    C4 2413   2.778   2.048  17.548  0.0723 -0.6010  0.4645
  155MPD2    C5 2414   2.823   1.940  17.474  0.0844  0.5914  0.1350
  155MPD2     H 2415   2.975   2.006   0.057 -1.7990 -0.6895  0.6203
  155MPD2    H1 2416   2.703   2.109  17.500 -0.2111  0.9515  2.8598
  155MPD2    H2 2417   2.965   1.776  17.460 -1.4350 -0.0667 -2.4743
  155MPD2    H3 2418   2.802   1.937  17.368 -0.3084 -1.7287  0.2829
  155MPD2     N 2419   2.787   2.181  17.752 -0.0467 -0.2057  0.0041
  155MPD2    H5 2420   2.818   2.178   0.090 -1.3067  1.7598  0.4677
  155MPD2    N1 2421   3.081   1.775  17.686 -0.6152 -0.0790 -0.3302
  155MPD2    H7 2422   3.097   1.700  17.620 -1.0071  0.4753 -1.0634
  156TMC2    C1 2423   2.000   3.498  11.298  0.5026 -0.0717 -0.4059
  156TMC2    C2 2424   1.989   3.359  11.305 -0.7045 -0.4709  0.2502
  156TMC2    C3 2425   1.899   3.301  11.220  0.1059  0.1145  0.6141
  156TMC2    C4 2426   1.925   3.569  11.201 -0.4435 -0.6288 -0.9834
  156TMC2    C5 2427   1.840   3.506  11.112  0.4281 -0.1660  0.3686
  156TMC2    C6 2428   1.816   3.372  11.132  0.3534  0.7309 -0.5342
  156TMC2     C 2429   2.044   3.577  11.406  0.1119  0.5572  0.1157
  156TMC2     O 2430   1.990   3.689  11.423 -0.3239  0.1282  0.2517
  156TMC2     H 2431   2.056   3.298  11.365 -2.2662 -0.9941  1.4781
  156TMC2    H1 2432   1.954   3.673  11.195 -2.8669  0.0750 -0.2368
  156TMC2    H2 2433   1.742   3.316  11.076  0.7735 -0.4951  0.1367
  156TMC2    C7 2434   1.739   3.578  11.035  0.5695 -0.0368 -0.0271
  156TMC2    C8 2435   1.884   3.153  11.228  0.3363 -0.6025  0.2229
  156TMC2    O1 2436   1.641   3.528  10.987  0.3186  0.3274 -0.2027
  156TMC2    O2 2437   1.841   3.084  11.138 -0.2121 -1.1008 -0.1122
  156TMC2    O5 2438   1.862   3.128  11.360  0.4968 -0.0576 -0.2597
  156TMC2    H5 2439   1.888   3.190  11.432 -0.7426  0.8925 -0.6383
  157MPD2     C 2440   2.302   3.486  11.654  0.4027 -0.6346  0.2339
  157MPD2    C1 2441   2.201   3.558  11.599 -0.5571 -0.3465 -0.3519
  157MPD2    C2 2442   2.155   3.668  11.675 -0.1169 -0.4521  0.8954
  157MPD2    C3 2443   2.225   3.708  11.788 -0.2632  0.2114 -0.4499
  157MPD2    C4 2444   2.349   3.657  11.815  0.2898  0.0463  0.0239
  157MPD2    C5 2445   2.382   3.536  11.754 -0.0754 -0.2244  0.1471
  157MPD2     H 2446   2.065   3.721  11.644 -0.2012 -0.7613  0.6045
  157MPD2    H1 2447   2.415   3.679  11.898  2.1232 -2.1909 -0.8447
  157MPD2    H2 2448   2.340   3.402  11.595  0.7792  0.4135 -1.0089
  157MPD2    H3 2449   2.476   3.491  11.782  0.4303  1.8248  1.7231
  157MPD2     N 2450   2.179   3.822  11.857 -0.6544 -0.2672 -0.6141
  157MPD2    H5 2451   2.097   3.864  11.813  1.1275  3.6031 -0.2237
  157MPD2    N1 2452   2.133   3.510  11.483 -0.2126 -0.0492  0.5666
  157MPD2    H7 2453   2.163   3.421  11.443  1.8031  1.6204 -1.6124
  158TMC2    C1 2454   2.403   2.614  12.957  0.0441  0.0150 -0.2770
  158TMC2    C2 2455   2.432   2.643  12.829 -0.5638 -0.4097 -0.3753
  158TMC2    C3 2456   2.357   2.738  12.759 -0.2348  0.1536  0.3657
  158TMC2    C4 2457   2.300   2.680  13.014 -0.3446  0.0374 -0.5847
  158TMC2    C5 2458   2.229   2.774  12.945  0.1392  1.2587  0.1049
  158TMC2    C6 2459   2.260   2.805  12.817 -0.0937  0.6503 -0.1932
  158TMC2     C 2460   2.525   2.576  13.033  0.8338 -0.0920  0.3941
  158TMC2     O 2461   2.635   2.606  12.987  0.7159 -1.0126 -0.8079
  158TMC2     H 2462   2.520   2.608  12.775  0.4907  0.6468  0.6646
  158TMC2    H1 2463   2.298   2.675  13.122  1.6789 -0.6986 -0.5845
  158TMC2    H2 2464   2.217   2.896  12.777  0.9486  0.8430 -0.8734
  158TMC2    C7 2465   2.143   2.856  13.030  0.6105  0.8899 -0.0581
  158TMC2    C8 2466   2.436   2.823  12.668 -0.3788  0.7725  0.2918
  158TMC2    O1 2467   2.115   2.969  12.985  0.0597  0.1161 -0.1591
  158TMC2    O2 2468   2.375   2.902  12.598 -0.5537  0.0244 -0.1323
  158TMC2    O5 2469   2.542   2.851  12.754  0.4298 -0.4848  0.4463
  158TMC2    H5 2470   2.587   2.774  12.795  3.5653  1.4749  0.6896
  159MPD2     C 2471   2.723   2.436  13.475  0.7603  0.0189  0.0289
  159MPD2    C1 2472   2.590   2.403  13.484  0.7630 -0.2893  0.0499
  159MPD2    C2 2473   2.510   2.434  13.377  0.4425  0.7678 -0.6850
  159MPD2    C3 2474   2.570   2.493  13.261 -0.0074 -0.1244 -0.3266
  159MPD2    C4 2475   2.705   2.513  13.251 -0.2616  0.3430  0.0247
  159MPD2    C5 2476   2.781   2.491  13.361 -0.2332  0.0186  0.3167
  159MPD2     H 2477   2.402   2.432  13.381  0.4575 -0.9648 -1.1572
  159MPD2    H1 2478   2.765   2.546  13.167 -0.3523  0.1777 -0.1062
  159MPD2    H2 2479   2.782   2.427  13.565 -0.4517  0.6083  0.8852
  159MPD2    H3 2480   2.887   2.515  13.365 -0.0759 -0.3422 -1.6355
  159MPD2     N 2481   2.483   2.517  13.150  0.0009 -0.8618 -0.7120
  159MPD2    H5 2482   2.382   2.509  13.155 -0.1436  0.0388 -2.3740
  159MPD2    N1 2483   2.541   2.363  13.610 -0.0968 -0.2008  0.1504
  159MPD2    H7 2484   2.604   2.356  13.690  0.2636  2.2730  0.0705
  160TMC2    C1 2485   1.935   1.288   1.196 -0.0624  0.4346  0.0843
  160TMC2    C2 2486   1.908   1.160   1.234  0.2861  0.7251  0.1960
  160TMC2    C3 2487   1.956   1.065   1.151  0.0681 -0.1403 -0.9580
  160TMC2    C4 2488   2.016   1.327   1.096  0.0531 -0.0121  0.1833
  160TMC2    C5 2489   2.074   1.229   1.023  0.6771  0.0322  0.1260
  160TMC2    C6 2490   2.036   1.097   1.041  0.1335 -0.4537 -0.3321
  160TMC2     C 2491   1.863   1.390   1.264  0.2483  0.6140  0.0444
  160TMC2     O 2492   1.839   1.372   1.383  0.4955 -0.3602  0.0375
  160TMC2     H 2493   1.836   1.142   1.314  0.3910  1.5842  0.4825
  160TMC2    H1 2494   2.035   1.431   1.073  0.8056 -0.1876  0.0176
  160TMC2    H2 2495   2.066   1.019   0.972  1.4138  0.5736 -0.9253
  160TMC2    C7 2496   2.138   1.257   0.900  0.8958  0.0130 -0.1085
  160TMC2    C8 2497   1.922   0.923   1.160 -0.3358 -0.4782  0.3397
  160TMC2    O1 2498   2.127   1.181   0.807  0.3063 -0.1864 -0.4968
  160TMC2    O2 2499   1.991   0.841   1.103  0.0627 -0.8289 -0.7796
  160TMC2    O5 2500   1.791   0.911   1.188  0.0477 -0.4441 -0.0970
  160TMC2    H5 2501   1.739   0.992   1.201  0.1516 -0.2309 -1.0208
  161MPD2     C 2502   1.718   1.637   1.352 -0.3647  0.1043 -0.1468
  161MPD2    C1 2503   1.729   1.599   1.220 -0.2109  0.4310  0.0155
  161MPD2    C2 2504   1.667   1.676   1.124  0.6019  0.3676 -0.1522
  161MPD2    C3 2505   1.594   1.784   1.159 -0.8126  0.0032  0.6975
  161MPD2    C4 2506   1.584   1.821   1.294 -0.0767  0.2344 -0.2856
  161MPD2    C5 2507   1.649   1.751   1.390 -0.2832 -0.1763  0.6629
  161MPD2     H 2508   1.679   1.635   1.025 -0.4810  2.1849 -1.0313
  161MPD2    H1 2509   1.529   1.910   1.324  1.5127  0.6667  1.3429
  161MPD2    H2 2510   1.779   1.592   1.429  0.5452 -1.6154 -1.8746
  161MPD2    H3 2511   1.636   1.772   1.495 -3.0241  0.4835  0.1884
  161MPD2     N 2512   1.530   1.862   1.066  0.0494  0.2265  0.0523
  161MPD2    H5 2513   1.476   1.939   1.106 -1.0872  0.2126 -1.4571
  161MPD2    N1 2514   1.804   1.482   1.176 -0.1710 -0.3466 -0.2741
  161MPD2    H7 2515   1.817   1.466   1.077  2.4902 -0.8063  0.1376
  162TMC2    C1 2516   0.148   3.331   1.056  0.5642  0.4602  0.7431
  162TMC2    C2 2517   0.074   3.411   1.139 -0.5809 -0.0145  0.2596
  162TMC2    C3 2518   0.144   3.464   1.244  0.3022  0.1613 -0.1424
  162TMC2    C4 2519   0.286   3.306   1.077 -0.2817  0.1249  0.2007
  162TMC2    C5 2520   0.345   3.366   1.187  0.5215 -0.4433  0.3502
  162TMC2    C6 2521   0.278   3.439   1.275  0.0758 -0.1802 -1.1881
  162TMC2     C 2522   0.092   3.279   0.925  0.0003  0.1862  0.2873
  162TMC2     O 2523   0.176   3.241   0.844  0.1651  0.2792  0.7641
  162TMC2     H 2524   4.707   3.424   1.135 -0.7311 -0.4306  3.3321
  162TMC2    H1 2525   0.344   3.253   1.003 -3.6207  0.3989 -2.6242
  162TMC2    H2 2526   0.327   3.483   1.360 -3.4539  1.5887 -0.0679
  162TMC2    C7 2527   0.469   3.310   1.236  0.0221 -0.5368  0.1881
  162TMC2    C8 2528   0.068   3.556   1.324  0.2389  0.6571 -0.4155
  162TMC2    O1 2529   0.536   3.381   1.304 -0.2869 -0.0648 -0.2274
  162TMC2    O2 2530   4.686   3.536   1.350 -0.0932 -0.1233 -0.1151
  162TMC2    O5 2531   0.149   3.636   1.397 -0.1994 -0.3799  0.4564
  162TMC2    H5 2532   0.245   3.634   1.377 -0.5694 -0.7596 -1.2298
  163MPD2     C 2533   4.555   3.371   0.513  0.8774 -0.1198 -0.2728
  163MPD2    C1 2534   4.648   3.270   0.535 -0.6227  0.1882  1.0730
  163MPD2    C2 2535   4.696   3.252   0.659  0.0922  0.6816 -0.6715
  163MPD2    C3 2536   4.641   3.316   0.766 -0.5254 -0.2662  0.3783
  163MPD2    C4 2537   4.529   3.395   0.744  0.0954  0.6716  0.3278
  163MPD2    C5 2538   4.497   3.430   0.620  0.1389 -0.1092  0.4098
  163MPD2     H 2539   0.043   3.191   0.680  0.2029  0.8852 -0.5415
  163MPD2    H1 2540   4.472   3.428   0.829 -0.9731  0.7555 -0.4129
  163MPD2    H2 2541   4.517   3.393   0.414  0.4940  1.3518  0.2011
  163MPD2    H3 2542   4.419   3.500   0.592 -0.9383 -0.2613  3.0347
  163MPD2     N 2543   4.703   3.323   0.895  0.4327 -0.5355  0.0247
  163MPD2    H5 2544   4.658   3.374   0.970  3.9525  3.8071 -0.8041
  163MPD2    N1 2545   4.686   3.195   0.423  0.4102 -0.3654 -0.1078
  163MPD2    H7 2546   4.659   3.231   0.332 -0.4956  2.5963  1.3504
  164TMC2    C1 2547   0.504   1.731  11.204 -0.5446  0.3057  0.6338
  164TMC2    C2 2548   0.617   1.772  11.277 -0.2604 -0.4719 -0.2098
  164TMC2    C3 2549   0.594   1.866  11.374  0.7665 -0.0823 -0.2024
  164TMC2    C4 2550   0.378   1.797  11.219 -0.2222  0.3926  0.0691
  164TMC2    C5 2551   0.363   1.895  11.313 -0.6043 -0.5923  0.0234
  164TMC2    C6 2552   0.473   1.940  11.386  0.8452  1.1384  0.0470
  164TMC2     C 2553   0.534   1.665  11.081  0.5262  0.2742  0.8380
  164TMC2     O 2554   0.642   1.605  11.081 -0.3189 -0.5827 -0.2749
  164TMC2     H 2555   0.716   1.733  11.258 -0.1280 -0.5694  0.6784
  164TMC2    H1 2556   0.289   1.763  11.167  0.9452  1.6485 -2.7608
  164TMC2    H2 2557   0.468   2.022  11.457  0.9895  0.7062  0.5568
  164TMC2    C7 2558   0.238   1.967  11.334  0.1416  0.5848  0.1678
  164TMC2    C8 2559   0.705   1.926  11.434 -0.3038 -0.4267  0.2050
  164TMC2    O1 2560   0.174   1.981  11.229  0.2675  0.3368  0.1942
  164TMC2    O2 2561   0.720   2.044  11.446  0.0430  0.0156  0.5792
  164TMC2    O5 2562   0.805   1.835  11.462  0.7534 -0.0617  0.1173
  164TMC2    H5 2563   0.778   1.741  11.471  0.4062 -0.0947 -1.3023
  165TMC2    C1 2564   3.316   0.188   1.343 -0.1119 -0.2375  0.1588
  165TMC2    C2 2565   3.448   0.203   1.371 -1.5762 -0.5039 -1.1512
  165TMC2    C3 2566   3.509   0.321   1.356  0.1174 -0.1850  0.4110
  165TMC2    C4 2567   3.244   0.293   1.279 -0.5382  0.4982  0.1225
  165TMC2    C5 2568   3.306   0.411   1.267  1.0352  0.1943 -0.4494
  165TMC2    C6 2569   3.441   0.431   1.301 -0.6171  0.0233  0.0276
  165TMC2     C 2570   3.263   0.060   1.385 -0.0760 -0.0220  0.3178
  165TMC2     O 2571   3.310   4.740   1.481 -0.8690 -0.0397 -0.3039
  165TMC2     H 2572   3.501   0.118   1.413 -2.7762 -0.2452  0.8976
  165TMC2    H1 2573   3.139   0.291   1.255  0.0777 -0.6916 -2.5197
  165TMC2    H2 2574   3.493   0.524   1.281 -1.0956  0.6582  1.7026
  165TMC2    C7 2575   3.244   0.510   1.189 -0.4585  0.3301  0.3509
  165TMC2    C8 2576   3.612   0.345   1.455 -0.3951  0.6454 -0.1682
  165TMC2    O1 2577   3.165   0.477   1.105  0.3290  0.4438 -0.4315
  165TMC2    O2 2578   3.685   0.254   1.494  0.4783  0.3729  0.0970
  165TMC2    O5 2579   3.591   0.467   1.514 -0.1962  0.5986 -0.2845
  165TMC2    H5 2580   3.516   0.513   1.472 -2.4227 -2.1889  0.6377
  166MPD2     C 2581   2.925   4.423   1.254  0.1604 -0.3404 -0.1875
  166MPD2    C1 2582   2.980   4.457   1.379 -0.2680  0.9487  0.3340
  166MPD2    C2 2583   3.075   4.559   1.388  0.3132 -0.3018 -0.1705
  166MPD2    C3 2584   3.102   4.638   1.278 -0.3016 -0.1560 -0.3898
  166MPD2    C4 2585   3.041   4.606   1.161 -0.2919 -0.2248 -0.0122
  166MPD2    C5 2586   2.959   4.496   1.142  0.0598 -0.0698  0.8047
  166MPD2     H 2587   3.129   4.568   1.481  0.0846 -0.3745 -0.0315
  166MPD2    H1 2588   3.062   4.670   1.076 -0.0546  3.3985  2.7352
  166MPD2    H2 2589   2.844   4.353   1.238  0.7758 -1.0296 -0.3000
  166MPD2    H3 2590   2.913   4.483   1.045  1.0589  1.0997  0.1773
  166MPD2     N 2591   3.188   0.009   1.279  0.1126 -0.3810  0.3437
  166MPD2    H5 2592   3.174   0.072   1.200  0.7096 -3.2146 -1.9940
  166MPD2    N1 2593   2.956   4.378   1.489  0.1574  0.3553  0.2214
  166MPD2    H7 2594   2.920   4.285   1.473 -0.2360  0.6935 -0.8429
  167TMC2    C1 2595   0.043   2.007  12.386 -0.6882  0.5143  0.2073
  167TMC2    C2 2596   4.657   2.055  12.415 -0.2760  0.1299  1.0204
  167TMC2    C3 2597   4.554   1.965  12.428 -0.1051  0.3887  0.1704
  167TMC2    C4 2598   0.069   1.876  12.357  0.0501  0.4361 -0.2287
  167TMC2    C5 2599   4.706   1.791  12.378  0.7177  0.1619 -0.5436
  167TMC2    C6 2600   4.578   1.834  12.413  0.1986 -0.2979  0.2483
  167TMC2     C 2601   0.156   2.103  12.377  0.1116 -0.6943  0.2076
  167TMC2     O 2602   0.269   2.056  12.365  0.6023 -0.1497  0.2283
  167TMC2     H 2603   4.630   2.159  12.434 -0.9732  0.3543 -1.1451
  167TMC2    H1 2604   0.170   1.842  12.336 -1.0139 -1.5833 -2.0663
  167TMC2    H2 2605   4.500   1.760  12.428 -1.6936  1.0098 -3.1604
  167TMC2    C7 2606   4.737   1.651  12.401  0.1030  0.0386  0.0398
  167TMC2    C8 2607   4.428   2.007  12.369 -0.4142 -0.3848 -0.0470
  167TMC2    O1 2608   4.667   1.601  12.484  0.0424  0.0652 -0.1164
  167TMC2    O2 2609   4.431   2.082  12.273 -0.3616  0.1557 -0.2773
  167TMC2    O5 2610   4.330   1.921  12.400  0.1092  0.1897 -0.3150
  167TMC2    H5 2611   4.342   1.902  12.495 -2.1381  0.6036  0.0434
  168MPD2     C 2612   0.325   2.362  12.356  0.7226 -0.2901 -0.4714
  168MPD2    C1 2613   0.191   2.341  12.323 -0.4589  0.0073  0.0192
  168MPD2    C2 2614   0.116   2.449  12.283  0.8182  0.5857  0.3498
  168MPD2    C3 2615   0.164   2.575  12.266  0.1151  0.3004  0.2443
  168MPD2    C4 2616   0.293   2.595  12.298 -0.1569  1.0810 -0.8206
  168MPD2    C5 2617   0.371   2.493  12.350  0.2801  0.2877 -0.5869
  168MPD2     H 2618   0.010   2.429  12.276  0.8791  1.1182 -2.2562
  168MPD2    H1 2619   0.343   2.691  12.304  2.5528 -0.4280  0.7146
  168MPD2    H2 2620   0.387   2.280  12.390 -0.7747 -1.9587 -1.8319
  168MPD2    H3 2621   0.473   2.520  12.376  1.1534 -2.0885 -1.4919
  168MPD2     N 2622   0.082   2.670  12.198 -0.1816  0.2086 -0.2664
  168MPD2    H5 2623   0.000   2.633  12.150  1.5193 -0.2168 -2.8501
  168MPD2    N1 2624   0.107   2.223  12.337 -0.6345  0.6728  0.3525
  168MPD2    H7 2625   0.009   2.244  12.321 -0.9112  0.2900  1.4980
  169MPD1     C 2626   0.988   2.075   9.142 -0.7997  0.3475  0.3273
  169MPD1    C1 2627   1.098   2.143   9.188 -0.1659 -0.2601 -0.0360
  169MPD1    C2 2628   1.204   2.072   9.234 -0.0513  0.5523 -0.2610
  169MPD1    C3 2629   1.192   1.937   9.243  0.0297 -0.9401 -0.2075
  169MPD1    C4 2630   1.082   1.870   9.191  0.2242 -0.6755  0.2080
  169MPD1    C5 2631   0.974   1.939   9.146  0.5698 -1.0791 -0.4704
  169MPD1     H 2632   1.293   2.117   9.278  0.9301  0.4056 -2.0824
  169MPD1    H1 2633   1.079   1.762   9.180 -3.0168 -0.5478  0.0200
  169MPD1    H2 2634   0.906   2.136   9.106  0.3943  1.7721  0.0335
  169MPD1    H3 2635   0.890   1.885   9.103 -0.8222  0.9670 -0.2955
  169MPD1     N 2636   1.303   1.854   9.300 -0.1404  0.5691 -0.3881
  169MPD1    H5 2637   1.387   1.911   9.313 -0.4680  1.1719 -0.8938
  169MPD1    N1 2638   1.100   2.287   9.176 -0.0971  0.0054 -0.2166
  169MPD1    H6 2639   1.006   2.325   9.188 -0.1371  0.0747 -0.7213
  169MPD1    H7 2640   1.161   2.329   9.246  0.1025  0.4144 -0.6364
  170MPD1     C 2641   0.521   4.228  12.907 -0.9628  1.1663 -0.4271
  170MPD1    C1 2642   0.547   4.354  12.867 -0.1170  0.0207 -0.0469
  170MPD1    C2 2643   0.549   4.457  12.958  0.0523  0.5252 -0.5772
  170MPD1    C3 2644   0.492   4.447  13.088 -0.2592  1.1050 -0.5290
  170MPD1    C4 2645   0.457   4.318  13.126 -0.2664 -0.3674  0.0361
  170MPD1    C5 2646   0.471   4.215  13.034  0.7735  1.2415 -0.0912
  170MPD1     H 2647   0.590   4.550  12.920 -0.5756  1.7910  1.8231
  170MPD1    H1 2648   0.413   4.303  13.224 -0.3515 -1.4171 -0.1607
  170MPD1    H2 2649   0.541   4.152  12.832  1.0007  1.5386 -0.2798
  170MPD1    H3 2650   0.450   4.112  13.058  1.1017  1.3185  0.5529
  170MPD1     N 2651   0.477   4.564  13.171 -0.4830  0.5425 -0.4088
  170MPD1    H5 2652   0.521   4.649  13.136 -0.2410  0.2176 -0.9064
  170MPD1    N1 2653   0.602   4.383  12.739 -0.3375 -0.3988 -0.0780
  170MPD1    H6 2654   0.587   4.480  12.712 -0.2582 -0.2304  0.4861
  170MPD1    H7 2655   0.569   4.326  12.662  1.2523 -1.4670  0.0266
  171MPD1     C 2656   3.958   1.225  15.060 -0.2412  0.0158 -0.4521
  171MPD1    C1 2657   3.921   1.096  15.034  0.2707  0.2193 -0.3550
  171MPD1    C2 2658   3.933   1.000  15.132 -0.2109  0.1189  0.2471
  171MPD1    C3 2659   3.990   1.027  15.250  0.1350  0.1416 -0.0596
  171MPD1    C4 2660   4.044   1.154  15.270 -0.6422 -0.4358  0.1652
  171MPD1    C5 2661   4.029   1.249  15.173 -0.3334 -0.1845 -0.3935
  171MPD1     H 2662   3.894   0.901  15.110 -3.8878  1.3447  1.2213
  171MPD1    H1 2663   4.096   1.174  15.363  2.1331 -0.8893 -1.2780
  171MPD1    H2 2664   3.937   1.306  14.992  3.1941 -0.9818 -2.7293
  171MPD1    H3 2665   4.075   1.346  15.189  1.0412 -1.3127  2.3960
  171MPD1     N 2666   4.013   0.935  15.356  0.2202  0.1325 -0.3075
  171MPD1    H5 2667   4.048   0.963  15.448 -0.1743  0.5844 -0.2939
  171MPD1    N1 2668   3.838   1.066  14.923  0.9011 -0.4251  0.1631
  171MPD1    H6 2669   3.862   1.115  14.837  0.5660  1.6583  1.2711
  171MPD1    H7 2670   3.839   0.964  14.917 -0.5105 -0.3246 -2.0097
  172MPD1     C 2671   3.427   0.214  17.383 -0.0408 -0.1549  0.3930
  172MPD1    C1 2672   3.365   0.331  17.399  0.3264  0.1183 -0.0527
  172MPD1    C2 2673   3.360   0.390  17.523  0.1236  0.2353  0.2244
  172MPD1    C3 2674   3.459   0.347  17.612  0.0323 -0.4354  0.9128
  172MPD1    C4 2675   3.532   0.237  17.580 -0.0134 -0.3339 -0.3013
  172MPD1    C5 2676   3.509   0.162  17.475  0.2082  0.0172  0.0683
  172MPD1     H 2677   3.306   0.482  17.540 -1.5557 -0.3776 -1.8860
  172MPD1    H1 2678   3.610   0.201  17.646  1.7783  1.0750 -1.6560
  172MPD1    H2 2679   3.413   0.163  17.288 -2.7323 -1.8639  1.7024
  172MPD1    H3 2680   3.565   0.070  17.462 -0.7390 -0.8327  1.9437
  172MPD1     N 2681   3.496   0.412  17.729  0.1590  0.9123  0.5922
  172MPD1    H5 2682   3.571   0.365   0.021 -0.5165  0.1647  0.8966
  172MPD1    N1 2683   3.266   0.377  17.315 -0.1900  0.2255  0.1538
  172MPD1    H6 2684   3.248   0.476  17.329  3.0959  0.8257  0.0989
  172MPD1    H7 2685   3.290   0.367  17.216  0.9946  0.5822  0.4134
  173MPD1     C 2686   4.317   0.456  13.739 -0.2378 -0.1983  0.0011
  173MPD1    C1 2687   4.407   0.352  13.759  0.3623 -0.4028 -0.6872
  173MPD1    C2 2688   4.401   0.273  13.874 -0.7760 -0.7492 -0.7358
  173MPD1    C3 2689   4.289   0.267  13.943  0.3257  0.1319  0.3190
  173MPD1    C4 2690   4.191   0.363  13.921  0.0845  0.5418 -0.2487
  173MPD1    C5 2691   4.214   0.463  13.828 -0.5614  0.1737  0.0858
  173MPD1     H 2692   4.481   0.204  13.896  0.3752  0.9023  0.2231
  173MPD1    H1 2693   4.093   0.363  13.968  0.3356  3.6244  0.2500
  173MPD1    H2 2694   4.326   0.517  13.649  0.4092 -1.1584 -0.5878
  173MPD1    H3 2695   4.144   0.545  13.815  0.7484  1.1277 -1.0267
  173MPD1     N 2696   4.268   0.160  14.034  0.7134  1.2194  0.4570
  173MPD1    H5 2697   4.343   0.092  14.035  0.5128  1.0006  0.6095
  173MPD1    N1 2698   4.519   0.341  13.688 -0.0192 -0.6385 -0.1681
  173MPD1    H6 2699   4.561   0.249  13.682 -0.4876 -1.0331  2.3180
  173MPD1    H7 2700   4.508   0.382  13.596 -3.6220  1.0948  1.0328
  174MPD1     C 2701   0.142   4.464  14.381  0.3464 -0.7954 -0.0469
  174MPD1    C1 2702   0.035   4.411  14.454  0.2803 -0.2516 -0.2635
  174MPD1    C2 2703   4.644   4.429  14.401  0.1966 -0.1903  0.0097
  174MPD1    C3 2704   4.622   4.516  14.295  0.3208 -0.7304 -0.6996
  174MPD1    C4 2705   4.731   4.571  14.230 -0.5801  0.5758  0.1113
  174MPD1    C5 2706   0.116   4.534  14.267 -0.2718 -0.0557 -0.6032
  174MPD1     H 2707   4.561   4.397  14.462  0.3076  1.1140  0.8359
  174MPD1    H1 2708   4.723   4.629  14.139  0.9743 -0.2951 -0.5844
  174MPD1    H2 2709   0.245   4.454  14.412 -0.0217  0.3122  1.5499
  174MPD1    H3 2710   0.198   4.567  14.204  0.0915 -2.4926 -1.4137
  174MPD1     N 2711   4.490   4.547  14.249  0.3236  0.2647 -0.2069
  174MPD1    H5 2712   4.476   4.631  14.194  1.1984  1.3282  1.1968
  174MPD1    N1 2713   0.055   4.344  14.574  0.4499  0.3152 -0.8974
  174MPD1    H6 2714   4.727   4.271  14.595  0.3235  0.5277 -0.5715
  174MPD1    H7 2715   0.146   4.300  14.581 -1.0271 -2.3578  1.7740
  175MPD1     C 2716   2.609   1.111  15.117 -0.6975  0.5911  0.8003
  175MPD1    C1 2717   2.727   1.038  15.146  0.0616 -0.7835 -0.6073
  175MPD1    C2 2718   2.764   1.022  15.279 -0.0429  0.5352  0.0642
  175MPD1    C3 2719   2.680   1.051  15.383  0.0362 -1.1256 -0.2645
  175MPD1    C4 2720   2.556   1.106  15.350 -0.6072 -0.3991 -0.1067
  175MPD1    C5 2721   2.522   1.135  15.218 -0.9695 -0.3781  0.3299
  175MPD1     H 2722   2.861   0.977  15.298 -0.1100  0.5831  0.5285
  175MPD1    H1 2723   2.486   1.142  15.424  1.8427  0.6136  1.7023
  175MPD1    H2 2724   2.576   1.138  15.018 -1.3354  1.3624  1.2298
  175MPD1    H3 2725   2.431   1.192  15.206  0.0548  0.4893 -3.0660
  175MPD1     N 2726   2.715   1.049  15.519  0.1307  0.4744 -0.2563
  175MPD1    H5 2727   2.648   1.076  15.590 -3.2610 -3.2539 -2.0186
  175MPD1    N1 2728   2.806   0.997  15.039 -0.3759  0.6557  0.3395
  175MPD1    H6 2729   2.750   0.989  14.954  2.1642  1.2961 -1.4093
  175MPD1    H7 2730   2.859   0.913  15.059  2.4207  1.9577 -1.6109
  176MPD1     C 2731   4.503   3.072  17.032  0.3820 -0.0476  0.2009
  176MPD1    C1 2732   4.569   3.176  16.979 -0.6285  0.2852 -0.4138
  176MPD1    C2 2733   4.554   3.302  17.036  0.0288  0.4623 -0.1271
  176MPD1    C3 2734   4.473   3.325  17.146  0.6640 -0.1931  0.4521
  176MPD1    C4 2735   4.417   3.213  17.209 -0.6834 -0.8716  0.1046
  176MPD1    C5 2736   4.423   3.093  17.143  0.0597 -0.6099 -0.4705
  176MPD1     H 2737   4.624   3.380  17.006 -0.3553  0.4177 -1.1288
  176MPD1    H1 2738   4.357   3.222  17.298 -1.4231  0.9083 -0.5769
  176MPD1    H2 2739   4.514   2.971  16.993  0.3848  0.3622 -0.8760
  176MPD1    H3 2740   4.377   3.008  17.192  0.6995 -1.5850 -1.5678
  176MPD1     N 2741   4.467   3.456  17.195 -0.0715  0.2228  0.0906
  176MPD1    H5 2742   4.528   3.524  17.151 -0.6740  0.7611  0.0970
  176MPD1    N1 2743   4.677   3.152  16.886  0.1195 -0.2573  0.1170
  176MPD1    H6 2744   4.696   3.235  16.830  1.9387 -0.7313  0.0329
  176MPD1    H7 2745   4.667   3.068  16.829  1.8340 -0.4386  0.0756
  177MPD1     C 2746   3.049   2.557   9.509  0.2690  0.4691 -0.1095
  177MPD1    C1 2747   2.914   2.514   9.529  0.1262 -0.8733 -0.1901
  177MPD1    C2 2748   2.811   2.587   9.469  0.0225  0.9232  0.5550
  177MPD1    C3 2749   2.837   2.702   9.396  0.3875  0.6135 -0.0429
  177MPD1    C4 2750   2.963   2.742   9.376  0.1398 -0.5646 -0.3538
  177MPD1    C5 2751   3.065   2.668   9.432 -0.2389  0.2909 -0.3776
  177MPD1     H 2752   2.709   2.550   9.471  0.0100  1.0130  1.5020
  177MPD1    H1 2753   2.987   2.821   9.306  0.7904 -1.0147 -0.6398
  177MPD1    H2 2754   3.133   2.494   9.535  0.0304  0.4180  0.5291
  177MPD1    H3 2755   3.164   2.690   9.393  0.5902 -1.5583  0.6882
  177MPD1     N 2756   2.729   2.760   9.326  0.3904  0.5256  0.4998
  177MPD1    H5 2757   2.639   2.715   9.341 -0.4898  2.0094 -0.2837
  177MPD1    N1 2758   2.902   2.386   9.572 -0.3982  0.3128  0.6900
  177MPD1    H6 2759   2.812   2.375   9.618 -0.4631  0.5231  0.6119
  177MPD1    H7 2760   2.978   2.359   9.635  2.1485 -0.8785 -2.9165
  178MPD1     C 2761   0.300   3.940   0.038 -0.8551  0.1162 -0.1204
  178MPD1    C1 2762   0.295   4.040  17.703 -0.4153 -0.1006  0.1240
  178MPD1    C2 2763   0.352   4.021  17.577 -0.7449 -0.1402 -0.3126
  178MPD1    C3 2764   0.401   3.895  17.540 -0.6580 -0.3193 -0.4660
  178MPD1    C4 2765   0.407   3.795  17.634 -0.6923 -0.3288 -0.1251
  178MPD1    C5 2766   0.360   3.821   0.003 -0.1316  0.8323 -0.2831
  178MPD1     H 2767   0.374   4.106  17.513 -1.1751  0.2090  0.0059
  178MPD1    H1 2768   0.445   3.696  17.614 -2.9310 -0.9455 -1.3125
  178MPD1    H2 2769   0.255   3.954   0.135 -0.2253  1.4094 -0.0095
  178MPD1    H3 2770   0.362   3.742   0.078  0.3620  1.1652  0.0529
  178MPD1     N 2771   0.456   3.872  17.411 -0.1546 -0.6280  0.3607
  178MPD1    H5 2772   0.509   3.785  17.406  1.3395  0.2096  1.4367
  178MPD1    N1 2773   0.270   4.171  17.756  0.3824  0.4467  0.0671
  178MPD1    H6 2774   0.262   4.244  17.686  1.9805 -1.1358 -1.7613
  178MPD1    H7 2775   0.184   4.172   0.051 -1.2757  0.7401 -2.6007
  179MPD1     C 2776   0.329   2.517  15.139 -0.4183  0.3290  0.1670
  179MPD1    C1 2777   0.280   2.417  15.068  0.5726  0.2801  0.6902
  179MPD1    C2 2778   0.254   2.293  15.129 -0.0853  0.2130  0.6097
  179MPD1    C3 2779   0.286   2.267  15.261 -0.3997  0.4517  0.0109
  179MPD1    C4 2780   0.342   2.374  15.328 -0.4665  0.0817  0.3523
  179MPD1    C5 2781   0.351   2.495  15.268 -0.2408 -0.7005 -0.1224
  179MPD1     H 2782   0.201   2.217  15.072 -3.7217  2.4882  0.9186
  179MPD1    H1 2783   0.359   2.375  15.435  3.4337  1.0175 -0.2820
  179MPD1    H2 2784   0.349   2.615  15.098 -1.7168  0.5365  0.0063
  179MPD1    H3 2785   0.383   2.581  15.325  0.2275 -1.8992  1.4237
  179MPD1     N 2786   0.265   2.138  15.321 -0.3827 -0.4692  0.1691
  179MPD1    H5 2787   0.268   2.141  15.422 -2.4121  0.1047  0.2021
  179MPD1    N1 2788   0.216   2.444  14.949  0.5468 -0.4272  0.3335
  179MPD1    H6 2789   0.204   2.367  14.884  0.2422 -0.9722  1.0347
  179MPD1    H7 2790   0.241   2.526  14.894 -2.5101 -0.7829 -1.6210
  180MPD1     C 2791   4.285   3.453  14.752 -0.0347  0.2573 -0.7773
  180MPD1    C1 2792   4.415   3.426  14.713  0.3725 -0.2232  0.6887
  180MPD1    C2 2793   4.442   3.360  14.595  0.2129  0.1871  0.4370
  180MPD1    C3 2794   4.338   3.342  14.499 -0.8628  0.1839  0.6186
  180MPD1    C4 2795   4.205   3.357  14.540 -0.3516  0.6322  0.3140
  180MPD1    C5 2796   4.188   3.412  14.667 -0.3213  0.2432  0.0119
  180MPD1     H 2797   4.540   3.318  14.578  0.0894  0.5877 -1.2710
  180MPD1    H1 2798   4.124   3.336  14.471  1.6729 -1.0559 -1.5511
  180MPD1    H2 2799   4.265   3.500  14.848 -0.9546 -0.6521 -0.5208
  180MPD1    H3 2800   4.084   3.433  14.688 -0.7919 -1.5111 -0.6096
  180MPD1     N 2801   4.373   3.300  14.368 -0.5946 -0.3725  0.2518
  180MPD1    H5 2802   4.470   3.303  14.337 -1.3205  2.5106 -1.7908
  180MPD1    N1 2803   4.514   3.436  14.805 -0.2019  0.2957  0.5528
  180MPD1    H6 2804   4.504   3.528  14.847  1.3181  1.3379 -1.3820
  180MPD1    H7 2805   4.608   3.423  14.768 -0.4718  1.3173 -0.4862
  181MPD1     C 2806   2.089   0.014  10.272  0.9627 -0.5525  0.2447
  181MPD1    C1 2807   2.192   0.084  10.320  0.2456  0.6660  0.6335
  181MPD1    C2 2808   2.311   0.088  10.243  0.6073 -0.4381 -1.0974
  181MPD1    C3 2809   2.316   0.019  10.117 -0.2174  0.6113  0.8549
  181MPD1    C4 2810   2.201   4.708  10.063  0.2364 -0.2560 -0.0244
  181MPD1    C5 2811   2.084   4.702  10.144  0.7363 -0.6041 -0.3802
  181MPD1     H 2812   2.385   0.150  10.292 -0.3134 -0.3810  0.2183
  181MPD1    H1 2813   2.199   4.661   9.966  1.2979 -0.5186  0.0773
  181MPD1    H2 2814   1.996   0.002  10.326 -0.4358  0.3895 -1.9888
  181MPD1    H3 2815   1.992   4.665  10.099  0.0493 -0.8758  1.2356
  181MPD1     N 2816   2.439   0.016  10.045  0.4259  0.1753  0.3268
  181MPD1    H5 2817   2.436   4.732   9.947  0.2880 -1.5318  0.7650
  181MPD1    N1 2818   2.172   0.168  10.428  0.0775  0.0350  0.1473
  181MPD1    H6 2819   2.106   0.128  10.495  1.6952 -2.9922 -0.0421
  181MPD1    H7 2820   2.257   0.186  10.480 -0.5915 -1.1337  1.6527
  182MPD1     C 2821   2.935   4.150   0.491  0.1471 -0.5283 -0.0236
  182MPD1    C1 2822   2.921   4.271   0.430  0.3924 -0.0040 -0.0013
  182MPD1    C2 2823   2.795   4.318   0.406  0.6143  0.0600  0.1697
  182MPD1    C3 2824   2.680   4.245   0.428 -1.0052 -0.5179  1.0320
  182MPD1    C4 2825   2.698   4.116   0.475  0.0668 -0.3642  0.5466
  182MPD1    C5 2826   2.828   4.063   0.492  0.1080 -0.4837 -0.7916
  182MPD1     H 2827   2.774   4.413   0.359  1.3618  0.3923  0.5130
  182MPD1    H1 2828   2.616   4.047   0.493  0.1703 -0.8225 -0.7259
  182MPD1    H2 2829   3.034   4.114   0.517  0.6716  0.1023 -1.0958
  182MPD1    H3 2830   2.838   3.960   0.525 -1.1675  0.2701  1.9423
  182MPD1     N 2831   2.547   4.295   0.413 -0.3668 -1.1210  0.4239
  182MPD1    H5 2832   2.473   4.228   0.431  0.8276 -2.4997  0.2281
  182MPD1    N1 2833   3.025   4.362   0.439 -0.1161 -0.1342  0.1261
  182MPD1    H6 2834   3.011   4.427   0.362 -2.5402 -2.8292 -1.6982
  182MPD1    H7 2835   3.104   4.302   0.415 -1.1537 -0.8398 -1.4709
  183MPD1     C 2836   3.488   4.193   9.289  0.7627 -0.3697  0.3063
  183MPD1    C1 2837   3.561   4.164   9.405 -0.3649 -0.1219  0.3150
  183MPD1    C2 2838   3.589   4.273   9.485  0.1435 -0.6301  0.6894
  183MPD1    C3 2839   3.560   4.405   9.455  1.1687 -0.4282  0.4635
  183MPD1    C4 2840   3.489   4.428   9.341  0.6531  0.3871 -0.8032
  183MPD1    C5 2841   3.461   4.326   9.259 -0.0928 -0.0212 -0.1598
  183MPD1     H 2842   3.627   4.254   9.585 -2.0350 -0.6301  1.5300
  183MPD1    H1 2843   3.472   4.531   9.311 -0.9339  0.1687 -0.6394
  183MPD1    H2 2844   3.456   4.115   9.222  0.7043 -1.5706  1.7360
  183MPD1    H3 2845   3.408   4.356   9.169 -0.7972  1.6443  0.8125
  183MPD1     N 2846   3.592   4.510   9.544  0.0692  0.2879  0.4959
  183MPD1    H5 2847   3.648   4.484   9.625 -1.1453  1.1968  1.6215
  183MPD1    N1 2848   3.569   4.036   9.460  0.2627  0.3970  0.4281
  183MPD1    H6 2849   3.642   4.023   9.529 -0.4442 -2.8974  0.5725
  183MPD1    H7 2850   3.579   3.969   9.384  0.7120  0.9656 -0.0142
  184MPD1     C 2851   1.464   2.183  10.160 -0.7411  0.0577  0.0282
  184MPD1    C1 2852   1.429   2.202  10.024 -0.1314 -0.0194 -0.1590
  184MPD1    C2 2853   1.525   2.262   9.945 -0.1701  0.4229 -0.7717
  184MPD1    C3 2854   1.654   2.284   9.989 -0.8530  0.2497  0.1464
  184MPD1    C4 2855   1.681   2.258  10.126 -0.2415  0.1588 -0.0279
  184MPD1    C5 2856   1.583   2.210  10.213  0.7612  0.3209 -0.6513
  184MPD1     H 2857   1.501   2.275   9.840 -0.6743 -0.4585 -0.7606
  184MPD1    H1 2858   1.782   2.271  10.163 -0.0636  0.9978 -0.8120
  184MPD1    H2 2859   1.386   2.156  10.230 -1.0293 -1.2327 -0.8047
  184MPD1    H3 2860   1.599   2.197  10.320  0.3533  0.1081 -0.6136
  184MPD1     N 2861   1.758   2.345   9.917 -0.1947 -0.5684 -0.1570
  184MPD1    H5 2862   1.843   2.356   9.971  0.3299  0.3882 -1.1899
  184MPD1    N1 2863   1.300   2.196   9.985  0.4872 -0.3876 -0.0624
  184MPD1    H6 2864   1.306   2.172   9.886 -1.0798 -0.9930 -0.0211
  184MPD1    H7 2865   1.267   2.116  10.039 -0.0103 -0.2913 -0.2257
  185MPD1     C 2866   1.734   2.794   9.018  0.1718 -0.1779  0.2926
  185MPD1    C1 2867   1.860   2.815   9.068 -0.3319 -0.0256 -0.1394
  185MPD1    C2 2868   1.898   2.760   9.184  0.5417 -0.6549  0.6678
  185MPD1    C3 2869   1.818   2.671   9.252 -0.5204 -0.0289 -0.2351
  185MPD1    C4 2870   1.689   2.648   9.202  0.4335  0.3370  0.1683
  185MPD1    C5 2871   1.654   2.703   9.086  0.8435  0.2297  0.6116
  185MPD1     H 2872   1.996   2.786   9.223  0.8823  0.9461 -1.2345
  185MPD1    H1 2873   1.610   2.594   9.252 -0.5900  2.3236  0.6974
  185MPD1    H2 2874   1.692   2.841   8.930 -1.4794  2.9498  2.7799
  185MPD1    H3 2875   1.553   2.701   9.046  0.5604  2.4820  1.2561
  185MPD1     N 2876   1.846   2.608   9.376 -0.4493 -0.1497  0.0052
  185MPD1    H5 2877   1.786   2.530   9.400  2.0919 -2.2705 -0.5647
  185MPD1    N1 2878   1.954   2.894   8.999 -0.5542 -0.1355 -0.5400
  185MPD1    H6 2879   1.918   2.911   8.905  0.4495  2.1319 -0.5294
  185MPD1    H7 2880   2.046   2.852   9.002  0.5670  2.5459  2.7367
  186MPD1     C 2881   0.628   2.219  15.495  0.3596  0.4939  0.6860
  186MPD1    C1 2882   0.702   2.329  15.467  0.6574 -0.4978 -0.1862
  186MPD1    C2 2883   0.745   2.406  15.578 -0.5680  0.6546 -0.3159
  186MPD1    C3 2884   0.713   2.366  15.709 -0.0853  0.4109  0.3164
  186MPD1    C4 2885   0.628   2.263  15.734 -0.3503  0.2492 -0.2290
  186MPD1    C5 2886   0.580   2.200  15.624 -0.3211 -0.1310 -0.3826
  186MPD1     H 2887   0.813   2.489  15.560  0.8863 -0.6947 -0.9604
  186MPD1    H1 2888   0.598   2.217  15.827 -1.5865  0.8299 -0.3397
  186MPD1    H2 2889   0.590   2.158  15.414  2.3884 -0.0614  0.1304
  186MPD1    H3 2890   0.507   2.121  15.639  2.1151 -2.6026 -1.6744
  186MPD1     N 2891   0.764   2.432  15.821 -0.4463 -1.0389  0.5159
  186MPD1    H5 2892   0.733   2.391  15.909  0.5857  0.8322  1.7548
  186MPD1    N1 2893   0.773   2.340  15.344 -0.6843 -0.2932  0.2582
  186MPD1    H6 2894   0.792   2.439  15.330  0.1173 -0.0896  2.7122
  186MPD1    H7 2895   0.715   2.318  15.263 -0.1999  0.8132 -0.3780
  187MPD1     C 2896   0.557   4.568  17.361 -0.1467  0.0683  0.5072
  187MPD1    C1 2897   0.431   4.529  17.398  0.1691 -0.3460 -0.3929
  187MPD1    C2 2898   0.327   4.618  17.364  0.1408  0.1146 -0.1418
  187MPD1    C3 2899   0.350   0.003  17.304 -0.6690 -0.2639  0.2004
  187MPD1    C4 2900   0.476   0.044  17.279  0.4193  0.5567 -0.3252
  187MPD1    C5 2901   0.574   4.693  17.308  0.4999  0.2344  0.2490
  187MPD1     H 2902   0.230   4.580  17.395  0.3109 -0.1092  0.1276
  187MPD1    H1 2903   0.498   0.143  17.240 -1.1690  0.9476 -0.2289
  187MPD1    H2 2904   0.641   4.503  17.384  1.4304  1.6739 -0.6609
  187MPD1    H3 2905   0.676   4.729  17.305  0.1442  1.1130 -1.1807
  187MPD1     N 2906   0.249   0.092  17.267 -0.2493 -0.1547  0.1547
  187MPD1    H5 2907   0.275   0.172  17.211  0.0639  0.3714  1.0409
  187MPD1    N1 2908   0.410   4.398  17.440 -0.7276  0.3219  0.6098
  187MPD1    H6 2909   0.321   4.377  17.485 -0.7239 -3.6970 -1.2557
  187MPD1    H7 2910   0.493   4.372  17.493  0.3946  0.9357 -0.8724
  188MPD1     C 2911   0.430   3.892   9.210 -0.2447 -0.2377 -0.0241
  188MPD1    C1 2912   0.312   3.922   9.267  0.5825  0.3492  0.5378
  188MPD1    C2 2913   0.246   3.819   9.334 -0.5284 -0.1010 -0.0639
  188MPD1    C3 2914   0.295   3.690   9.346  0.0984 -0.3016 -1.1347
  188MPD1    C4 2915   0.419   3.664   9.288  0.1749  0.1967  0.1941
  188MPD1    C5 2916   0.473   3.764   9.207 -0.3003 -0.5688 -0.4795
  188MPD1     H 2917   0.154   3.852   9.380  0.2114  1.3874  0.3338
  188MPD1    H1 2918   0.445   3.560   9.273 -2.3587 -0.1416 -1.8092
  188MPD1    H2 2919   0.485   3.955   9.141 -1.2029 -0.6312 -1.1253
  188MPD1    H3 2920   0.561   3.731   9.153  1.7725  2.7650  0.9021
  188MPD1     N 2921   0.232   3.586   9.419  0.1717  0.5748 -0.2017
  188MPD1    H5 2922   0.276   3.495   9.423 -0.5042  0.2729  0.3948
  188MPD1    N1 2923   0.259   4.055   9.248 -0.2541 -0.6826 -0.4604
  188MPD1    H6 2924   0.324   4.131   9.226  0.7753 -1.3077  0.4390
  188MPD1    H7 2925   0.215   4.097   9.329 -0.8867 -2.0746 -0.0832
  189MPD1     C 2926   1.451   0.659   0.564  0.8588  0.6293 -0.4876
  189MPD1    C1 2927   1.312   0.653   0.556 -0.2052  0.6411  0.5200
  189MPD1    C2 2928   1.245   0.745   0.477  0.2020  0.1276  0.0954
  189MPD1    C3 2929   1.307   0.854   0.434 -0.2401  0.6331 -0.0504
  189MPD1    C4 2930   1.442   0.869   0.460 -0.1898  0.1240 -0.3011
  189MPD1    C5 2931   1.518   0.767   0.514 -1.0126  0.0401  0.7888
  189MPD1     H 2932   1.140   0.732   0.456  0.6363  0.3032 -2.1530
  189MPD1    H1 2933   1.497   0.958   0.432  1.6276 -0.2777  2.0127
  189MPD1    H2 2934   1.506   0.580   0.615  0.1281 -0.1009 -0.8256
  189MPD1    H3 2935   1.625   0.783   0.516 -1.5977  3.7853  1.5349
  189MPD1     N 2936   1.234   0.958   0.367 -0.1300 -0.8304  0.1637
  189MPD1    H5 2937   1.137   0.934   0.346  0.0767 -1.1295 -0.4633
  189MPD1    N1 2938   1.248   0.534   0.588 -0.2205 -0.0190 -0.5210
  189MPD1    H6 2939   1.147   0.540   0.598 -0.0704 -0.1551  1.0395
  189MPD1    H7 2940   1.272   0.482   0.672 -0.7042  2.0467  0.8863
  190MPD1     C 2941   0.022   3.541  15.308  0.9140 -0.1057 -0.0211
  190MPD1    C1 2942   0.045   3.674  15.343  0.2169 -0.1589  0.2783
  190MPD1    C2 2943   0.173   3.709  15.381  0.3663 -0.2243  0.6044
  190MPD1    C3 2944   0.270   3.611  15.409  0.7738  0.3623  0.3489
  190MPD1    C4 2945   0.239   3.477  15.379  0.0338  0.5509 -0.1599
  190MPD1    C5 2946   0.117   3.444  15.327  0.4813 -0.4015  0.3489
  190MPD1     H 2947   0.203   3.812  15.398 -2.2062  0.6317 -0.0505
  190MPD1    H1 2948   0.304   3.395  15.406 -2.0441 -1.0853 -0.0728
  190MPD1    H2 2949   4.666   3.516  15.265  0.9574  1.7150 -1.1745
  190MPD1    H3 2950   0.092   3.343  15.295 -0.9659  0.2446 -0.5184
  190MPD1     N 2951   0.396   3.646  15.462  0.0419  0.2488  0.9243
  190MPD1    H5 2952   0.412   3.737  15.504 -2.4436  0.6604  1.0027
  190MPD1    N1 2953   4.693   3.778  15.309 -0.1189 -0.3354 -0.3116
  190MPD1    H6 2954   4.602   3.735  15.294 -0.1370 -1.0090  1.7998
  190MPD1    H7 2955   4.691   3.856  15.374  1.2337 -0.6338  0.0958
  191MPD1     C 2956   4.645   0.317  11.944  0.0561 -0.3625  0.1871
  191MPD1    C1 2957   0.030   0.294  11.996  0.3353 -0.0472  0.2035
  191MPD1    C2 2958   0.139   0.351  11.930  0.4178 -0.5900  0.1099
  191MPD1    C3 2959   0.126   0.411  11.809  0.1924  0.4998 -0.0357
  191MPD1    C4 2960   4.740   0.411  11.750  0.0412  0.5961  0.0751
  191MPD1    C5 2961   4.631   0.370  11.819 -0.1816 -0.1898  0.1396
  191MPD1     H 2962   0.241   0.350  11.966  0.1225 -1.1426  0.9325
  191MPD1    H1 2963   4.727   0.442  11.647  0.7088 -1.2678 -0.5655
  191MPD1    H2 2964   4.556   0.276  11.989 -0.9748  0.2776 -1.2366
  191MPD1    H3 2965   4.532   0.386  11.777  0.0256 -2.1347 -1.1123
  191MPD1     N 2966   0.238   0.465  11.746 -0.3906  0.3115  0.2916
  191MPD1    H5 2967   0.328   0.466  11.793 -0.1758 -0.3814 -0.1001
  191MPD1    N1 2968   0.047   0.256  12.132 -0.3147  0.4529 -0.5627
  191MPD1    H6 2969   4.701   0.208  12.159  0.1129 -0.0283 -0.0515
  191MPD1    H7 2970   0.127   0.199  12.158 -1.2010 -0.6576 -0.2322
  192MPD1     C 2971   0.262   0.647  10.767  0.0576  0.0690 -0.5573
  192MPD1    C1 2972   0.394   0.661  10.807 -0.2828 -0.2765 -0.0745
  192MPD1    C2 2973   0.434   0.634  10.943  0.4412 -0.3461 -0.0590
  192MPD1    C3 2974   0.341   0.599  11.042  0.6012 -0.2314 -0.1718
  192MPD1    C4 2975   0.211   0.585  11.001 -0.4558  0.2285  0.0497
  192MPD1    C5 2976   0.175   0.607  10.866 -0.1193 -0.3958  0.9446
  192MPD1     H 2977   0.536   0.661  10.969  0.1630  1.3504 -0.7412
  192MPD1    H1 2978   0.132   0.555  11.069 -0.7203 -2.1993 -1.3376
  192MPD1    H2 2979   0.229   0.675  10.667  0.0638  2.2606  0.0521
  192MPD1    H3 2980   0.071   0.596  10.840  0.9063 -1.6797 -2.7441
  192MPD1     N 2981   0.376   0.576  11.176  1.1446  0.0294 -0.1621
  192MPD1    H5 2982   0.308   0.546  11.245  1.9303 -1.0349  0.1609
  192MPD1    N1 2983   0.487   0.711  10.711  0.0422  0.2228  0.4382
  192MPD1    H6 2984   0.456   0.678  10.620 -0.1888  1.5043  0.0486
  192MPD1    H7 2985   0.585   0.689  10.721  0.9478  3.4802 -1.2924
  193MPD1     C 2986   3.784   1.001  15.766  0.1688  0.0918 -0.1270
  193MPD1    C1 2987   3.782   1.131  15.813  0.6454 -0.0497  0.2390
  193MPD1    C2 2988   3.843   1.154  15.938  1.1917 -0.2899  0.1392
  193MPD1    C3 2989   3.890   1.053  16.019  0.0468  0.3341 -0.2405
  193MPD1    C4 2990   3.876   0.929  15.965  0.4631 -0.0017  0.1590
  193MPD1    C5 2991   3.820   0.899  15.845 -0.3070 -0.6376  0.1051
  193MPD1     H 2992   3.843   1.256  15.974  0.3374 -0.9292  1.9923
  193MPD1    H1 2993   3.917   0.846  16.022 -0.1282 -0.8587 -0.6748
  193MPD1    H2 2994   3.751   0.988  15.663 -0.6879 -3.9504  0.6640
  193MPD1    H3 2995   3.805   0.797  15.811  1.6252 -0.1245 -2.2445
  193MPD1     N 2996   3.967   1.079  16.139 -0.8841 -0.6805 -0.7253
  193MPD1    H5 2997   4.027   1.000  16.161 -1.8822 -1.1296  0.3988
  193MPD1    N1 2998   3.762   1.238  15.723  0.1294 -0.3893  0.4182
  193MPD1    H6 2999   3.703   1.217  15.643 -0.4806  2.2717  0.1626
  193MPD1    H7 3000   3.729   1.324  15.765  0.0651  0.0371 -0.5077
  194MPD1     C 3001   1.843   3.234  16.206  0.5022 -0.5446  0.2226
  194MPD1    C1 3002   1.869   3.238  16.340  0.2461 -0.0593 -0.3828
  194MPD1    C2 3003   1.955   3.136  16.388 -0.2211  0.5531  0.1876
  194MPD1    C3 3004   1.988   3.022  16.313 -0.4423  0.2274  0.8669
  194MPD1    C4 3005   1.950   3.015  16.179 -0.2719 -0.2779 -0.0375
  194MPD1    C5 3006   1.880   3.125  16.129 -0.5087  0.3100  0.6131
  194MPD1     H 3007   1.989   3.147  16.490 -0.2354  0.3684  0.2121
  194MPD1    H1 3008   1.975   2.928  16.120 -2.6063 -1.1628  0.2765
  194MPD1    H2 3009   1.784   3.314  16.164  0.6777 -0.8722 -0.6344
  194MPD1    H3 3010   1.840   3.100  16.032  1.2562  3.4963 -0.9442
  194MPD1     N 3011   2.050   2.912  16.377  0.1856 -0.3619  0.8234
  194MPD1    H5 3012   2.087   2.923  16.471  0.9896  0.4212  0.4257
  194MPD1    N1 3013   1.854   3.354  16.418 -0.0558  0.1722  0.3507
  194MPD1    H6 3014   1.837   3.350  16.518 -1.7328  0.8764  0.0916
  194MPD1    H7 3015   1.786   3.417  16.375  0.5454 -0.8104 -2.0742
  195MPD1     C 3016   4.521   0.339  17.226  0.4176 -0.0373  0.3089
  195MPD1    C1 3017   4.423   0.246  17.206 -0.9162  0.0770  0.2518
  195MPD1    C2 3018   4.385   0.172  17.316  0.1283 -0.7737 -0.5171
  195MPD1    C3 3019   4.436   0.192  17.447  0.3054  0.2315  0.3314
  195MPD1    C4 3020   4.534   0.277  17.460  0.0462 -0.3859  0.6078
  195MPD1    C5 3021   4.584   0.343  17.350 -0.0937 -0.3423 -0.0518
  195MPD1     H 3022   4.303   0.102  17.307 -0.3267 -0.5509  1.9500
  195MPD1    H1 3023   4.588   0.307  17.549 -1.0289 -0.8326  1.3909
  195MPD1    H2 3024   4.556   0.407  17.149 -0.3194 -0.3080 -0.2651
  195MPD1    H3 3025   4.672   0.405  17.365 -0.6639  0.6194 -0.7293
  195MPD1     N 3026   4.385   0.132  17.567  0.3058 -0.1285 -0.7310
  195MPD1    H5 3027   4.431   0.153  17.655 -0.6005 -0.8068 -0.0888
  195MPD1    N1 3028   4.341   0.249  17.089  0.2556  0.1566 -0.3111
  195MPD1    H6 3029   4.383   0.284  17.003  2.0470 -0.6771  0.2320
  195MPD1    H7 3030   4.290   0.162  17.078 -0.1498  0.2448  0.7928
  196MPD1     C 3031   2.761   0.211  16.970 -0.0535  0.3377  0.6786
  196MPD1    C1 3032   2.824   0.091  16.957  0.4531  0.6518 -0.1405
  196MPD1    C2 3033   2.917   0.047  17.046 -0.3697  0.0256  0.4371
  196MPD1    C3 3034   2.917   0.105  17.175  0.7838 -0.6452  0.3013
  196MPD1    C4 3035   2.828   0.208  17.200  1.1812  0.1331  0.0739
  196MPD1    C5 3036   2.766   0.273  17.095 -0.1911  0.1506 -0.1388
  196MPD1     H 3037   2.984   4.708  17.013  0.4454  0.8574  0.0796
  196MPD1    H1 3038   2.808   0.261  17.292 -0.3796 -3.5913  1.8882
  196MPD1    H2 3039   2.707   0.261  16.890 -0.1394 -1.0941 -0.1619
  196MPD1    H3 3040   2.713   0.364  17.116 -1.5207 -0.9187  1.1502
  196MPD1     N 3041   2.989   0.057  17.288  0.0403 -0.0471 -0.6440
  196MPD1    H5 3042   2.974   0.105  17.376  0.8916 -0.7162 -0.1356
  196MPD1    N1 3043   2.833   0.030  16.828  0.1114  0.4739 -0.7128
  196MPD1    H6 3044   2.855   4.671  16.832  2.7314  1.1551  1.7233
  196MPD1    H7 3045   2.753   0.052  16.768 -0.0192  3.3327  0.4936
  197MPD1     C 3046   2.793   0.931  17.432 -0.6122 -1.0810  0.0532
  197MPD1    C1 3047   2.900   1.011  17.466  0.0642 -0.3242  0.1537
  197MPD1    C2 3048   2.929   1.123  17.391 -0.2418  0.2220 -1.1551
  197MPD1    C3 3049   2.868   1.136  17.267 -0.2552  0.5983  0.3154
  197MPD1    C4 3050   2.771   1.047  17.228  0.4019 -0.1513 -0.7349
  197MPD1    C5 3051   2.731   0.953  17.313  0.1741  0.3184 -0.5002
  197MPD1     H 3052   3.003   1.186  17.440  0.1046  0.6047 -2.1736
  197MPD1    H1 3053   2.721   1.063  17.133 -2.5795 -2.1707  0.5180
  197MPD1    H2 3054   2.764   0.847  17.493 -0.7124  0.7348  2.4753
  197MPD1    H3 3055   2.656   0.884  17.276 -0.5950  1.6771 -1.4680
  197MPD1     N 3056   2.882   1.246  17.177  0.0589 -0.8529  0.4225
  197MPD1    H5 3057   2.824   1.235  17.094  0.0019  0.5903  0.2651
  197MPD1    N1 3058   2.964   0.995  17.591  0.2296  0.1034 -0.1389
  197MPD1    H6 3059   2.954   0.897  17.616 -0.6095  0.1966 -0.1044
  197MPD1    H7 3060   3.061   1.025  17.585  0.3862 -0.0702  1.7893
  198MPD1     C 3061   0.002   4.091  14.943  0.2929  0.1363 -0.4321
  198MPD1    C1 3062   0.010   4.021  15.060  0.4630 -0.0980 -0.0661
  198MPD1    C2 3063   0.001   4.097  15.177 -0.0413  0.1038  0.1846
  198MPD1    C3 3064   4.697   4.224  15.182  0.2986 -0.0656 -0.0205
  198MPD1    C4 3065   4.679   4.295  15.065  0.2329  0.3042 -0.7699
  198MPD1    C5 3066   4.707   4.223  14.948  0.2204 -0.0256  0.3824
  198MPD1     H 3067   0.041   4.040  15.260  0.1848  0.9191  0.6322
  198MPD1    H1 3068   4.656   4.398  15.041  0.8386  0.7932  0.7788
  198MPD1    H2 3069   0.014   4.041  14.847  1.3707 -0.8619  0.2174
  198MPD1    H3 3070   4.709   4.273  14.851 -0.0117 -0.2574  0.2587
  198MPD1     N 3071   4.675   4.284  15.306 -0.0444  0.9225  0.1520
  198MPD1    H5 3072   4.710   4.233  15.387 -2.7410  0.2881  0.9007
  198MPD1    N1 3073   0.083   3.900  15.070 -0.7849 -0.0055 -0.0304
  198MPD1    H6 3074   0.063   3.836  14.994  0.2669  0.7086 -0.8986
  198MPD1    H7 3075   0.052   3.863  15.160 -1.0621 -1.6199 -0.7899
  199MPD1     C 3076   2.540   1.585  10.334 -0.1910  0.1792  0.5965
  199MPD1    C1 3077   2.457   1.536  10.430 -0.0425  0.1333  0.0887
  199MPD1    C2 3078   2.356   1.449  10.402 -0.1652  0.3192 -0.9506
  199MPD1    C3 3079   2.357   1.377  10.281  0.1613  0.3183  0.0718
  199MPD1    C4 3080   2.441   1.419  10.180  0.0495 -0.3620  0.1426
  199MPD1    C5 3081   2.529   1.529  10.209 -0.4208 -0.3350 -0.0917
  199MPD1     H 3082   2.277   1.436  10.475  1.1334  1.1326  0.5939
  199MPD1    H1 3083   2.438   1.371  10.083  1.4819  2.4569 -1.2909
  199MPD1    H2 3084   2.615   1.662  10.346  0.0575 -0.1198  0.9751
  199MPD1    H3 3085   2.595   1.565  10.131 -1.4620  2.3104  0.2630
  199MPD1     N 3086   2.266   1.278  10.255  0.2370  0.3742 -0.9797
  199MPD1    H5 3087   2.240   1.255  10.159 -0.2617 -0.1813 -0.7091
  199MPD1    N1 3088   2.460   1.607  10.559 -0.0870 -0.0774  0.2311
  199MPD1    H6 3089   2.552   1.643  10.582  0.4798 -0.8705 -0.7781
  199MPD1    H7 3090   2.423   1.549  10.634 -0.8523 -1.6009 -1.3313
  200MPD1     C 3091   0.371   0.876  14.899 -0.6678 -0.0191 -0.7193
  200MPD1    C1 3092   0.394   0.793  14.783  0.0938 -0.1609 -0.0992
  200MPD1    C2 3093   0.522   0.752  14.750  0.4308 -0.6373  0.1826
  200MPD1    C3 3094   0.629   0.777  14.840  0.2271 -0.3433  0.0885
  200MPD1    C4 3095   0.600   0.850  14.959 -0.3239  0.0897 -0.3766
  200MPD1    C5 3096   0.473   0.898  14.987  0.4599  0.1313 -0.7641
  200MPD1     H 3097   0.543   0.700  14.657 -1.9410 -2.8638  0.8874
  200MPD1    H1 3098   0.680   0.875  15.027  0.4281 -2.5187 -0.3029
  200MPD1    H2 3099   0.276   0.920  14.926 -0.2663  1.7092 -2.1095
  200MPD1    H3 3100   0.453   0.959  15.075 -3.0850 -0.8006 -0.9362
  200MPD1     N 3101   0.758   0.736  14.802  0.3573 -0.7951  0.1959
  200MPD1    H5 3102   0.761   0.695  14.709 -3.7729  1.0546 -0.7579
  200MPD1    N1 3103   0.290   0.793  14.691 -0.3634 -0.1589  0.2073
  200MPD1    H6 3104   0.195   0.782  14.727 -0.4974  1.3868  0.3198
  200MPD1    H7 3105   0.302   0.719  14.622  0.9554 -0.8212  1.1448
  201MPD1     C 3106   2.875   4.549  13.591  0.1229  0.9955  0.1215
  201MPD1    C1 3107   2.836   4.427  13.645  0.0275 -0.6657 -0.3001
  201MPD1    C2 3108   2.929   4.333  13.675  0.0396 -0.0418 -0.5078
  201MPD1    C3 3109   3.065   4.352  13.657  0.7354 -0.3663 -0.4045
  201MPD1    C4 3110   3.110   4.476  13.605 -0.5680 -0.4600  0.4861
  201MPD1    C5 3111   3.008   4.566  13.565  0.1261  0.5578  0.3282
  201MPD1     H 3112   2.888   4.241  13.714 -0.5684 -0.6989 -2.6822
  201MPD1    H1 3113   3.215   4.499  13.593 -0.1673 -3.2766 -1.5701
  201MPD1    H2 3114   2.803   4.620  13.552 -0.9471 -0.1470  0.0159
  201MPD1    H3 3115   3.045   4.656  13.517 -0.2443  1.1964  1.2462
  201MPD1     N 3116   3.153   4.246  13.706  0.3237 -0.5422  0.2434
  201MPD1    H5 3117   3.111   4.178  13.768 -0.4167  0.9770  1.4279
  201MPD1    N1 3118   2.695   4.401  13.657 -0.6332 -1.0662 -0.2240
  201MPD1    H6 3119   2.639   4.486  13.653  0.1233 -0.5799 -0.4042
  201MPD1    H7 3120   2.663   4.337  13.730 -0.8722  0.4313  0.9928
  202MPD1     C 3121   3.661   3.661   9.271  0.5163 -0.1353 -0.2010
  202MPD1    C1 3122   3.707   3.783   9.232 -1.1382 -0.1155 -0.6063
  202MPD1    C2 3123   3.806   3.835   9.317  0.0369 -0.2346 -0.6011
  202MPD1    C3 3124   3.894   3.750   9.392  0.4740  0.0501  0.3688
  202MPD1    C4 3125   3.857   3.622   9.398 -0.1712 -0.3558 -0.2603
  202MPD1    C5 3126   3.733   3.576   9.349 -0.2838 -0.1596 -0.5624
  202MPD1     H 3127   3.817   3.940   9.343 -1.2173 -0.4004  0.5889
  202MPD1    H1 3128   3.907   3.551   9.463 -0.4356 -0.1871  0.1238
  202MPD1    H2 3129   3.568   3.620   9.234 -0.7262  2.0097  0.5346
  202MPD1    H3 3130   3.696   3.475   9.351 -1.8596  0.4455  0.6119
  202MPD1     N 3131   4.006   3.794   9.460 -0.6006 -0.2214 -0.0794
  202MPD1    H5 3132   4.051   3.726   9.521 -0.9094  0.9974  1.5192
  202MPD1    N1 3133   3.611   3.865   9.173  0.4267 -0.0182  0.2320
  202MPD1    H6 3134   3.574   3.831   9.084 -0.0232  0.7828  0.1063
  202MPD1    H7 3135   3.650   3.956   9.146  1.1530 -0.7174 -1.0801
  203MPD1     C 3136   1.821   0.076  12.406  0.4335  0.0420 -0.4941
  203MPD1    C1 3137   1.824   4.681  12.367  0.1773  0.1316 -0.0619
  203MPD1    C2 3138   1.917   4.601  12.422 -0.4536 -0.3752  0.0633
  203MPD1    C3 3139   2.012   4.652  12.512 -0.5927 -0.0749 -0.0304
  203MPD1    C4 3140   1.997   0.038  12.566  0.0511 -0.4091  0.1226
  203MPD1    C5 3141   1.898   0.121  12.508  0.0447  0.2287 -0.2094
  203MPD1     H 3142   1.920   4.495  12.397  0.0599 -1.0837  3.0385
  203MPD1    H1 3143   2.068   0.079  12.637  0.1999 -0.3591 -0.0556
  203MPD1    H2 3144   1.748   0.138  12.357 -1.0641 -1.4232 -0.1235
  203MPD1    H3 3145   1.889   0.220  12.551 -1.8130 -1.3931  3.1907
  203MPD1     N 3146   2.123   4.569  12.544  0.1782 -0.1823 -0.0594
  203MPD1    H5 3147   2.142   4.494  12.479 -0.2598  1.2317 -1.8026
  203MPD1    N1 3148   1.747   4.642  12.254  0.1124 -0.4439  0.5960
  203MPD1    H6 3149   1.666   4.700  12.231  0.1247 -0.6932 -0.0917
  203MPD1    H7 3150   1.710   4.547  12.253 -1.1329  0.0551 -2.3547
  204MPD1     C 3151   1.677   1.966  17.475 -1.0516  0.1186 -0.6478
  204MPD1    C1 3152   1.773   1.954  17.381 -0.4326 -0.2803  0.2183
  204MPD1    C2 3153   1.812   1.829  17.337 -0.3559 -0.5438  0.0931
  204MPD1    C3 3154   1.739   1.715  17.376 -0.5107  0.4678  0.1175
  204MPD1    C4 3155   1.634   1.738  17.469  0.5453  0.2710  0.3479
  204MPD1    C5 3156   1.606   1.866  17.516 -0.1340  0.3111 -0.2563
  204MPD1     H 3157   1.888   1.821  17.259 -1.0895  1.0631 -0.7933
  204MPD1    H1 3158   1.559   1.667  17.503 -0.6889  1.4391  0.0585
  204MPD1    H2 3159   1.635   2.062  17.503 -1.3066 -0.2149  0.1026
  204MPD1    H3 3160   1.523   1.889  17.581  1.0579  1.6769  0.7799
  204MPD1     N 3161   1.781   1.595  17.335  0.1724  0.1408 -0.4723
  204MPD1    H5 3162   1.864   1.603  17.276 -0.2061 -0.0108 -1.0296
  204MPD1    N1 3163   1.814   2.071  17.308  0.1939 -0.0510 -0.3072
  204MPD1    H6 3164   1.823   2.154  17.367  0.7763 -1.1792  1.2095
  204MPD1    H7 3165   1.910   2.062  17.276  0.2538  1.8700 -0.6891
  205MPD1     C 3166   2.399   4.573   0.050  0.3557 -0.8181 -0.3146
  205MPD1    C1 3167   2.425   4.691  17.735  0.0591  0.4448  0.3903
  205MPD1    C2 3168   2.319   4.728  17.645 -0.1309  0.2638 -0.4487
  205MPD1    C3 3169   2.201   4.654  17.638 -0.4629 -0.3797 -0.2100
  205MPD1    C4 3170   2.186   4.543  17.711 -0.2057  0.6373  0.4570
  205MPD1    C5 3171   2.283   4.499   0.034 -0.1499  0.0974  0.0755
  205MPD1     H 3172   2.327   0.082  17.592  0.0595  1.0638  1.0045
  205MPD1    H1 3173   2.098   4.479  17.709  0.4142 -0.1863 -1.1001
  205MPD1    H2 3174   2.475   4.541   0.120  0.8793  2.4197  0.6109
  205MPD1    H3 3175   2.273   4.408   0.092  0.1557  0.5248  0.7927
  205MPD1     N 3176   2.081   4.702  17.566  0.0043  0.1147  0.7491
  205MPD1    H5 3177   1.996   4.648  17.584  0.5117 -0.7437  0.5841
  205MPD1    N1 3178   2.533   0.031   0.024  0.2950  0.6174 -0.4802
  205MPD1    H6 3179   2.610   4.718   0.064 -1.4495 -2.0144 -0.6302
  205MPD1    H7 3180   2.558   0.074  17.694 -2.4614  1.2569 -0.9581
  206MPD1     C 3181   2.494   3.083  16.802 -0.1101  0.7492  0.0779
  206MPD1    C1 3182   2.558   3.013  16.699 -0.6570  0.0807  0.3038
  206MPD1    C2 3183   2.505   3.021  16.570 -0.1981  0.1418 -0.0669
  206MPD1    C3 3184   2.388   3.087  16.540  0.5789  0.2715 -0.1127
  206MPD1    C4 3185   2.328   3.156  16.640 -0.0537  0.3589  0.0207
  206MPD1    C5 3186   2.382   3.153  16.769 -0.2065  0.3652  0.4869
  206MPD1     H 3187   2.564   2.978  16.490  1.2414  1.5366  0.2359
  206MPD1    H1 3188   2.245   3.224  16.625 -1.3631 -0.9879  1.2304
  206MPD1    H2 3189   2.530   3.082  16.905 -0.6267  0.0418  0.2534
  206MPD1    H3 3190   2.337   3.208  16.851 -1.2276  0.1186  0.0870
  206MPD1     N 3191   2.339   3.094  16.411 -0.2421 -0.2793  0.2319
  206MPD1    H5 3192   2.271   3.167  16.395  0.0369 -0.5581 -2.2292
  206MPD1    N1 3193   2.688   2.968  16.723 -0.3414 -0.2205 -0.2184
  206MPD1    H6 3194   2.720   2.894  16.660  1.2465 -0.9265  1.3906
  206MPD1    H7 3195   2.691   2.935  16.819 -1.8984  0.4496  0.0472
  207MPD1     C 3196   4.360   0.813   9.789  0.4049  0.1732  1.2030
  207MPD1    C1 3197   4.366   0.767   9.922  0.0398  0.0953 -0.3002
  207MPD1    C2 3198   4.494   0.751   9.975  0.8659  0.0470 -0.2080
  207MPD1    C3 3199   4.614   0.767   9.895  0.0173 -0.4062 -0.5050
  207MPD1    C4 3200   4.597   0.800   9.760  0.1793  0.4865  0.8505
  207MPD1    C5 3201   4.472   0.830   9.713 -0.2896 -0.6856 -0.0295
  207MPD1     H 3202   4.486   0.722  10.080  3.3843 -0.6605 -0.2091
  207MPD1    H1 3203   4.687   0.817   9.702  0.3961  0.8032  1.2706
  207MPD1    H2 3204   4.261   0.824   9.746  0.3551  2.0774  1.8063
  207MPD1    H3 3205   4.457   0.862   9.610  0.5597  0.2010  0.1226
  207MPD1     N 3206   0.004   0.761   9.947 -0.0185  0.7589  0.3793
  207MPD1    H5 3207   0.081   0.804   9.897  0.6491 -0.2046  0.5822
  207MPD1    N1 3208   4.260   0.752  10.006  0.3191  0.3488  0.8139
  207MPD1    H6 3209   4.284   0.673  10.066  0.0741  0.4848  1.0848
  207MPD1    H7 3210   4.182   0.723   9.947  0.3542  0.5886  0.6490
  208MPD1     C 3211   1.197   3.232   0.239 -0.2653 -0.1267 -0.8994
  208MPD1    C1 3212   1.333   3.262   0.251 -0.3414  0.4391  0.3216
  208MPD1    C2 3213   1.371   3.391   0.222 -0.2932  0.2394  0.1718
  208MPD1    C3 3214   1.279   3.485   0.184  0.1030  0.4703 -0.2447
  208MPD1    C4 3215   1.143   3.459   0.174 -1.1877  0.1202  0.6511
  208MPD1    C5 3216   1.103   3.332   0.201 -0.4488 -0.6460  0.0817
  208MPD1     H 3217   1.474   3.427   0.231 -0.2517  0.5797 -1.6134
  208MPD1    H1 3218   1.059   3.527   0.162 -1.1700 -0.2260 -1.3365
  208MPD1    H2 3219   1.148   3.138   0.265  0.1389 -0.5370 -1.6231
  208MPD1    H3 3220   0.997   3.309   0.204 -0.2179 -1.6660  0.3106
  208MPD1     N 3221   1.334   3.607   0.153 -0.2492  0.6688  0.5601
  208MPD1    H5 3222   1.426   3.621   0.195  0.0781 -1.3146  0.5000
  208MPD1    N1 3223   1.425   3.157   0.260  0.0243  0.5824  0.2060
  208MPD1    H6 3224   1.518   3.178   0.295 -0.2171  1.3322  0.3929
  208MPD1    H7 3225   1.386   3.071   0.299  1.2133 -0.5002 -0.9956
  209MPD1     C 3226   0.347   0.090  11.818 -0.0386 -0.3086 -0.7485
  209MPD1    C1 3227   0.484   0.079  11.799  0.5710 -0.6352 -0.2685
  209MPD1    C2 3228   0.524   0.073  11.665  0.3612  0.6014 -0.6743
  209MPD1    C3 3229   0.432   0.092  11.563  0.6752  0.4944 -0.8081
  209MPD1    C4 3230   0.303   0.105  11.581 -0.9917 -0.6818 -0.7895
  209MPD1    C5 3231   0.254   0.111  11.712 -0.1203  0.1035 -0.3313
  209MPD1     H 3232   0.631   0.072  11.649  0.1263  0.3577 -2.1537
  209MPD1    H1 3233   0.225   0.123  11.509 -1.1039 -0.8061 -0.6983
  209MPD1    H2 3234   0.307   0.086  11.919  1.4008  1.5432 -0.1229
  209MPD1    H3 3235   0.149   0.124  11.733 -0.0365  0.9855 -0.4919
  209MPD1     N 3236   0.492   0.106  11.435 -0.2172  0.5727  0.2852
  209MPD1    H5 3237   0.592   0.089  11.437 -0.4187 -0.4505  1.6088
  209MPD1    N1 3238   0.569   0.045  11.901 -0.0503 -0.1766 -0.4331
  209MPD1    H6 3239   0.531   0.094  11.982  2.1354 -1.2912  1.2741
  209MPD1    H7 3240   0.657   0.090  11.881  0.6096 -1.6771 -0.9190
  210MPD1     C 3241   1.300   0.234  11.375  0.1440  0.0571  0.5095
  210MPD1    C1 3242   1.272   0.190  11.245  0.5635 -0.0908  0.5878
  210MPD1    C2 3243   1.140   0.189  11.207  0.8281  0.1984 -0.5439
  210MPD1    C3 3244   1.039   0.230  11.294 -0.1558 -0.1847  0.1989
  210MPD1    C4 3245   1.071   0.246  11.427 -0.1774  0.0933  0.8134
  210MPD1    C5 3246   1.199   0.252  11.470  0.3147 -0.7870 -0.2446
  210MPD1     H 3247   1.120   0.178  11.100 -2.7950  3.2014 -0.1578
  210MPD1    H1 3248   0.995   0.275  11.499 -0.8013  0.1717  0.1165
  210MPD1    H2 3249   1.400   0.266  11.400  0.7478  0.3748 -2.3820
  210MPD1    H3 3250   1.226   0.288  11.569 -0.7631 -1.9117  0.4616
  210MPD1     N 3251   0.906   0.241  11.255  0.5150 -0.3048  0.3499
  210MPD1    H5 3252   0.843   0.268  11.331  0.6400  0.1716  0.2858
  210MPD1    N1 3253   1.380   0.194  11.158  0.5505 -0.1240 -0.3409
  210MPD1    H6 3254   1.465   0.165  11.205  0.7212 -1.1882 -1.2820
  210MPD1    H7 3255   1.354   0.135  11.079 -2.2088  1.6869 -0.7966
  211MPD1     C 3256   2.553   0.017  15.694 -0.3763 -0.6202 -0.1763
  211MPD1    C1 3257   2.536   0.154  15.710 -0.0222 -0.6316  0.2390
  211MPD1    C2 3258   2.414   0.196  15.751  0.2033  0.1560  0.2297
  211MPD1    C3 3259   2.297   0.123  15.744  0.2422  0.3942  0.1346
  211MPD1    C4 3260   2.315   4.725  15.727  0.7467 -0.5468  0.1950
  211MPD1    C5 3261   2.441   4.677  15.700 -0.8559 -0.2264 -0.0740
  211MPD1     H 3262   2.404   0.297  15.788  1.1234  0.7712 -1.1707
  211MPD1    H1 3263   2.240   4.646  15.733 -0.6402  0.7438 -0.3003
  211MPD1    H2 3264   2.650   4.711  15.681 -0.7383 -1.7420  1.0509
  211MPD1    H3 3265   2.458   4.569  15.700  1.0712  0.0823 -0.3445
  211MPD1     N 3266   2.177   0.190  15.771 -0.3410 -0.4228  0.2840
  211MPD1    H5 3267   2.176   0.292  15.776  2.7641 -0.4988  2.6858
  211MPD1    N1 3268   2.651   0.230  15.720  0.2436 -0.9609  0.2661
  211MPD1    H6 3269   2.722   0.183  15.663  0.1521 -0.7928  0.0113
  211MPD1    H7 3270   2.644   0.329  15.696 -0.4928 -0.8701  0.8944
  212MPD1     C 3271   1.999   3.403  16.727  0.0497  0.1673  0.4536
  212MPD1    C1 3272   1.884   3.484  16.719 -0.7947  0.0552 -0.6342
  212MPD1    C2 3273   1.757   3.420  16.728 -0.3195  0.2517  0.1686
  212MPD1    C3 3274   1.751   3.285  16.750 -0.2316  0.7021  0.0995
  212MPD1    C4 3275   1.868   3.208  16.762 -0.1232  0.5910  1.1877
  212MPD1    C5 3276   1.988   3.268  16.752  0.1806 -0.1478  0.1158
  212MPD1     H 3277   1.665   3.478  16.719 -0.8486 -0.5371  0.4780
  212MPD1    H1 3278   1.879   3.108  16.802 -0.7569  0.4575  1.0162
  212MPD1    H2 3279   2.092   3.458  16.718 -0.0473  0.2069 -0.3047
  212MPD1    H3 3280   2.071   3.200  16.765 -1.0856 -1.5424  0.8416
  212MPD1     N 3281   1.629   3.214  16.762 -0.3139 -0.1638 -0.1142
  212MPD1    H5 3282   1.636   3.120  16.800 -3.2551 -1.2745 -2.3055
  212MPD1    N1 3283   1.911   3.621  16.713 -0.0581 -0.2178 -0.8775
  212MPD1    H6 3284   1.829   3.673  16.682 -0.4661  0.0352  0.6039
  212MPD1    H7 3285   1.993   3.648  16.658  0.3091  2.4052  0.9100
  213MPD1     C 3286   4.564   3.375  15.717 -0.5325  0.4658 -0.1181
  213MPD1    C1 3287   4.435   3.332  15.733 -0.0085  0.0351  0.6408
  213MPD1    C2 3288   4.353   3.372  15.625 -0.3233 -0.2912 -0.5450
  213MPD1    C3 3289   4.374   3.483  15.555 -0.2712  0.2089 -0.1555
  213MPD1    C4 3290   4.494   3.553  15.571 -0.2249  0.0225  0.0625
  213MPD1    C5 3291   4.587   3.501  15.660 -0.1178  0.1530  0.6531
  213MPD1     H 3292   4.259   3.321  15.610 -1.5420  2.1744 -1.2677
  213MPD1    H1 3293   4.512   3.654  15.538 -0.5431 -0.8983 -2.9488
  213MPD1    H2 3294   4.637   3.332  15.786 -0.8793  0.6948  0.3888
  213MPD1    H3 3295   4.686   3.544  15.674  0.4814 -0.4259 -1.8009
  213MPD1     N 3296   4.281   3.518  15.453 -0.0091  0.2651 -0.1345
  213MPD1    H5 3297   4.193   3.471  15.436  0.0201  0.0784  0.2215
  213MPD1    N1 3298   4.416   3.211  15.801 -0.4452  0.0526  0.1049
  213MPD1    H6 3299   4.317   3.194  15.818  0.6000 -0.7971  5.2921
  213MPD1    H7 3300   4.465   3.217  15.890 -0.5608  0.5730  0.1355
  214MPD1     C 3301   3.688   3.031  15.004 -0.9757  0.6070  0.0324
  214MPD1    C1 3302   3.760   3.096  14.907  0.4870  0.2464 -0.1737
  214MPD1    C2 3303   3.846   3.192  14.947 -0.6105  0.0633 -0.0297
  214MPD1    C3 3304   3.852   3.240  15.073 -0.2726  0.1180 -0.6199
  214MPD1    C4 3305   3.766   3.185  15.169 -0.0968  0.3685  0.1506
  214MPD1    C5 3306   3.684   3.085  15.134 -0.1000  0.5582 -0.3268
  214MPD1     H 3307   3.912   3.235  14.873  0.6232 -0.8685  0.5339
  214MPD1    H1 3308   3.761   3.216  15.273  0.6384 -0.4782  0.4383
  214MPD1    H2 3309   3.614   2.954  14.987 -1.1011  0.8638 -0.5908
  214MPD1    H3 3310   3.627   3.044  15.216  0.1440  2.0689  0.6139
  214MPD1     N 3311   3.930   3.351  15.116  0.6529 -0.0648  0.9591
  214MPD1    H5 3312   3.945   3.366  15.215 -0.3904 -3.7212  1.6371
  214MPD1    N1 3313   3.768   3.038  14.777 -0.0680  0.2173  0.4072
  214MPD1    H6 3314   3.694   2.972  14.753  0.9339  0.1749 -2.6483
  214MPD1    H7 3315   3.770   3.107  14.702 -3.3339 -2.2206 -1.9412
  215MPD1     C 3316   3.553   0.798  10.804 -0.3977  0.0253  0.0815
  215MPD1    C1 3317   3.670   0.867  10.776  0.2551 -0.6306  0.2123
  215MPD1    C2 3318   3.792   0.807  10.813 -1.4740 -0.0655  0.0625
  215MPD1    C3 3319   3.796   0.675  10.866 -0.5448 -0.2593 -0.3204
  215MPD1    C4 3320   3.677   0.602  10.876 -0.0070  0.0391 -0.3678
  215MPD1    C5 3321   3.557   0.662  10.843  0.6118 -0.4306  0.2197
  215MPD1     H 3322   3.883   0.866  10.819 -2.2282  1.1407 -0.2210
  215MPD1    H1 3323   3.682   0.504  10.921 -0.3438  0.2085  0.0465
  215MPD1    H2 3324   3.455   0.843  10.794  1.4828  4.5390  2.1754
  215MPD1    H3 3325   3.461   0.616  10.862 -0.3245  2.3135  2.0127
  215MPD1     N 3326   3.927   0.631  10.894  0.6553  0.0576 -0.1222
  215MPD1    H5 3327   4.002   0.696  10.874  1.1784 -0.2295  0.8845
  215MPD1    N1 3328   3.666   1.009  10.760 -0.2526  0.2013 -0.2136
  215MPD1    H6 3329   3.590   1.034  10.697 -0.4714 -0.1431 -0.0801
  215MPD1    H7 3330   3.745   1.044  10.706  0.4354  0.3077  0.8665
  216MPD1     C 3331   0.614   2.282   0.111  0.4645 -0.0849 -0.9047
  216MPD1    C1 3332   0.653   2.412   0.114  0.0439  0.5182  0.2991
  216MPD1    C2 3333   0.762   2.451   0.039 -0.1289 -0.7492 -0.2747
  216MPD1    C3 3334   0.811   2.363  17.694  0.3330 -0.0015 -0.2928
  216MPD1    C4 3335   0.758   2.233  17.684 -0.3863  0.1668 -0.0358
  216MPD1    C5 3336   0.662   2.194   0.021 -0.8968 -0.0238 -0.3499
  216MPD1     H 3337   0.815   2.545   0.049  2.1443 -2.0051 -0.6312
  216MPD1    H1 3338   0.802   2.164  17.614  0.0033  0.1613  0.2158
  216MPD1    H2 3339   0.536   2.235   0.170  0.2255  1.1408 -0.2345
  216MPD1    H3 3340   0.615   2.096   0.030 -0.6073  0.0545  1.9089
  216MPD1     N 3341   0.919   2.402  17.611 -0.2126  0.0686 -0.3545
  216MPD1    H5 3342   0.969   2.489  17.629  0.9242 -0.8439  0.8736
  216MPD1    N1 3343   0.601   2.492   0.213  0.2428 -0.1845 -0.0279
  216MPD1    H6 3344   0.592   2.591   0.192  0.4845 -0.1523  0.0231
  216MPD1    H7 3345   0.508   2.460   0.240  0.5684 -2.1150 -1.2042
  217MPD1     C 3346   2.686   3.908   8.805  0.0099 -0.2623  0.2827
  217MPD1    C1 3347   2.756   3.789   8.799 -0.7623  0.5261 -0.1684
  217MPD1    C2 3348   2.736   3.697   8.904  0.5098  0.0646 -0.6508
  217MPD1    C3 3349   2.648   3.713   9.009  0.3464 -0.7881 -0.2196
  217MPD1    C4 3350   2.571   3.829   9.008 -0.1999  0.5764  0.1366
  217MPD1    C5 3351   2.580   3.914   8.898  1.0092 -0.0540 -0.0335
  217MPD1     H 3352   2.800   3.609   8.904  0.0177 -0.2981  2.5077
  217MPD1    H1 3353   2.504   3.851   9.090  0.4599  1.3422  0.4829
  217MPD1    H2 3354   2.700   3.989   8.734  3.3491 -1.6608 -0.6282
  217MPD1    H3 3355   2.525   4.007   8.909  3.2839  1.3585 -0.5315
  217MPD1     N 3356   2.617   3.622   9.115  0.1051 -0.1979  0.5073
  217MPD1    H5 3357   2.534   3.644   9.169  0.4520  0.5327  0.7477
  217MPD1    N1 3358   2.873   3.786   8.723 -0.3502 -0.5239 -0.1401
  217MPD1    H6 3359   2.900   3.687   8.723  1.5929  0.0195 -0.1490
  217MPD1    H7 3360   2.850   3.815   8.628  0.0138 -1.9976 -0.6870
  218MPD1     C 3361   0.231   1.004  12.032 -0.3222  0.2100  0.5292
  218MPD1    C1 3362   0.243   0.908  12.133 -0.3865 -0.9815 -0.3385
  218MPD1    C2 3363   0.143   0.817  12.140 -0.4244  0.2632  0.5620
  218MPD1    C3 3364   0.023   0.825  12.064 -0.5059  0.2394 -0.2407
  218MPD1    C4 3365   0.011   0.935  11.984  0.4015  0.3140 -0.0199
  218MPD1    C5 3366   0.111   1.026  11.968  0.4084  0.4302 -0.7959
  218MPD1     H 3367   0.150   0.731  12.205  1.4384  0.4384  0.5725
  218MPD1    H1 3368   4.664   0.953  11.922  1.3954 -0.7232 -1.7016
  218MPD1    H2 3369   0.320   1.062  12.009  0.1869 -1.4664 -1.8372
  218MPD1    H3 3370   0.088   1.104  11.896 -1.2222  2.3041  1.7256
  218MPD1     N 3371   4.671   0.721  12.072  0.8681 -0.1918  0.6141
  218MPD1    H5 3372   4.686   0.648  12.141  1.1095 -1.1137 -0.4023
  218MPD1    N1 3373   0.360   0.862  12.193  0.4244  0.2150  0.4871
  218MPD1    H6 3374   0.340   0.816  12.281 -1.0172  1.1331  0.6378
  218MPD1    H7 3375   0.417   0.944  12.215  2.5367 -1.2727  0.6155
  219MPD1     C 3376   3.826   0.157  11.656  0.3247  0.1424 -0.0371
  219MPD1    C1 3377   3.946   0.204  11.602 -0.1175  0.7684  0.3804
  219MPD1    C2 3378   4.054   0.253  11.678  0.2893  0.5083 -0.1700
  219MPD1    C3 3379   4.019   0.279  11.814  0.1507 -0.5828  0.7912
  219MPD1    C4 3380   3.908   0.229  11.870 -0.1815  0.0077 -0.1285
  219MPD1    C5 3381   3.818   0.167  11.793 -0.9559  0.3622  0.2451
  219MPD1     H 3382   4.148   0.282  11.635  0.7802 -0.5261  0.1951
  219MPD1    H1 3383   3.890   0.241  11.976 -0.5885 -0.8043 -0.1082
  219MPD1    H2 3384   3.758   0.099  11.595  0.6497 -0.8872  0.5787
  219MPD1    H3 3385   3.734   0.128  11.849 -0.1416 -0.9726  0.5376
  219MPD1     N 3386   4.110   0.331  11.908 -0.2309 -0.1284 -0.3691
  219MPD1    H5 3387   4.076   0.336  12.004 -1.9864 -1.2853 -0.9430
  219MPD1    N1 3388   3.972   0.183  11.464 -0.5619 -0.0235  0.5304
  219MPD1    H6 3389   3.894   0.172  11.400  1.5489 -0.8732 -1.9256
  219MPD1    H7 3390   4.044   0.243  11.424 -0.5913  0.2193  0.8404
  220MPD1     C 3391   4.188   3.875  10.012  0.1229  0.5734  0.3060
  220MPD1    C1 3392   4.290   3.954  10.073 -0.8133 -0.6617  0.3246
  220MPD1    C2 3393   4.258   4.087  10.111 -1.0352 -0.0071  0.2031
  220MPD1    C3 3394   4.145   4.152  10.066  0.5724 -0.2591  0.8022
  220MPD1    C4 3395   4.053   4.079   9.989 -0.0999 -0.4913  0.5633
  220MPD1    C5 3396   4.072   3.945   9.980  0.1500  0.1764  0.6391
  220MPD1     H 3397   4.346   4.145  10.139  0.7759 -2.1057 -1.1908
  220MPD1    H1 3398   3.955   4.109   9.954  1.0029 -0.7637 -2.8165
  220MPD1    H2 3399   4.196   3.771   9.981 -1.2215  0.7146 -0.5273
  220MPD1    H3 3400   3.980   3.898   9.945  0.8657 -1.2305  0.6357
  220MPD1     N 3401   4.128   4.289  10.099  0.3475  0.1425  0.0069
  220MPD1    H5 3402   4.197   4.323  10.164 -0.0425 -0.7312  0.8669
  220MPD1    N1 3403   4.412   3.890  10.101 -0.3457 -0.3926 -0.2351
  220MPD1    H6 3404   4.493   3.951  10.088  0.1091 -0.8343  0.5179
  220MPD1    H7 3405   4.421   3.813  10.034  1.7710 -0.0759 -0.3219
  221MPD1     C 3406   2.711   3.769  16.594  0.1666  0.1108  0.1175
  221MPD1    C1 3407   2.744   3.709  16.472 -0.4101  0.1491  0.4227
  221MPD1    C2 3408   2.647   3.719  16.374 -0.5915  0.6701  0.2368
  221MPD1    C3 3409   2.534   3.789  16.394 -0.7293  0.9206  0.4783
  221MPD1    C4 3410   2.505   3.847  16.514  0.3801  0.2177 -0.1095
  221MPD1    C5 3411   2.601   3.844  16.615  0.6163  0.5177  0.4891
  221MPD1     H 3412   2.653   3.656  16.286 -0.1692 -0.3622  1.0040
  221MPD1    H1 3413   2.419   3.910  16.533  1.0268  1.1976 -0.4508
  221MPD1    H2 3414   2.780   3.757  16.676 -1.5156  2.5638  1.8842
  221MPD1    H3 3415   2.577   3.889  16.711 -1.2140  1.2046 -0.2885
  221MPD1     N 3416   2.442   3.809  16.288  0.1065  0.4671  0.1413
  221MPD1    H5 3417   2.370   3.873  16.319 -0.5600 -0.2427  0.0240
  221MPD1    N1 3418   2.856   3.627  16.464 -0.7672 -0.1161 -0.7403
  221MPD1    H6 3419   2.899   3.623  16.372  0.2354  1.0431 -0.3293
  221MPD1    H7 3420   2.914   3.667  16.538 -0.6401 -0.6502 -0.5517
  222MPD1     C 3421   1.788   2.666   0.653 -0.1626  0.5947 -0.8126
  222MPD1    C1 3422   1.802   2.791   0.701 -0.1171  0.2388 -0.2319
  222MPD1    C2 3423   1.715   2.894   0.671  0.4300 -0.6470  0.5044
  222MPD1    C3 3424   1.597   2.863   0.606  0.2798  0.2720 -0.4312
  222MPD1    C4 3425   1.577   2.732   0.567 -0.4181  0.3031  0.0832
  222MPD1    C5 3426   1.674   2.636   0.589  0.2797 -0.5153 -0.0639
  222MPD1     H 3427   1.730   2.993   0.715  1.8922 -0.4231 -0.4937
  222MPD1    H1 3428   1.488   2.700   0.514  0.1968  0.5608 -1.1014
  222MPD1    H2 3429   1.850   2.579   0.674  2.0005  2.0657 -1.1519
  222MPD1    H3 3430   1.668   2.539   0.542 -0.4450 -0.4865 -0.0318
  222MPD1     N 3431   1.486   2.961   0.594  0.7316 -0.1300 -0.0671
  222MPD1    H5 3432   1.397   2.929   0.557 -0.3120  1.0708  1.3694
  222MPD1    N1 3433   1.926   2.831   0.754  0.2339  0.7935  0.5796
  222MPD1    H6 3434   1.963   2.754   0.810 -0.5856 -0.7074 -0.9436
  222MPD1    H7 3435   1.908   2.906   0.820 -2.1433  0.5692  0.1875
  223MPD1     C 3436   0.708   2.682   0.493 -0.2898 -0.1163  0.6220
  223MPD1    C1 3437   0.828   2.655   0.444 -0.0241  0.0327 -0.1687
  223MPD1    C2 3438   0.934   2.744   0.476  0.2624  0.6511  0.3803
  223MPD1    C3 3439   0.905   2.869   0.537  0.1253 -0.3909  0.8385
  223MPD1    C4 3440   0.774   2.900   0.566 -1.0220 -0.0922 -0.0532
  223MPD1    C5 3441   0.682   2.798   0.554  0.4115  0.8686 -0.1331
  223MPD1     H 3442   1.037   2.728   0.447  0.1004 -0.8492  0.6445
  223MPD1    H1 3443   0.744   2.993   0.613 -4.1913 -0.9789 -0.3302
  223MPD1    H2 3444   0.632   2.605   0.491 -0.2955 -0.1022  0.3636
  223MPD1    H3 3445   0.579   2.820   0.575  0.8613  2.6211  0.1972
  223MPD1     N 3446   1.009   2.960   0.544 -0.1850  0.3459 -0.1533
  223MPD1    H5 3447   1.100   2.916   0.533 -0.3669  0.0912 -0.6270
  223MPD1    N1 3448   0.850   2.526   0.390  0.2858  0.4413  0.0296
  223MPD1    H6 3449   0.765   2.504   0.339  0.6072  1.0689 -0.7698
  223MPD1    H7 3450   0.927   2.517   0.325 -1.5769 -0.6058 -2.0288
  224MPD1     C 3451   2.110   3.584   9.667  0.1189 -0.4267  0.1097
  224MPD1    C1 3452   2.215   3.494   9.707 -0.3669 -0.1016  0.0523
  224MPD1    C2 3453   2.344   3.551   9.698  0.3130  0.3420  0.6781
  224MPD1    C3 3454   2.374   3.668   9.628 -0.2108 -0.2515 -0.0606
  224MPD1    C4 3455   2.269   3.739   9.574  0.0610 -0.6285  0.0683
  224MPD1    C5 3456   2.142   3.696   9.596  0.3231 -0.4430  0.8166
  224MPD1     H 3457   2.431   3.500   9.739  1.5965  0.7633 -1.5204
  224MPD1    H1 3458   2.283   3.830   9.517 -0.1832 -0.6768 -0.0672
  224MPD1    H2 3459   2.004   3.561   9.666  0.3631 -1.6049  1.0783
  224MPD1    H3 3460   2.061   3.760   9.562  0.7780  0.3845  1.3020
  224MPD1     N 3461   2.501   3.721   9.603 -0.1146  0.1885  0.6365
  224MPD1    H5 3462   2.511   3.802   9.543 -1.8543 -0.9642 -1.1995
  224MPD1    N1 3463   2.188   3.374   9.771 -0.1994  0.3696  0.2470
  224MPD1    H6 3464   2.105   3.327   9.733 -0.6625  0.2659  1.3951
  224MPD1    H7 3465   2.273   3.319   9.762  0.2602  1.1383 -0.0257
  225MPD1     C 3466   4.332   1.021  12.076  0.0312  0.2129  0.5482
  225MPD1    C1 3467   4.253   0.961  11.976 -0.2414  0.0709 -0.1260
  225MPD1    C2 3468   4.118   0.996  11.976  0.7722  0.0199  0.3199
  225MPD1    C3 3469   4.064   1.073  12.077  0.4115 -0.2108  0.2374
  225MPD1    C4 3470   4.144   1.115  12.185 -0.0384 -0.7102 -0.0384
  225MPD1    C5 3471   4.279   1.088  12.182  0.7212  0.4448  0.2606
  225MPD1     H 3472   4.063   0.954  11.892  0.1936 -0.9325  1.1715
  225MPD1    H1 3473   4.108   1.175  12.268  1.1662 -0.9402  0.6361
  225MPD1    H2 3474   4.440   1.007  12.082  0.1998  1.5141  0.5465
  225MPD1    H3 3475   4.342   1.136  12.256 -1.3522 -1.3727  3.2369
  225MPD1     N 3476   3.927   1.088  12.093 -0.5968  0.1515 -0.1812
  225MPD1    H5 3477   3.904   1.145  12.174 -2.3345 -1.1624  0.2287
  225MPD1    N1 3478   4.304   0.906  11.859  0.2734  0.2224 -0.7469
  225MPD1    H6 3479   4.242   0.832  11.826  3.5566 -1.7517 -2.5220
  225MPD1    H7 3480   4.395   0.864  11.877  0.5384  0.6434 -1.1207
  226MPD1     C 3481   2.653   0.162   9.525 -0.7163 -0.2491  0.1498
  226MPD1    C1 3482   2.777   0.195   9.485  0.0966  0.5567 -0.1575
  226MPD1    C2 3483   2.830   0.321   9.510 -0.2261 -0.2514 -0.0508
  226MPD1    C3 3484   2.761   0.409   9.591  0.0935 -1.1380  0.1556
  226MPD1    C4 3485   2.637   0.376   9.645 -0.8162 -0.1643  0.2963
  226MPD1    C5 3486   2.586   0.252   9.602 -0.3386  0.0613  0.5538
  226MPD1     H 3487   2.921   0.353   9.461  0.2823 -0.9785  0.4145
  226MPD1    H1 3488   2.584   0.436   9.718 -0.8096  0.4276 -0.1891
  226MPD1    H2 3489   2.603   0.068   9.502 -1.7042  0.5686 -1.0339
  226MPD1    H3 3490   2.494   0.214   9.644 -0.8182  1.4354  0.7448
  226MPD1     N 3491   2.814   0.540   9.619 -0.0484 -0.2615 -0.4636
  226MPD1    H5 3492   2.906   0.557   9.580 -0.1948  0.9751 -0.2750
  226MPD1    N1 3493   2.857   0.118   9.398 -0.3363 -0.6496 -0.4461
  226MPD1    H6 3494   2.955   0.123   9.426 -0.5658 -1.2275  0.4898
  226MPD1    H7 3495   2.829   0.020   9.398 -0.1845 -0.6946  0.2901
  227MPD1     C 3496   2.283   1.341   9.839  0.4071 -0.2176 -0.2450
  227MPD1    C1 3497   2.282   1.213   9.884  0.1729  0.0668  0.3642
  227MPD1    C2 3498   2.397   1.134   9.858  0.2676 -0.1084  0.5286
  227MPD1    C3 3499   2.509   1.179   9.784  0.3253 -0.1918 -0.1193
  227MPD1    C4 3500   2.503   1.308   9.738 -0.1001 -1.0267  0.3108
  227MPD1    C5 3501   2.390   1.385   9.763  0.1038  0.2940  0.2669
  227MPD1     H 3502   2.390   1.033   9.896 -0.4536 -1.1340 -2.3409
  227MPD1    H1 3503   2.587   1.356   9.689  0.3628 -2.2916 -0.1091
  227MPD1    H2 3504   2.205   1.411   9.867 -1.3848 -2.2455 -0.1307
  227MPD1    H3 3505   2.392   1.491   9.741  1.2353 -0.0222 -1.1281
  227MPD1     N 3506   2.614   1.091   9.768 -0.0071 -0.1135  0.1169
  227MPD1    H5 3507   2.597   0.996   9.799  1.9049 -0.7417 -0.7324
  227MPD1    N1 3508   2.186   1.168   9.973 -0.3049  0.4607 -0.1229
  227MPD1    H6 3509   2.095   1.211   9.960  0.4420  2.5066  1.5623
  227MPD1    H7 3510   2.162   1.069   9.962  2.3857 -0.3401  1.2036
  228MPD1     C 3511   0.517   3.645  11.864  0.2978 -0.2468 -1.2764
  228MPD1    C1 3512   0.407   3.720  11.888 -0.3201 -1.0604 -0.6009
  228MPD1    C2 3513   0.353   3.729  12.018 -0.1550 -0.5435  1.0933
  228MPD1    C3 3514   0.417   3.663  12.121 -0.4296 -0.1009  0.3325
  228MPD1    C4 3515   0.536   3.594  12.097  0.7435  0.6935  0.1065
  228MPD1    C5 3516   0.584   3.586  11.970 -0.4866  0.2884  0.2668
  228MPD1     H 3517   0.262   3.784  12.039 -0.0488  0.3579 -0.7623
  228MPD1    H1 3518   0.597   3.547  12.174  2.1093  0.0600 -1.3596
  228MPD1    H2 3519   0.556   3.631  11.764  2.0340  0.9429 -0.7679
  228MPD1    H3 3520   0.671   3.521  11.964  0.4527  1.3664  2.5033
  228MPD1     N 3521   0.353   3.677  12.241  0.3811  0.2669  0.4126
  228MPD1    H5 3522   0.258   3.714  12.239 -0.3897 -1.8302 -1.0157
  228MPD1    N1 3523   0.337   3.772  11.772 -0.1814  0.5256  0.2089
  228MPD1    H6 3524   0.404   3.801  11.702 -0.4305 -1.7580 -0.9765
  228MPD1    H7 3525   0.270   3.846  11.789  0.6916  0.7852  2.5316
  229MPD1     C 3526   0.290   2.266  14.204  0.1300  0.7436  0.0416
  229MPD1    C1 3527   0.339   2.310  14.321 -0.1906 -0.4337  0.6400
  229MPD1    C2 3528   0.426   2.224  14.388 -0.2469 -0.2097 -0.1246
  229MPD1    C3 3529   0.472   2.100  14.338 -0.5605 -0.0639  0.1305
  229MPD1    C4 3530   0.423   2.058  14.214 -0.1036  0.7514 -0.0649
  229MPD1    C5 3531   0.334   2.145  14.147 -0.4447  0.5217 -0.3088
  229MPD1     H 3532   0.456   2.260  14.486  1.0849  2.4158 -1.5155
  229MPD1    H1 3533   0.449   1.960  14.176 -1.3287 -0.3062  1.8265
  229MPD1    H2 3534   0.214   2.320  14.149 -0.1623  1.2194  0.8982
  229MPD1    H3 3535   0.303   2.121  14.047  1.4086 -0.7859 -0.5607
  229MPD1     N 3536   0.569   2.023  14.417 -1.1077  0.2249 -0.6358
  229MPD1    H5 3537   0.608   1.934  14.387 -0.0142  0.1912  0.8570
  229MPD1    N1 3538   0.284   2.426  14.375 -0.7146 -0.1563  0.5862
  229MPD1    H6 3539   0.354   2.478  14.428  0.9562 -1.3115 -0.4778
  229MPD1    H7 3540   0.268   2.493  14.300 -0.4519  0.7573  1.3482
  230MPD1     C 3541   0.926   1.877  15.426  0.4980 -0.7869  0.3843
  230MPD1    C1 3542   0.972   1.766  15.364  0.0439 -0.0194  0.3113
  230MPD1    C2 3543   0.930   1.745  15.234 -0.4401  0.1738  0.0597
  230MPD1    C3 3544   0.881   1.848  15.155 -0.2303  0.0400 -0.4149
  230MPD1    C4 3545   0.846   1.968  15.222  0.3007  0.0961  0.1194
  230MPD1    C5 3546   0.861   1.975  15.358  0.1032 -0.1314  0.8076
  230MPD1     H 3547   0.949   1.649  15.187  1.1195  0.5726 -0.1421
  230MPD1    H1 3548   0.814   2.062  15.177  2.4727  0.9053  0.2757
  230MPD1    H2 3549   0.933   1.880  15.534 -2.0406 -1.9777  0.5967
  230MPD1    H3 3550   0.844   2.073  15.402 -0.4265  0.3490 -0.4691
  230MPD1     N 3551   0.863   1.835  15.020 -0.1346 -0.9474 -0.0249
  230MPD1    H5 3552   0.886   1.745  14.979  0.8904 -0.0750 -1.3620
  230MPD1    N1 3553   1.029   1.659  15.429 -0.0613  0.2548 -0.1584
  230MPD1    H6 3554   1.079   1.588  15.376 -0.2590 -0.0659  0.0883
  230MPD1    H7 3555   1.065   1.691  15.519  2.8426  1.2857 -1.6688
  231MPD1     C 3556   3.276   3.732  15.698  0.0019 -0.5353  0.0058
  231MPD1    C1 3557   3.284   3.661  15.583 -0.3855  0.4161 -0.0103
  231MPD1    C2 3558   3.343   3.715  15.475  0.0843 -0.3495 -0.1864
  231MPD1    C3 3559   3.402   3.845  15.484 -0.4232  0.1037  0.6401
  231MPD1    C4 3560   3.397   3.915  15.608 -0.2762 -0.7957 -0.5386
  231MPD1    C5 3561   3.336   3.855  15.712 -0.2739  0.5553  0.4880
  231MPD1     H 3562   3.354   3.663  15.380 -1.2461 -2.0544  0.5986
  231MPD1    H1 3563   3.443   4.011  15.630  0.4437 -1.1712 -0.3783
  231MPD1    H2 3564   3.219   3.701  15.785 -0.0517 -1.6772 -0.4428
  231MPD1    H3 3565   3.323   3.907  15.806  0.4246  0.3105  0.7158
  231MPD1     N 3566   3.467   3.901  15.373  1.1121 -0.0023 -0.4132
  231MPD1    H5 3567   3.448   3.856  15.284 -2.4185  2.2528 -0.8241
  231MPD1    N1 3568   3.222   3.536  15.574  0.1939  0.8839  0.4399
  231MPD1    H6 3569   3.284   3.480  15.517 -2.5780 -1.5428 -0.1962
  231MPD1    H7 3570   3.205   3.483  15.659  0.4865 -0.3024 -0.2358
  232MPD1     C 3571   0.332   2.730   0.373  0.4255  0.3554 -0.0752
  232MPD1    C1 3572   0.326   2.791   0.255 -0.1188 -0.2960  0.0134
  232MPD1    C2 3573   0.301   2.706   0.152 -0.5532 -0.3424  0.7463
  232MPD1    C3 3574   0.282   2.569   0.160 -0.7743  0.6696  0.4459
  232MPD1    C4 3575   0.293   2.515   0.281  0.0988 -0.2517  1.2613
  232MPD1    C5 3576   0.310   2.599   0.384  0.3809  0.4553 -0.0944
  232MPD1     H 3577   0.275   2.742   0.053  1.3499 -0.4710  0.1927
  232MPD1    H1 3578   0.272   2.411   0.303  1.5779 -0.7494  0.3563
  232MPD1    H2 3579   0.359   2.780   0.465 -3.2449 -0.4600  1.4521
  232MPD1    H3 3580   0.322   2.556   0.483  0.6039  2.0447  0.5652
  232MPD1     N 3581   0.255   2.492   0.043 -0.8855 -0.1181 -0.0220
  232MPD1    H5 3582   0.244   2.546  17.716 -2.1448  0.9143  0.7855
  232MPD1    N1 3583   0.360   2.928   0.235  0.7272  0.2184 -0.2664
  232MPD1    H6 3584   0.363   2.987   0.318 -1.3052  0.4386 -0.3543
  232MPD1    H7 3585   0.327   2.977   0.152  3.4182  0.5444 -1.1397
  233MPD1     C 3586   2.496   1.048   1.120  0.3226 -0.3610 -0.0823
  233MPD1    C1 3587   2.568   0.958   1.193  0.6249  0.1987  0.3146
  233MPD1    C2 3588   2.524   0.827   1.202 -0.1659  0.0289  0.3448
  233MPD1    C3 3589   2.417   0.777   1.125  0.2188 -0.0210 -0.8782
  233MPD1    C4 3590   2.353   0.863   1.043 -0.3352 -0.2395 -0.6610
  233MPD1    C5 3591   2.396   0.996   1.041  0.1697  0.2317 -0.5091
  233MPD1     H 3592   2.580   0.759   1.265  1.3076  0.3162 -0.6321
  233MPD1    H1 3593   2.277   0.817   0.982 -1.9005 -0.6732  1.5950
  233MPD1    H2 3594   2.509   1.155   1.114  0.6331 -0.3789  0.2552
  233MPD1    H3 3595   2.352   1.063   0.968 -1.0233  0.5664  0.5305
  233MPD1     N 3596   2.380   0.641   1.132 -0.1328 -0.1480 -0.3069
  233MPD1    H5 3597   2.311   0.620   1.061  0.0418  0.1973 -0.5818
  233MPD1    N1 3598   2.649   1.012   1.292 -0.6076  0.6377 -0.2692
  233MPD1    H6 3599   2.712   0.939   1.323 -0.9325  0.4579 -0.0317
  233MPD1    H7 3600   2.697   1.102   1.287 -0.2017  0.3498 -1.6426
  234MPD1     C 3601   3.769   2.952  10.670 -0.1925 -0.2079 -1.0374
  234MPD1    C1 3602   3.831   3.018  10.566 -0.3649  0.9572 -0.2994
  234MPD1    C2 3603   3.777   3.016  10.438  0.1519  0.1879 -0.0676
  234MPD1    C3 3604   3.652   2.962  10.417 -0.1701 -0.2869 -0.3038
  234MPD1    C4 3605   3.585   2.904  10.521  0.1304 -0.2962  0.1553
  234MPD1    C5 3606   3.647   2.899  10.643  0.0247 -0.0797 -0.3866
  234MPD1     H 3607   3.835   3.060  10.358  0.2577 -0.8622 -0.5766
  234MPD1    H1 3608   3.485   2.864  10.515 -0.0033 -0.0352  0.6223
  234MPD1    H2 3609   3.812   2.943  10.769  0.1039  3.4189 -0.8266
  234MPD1    H3 3610   3.597   2.848  10.724  1.9297  2.4878  2.4270
  234MPD1     N 3611   3.610   2.965  10.283 -0.3735 -0.7371  0.0284
  234MPD1    H5 3612   3.661   3.009  10.207  0.2282 -1.3802  0.0655
  234MPD1    N1 3613   3.957   3.073  10.586 -0.2304  0.2562  0.6148
  234MPD1    H6 3614   3.956   3.129  10.671 -1.7616 -1.2483  1.5754
  234MPD1    H7 3615   3.993   3.127  10.508 -1.0369 -2.9497 -1.9590
  235MPD1     C 3616   1.177   0.898  10.773  0.2661 -0.0897 -0.4410
  235MPD1    C1 3617   1.218   1.012  10.702  0.0051 -0.3440  0.0398
  235MPD1    C2 3618   1.122   1.105  10.656 -0.1872  0.2360  0.2726
  235MPD1    C3 3619   0.989   1.081  10.664  0.1463  0.2696 -0.6154
  235MPD1    C4 3620   0.954   0.960  10.719 -0.2535 -0.0790 -0.5076
  235MPD1    C5 3621   1.043   0.873  10.782 -0.1151  0.4968 -0.0832
  235MPD1     H 3622   1.158   1.193  10.604  2.3744  0.3524  2.2897
  235MPD1    H1 3623   0.851   0.925  10.719 -0.9878  2.0525  0.8074
  235MPD1    H2 3624   1.250   0.829  10.814  0.7365  1.2582  0.9959
  235MPD1    H3 3625   1.012   0.776  10.821 -1.2932  0.8185 -0.2048
  235MPD1     N 3626   0.906   1.173  10.602  0.2873  0.0158  0.4930
  235MPD1    H5 3627   0.932   1.262  10.562 -0.9077  0.0328 -0.2446
  235MPD1    N1 3628   1.355   1.052  10.708  0.7286  0.5410 -0.4913
  235MPD1    H6 3629   1.419   0.973  10.707  0.4917  0.3336  1.2163
  235MPD1    H7 3630   1.385   1.115  10.634 -0.1445  0.4606 -0.9201
  236MPD1     C 3631   3.796   2.302   9.599  0.0841 -0.0774  0.1487
  236MPD1    C1 3632   3.883   2.215   9.530 -0.1485  0.4724 -0.3879
  236MPD1    C2 3633   3.960   2.137   9.612 -0.3082  0.2623  0.6693
  236MPD1    C3 3634   3.958   2.154   9.752  0.0962 -0.2354 -0.3717
  236MPD1    C4 3635   3.887   2.250   9.819 -1.2534 -0.2392  0.9226
  236MPD1    C5 3636   3.803   2.320   9.735  0.4231 -0.4777  0.2634
  236MPD1     H 3637   4.023   2.055   9.579  0.2212  0.4089  1.3185
  236MPD1    H1 3638   3.899   2.269   9.925 -1.8508  0.7693  0.8082
  236MPD1    H2 3639   3.725   2.365   9.546 -0.4065 -2.6296 -2.2339
  236MPD1    H3 3640   3.745   2.402   9.776  0.9399 -0.9124  1.8601
  236MPD1     N 3641   4.042   2.071   9.833  0.5299 -0.1475 -0.2431
  236MPD1    H5 3642   4.058   2.098   9.930  1.1021  2.3639 -1.0502
  236MPD1    N1 3643   3.871   2.187   9.392 -0.1659 -0.5734 -0.0808
  236MPD1    H6 3644   3.843   2.271   9.341  0.5741 -2.1374 -3.0594
  236MPD1    H7 3645   3.956   2.157   9.344  1.6296  1.5411  1.7270
  237MPD1     C 3646   4.257   0.366  14.993 -0.4280 -0.3027  0.4574
  237MPD1    C1 3647   4.174   0.417  15.082 -0.0679 -0.6766 -0.1371
  237MPD1    C2 3648   4.038   0.404  15.073  0.2550  0.7462  0.0871
  237MPD1    C3 3649   3.981   0.329  14.967  0.1327 -0.1584  0.1809
  237MPD1    C4 3650   4.072   0.274  14.880 -0.7211  0.3805 -0.1312
  237MPD1    C5 3651   4.205   0.293  14.896  0.7230 -0.0676  0.5299
  237MPD1     H 3652   3.974   0.448  15.148  0.2724 -1.4158  1.3857
  237MPD1    H1 3653   4.034   0.212  14.799 -1.5198  1.4908 -0.5991
  237MPD1    H2 3654   4.365   0.371  14.992 -0.4496  0.3753  1.4134
  237MPD1    H3 3655   4.274   0.248  14.826 -0.8873 -1.2252 -0.3072
  237MPD1     N 3656   3.844   0.300  14.958 -0.0040 -0.6209 -0.4809
  237MPD1    H5 3657   3.804   0.248  14.881 -1.8442 -1.0342  0.7502
  237MPD1    N1 3658   4.225   0.489  15.194  0.6840  0.2376  0.0945
  237MPD1    H6 3659   4.166   0.571  15.206  0.7424  0.3322 -0.2907
  237MPD1    H7 3660   4.321   0.511  15.168  0.1108  1.3045 -1.1153
  238MPD1     C 3661   0.855   4.405  14.863 -0.5303  0.5698  0.2813
  238MPD1    C1 3662   0.745   4.330  14.909 -0.2521 -0.6878 -0.3037
  238MPD1    C2 3663   0.715   4.208  14.844 -0.1746 -0.1080 -0.1232
  238MPD1    C3 3664   0.761   4.185  14.720  0.0747 -0.4343 -0.2399
  238MPD1    C4 3665   0.856   4.270  14.668  0.4705 -0.5414 -0.2193
  238MPD1    C5 3666   0.904   4.375  14.739 -0.7861 -0.3471  0.2248
  238MPD1     H 3667   0.634   4.146  14.881  0.3289 -1.4733 -1.3473
  238MPD1    H1 3668   0.882   4.254  14.563  0.8487  0.3618 -0.2567
  238MPD1    H2 3669   0.891   4.496  14.909  0.8905  0.3171 -0.3299
  238MPD1    H3 3670   0.979   4.438  14.692 -1.1780 -1.2883 -1.6722
  238MPD1     N 3671   0.714   4.076  14.641 -0.2054 -0.1104  0.2838
  238MPD1    H5 3672   0.736   4.073  14.542  4.0062  0.1476  1.2140
  238MPD1    N1 3673   0.688   4.353  15.038 -0.3718  0.2997  0.0087
  238MPD1    H6 3674   0.589   4.329  15.047 -0.2163 -0.9699 -1.5357
  238MPD1    H7 3675   0.699   4.448  15.071  0.0511  0.8616 -1.7355
  239MPD1     C 3676   0.546   4.622  15.108 -0.2868 -0.1820  0.2517
  239MPD1    C1 3677   0.671   4.652  15.050  0.1382 -0.1132 -0.1857
  239MPD1    C2 3678   0.670   4.694  14.917 -0.1216 -0.3350  0.0080
  239MPD1    C3 3679   0.553   4.705  14.845  0.1493 -0.2672 -0.2464
  239MPD1    C4 3680   0.430   4.676  14.903  0.5833 -0.3008 -0.6864
  239MPD1    C5 3681   0.432   4.631  15.035  0.2065 -0.1988 -0.2798
  239MPD1     H 3682   0.763   4.736  14.881  1.0026 -2.6277  0.2575
  239MPD1    H1 3683   0.334   4.670  14.852 -0.3327 -1.3308  1.1689
  239MPD1    H2 3684   0.536   4.598  15.213 -0.7229  3.6830  1.0674
  239MPD1    H3 3685   0.334   4.623  15.082 -0.6080 -1.5372 -2.1754
  239MPD1     N 3686   0.548   0.015  14.716  0.4245  0.1677 -0.3107
  239MPD1    H5 3687   0.459   0.006  14.667  2.7161 -1.9558 -4.0468
  239MPD1    N1 3688   0.789   4.631  15.121 -0.0929  0.2322  0.6086
  239MPD1    H6 3689   0.758   4.628  15.217  0.8764 -1.2218  0.8734
  239MPD1    H7 3690   0.852   4.710  15.110  0.3501 -0.2410 -0.2639
  240MPD1     C 3691   0.205   4.728  13.682 -0.6147  0.7524 -0.0717
  240MPD1    C1 3692   0.226   0.002  13.819  0.1374 -0.7889 -0.1726
  240MPD1    C2 3693   0.186   4.638  13.900 -0.5597 -0.0007  0.2753
  240MPD1    C3 3694   0.130   4.522  13.851  0.5257 -0.2002 -0.1861
  240MPD1    C4 3695   0.113   4.506  13.714 -0.2268 -0.8256  0.2974
  240MPD1    C5 3696   0.145   4.607  13.630 -0.0580  1.1916 -0.1161
  240MPD1     H 3697   0.177   4.645  14.007  2.5659 -1.6558  0.6555
  240MPD1    H1 3698   0.085   4.414  13.664 -1.6103  0.0843 -0.5891
  240MPD1    H2 3699   0.235   0.060  13.607  2.1751  0.1760  0.4814
  240MPD1    H3 3700   0.136   4.595  13.523  1.5951  1.4631 -0.2927
  240MPD1     N 3701   0.100   4.419  13.941 -0.4279  0.4144  0.5068
  240MPD1    H5 3702   0.138   4.407  14.035  0.1874  0.8681  0.3142
  240MPD1    N1 3703   0.265   0.126  13.877  0.5028 -0.1921 -0.0441
  240MPD1    H6 3704   0.295   0.119  13.974 -1.3824  2.0911  0.7092
  240MPD1    H7 3705   0.327   0.183  13.819 -0.3200  0.8140  0.0570
  241MPD1     C 3706   0.319   4.140  14.804  0.1766 -0.8791 -0.2295
  241MPD1    C1 3707   0.364   4.232  14.712  0.4825  0.2671  0.1848
  241MPD1    C2 3708   0.337   4.222  14.577  0.7298  1.0954 -0.5183
  241MPD1    C3 3709   0.270   4.113  14.533  0.2909 -0.1434  0.8131
  241MPD1    C4 3710   0.237   4.017  14.618 -0.0436 -0.2083  0.4003
  241MPD1    C5 3711   0.265   4.029  14.753  0.4163  0.1125  0.5999
  241MPD1     H 3712   0.370   4.304  14.515 -0.0821  0.4187 -1.8376
  241MPD1    H1 3713   0.188   3.927  14.583  1.9413 -1.3115  0.4417
  241MPD1    H2 3714   0.321   4.144  14.912 -1.6618 -0.3486 -0.2177
  241MPD1    H3 3715   0.251   3.948  14.823  0.2762 -1.6942 -1.4949
  241MPD1     N 3716   0.217   4.095  14.407 -0.1960  0.7879  0.4819
  241MPD1    H5 3717   0.168   4.007  14.396  1.1040 -0.2114  2.6967
  241MPD1    N1 3718   0.395   4.354  14.757 -0.4605  0.0077 -0.1284
  241MPD1    H6 3719   0.456   4.408  14.696 -0.8912 -0.7323 -1.2208
  241MPD1    H7 3720   0.455   4.349  14.839 -1.2510 -1.0117  0.3808
  242MPD1     C 3721   0.001   3.007  15.733  1.0273  0.5219 -0.5560
  242MPD1    C1 3722   0.107   2.907  15.732  0.9898 -0.1985 -0.0814
  242MPD1    C2 3723   0.193   2.911  15.624 -1.2958 -1.0071  0.1847
  242MPD1    C3 3724   0.167   2.987  15.507 -0.0609  0.7486  0.4482
  242MPD1    C4 3725   0.061   3.072  15.519 -0.6748 -0.6550 -0.2693
  242MPD1    C5 3726   4.719   3.085  15.626 -0.4175 -0.1656  0.2407
  242MPD1     H 3727   0.279   2.845  15.616 -1.4498 -1.2969  0.8974
  242MPD1    H1 3728   0.041   3.137  15.435 -2.7164  1.8270  2.1710
  242MPD1    H2 3729   4.682   3.018  15.823 -0.1676 -0.2521 -1.2351
  242MPD1    H3 3730   4.628   3.144  15.630 -1.0081 -1.0717  0.1297
  242MPD1     N 3731   0.237   2.995  15.383 -0.4234  0.3143 -0.1266
  242MPD1    H5 3732   0.205   3.056  15.309 -0.0441  0.0427 -0.5169
  242MPD1    N1 3733   0.148   2.841  15.842  0.2511  0.4948  0.0223
  242MPD1    H6 3734   0.079   2.821  15.914  2.5724 -1.8149  1.5810
  242MPD1    H7 3735   0.200   2.756  15.821  1.3105  0.8785  1.1613
  243MPD1     C 3736   1.086   1.952  17.636 -0.0443 -0.4483 -0.6264
  243MPD1    C1 3737   1.189   2.009  17.569 -0.5969  0.4465  0.2100
  243MPD1    C2 3738   1.274   1.926  17.493  0.4265  0.6930 -0.1999
  243MPD1    C3 3739   1.258   1.789  17.486 -0.1283 -0.0883 -0.2292
  243MPD1    C4 3740   1.150   1.736  17.548  0.1219  0.3507 -0.2006
  243MPD1    C5 3741   1.079   1.817  17.630  0.0253  0.3362  0.2723
  243MPD1     H 3742   1.345   1.967  17.422  0.9464 -2.0980 -1.2835
  243MPD1    H1 3743   1.118   1.632  17.552  1.0810  0.0052 -1.8727
  243MPD1    H2 3744   1.009   2.008  17.689  0.2038  1.2072 -2.0235
  243MPD1    H3 3745   1.002   1.759  17.680  0.1891 -0.9500 -0.9577
  243MPD1     N 3746   1.333   1.719  17.381 -0.3667 -0.1260  0.5592
  243MPD1    H5 3747   1.389   1.771  17.315  0.3240  0.8871  1.9674
  243MPD1    N1 3748   1.204   2.149  17.563 -0.1797 -0.1876  0.7506
  243MPD1    H6 3749   1.166   2.189  17.648 -0.2277  0.5453  0.3898
  243MPD1    H7 3750   1.302   2.178  17.559 -0.6155  1.3290  1.2119
  244MPD1     C 3751   1.401   0.740  17.189  0.4805  0.5430  0.4968
  244MPD1    C1 3752   1.517   0.811  17.218  0.0726  0.2749 -0.1354
  244MPD1    C2 3753   1.504   0.948  17.189  0.4936  0.8448  0.1135
  244MPD1    C3 3754   1.386   1.013  17.173  0.2470  0.3318 -0.2940
  244MPD1    C4 3755   1.273   0.939  17.173 -0.4885  0.0378 -0.1082
  244MPD1    C5 3756   1.282   0.806  17.170 -0.0343 -0.4530 -0.4861
  244MPD1     H 3757   1.601   0.997  17.192  0.7170  0.4016  0.1223
  244MPD1    H1 3758   1.178   0.977  17.138 -1.5201 -1.8049  0.7004
  244MPD1    H2 3759   1.398   0.632  17.184  0.3626  0.4989  1.5171
  244MPD1    H3 3760   1.196   0.750  17.134  0.6316 -0.6927 -1.6953
  244MPD1     N 3761   1.380   1.154  17.146  0.0560 -0.2053  0.1637
  244MPD1    H5 3762   1.291   1.201  17.156  0.3394  0.9071 -2.5449
  244MPD1    N1 3763   1.638   0.749  17.227 -0.3108  0.3948  0.3635
  244MPD1    H6 3764   1.703   0.814  17.272  1.6689 -0.4385 -1.2582
  244MPD1    H7 3765   1.638   0.657  17.271  0.7306 -0.3294 -1.1734
  245MPD1     C 3766   3.972   1.270  13.096 -0.1615  0.1484 -0.3474
  245MPD1    C1 3767   3.894   1.309  13.203  0.2853 -0.2052  0.1916
  245MPD1    C2 3768   3.904   1.434  13.249 -0.2076 -0.1061  0.7723
  245MPD1    C3 3769   3.991   1.525  13.196  0.1242 -0.1871  0.5967
  245MPD1    C4 3770   4.066   1.486  13.089 -0.2529  0.1527  0.3462
  245MPD1    C5 3771   4.055   1.361  13.038  0.7744  0.0562  0.3704
  245MPD1     H 3772   3.846   1.461  13.337 -0.7470 -0.3491  0.4890
  245MPD1    H1 3773   4.133   1.546  13.029  0.1730 -1.2545 -0.6059
  245MPD1    H2 3774   3.965   1.173  13.049 -0.9785  0.2678 -0.4669
  245MPD1    H3 3775   4.119   1.331  12.956 -1.0494 -0.5862 -0.8093
  245MPD1     N 3776   4.000   1.652  13.256 -0.3017 -0.1415 -0.1965
  245MPD1    H5 3777   3.941   1.668  13.337  1.8786  0.2998  1.3152
  245MPD1    N1 3778   3.793   1.223  13.257  0.4241 -0.3498 -0.1692
  245MPD1    H6 3779   3.824   1.126  13.245 -0.1872 -0.7367  1.4475
  245MPD1    H7 3780   3.771   1.235  13.355 -0.6775  2.7778 -0.8150
  246MPD1     C 3781   4.613   4.319   9.319  0.0900  0.2106 -0.3922
  246MPD1    C1 3782   4.672   4.269   9.202 -0.1398  0.1992 -0.1646
  246MPD1    C2 3783   4.669   4.132   9.182  0.1366 -0.2109  0.7406
  246MPD1    C3 3784   4.604   4.047   9.268  0.2064  0.2168  0.7784
  246MPD1    C4 3785   4.541   4.096   9.382  0.1467  0.8111 -0.8288
  246MPD1    C5 3786   4.540   4.230   9.394  0.0561 -0.2472 -0.4012
  246MPD1     H 3787   4.725   4.081   9.104 -0.0049  2.0195 -0.8034
  246MPD1    H1 3788   4.494   4.032   9.455  1.3380  3.1264  1.9665
  246MPD1    H2 3789   4.608   4.425   9.342 -0.2792  0.1433 -0.1659
  246MPD1    H3 3790   4.487   4.262   9.483  0.8059 -0.5685  0.1665
  246MPD1     N 3791   4.605   3.915   9.239  0.5536 -0.0022 -0.2122
  246MPD1    H5 3792   4.648   3.887   9.151  0.6582 -1.1159  0.1854
  246MPD1    N1 3793   0.005   4.354   9.116  0.2892  0.0510 -0.3898
  246MPD1    H6 3794   4.697   4.443   9.113  1.2337  0.6239  1.2077
  246MPD1    H7 3795   0.001   4.312   9.023 -0.4909 -0.5507 -0.0787
  247MPD1     C 3796   2.494   3.014  15.007  0.0299 -0.3338 -0.1901
  247MPD1    C1 3797   2.573   2.905  14.972  0.3715  0.0409  0.1961
  247MPD1    C2 3798   2.648   2.841  15.067 -0.8054 -0.1162  0.0454
  247MPD1    C3 3799   2.639   2.883  15.202  0.1815  0.0827 -0.3931
  247MPD1    C4 3800   2.572   2.997  15.237 -0.0197  0.9073 -0.0119
  247MPD1    C5 3801   2.500   3.063  15.139 -0.1140 -0.0401 -0.1633
  247MPD1     H 3802   2.714   2.758  15.047  2.8835  2.1529  2.8396
  247MPD1    H1 3803   2.575   3.041  15.336 -1.4308 -1.7872  1.2135
  247MPD1    H2 3804   2.423   3.057  14.937 -0.8418 -0.6288  0.5148
  247MPD1    H3 3805   2.443   3.147  15.177 -1.0598 -1.2466  1.0825
  247MPD1     N 3806   2.702   2.809  15.307  0.4219 -0.3513 -0.0884
  247MPD1    H5 3807   2.703   2.856  15.397 -0.6717 -1.4713  0.4987
  247MPD1    N1 3808   2.563   2.856  14.843  0.2142 -0.5506  0.5915
  247MPD1    H6 3809   2.643   2.803  14.810 -0.4871 -1.3475  0.1642
  247MPD1    H7 3810   2.549   2.930  14.774  0.4290  0.6903  1.8725
  248MPD1     C 3811   3.899   1.554  17.204 -0.0937  0.3149  1.1016
  248MPD1    C1 3812   3.939   1.659  17.278 -0.4786 -0.5720 -0.2271
  248MPD1    C2 3813   3.858   1.696  17.380 -0.3834  0.1929 -0.2428
  248MPD1    C3 3814   3.740   1.631  17.412  0.2582  0.3070 -0.1658
  248MPD1    C4 3815   3.706   1.518  17.341 -0.1531  0.3804  0.1254
  248MPD1    C5 3816   3.784   1.486  17.233 -0.1764  0.7303 -0.4660
  248MPD1     H 3817   3.881   1.786  17.436 -0.5997 -0.0916  0.3029
  248MPD1    H1 3818   3.620   1.456  17.364  0.3234 -0.1894  0.3901
  248MPD1    H2 3819   3.953   1.529  17.113 -3.6192 -0.7688 -0.7182
  248MPD1    H3 3820   3.751   1.408  17.165 -1.8364  0.8663  0.1706
  248MPD1     N 3821   3.659   1.682  17.523 -0.0505 -0.6601 -0.3372
  248MPD1    H5 3822   3.697   1.767  17.562 -0.9633 -1.4201  2.1890
  248MPD1    N1 3823   4.053   1.734  17.236  0.0157  0.4681  0.3884
  248MPD1    H6 3824   4.113   1.692  17.166 -0.6027 -1.6623  1.1359
  248MPD1    H7 3825   4.112   1.763  17.314  1.6417  0.8677 -1.0107
  249MPD1     C 3826   0.496   4.646  10.400 -0.1599  0.0901 -0.5899
  249MPD1    C1 3827   0.635   4.660  10.388  0.0013  0.3904  1.0228
  249MPD1    C2 3828   0.679   0.027  10.310 -0.3625  0.0428  0.2688
  249MPD1    C3 3829   0.592   0.125  10.261  0.0635  0.4243  0.1398
  249MPD1    C4 3830   0.455   0.114  10.296  0.0706  0.0166 -0.1632
  249MPD1    C5 3831   0.408   0.005  10.357  0.0343 -0.6674  0.0663
  249MPD1     H 3832   0.783   0.037  10.281  0.0306 -0.5321  1.4718
  249MPD1    H1 3833   0.384   0.192  10.274 -2.8716 -3.0500 -1.6142
  249MPD1    H2 3834   0.458   4.577  10.475 -0.1837  0.5979 -0.1319
  249MPD1    H3 3835   0.302   0.005  10.379 -0.3401 -1.3763 -1.7518
  249MPD1     N 3836   0.642   0.222  10.171  0.3081 -0.4735  0.0567
  249MPD1    H5 3837   0.740   0.216  10.148  0.2042 -0.7414 -0.3145
  249MPD1    N1 3838   0.724   4.598  10.469  0.4928  0.5229 -0.3663
  249MPD1    H6 3839   0.821   4.602  10.439  0.4055  0.1653 -0.6888
  249MPD1    H7 3840   0.681   4.511  10.500  0.0087 -0.0669 -2.7692
  250MPD2     C 3841   2.187   0.321  13.122 -0.0988 -0.0792 -0.5955
  250MPD2    C1 3842   2.051   0.362  13.117  0.9396  0.2798 -0.6445
  250MPD2    C2 3843   1.967   0.282  13.035  0.2647  0.7011 -0.3810
  250MPD2    C3 3844   2.019   0.171  12.969  0.1271 -0.2382  0.6112
  250MPD2    C4 3845   2.144   0.128  12.996 -0.2501  0.5131  0.6369
  250MPD2    C5 3846   2.234   0.200  13.076  0.3960 -0.2543 -0.4676
  250MPD2     H 3847   1.866   0.317  13.013  0.2648  1.9306  1.6034
  250MPD2    H1 3848   2.179   0.037  12.948 -0.8810  0.4194  0.3535
  250MPD2    H2 3849   2.254   0.385  13.178  0.0885  2.0664 -3.2665
  250MPD2    H3 3850   2.332   0.163  13.102 -0.4200 -0.9861  1.6040
  250MPD2     N 3851   1.942   0.089  12.889 -0.5204 -0.6244 -0.2771
  250MPD2    H5 3852   1.985   4.740  12.866  1.5571  1.0648 -2.9267
  250MPD2    N1 3853   2.023   0.488  13.160 -0.4933  0.4377  0.4574
  250MPD2    H7 3854   2.097   0.543  13.202  0.4635 -0.5046 -0.0171
  251TMC3    C1 3855   1.917   0.701  13.152 -0.7892 -0.6957  0.1314
  251TMC3    C2 3856   1.808   0.771  13.198  0.4404 -0.5518  0.6132
  251TMC3    C3 3857   1.828   0.902  13.243 -0.1521 -0.1291  0.1333
  251TMC3    C4 3858   2.044   0.758  13.158  0.3722  0.0841  0.2771
  251TMC3    C5 3859   2.057   0.886  13.206 -0.2712 -0.5488 -0.2873
  251TMC3    C6 3860   1.950   0.957  13.253 -0.1992 -0.3268  0.4375
  251TMC3     C 3861   1.908   0.560  13.129 -0.7513  0.1626 -0.7925
  251TMC3     O 3862   1.805   0.523  13.076 -0.1667 -0.4663  0.2101
  251TMC3     H 3863   1.714   0.718  13.206 -0.7643  1.4195 -0.6155
  251TMC3    H1 3864   2.135   0.711  13.124  0.9153 -0.2084  2.1125
  251TMC3    H2 3865   1.962   1.044  13.316  0.7422 -0.5964  0.6294
  251TMC3    C7 3866   2.189   0.919  13.246 -0.5359  0.2353  0.1924
  251TMC3    C8 3867   1.722   0.967  13.303 -0.3547 -0.2291 -0.1673
  251TMC3    O1 3868   2.268   0.831  13.280  0.0157  0.3182 -0.6500
  251TMC3    O2 3869   1.740   1.056  13.382  0.3079  0.1205  0.4673
  252TMC3    C1 3870   1.371   1.705   9.475 -0.6531  1.0183  0.4616
  252TMC3    C2 3871   1.502   1.742   9.465 -0.1847  0.0175 -0.7798
  252TMC3    C3 3872   1.593   1.671   9.539 -1.1234  0.0320  0.3895
  252TMC3    C4 3873   1.334   1.609   9.565  0.0496  0.4316  0.3477
  252TMC3    C5 3874   1.434   1.547   9.642  0.3636 -0.0526  0.1474
  252TMC3    C6 3875   1.570   1.562   9.620 -0.0720  0.4025 -0.2506
  252TMC3     C 3876   1.269   1.742   9.373  0.1828  0.2416  0.7202
  252TMC3     O 3877   1.167   1.671   9.376 -0.3401  0.1565 -0.0439
  252TMC3     H 3878   1.532   1.825   9.401  1.1972  1.2855  1.5021
  252TMC3    H1 3879   1.235   1.566   9.562  1.1728 -2.0679 -1.2773
  252TMC3    H2 3880   1.644   1.506   9.676 -0.6433 -1.1147 -1.0405
  252TMC3    C7 3881   1.370   1.463   9.743 -0.8307 -0.3071  0.8295
  252TMC3    C8 3882   1.730   1.716   9.525  0.3284  0.0397  0.1491
  252TMC3    O1 3883   1.249   1.474   9.758  0.4169  0.2924  0.1597
  252TMC3    O2 3884   1.757   1.769   9.417 -0.0418  0.2684  0.0167
  253MPD2     C 3885   3.040   0.438  14.815 -0.0827 -1.0472  0.1253
  253MPD2    C1 3886   2.899   0.443  14.843  0.8386  0.0268  0.3646
  253MPD2    C2 3887   2.845   0.521  14.944 -0.4002 -0.3725  0.0401
  253MPD2    C3 3888   2.929   0.601  15.015  0.5884  0.2979  0.4808
  253MPD2    C4 3889   3.061   0.607  14.982  0.6441 -0.4511  1.0214
  253MPD2    C5 3890   3.119   0.526  14.885 -0.1489 -0.4813 -0.1745
  253MPD2     H 3891   2.738   0.511  14.959 -0.4288 -1.8793 -1.0829
  253MPD2    H1 3892   3.126   0.672  15.040  0.2457  1.8324 -1.1065
  253MPD2    H2 3893   3.074   0.377  14.733  2.6102  2.4281 -1.3092
  253MPD2    H3 3894   3.225   0.532  14.866 -0.3607 -0.4290 -1.3905
  253MPD2     N 3895   2.890   0.671  15.140  0.2158  1.0949 -0.3872
  253MPD2    H5 3896   2.962   0.709  15.201 -0.2164  0.2463  0.6335
  253MPD2    N1 3897   2.803   0.366  14.768  0.3523 -0.9276  0.8182
  253MPD2    H7 3898   2.708   0.354  14.801 -0.2197  0.1085 -0.4616
  254TMC3    C1 3899   2.767   0.704  15.335  0.2386  0.2148  0.6554
  254TMC3    C2 3900   2.648   0.694  15.400  0.3650 -0.5458  0.6259
  254TMC3    C3 3901   2.641   0.672  15.535  0.1178  0.4776  0.1547
  254TMC3    C4 3902   2.888   0.694  15.410 -0.5899 -0.2391  0.2201
  254TMC3    C5 3903   2.871   0.670  15.547 -0.3245  0.2758  0.6816
  254TMC3    C6 3904   2.754   0.661  15.609  0.3929  0.6617  0.3582
  254TMC3     C 3905   2.764   0.664  15.190 -0.4134 -0.8965 -0.5201
  254TMC3     O 3906   2.665   0.637  15.123  0.2466 -0.1204 -0.0879
  254TMC3     H 3907   2.564   0.697  15.332  0.9026 -2.3051 -0.1048
  254TMC3    H1 3908   2.989   0.684  15.373 -0.6617  1.5701 -0.4436
  254TMC3    H2 3909   2.753   0.652  15.717  1.4282  2.0082  0.4738
  254TMC3    C7 3910   2.986   0.660  15.636  0.3070  0.3309  0.1056
  254TMC3    C8 3911   2.516   0.686  15.610  0.0525  0.1952 -0.3110
  254TMC3    O1 3912   2.963   0.625  15.751 -1.0477 -0.2505  0.2290
  254TMC3    O2 3913   2.524   0.636  15.723  0.2971 -0.3148 -0.8322
  255MPD2     C 3914   1.052   2.955  10.825 -0.1398 -0.3532  0.5664
  255MPD2    C1 3915   1.110   3.042  10.741  0.3939 -0.3581  0.3225
  255MPD2    C2 3916   1.233   3.005  10.693 -0.2501 -0.3415 -0.2507
  255MPD2    C3 3917   1.304   2.888  10.729  0.0893  0.6602  0.8981
  255MPD2    C4 3918   1.235   2.798  10.808  0.3594 -0.2758  0.3415
  255MPD2    C5 3919   1.110   2.837  10.865  0.2587  0.6485 -0.4559
  255MPD2     H 3920   1.283   3.072  10.624 -1.7634 -0.5451 -1.5377
  255MPD2    H1 3921   1.281   2.707  10.842  1.1637 -0.1166 -0.3324
  255MPD2    H2 3922   0.951   2.978  10.857 -0.0826 -0.7219  1.0251
  255MPD2    H3 3923   1.051   2.767  10.923  1.5678  0.6631  0.8827
  255MPD2     N 3924   1.433   2.870  10.672  0.5803 -0.2223 -0.3869
  255MPD2    H5 3925   1.464   2.941  10.606  1.6543 -0.3605 -0.0356
  255MPD2    N1 3926   1.027   3.146  10.689  0.0812 -0.4924 -0.2849
  255MPD2    H7 3927   0.930   3.154  10.720  1.1563  1.2254  2.7163
  256TMC3    C1 3928   0.982   3.370  10.619  0.1790 -1.0957 -0.8556
  256TMC3    C2 3929   1.041   3.493  10.589 -0.0719  0.4645  0.0948
  256TMC3    C3 3930   0.971   3.597  10.541 -0.3389  0.9505  0.0919
  256TMC3    C4 3931   0.860   3.354  10.558  0.2764 -0.4169 -0.6015
  256TMC3    C5 3932   0.793   3.454  10.493 -0.2291 -0.1279 -0.5572
  256TMC3    C6 3933   0.844   3.580  10.492  0.1563 -0.6568  0.1165
  256TMC3     C 3934   1.077   3.258  10.623  0.5691 -0.3672  0.2604
  256TMC3     O 3935   1.186   3.278  10.572 -0.7886 -0.0059 -0.6861
  256TMC3     H 3936   1.140   3.509  10.630 -0.7327  0.5991  1.6366
  256TMC3    H1 3937   0.809   3.259  10.551  0.3276 -0.3868 -1.4356
  256TMC3    H2 3938   0.802   3.661  10.434  2.2241  1.6849  1.8785
  256TMC3    C7 3939   0.760   3.408  10.351  0.1854 -0.5713  0.6903
  256TMC3    C8 3940   1.051   3.680  10.455  0.4880  0.4893  0.4437
  256TMC3    O1 3941   0.782   3.292  10.321 -0.4157 -0.4623 -0.3145
  256TMC3    O2 3942   1.034   3.799  10.448 -0.0164  0.0159  0.2119
  257MPD2     C 3943   0.737   0.592  12.988  0.0263  0.2550 -0.0841
  257MPD2    C1 3944   0.725   0.467  12.935 -0.0792  0.0230  0.3301
  257MPD2    C2 3945   0.673   0.366  13.010  0.0462  0.7001  0.1524
  257MPD2    C3 3946   0.648   0.387  13.141 -0.8824 -0.3520  0.4237
  257MPD2    C4 3947   0.666   0.511  13.195 -0.6789  0.1248 -0.0325
  257MPD2    C5 3948   0.705   0.613  13.120  1.1622  0.2404 -0.0848
  257MPD2     H 3949   0.671   0.266  12.968 -2.8420  1.2340 -0.9841
  257MPD2    H1 3950   0.644   0.539  13.298 -0.3253 -3.2478  0.9367
  257MPD2    H2 3951   0.776   0.671  12.926 -2.0643  2.1592  1.0304
  257MPD2    H3 3952   0.718   0.711  13.165  2.0171 -0.3378  0.9416
  257MPD2     N 3953   0.612   0.272  13.218 -0.5359  0.2544  0.0589
  257MPD2    H5 3954   0.595   0.183  13.174  2.2987 -0.8577  1.1739
  257MPD2    N1 3955   0.765   0.445  12.803  0.0459  0.4645 -0.9271
  257MPD2    H7 3956   0.817   0.519  12.758  1.3589 -0.4539 -0.9218
  258TMC3    C1 3957   0.509   0.164  13.406  0.0715 -0.0590  0.6936
  258TMC3    C2 3958   0.472   0.059  13.322 -0.3096  0.2497 -0.4211
  258TMC3    C3 3959   0.450   4.682  13.386  0.0807  0.4538  0.0813
  258TMC3    C4 3960   0.537   0.142  13.536 -0.5186 -0.0874  1.2294
  258TMC3    C5 3961   0.527   0.014  13.585 -0.6042  0.1048 -0.1650
  258TMC3    C6 3962   0.467   4.655  13.518 -0.8792  0.0998  0.1733
  258TMC3     C 3963   0.576   0.280  13.349  0.4731 -0.4202  0.7039
  258TMC3     O 3964   0.596   0.373  13.429 -0.6991  0.0857  0.3796
  258TMC3     H 3965   0.455   0.067  13.215 -1.5380 -1.6882 -0.3776
  258TMC3    H1 3966   0.560   0.226  13.601 -0.6868  1.4150 -0.6534
  258TMC3    H2 3967   0.458   4.555  13.558 -0.1032 -0.4772 -1.1019
  258TMC3    C7 3968   0.577   4.737  13.715 -0.0074  0.2856 -0.4783
  258TMC3    C8 3969   0.425   4.560  13.307  0.8968  0.0721  0.0226
  258TMC3    O1 3970   0.663   0.069  13.760 -0.1256 -1.0031  0.1057
  258TMC3    O2 3971   0.360   4.474  13.362 -0.6810  0.2817  0.4490
  259MPD2     C 3972   4.350   2.917   0.583  1.3058 -0.2893 -0.8511
  259MPD2    C1 3973   4.265   2.803   0.574 -0.7117  0.2849  0.4407
  259MPD2    C2 3974   4.207   2.769   0.453 -0.2223 -0.2387 -0.2740
  259MPD2    C3 3975   4.235   2.839   0.335 -0.2000 -0.0696  1.0036
  259MPD2    C4 3976   4.317   2.951   0.344  0.6475  0.0939  0.2332
  259MPD2    C5 3977   4.370   2.988   0.470  0.7407  1.0518 -0.2074
  259MPD2     H 3978   4.154   2.675   0.439 -0.6996  0.1021 -0.7966
  259MPD2    H1 3979   4.341   3.009   0.256  0.9763  2.8742  2.1790
  259MPD2    H2 3980   4.403   2.945   0.674  1.0168  0.8503 -1.0352
  259MPD2    H3 3981   4.426   3.081   0.472 -0.8220  2.0538 -4.0047
  259MPD2     N 3982   4.185   2.788   0.216  0.1261 -0.6192 -0.5635
  259MPD2    H5 3983   4.142   2.696   0.225 -1.7983  0.3466  0.0218
  259MPD2    N1 3984   4.257   2.715   0.688 -0.0296 -0.5093 -0.4967
  259MPD2    H7 3985   4.302   2.754   0.771  1.3579 -2.2855 -0.4182
  260TMC3    C1 3986   4.213   2.739  17.749 -0.8569 -0.2044 -0.2847
  260TMC3    C2 3987   4.212   2.782  17.618  0.3938  0.7780  0.4324
  260TMC3    C3 3988   4.208   2.694  17.516 -0.5066 -0.3915 -0.1160
  260TMC3    C4 3989   4.227   2.605   0.016  0.3959  0.0736  0.2195
  260TMC3    C5 3990   4.236   2.514  17.671 -0.0123  0.6751 -0.1420
  260TMC3    C6 3991   4.221   2.561  17.539  1.2260 -0.3171 -0.5355
  260TMC3     C 3992   4.215   2.841   0.092 -0.1185 -0.5817  0.2730
  260TMC3     O 3993   4.238   2.956   0.054 -0.0267 -0.0477  0.2733
  260TMC3     H 3994   4.198   2.887  17.594  0.4279  1.1392  1.9501
  260TMC3    H1 3995   4.253   2.579   0.118  0.3858  2.9605  0.9440
  260TMC3    H2 3996   4.215   2.485  17.461 -2.3751 -2.0064  1.3775
  260TMC3    C7 3997   4.259   2.373  17.696 -0.5059 -0.8070 -0.2362
  260TMC3    C8 3998   4.297   2.731  17.407 -0.5408 -0.3793 -0.3517
  260TMC3    O1 3999   4.297   2.314  17.597  0.4249 -0.3951  0.0110
  260TMC3    O2 4000   4.285   2.850  17.376  0.4338  0.0211  0.1059
  261MPD2     C 4001   1.438   4.672  12.261 -0.7741 -0.1007 -0.3105
  261MPD2    C1 4002   1.452   0.037  12.353  0.2388  0.0291  0.3707
  261MPD2    C2 4003   1.434   0.173  12.313 -1.1183  0.7439 -0.0356
  261MPD2    C3 4004   1.402   0.192  12.176  0.1129 -0.0780  0.1921
  261MPD2    C4 4005   1.378   0.087  12.090 -0.1453  0.1119  0.1824
  261MPD2    C5 4006   1.393   4.697  12.135  0.7245 -0.4165  0.1182
  261MPD2     H 4007   1.432   0.247  12.392  1.8889  1.7390 -0.9163
  261MPD2    H1 4008   1.352   0.099  11.985  0.5882 -0.4268 -0.0650
  261MPD2    H2 4009   1.472   4.572  12.285  1.4612  0.1463 -2.4580
  261MPD2    H3 4010   1.377   4.622  12.058 -1.9457  0.6722 -0.4061
  261MPD2     N 4011   1.365   0.323  12.145  0.5155 -0.0192  0.2974
  261MPD2    H5 4012   1.389   0.398  12.209  2.1985 -1.0553  0.8777
  261MPD2    N1 4013   1.495   0.015  12.487 -0.0068  0.3077  0.0369
  261MPD2    H7 4014   1.528   0.101  12.531  2.1646 -0.3057 -0.4108
  262TMC3    C1 4015   1.354   0.520  12.015  0.0026  0.0995 -0.8102
  262TMC3    C2 4016   1.322   0.594  12.127 -0.0586 -0.1977 -0.4600
  262TMC3    C3 4017   1.399   0.708  12.136 -0.1021 -0.3327 -0.2928
  262TMC3    C4 4018   1.432   0.556  11.911 -0.1981 -0.0722  0.0143
  262TMC3    C5 4019   1.517   0.658  11.934  0.0307  0.8801  0.4515
  262TMC3    C6 4020   1.493   0.732  12.045  0.3054 -0.1470 -0.1206
  262TMC3     C 4021   1.342   0.374  12.016  0.1913  0.9005 -0.3211
  262TMC3     O 4022   1.342   0.307  11.911 -0.3370  0.2763 -0.5316
  262TMC3     H 4023   1.249   0.557  12.198  0.4498 -0.1325  0.0987
  262TMC3    H1 4024   1.444   0.494  11.824 -3.8103 -1.1303  0.2517
  262TMC3    H2 4025   1.561   0.816  12.059  1.2727 -0.7911 -0.9481
  262TMC3    C7 4026   1.540   0.729  11.806 -0.2029  0.5424 -0.6670
  262TMC3    C8 4027   1.342   0.826  12.200 -0.2954 -0.2897 -0.7457
  262TMC3    O1 4028   1.535   0.658  11.708  0.0675 -0.0569  0.1568
  262TMC3    O2 4029   1.383   0.937  12.162  0.2353 -0.0509  0.0197
  263MPD2     C 4030   2.119   4.576  11.490  0.0313 -0.2419 -0.4693
  263MPD2    C1 4031   2.257   4.610  11.476 -0.1640 -1.0274 -0.0137
  263MPD2    C2 4032   2.293   4.721  11.398 -0.2254 -0.1936 -0.0110
  263MPD2    C3 4033   2.194   0.047  11.323  0.0204 -0.2468  0.6921
  263MPD2    C4 4034   2.060   0.013  11.346  0.1444 -0.2207 -0.3157
  263MPD2    C5 4035   2.027   4.646  11.420 -0.4287 -0.2252 -0.7551
  263MPD2     H 4036   2.398   0.008  11.390 -0.2705 -0.3869 -1.2979
  263MPD2    H1 4037   1.980   0.066  11.294  2.2667  1.5227 -1.8128
  263MPD2    H2 4038   2.089   4.497  11.558  1.3442 -1.1374 -0.9297
  263MPD2    H3 4039   1.921   4.641  11.439 -0.7832  0.8746 -2.4492
  263MPD2     N 4040   2.242   0.156  11.243 -0.2996  0.5178 -0.5355
  263MPD2    H5 4041   2.341   0.179  11.239  0.0180 -0.3456  2.5742
  263MPD2    N1 4042   2.346   4.519  11.540  0.2526 -0.0849 -0.1405
  263MPD2    H7 4043   2.300   4.440  11.585  0.2025 -1.4633 -2.6094
  264TMC3    C1 4044   2.225   0.360  11.124  0.2074  0.0064 -0.8285
  264TMC3    C2 4045   2.202   0.492  11.159 -0.5331 -0.5412 -0.1761
  264TMC3    C3 4046   2.277   0.590  11.111 -0.5631  0.6222 -0.2272
  264TMC3    C4 4047   2.337   0.324  11.046 -0.4482  0.0003  0.0579
  264TMC3    C5 4048   2.414   0.428  10.996 -0.2928  0.3513  0.2314
  264TMC3    C6 4049   2.383   0.561  11.033  0.6473 -0.5911  0.3783
  264TMC3     C 4050   2.159   0.257  11.196  0.3769  0.4736  0.5134
  264TMC3     O 4051   2.039   0.275  11.218  0.3012 -0.7392 -0.1605
  264TMC3     H 4052   2.120   0.511  11.227 -1.0819 -1.2219 -0.6506
  264TMC3    H1 4053   2.354   0.220  11.021  2.4132 -0.0549  2.1870
  264TMC3    H2 4054   2.446   0.643  11.002 -0.7458 -0.9305 -3.2925
  264TMC3    C7 4055   2.511   0.395  10.892  0.1278 -0.8726 -0.5850
  264TMC3    C8 4056   2.287   0.716  11.190 -0.2278 -0.0557  0.1383
  264TMC3    O1 4057   2.484   0.297  10.827 -0.1949  0.2425  0.8170
  264TMC3    O2 4058   2.323   0.816  11.126 -0.1986 -0.0359  0.6054
  265MPD2     C 4059   4.023   0.101  15.488 -0.4359  0.8794  0.1469
  265MPD2    C1 4060   4.094   0.194  15.419  0.5505 -0.2609 -0.3551
  265MPD2    C2 4061   4.179   0.146  15.320 -0.2986 -0.4323  0.0696
  265MPD2    C3 4062   4.182   0.013  15.281  0.1522  0.9449 -0.2181
  265MPD2    C4 4063   4.100   4.662  15.352 -0.1226 -0.3524  0.4663
  265MPD2    C5 4064   4.021   4.712  15.455  0.1395  0.5028 -1.1294
  265MPD2     H 4065   4.251   0.212  15.274  0.8365 -1.0741  0.9060
  265MPD2    H1 4066   4.104   4.556  15.328  2.5079  0.4272 -2.5540
  265MPD2    H2 4067   3.970   0.123  15.580 -1.1748  0.1665 -0.1066
  265MPD2    H3 4068   3.959   4.642  15.510 -0.9080  3.2072  1.1094
  265MPD2     N 4069   4.264   4.703  15.177 -0.0253  0.2968  0.0200
  265MPD2    H5 4070   4.247   4.609  15.141  2.3604 -0.5376  1.0850
  265MPD2    N1 4071   4.086   0.332  15.443  0.0147 -0.5458  0.1535
  265MPD2    H7 4072   4.121   0.393  15.370  0.4749 -0.0352  0.8014
  266TMC3    C1 4073   4.061   0.525  15.569 -0.1349 -0.1338  0.2542
  266TMC3    C2 4074   4.067   0.589  15.691  0.2643 -0.2726 -0.0280
  266TMC3    C3 4075   4.064   0.724  15.694 -0.4603 -0.9721  0.0743
  266TMC3    C4 4076   4.018   0.597  15.460 -0.1336 -0.5318  0.5642
  266TMC3    C5 4077   4.013   0.734  15.468  0.6916  0.2560  0.1513
  266TMC3    C6 4078   4.031   0.800  15.587 -0.4838 -0.4618 -0.0778
  266TMC3     C 4079   4.059   0.385  15.564 -0.5874  0.4320 -0.2107
  266TMC3     O 4080   4.057   0.329  15.676  0.0671 -0.0917 -0.6416
  266TMC3     H 4081   4.102   0.533  15.777 -0.3774  2.8360  2.2915
  266TMC3    H1 4082   3.986   0.543  15.372  2.0512  0.2119 -0.6835
  266TMC3    H2 4083   4.014   0.906  15.603  0.3110 -0.4590  0.7195
  266TMC3    C7 4084   4.016   0.802  15.341  0.2220  1.1438 -0.1877
  266TMC3    C8 4085   4.133   0.791  15.807 -0.2714  0.2677 -0.2535
  266TMC3    O1 4086   4.008   0.728  15.243 -0.0210 -0.1224  0.8664
  266TMC3    O2 4087   4.200   0.723  15.885  0.3440 -0.4285 -0.4344
  267MPD2     C 4088   1.635   2.803   0.068  0.0726 -1.0005  0.5831
  267MPD2    C1 4089   1.678   2.732  17.714 -0.4548 -0.8299 -0.7259
  267MPD2    C2 4090   1.580   2.689  17.620  0.4692  0.3940  0.3929
  267MPD2    C3 4091   1.446   2.725  17.635  0.2828 -0.0512  0.0140
  267MPD2    C4 4092   1.412   2.807  17.749  0.2846  0.0962  0.0774
  267MPD2    C5 4093   1.505   2.842   0.084 -0.7456  1.0478 -0.2335
  267MPD2     H 4094   1.620   2.643  17.531  1.4216 -2.1695  2.1360
  267MPD2    H1 4095   1.318   2.861  17.754  0.4454  0.2412  1.4853
  267MPD2    H2 4096   1.705   2.828   0.146 -2.5988 -0.8201  2.9107
  267MPD2    H3 4097   1.460   2.879   0.176 -2.2290 -0.5340 -0.3054
  267MPD2     N 4098   1.344   2.679  17.546  0.3710  0.2780 -0.2483
  267MPD2    H5 4099   1.251   2.688  17.587  0.6908  1.5339  0.1838
  267MPD2    N1 4100   1.818   2.712  17.711 -0.0986 -0.4402 -0.0611
  267MPD2    H7 4101   1.877   2.763   0.017  0.9078 -0.5129 -0.9308
  268TMC3    C1 4102   2.011   2.619  17.625  0.5724  0.4506 -0.4772
  268TMC3    C2 4103   2.091   2.603  17.511  0.2823  0.9389  0.3258
  268TMC3    C3 4104   2.213   2.540  17.533 -0.0336 -0.0211 -0.3013
  268TMC3    C4 4105   2.047   2.587  17.754 -0.1949  0.2554  0.4520
  268TMC3    C5 4106   2.172   2.539   0.012  0.5915  0.5974 -1.0331
  268TMC3    C6 4107   2.251   2.506  17.661 -0.2195 -0.1738 -0.4511
  268TMC3     C 4108   1.878   2.655  17.600 -0.4202  0.0541 -0.2772
  268TMC3     O 4109   1.832   2.635  17.487 -0.8466 -0.3473 -0.2020
  268TMC3     H 4110   2.046   2.628  17.415  1.3341 -0.7624 -0.6082
  268TMC3    H1 4111   1.990   2.605   0.085 -1.1907  3.6880 -0.8841
  268TMC3    H2 4112   2.351   2.468  17.680 -0.1893 -0.2587 -0.7870
  268TMC3    C7 4113   2.223   2.496   0.143  0.0749  0.2959 -0.2762
  268TMC3    C8 4114   2.317   2.570  17.448  0.5526 -0.1576  0.1260
  268TMC3    O1 4115   2.304   2.405   0.138  0.2935 -0.1284  0.3576
  268TMC3    O2 4116   2.425   2.601  17.494 -0.0178  0.4327  0.0171
  269MPD2     C 4117   2.088   1.105  15.172  0.4002 -0.2508  0.0447
  269MPD2    C1 4118   1.975   1.132  15.241  0.0233  0.7235  0.7322
  269MPD2    C2 4119   1.925   1.257  15.235 -0.5313 -0.8100  0.0276
  269MPD2    C3 4120   1.960   1.348  15.138  0.4641 -0.5372  0.3109
  269MPD2    C4 4121   2.064   1.308  15.053  0.3193 -0.4349 -0.2596
  269MPD2    C5 4122   2.127   1.189  15.076 -0.4161  0.2518  0.4997
  269MPD2     H 4123   1.845   1.296  15.298 -0.7693 -0.9758 -0.1706
  269MPD2    H1 4124   2.095   1.379  14.978 -1.2565  1.5812  0.9953
  269MPD2    H2 4125   2.136   1.007  15.170 -1.1987 -1.0951  3.1635
  269MPD2    H3 4126   2.218   1.154  15.026 -1.5012 -0.6090 -0.8773
  269MPD2     N 4127   1.889   1.469  15.131 -0.6673 -0.6175 -0.2437
  269MPD2    H5 4128   1.807   1.472  15.191 -1.0223  1.4391 -0.8409
  269MPD2    N1 4129   1.923   1.026  15.321 -0.0609 -0.0705  0.0374
  269MPD2    H7 4130   1.978   0.942  15.331  0.9826  0.3607 -2.1304
  270TMC3    C1 4131   1.743   0.914  15.433  0.7681  0.1393  0.3224
  270TMC3    C2 4132   1.609   0.899  15.445 -0.2008  0.0092  0.4614
  270TMC3    C3 4133   1.555   0.793  15.503 -0.3206 -0.1706  0.5890
  270TMC3    C4 4134   1.829   0.836  15.503  0.3207  0.2206 -0.2941
  270TMC3    C5 4135   1.771   0.736  15.584 -0.3745 -0.1981  0.4557
  270TMC3    C6 4136   1.635   0.708  15.578  0.2681  0.1589 -0.3303
  270TMC3     C 4137   1.793   1.035  15.358  0.7393  0.2810  0.1518
  270TMC3     O 4138   1.705   1.109  15.323  0.1770 -0.3268 -0.1608
  270TMC3     H 4139   1.539   0.973  15.408  0.2305 -0.7062 -1.7444
  270TMC3    H1 4140   1.933   0.863  15.521  0.4055  0.2764 -0.8665
  270TMC3    H2 4141   1.594   0.630  15.641 -2.5550  1.3551 -0.6577
  270TMC3    C7 4142   1.851   0.612  15.580  0.4304  0.3425  0.8364
  270TMC3    C8 4143   1.459   0.734  15.424  0.1115 -0.1726 -0.5600
  270TMC3    O1 4144   1.974   0.625  15.561  0.0984 -0.5732 -0.0378
  270TMC3    O2 4145   1.448   0.764  15.305 -0.0144 -0.1511  0.0409
  271MPD2     C 4146   1.119   0.618  14.104  0.4669 -0.4782 -0.0428
  271MPD2    C1 4147   1.046   0.513  14.147  0.4493 -0.3953  0.2739
  271MPD2    C2 4148   0.909   0.516  14.145  0.8561 -0.2170  0.2819
  271MPD2    C3 4149   0.844   0.627  14.090  0.1045  0.1007 -0.3220
  271MPD2    C4 4150   0.917   0.738  14.059 -0.1649 -0.2138  0.2897
  271MPD2    C5 4151   1.053   0.730  14.066 -0.4293  0.1850  0.9848
  271MPD2     H 4152   0.853   0.433  14.186 -2.9911  1.1186 -2.1583
  271MPD2    H1 4153   0.872   0.822  14.008  0.3920  0.0781  0.2776
  271MPD2    H2 4154   1.227   0.627  14.110  0.0149  1.6156  4.7759
  271MPD2    H3 4155   1.110   0.819  14.046  0.2038 -0.3858  0.2481
  271MPD2     N 4156   0.697   0.635  14.069 -0.1838  0.2301  0.3381
  271MPD2    H5 4157   0.663   0.728  14.047 -0.8566  0.3790  2.0234
  271MPD2    N1 4158   1.108   0.411  14.219  0.2466  0.8789 -0.7734
  271MPD2    H7 4159   1.045   0.354  14.274 -1.6869  2.3540 -1.4834
  272TMC3    C1 4160   1.272   0.283  14.315  0.0350 -0.4572  0.5496
  272TMC3    C2 4161   1.398   0.231  14.315  0.5544  0.0337 -0.2606
  272TMC3    C3 4162   1.463   0.195  14.430 -0.1254  0.9750 -0.3529
  272TMC3    C4 4163   1.203   0.298  14.437 -0.0445 -0.0774 -0.6322
  272TMC3    C5 4164   1.279   0.283  14.545  0.1071 -0.1168  0.2072
  272TMC3    C6 4165   1.408   0.231  14.550  0.2952  0.3832  0.0234
  272TMC3     C 4166   1.240   0.378  14.210 -0.2973 -0.2015 -0.4516
  272TMC3     O 4167   1.325   0.401  14.126  1.0103 -0.1970 -0.0143
  272TMC3     H 4168   1.458   0.232  14.225  0.7112  0.8319 -0.1428
  272TMC3    H1 4169   1.098   0.322  14.448  0.0088  0.3146 -0.9789
  272TMC3    H2 4170   1.460   0.202  14.640 -0.2699  0.1351  0.2641
  272TMC3    C7 4171   1.217   0.333  14.666 -0.5434  0.9712  0.4471
  272TMC3    C8 4172   1.597   0.145  14.427 -0.2321 -0.4523 -0.5085
  272TMC3    O1 4173   1.102   0.296  14.686  0.1177  0.0078  0.0441
  272TMC3    O2 4174   1.655   0.173  14.325 -0.0434 -0.1016  0.3356
  273MPD2     C 4175   2.932   3.310  11.718 -0.2263 -0.7096 -0.6002
  273MPD2    C1 4176   3.060   3.305  11.687 -0.7168  0.9834 -0.2382
  273MPD2    C2 4177   3.115   3.359  11.567  0.2955 -0.1377  0.3495
  273MPD2    C3 4178   3.027   3.443  11.490  0.1944  0.0585  0.0232
  273MPD2    C4 4179   2.889   3.450  11.518  0.4954 -0.6639  0.2037
  273MPD2    C5 4180   2.851   3.388  11.634 -0.1061 -0.7612 -0.9531
  273MPD2     H 4181   3.217   3.344  11.534  0.1344  0.0049 -0.2129
  273MPD2    H1 4182   2.815   3.508  11.464  0.1996 -1.4964 -0.2904
  273MPD2    H2 4183   2.889   3.270  11.809 -0.3306 -2.0825 -1.2543
  273MPD2    H3 4184   2.747   3.397  11.666 -0.1516  1.7019 -1.8591
  273MPD2     N 4185   3.072   3.517  11.383  0.6549  0.3478  0.2185
  273MPD2    H5 4186   3.001   3.544  11.316 -0.2984 -2.1108  0.2350
  273MPD2    N1 4187   3.138   3.245  11.786 -0.2934  0.1558  0.8982
  273MPD2    H7 4188   3.082   3.211  11.864  0.7493  0.9348  1.9735
  274TMC3    C1 4189   3.226   3.627  11.243  0.7828 -0.2034  0.1753
  274TMC3    C2 4190   3.147   3.610  11.134  0.3106  0.5803  0.4523
  274TMC3    C3 4191   3.157   3.710  11.043  0.8228 -1.1858  0.2379
  274TMC3    C4 4192   3.315   3.731  11.249  0.4882 -0.3876 -0.3178
  274TMC3    C5 4193   3.300   3.839  11.168  0.8968  0.4305 -0.2826
  274TMC3    C6 4194   3.229   3.821  11.053  0.0478 -0.0513 -0.0118
  274TMC3     C 4195   3.208   3.546  11.363  0.0807  0.1127  0.9526
  274TMC3     O 4196   3.298   3.538  11.448  0.3710 -0.5120  0.7519
  274TMC3     H 4197   3.076   3.529  11.125 -0.3773  0.9826  2.1389
  274TMC3    H1 4198   3.367   3.755  11.340  2.6466 -0.1691 -1.6050
  274TMC3    H2 4199   3.189   3.902  10.992 -1.9462 -1.9639 -1.2174
  274TMC3    C7 4200   3.236   3.947  11.247 -0.8489 -0.3163  0.2797
  274TMC3    C8 4201   3.055   3.706  10.938 -0.0469 -0.1464 -0.4644
  274TMC3    O1 4202   3.195   3.923  11.360 -0.2038  0.0501  0.7263
  274TMC3    O2 4203   2.961   3.625  10.945 -0.0064 -0.1096  0.0076
  275MPD2     C 4204   2.681   1.577  14.330  0.0025  0.4622  0.1846
  275MPD2    C1 4205   2.692   1.449  14.382 -0.2841 -0.4005  0.1603
  275MPD2    C2 4206   2.579   1.364  14.378 -0.4054 -0.2478 -0.2797
  275MPD2    C3 4207   2.462   1.418  14.327 -0.6420  0.5573  0.2039
  275MPD2    C4 4208   2.453   1.541  14.263 -0.4607 -0.7398  0.9429
  275MPD2    C5 4209   2.566   1.622  14.270 -1.3646  0.4743  0.0773
  275MPD2     H 4210   2.581   1.274  14.439 -1.3298 -1.2929 -1.7732
  275MPD2    H1 4211   2.358   1.582  14.230 -0.9758 -1.7174  1.2305
  275MPD2    H2 4212   2.759   1.650  14.347 -1.0723  1.2490  1.7105
  275MPD2    H3 4213   2.562   1.719  14.222  1.7477  0.5052 -0.1315
  275MPD2     N 4214   2.335   1.347  14.321 -0.2292  0.2138  0.1835
  275MPD2    H5 4215   2.254   1.380  14.270  2.0457  2.4981 -1.9795
  275MPD2    N1 4216   2.807   1.407  14.444 -0.3340 -0.7348 -0.5974
  275MPD2    H7 4217   2.809   1.313  14.484 -0.1550 -0.5936 -0.2726
  276TMC3    C1 4218   3.000   1.419  14.577  0.2103  0.1999 -0.0377
  276TMC3    C2 4219   3.044   1.288  14.558  1.3863 -0.8927 -0.7774
  276TMC3    C3 4220   3.140   1.245  14.646  0.1809  0.2374 -0.5303
  276TMC3    C4 4221   3.065   1.503  14.660 -0.6966  0.1250 -0.3692
  276TMC3    C5 4222   3.169   1.452  14.734  0.2054 -0.2927  0.1435
  276TMC3    C6 4223   3.216   1.324  14.728 -1.0143 -0.0281 -0.7581
  276TMC3     C 4224   2.916   1.489  14.476 -0.2060 -0.3698  0.3186
  276TMC3     O 4225   2.955   1.601  14.445  0.9270  0.2938  0.0381
  276TMC3     H 4226   2.999   1.224  14.483 -2.9915 -0.7021  1.6450
  276TMC3    H1 4227   3.021   1.595  14.695 -2.0349 -0.0816 -1.5368
  276TMC3    H2 4228   3.291   1.282  14.795  0.6865  4.0419 -0.1337
  276TMC3    C7 4229   3.259   1.549  14.798  0.4194 -0.1069  0.3399
  276TMC3    C8 4230   3.168   1.108  14.653  0.2233  0.5896  0.7926
  276TMC3    O1 4231   3.334   1.508  14.884  0.0675  0.7381  0.1260
  276TMC3    O2 4232   3.286   1.073  14.675 -0.3564 -0.2195  0.0463
  277MPD2     C 4233   4.295   0.351  12.972 -0.0574 -0.1736 -0.5090
  277MPD2    C1 4234   4.208   0.452  13.028  0.5275 -0.0059  0.4547
  277MPD2    C2 4235   4.155   0.442  13.157 -0.5402  0.6716 -0.2261
  277MPD2    C3 4236   4.185   0.332  13.232  0.3615  0.1475  1.1242
  277MPD2    C4 4237   4.269   0.245  13.176  0.2497 -0.4802  0.0945
  277MPD2    C5 4238   4.319   0.246  13.051 -0.2016 -0.3028  0.0491
  277MPD2     H 4239   4.084   0.514  13.194 -0.0723  0.7138  0.5910
  277MPD2    H1 4240   4.283   0.147  13.220  0.1467 -1.2238 -1.5163
  277MPD2    H2 4241   4.331   0.349  12.870  0.9565 -1.5322 -0.1191
  277MPD2    H3 4242   4.374   0.160  13.014  1.9025  1.0491  0.0561
  277MPD2     N 4243   4.133   0.310  13.364 -0.4395 -0.0014  0.1544
  277MPD2    H5 4244   4.069   0.370  13.415 -2.3581 -1.1575 -0.8627
  277MPD2    N1 4245   4.156   0.545  12.935  1.3183 -0.1881  0.0969
  277MPD2    H7 4246   4.183   0.536  12.838  0.8706  1.1072 -0.1419
  278TMC3    C1 4247   4.106   0.236  13.583 -0.4869 -0.2318 -0.2928
  278TMC3    C2 4248   4.125   0.134  13.664 -0.8146  0.1401 -0.3181
  278TMC3    C3 4249   4.026   0.100  13.759 -0.4492 -0.3136 -0.0695
  278TMC3    C4 4250   3.993   0.317  13.602  0.4670  0.2848  0.2373
  278TMC3    C5 4251   3.898   0.276  13.694  0.0449  0.4415 -0.2646
  278TMC3    C6 4252   3.907   0.166  13.775  0.9159  0.3545 -0.6781
  278TMC3     C 4253   4.177   0.216  13.451 -0.2409  0.2506 -0.0651
  278TMC3     O 4254   4.261   0.135  13.436 -0.0627  0.2072 -0.2330
  278TMC3     H 4255   4.217   0.079  13.648 -1.0588 -0.8592  1.8119
  278TMC3    H1 4256   3.971   0.400  13.536  1.2207  2.3154  2.5260
  278TMC3    H2 4257   3.840   0.136  13.855  1.8666  1.0566  0.3801
  278TMC3    C7 4258   3.777   0.356  13.698  0.5952  0.3799  0.0561
  278TMC3    C8 4259   4.062   4.714  13.824 -0.2589  0.1413 -0.4380
  278TMC3    O1 4260   3.771   0.453  13.626 -0.5828 -0.4819 -0.1431
  278TMC3    O2 4261   4.179   4.687  13.823  0.2522  0.1199  0.1122
  279MPD2     C 4262   3.970   0.414  17.589 -0.8354 -0.2833 -1.1856
  279MPD2    C1 4263   3.931   0.544  17.617  0.0310  0.4315  0.1026
  279MPD2    C2 4264   3.918   0.639  17.518 -0.0207 -0.1476  0.3386
  279MPD2    C3 4265   3.919   0.597  17.391  0.6341 -0.3647 -0.5938
  279MPD2    C4 4266   3.953   0.466  17.359 -0.3628 -0.7735  0.2472
  279MPD2    C5 4267   3.978   0.375  17.457 -1.0901 -0.5637 -0.0852
  279MPD2     H 4268   3.893   0.740  17.548  0.8448  0.4444 -0.9303
  279MPD2    H1 4269   3.958   0.433  17.256  0.2551 -1.9255  0.6399
  279MPD2    H2 4270   3.989   0.349  17.673 -2.2313  0.3558 -0.3784
  279MPD2    H3 4271   3.998   0.278  17.414  0.2576 -0.6374  0.7100
  279MPD2     N 4272   3.895   0.687  17.285  0.6061  0.6048  0.1004
  279MPD2    H5 4273   3.899   0.655  17.189  2.7927  1.0379  0.0267
  279MPD2    N1 4274   3.900   0.571  17.749 -0.1364  0.0470  0.1525
  279MPD2    H7 4275   3.886   0.490   0.050 -1.2714  0.1210  0.0025
  280TMC3    C1 4276   3.753   0.665   0.149 -0.4175 -0.0054 -0.2974
  280TMC3    C2 4277   3.660   0.559   0.127 -0.6008 -0.3296 -0.5229
  280TMC3    C3 4278   3.525   0.587   0.124 -0.2444  0.4840 -0.7727
  280TMC3    C4 4279   3.699   0.784   0.193  0.3916 -0.5131  0.5977
  280TMC3    C5 4280   3.560   0.805   0.200 -0.9035 -0.5707  0.0359
  280TMC3    C6 4281   3.477   0.710   0.162 -0.2192  0.6226  0.9217
  280TMC3     C 4282   3.847   0.691   0.042  0.1628 -0.0445  0.6280
  280TMC3     O 4283   3.854   0.804  17.754  0.3515  0.2794 -0.3899
  280TMC3     H 4284   3.692   0.463   0.090  0.8030  0.0336 -0.2346
  280TMC3    H1 4285   3.768   0.862   0.222 -0.8928  1.6790 -2.2381
  280TMC3    H2 4286   3.368   0.716   0.164 -0.2494  0.6281 -0.9176
  280TMC3    C7 4287   3.514   0.942   0.192  0.0833 -0.3402  0.6261
  280TMC3    C8 4288   3.446   0.534   0.015  0.7217  0.2456 -0.9737
  280TMC3    O1 4289   3.610   1.015   0.217  0.0392 -0.4735 -0.0950
  280TMC3    O2 4290   3.373   0.615  17.717  0.6475  0.8240  0.1472
  281TMC3    C1 4291   2.433   0.767  13.568  1.0216  0.0906  0.7075
  281TMC3    C2 4292   2.528   0.855  13.522  0.6567  0.7051 -0.2105
  281TMC3    C3 4293   2.613   0.812  13.418 -0.9011  0.1925  0.9954
  281TMC3    C4 4294   2.434   0.631  13.533 -0.3927 -0.1152 -0.8018
  281TMC3    C5 4295   2.527   0.595  13.439 -0.3712  0.1299  0.4772
  281TMC3    C6 4296   2.617   0.677  13.383 -0.2768  0.5005 -0.9278
  281TMC3     C 4297   2.306   0.813  13.629  0.6790 -0.5339  0.0729
  281TMC3     O 4298   2.226   0.729  13.661  0.0830 -0.0375 -0.2302
  281TMC3     H 4299   2.537   0.955  13.564 -2.1790  1.1787 -0.7109
  281TMC3    H1 4300   2.363   0.563  13.577 -1.6193  1.9878  0.4526
  281TMC3    H2 4301   2.692   0.645  13.312 -0.3350 -0.8142 -0.4038
  281TMC3    C7 4302   2.536   0.452  13.392  0.3017 -0.1668 -0.1323
  281TMC3    C8 4303   2.725   0.895  13.389 -0.2439  0.7972 -0.7780
  281TMC3    O1 4304   2.649   0.411  13.373 -0.3727 -0.3187 -0.2018
  281TMC3    O2 4305   2.836   0.845  13.395 -0.1200 -0.0660  0.0753
  282MPD2     C 4306   4.582   2.121  15.069 -0.2207  0.0558 -0.0134
  282MPD2    C1 4307   4.465   2.198  15.054 -0.2453 -0.5829  0.2255
  282MPD2    C2 4308   4.431   2.249  14.935  0.9179  0.7281  0.3982
  282MPD2    C3 4309   4.518   2.232  14.827 -0.2966 -0.1009  0.7424
  282MPD2    C4 4310   4.640   2.172  14.844 -0.2739 -0.7421  0.4036
  282MPD2    C5 4311   4.673   2.124  14.964  0.2804  0.0788  0.0583
  282MPD2     H 4312   4.338   2.299  14.909 -0.6786 -2.3618  0.1732
  282MPD2    H1 4313   4.713   2.161  14.765 -0.5413  0.2444  0.0189
  282MPD2    H2 4314   4.619   2.075  15.160 -0.8938 -1.1248 -0.3297
  282MPD2    H3 4315   0.023   2.064  14.964  0.4040  0.2510 -1.4035
  282MPD2     N 4316   4.469   2.285  14.701 -0.0194 -0.0221 -0.5867
  282MPD2    H5 4317   4.372   2.314  14.703  0.6537  2.1364  1.2495
  282MPD2    N1 4318   4.381   2.226  15.162  0.8366 -0.1971 -1.1722
  282MPD2    H7 4319   4.296   2.276  15.138  0.0969 -1.2440 -0.7490
  283TMC3    C1 4320   4.277   2.207  15.365  0.3669  0.2280 -0.3606
  283TMC3    C2 4321   4.283   2.345  15.399  0.8655  0.1884 -0.3667
  283TMC3    C3 4322   4.210   2.372  15.519 -0.2508 -0.8569 -0.3504
  283TMC3    C4 4323   4.213   2.117  15.437 -0.3502 -0.3187  0.5979
  283TMC3    C5 4324   4.139   2.151  15.547 -0.4749  0.3556  0.7231
  283TMC3    C6 4325   4.128   2.282  15.580  0.3339 -0.5071 -0.5744
  283TMC3     C 4326   4.386   2.176  15.286  0.4787 -0.5616  0.8763
  283TMC3     O 4327   4.454   2.084  15.333 -0.6920  0.4652  0.2335
  283TMC3     H 4328   4.355   2.415  15.359  0.7702 -0.4932 -1.7057
  283TMC3    H1 4329   4.227   2.014  15.404  0.1965  0.3930 -1.3951
  283TMC3    H2 4330   4.078   2.310  15.672  1.1668  2.5136 -1.0319
  283TMC3    C7 4331   4.032   2.060  15.586 -0.1995  0.8513 -0.4047
  283TMC3    C8 4332   4.222   2.496  15.589 -0.1699  0.1910 -0.3827
  283TMC3    O1 4333   3.997   2.089  15.699 -0.4027  0.2006  0.1213
  283TMC3    O2 4334   4.183   2.503  15.703  0.4762 -0.1910  0.4057
  284MPD2     C 4335   2.572   1.248  12.541 -0.6287 -1.0851  0.5875
  284MPD2    C1 4336   2.650   1.216  12.433  0.0236  0.2963  0.6451
  284MPD2    C2 4337   2.621   1.094  12.369  0.2194 -0.5928  0.4855
  284MPD2    C3 4338   2.540   1.004  12.435  0.6353 -0.2465 -0.3173
  284MPD2    C4 4339   2.481   1.033  12.552  0.2301 -0.4529  0.1420
  284MPD2    C5 4340   2.490   1.155  12.603 -0.1370  0.1470 -0.5905
  284MPD2     H 4341   2.677   1.075  12.278 -0.8038  3.3944 -0.9805
  284MPD2    H1 4342   2.418   0.958  12.598  0.3189  0.7165  2.1903
  284MPD2    H2 4343   2.573   1.344  12.591  3.4229 -0.9939  0.2645
  284MPD2    H3 4344   2.455   1.177  12.703  0.8164  0.9505 -0.4295
  284MPD2     N 4345   2.511   0.880  12.375  0.0317 -0.1616  0.0703
  284MPD2    H5 4346   2.446   0.817  12.420  0.2529  0.2854  1.0268
  284MPD2    N1 4347   2.742   1.299  12.366  0.0625 -0.7271 -0.6019
  284MPD2    H7 4348   2.782   1.267  12.279 -1.2719  1.1033 -1.8921
  285TMC3    C1 4349   2.830   1.501  12.300 -0.9468 -0.2992  0.8616
  285TMC3    C2 4350   2.954   1.457  12.251 -0.2706 -0.5785  0.4055
  285TMC3    C3 4351   3.031   1.532  12.167 -0.6050  0.2660  0.7668
  285TMC3    C4 4352   2.787   1.621  12.263 -0.2922 -0.3619 -0.2891
  285TMC3    C5 4353   2.871   1.707  12.200  0.4197 -0.9979 -0.0366
  285TMC3    C6 4354   2.987   1.664  12.147 -0.1241 -0.3249 -0.3173
  285TMC3     C 4355   2.762   1.429  12.404 -0.1945 -0.5236  0.0909
  285TMC3     O 4356   2.714   1.500  12.490 -0.0091 -0.4491  0.6166
  285TMC3     H 4357   2.988   1.363  12.293  1.7713  0.4789  1.1153
  285TMC3    H1 4358   2.695   1.661  12.304 -0.2724 -0.7879  0.1753
  285TMC3    H2 4359   3.033   1.720  12.066  0.0083  0.4711  0.3146
  285TMC3    C7 4360   2.821   1.820  12.130  0.4536  0.2344  0.3649
  285TMC3    C8 4361   3.077   1.469  12.042 -0.3294 -0.1083 -0.3629
  285TMC3    O1 4362   2.899   1.914  12.108  0.0517  0.2955  0.5517
  285TMC3    O2 4363   3.036   1.360  12.017 -0.0402  0.6777 -0.1889
  286MPD2     C 4364   2.494   0.388   0.767  0.8947 -0.5894  0.0238
  286MPD2    C1 4365   2.617   0.449   0.775 -0.6911 -0.3232 -0.4725
  286MPD2    C2 4366   2.726   0.381   0.724  0.4070  0.2100 -0.4612
  286MPD2    C3 4367   2.719   0.263   0.658  0.0447 -0.6307  0.7191
  286MPD2    C4 4368   2.609   0.189   0.666  0.5231 -0.4028  0.6053
  286MPD2    C5 4369   2.503   0.252   0.724  0.1658  0.2461 -0.1523
  286MPD2     H 4370   2.816   0.441   0.717  0.3011  0.5870  1.4188
  286MPD2    H1 4371   2.599   0.089   0.625 -1.6033  1.3839 -3.1683
  286MPD2    H2 4372   2.400   0.421   0.810  0.4547 -0.6898 -0.8582
  286MPD2    H3 4373   2.410   0.197   0.712  0.6455 -0.3378 -1.1008
  286MPD2     N 4374   2.819   0.203   0.588 -0.3724 -0.6454  0.4222
  286MPD2    H5 4375   2.811   0.110   0.549 -1.4308 -0.5126  0.3325
  286MPD2    N1 4376   2.629   0.586   0.819  0.1023 -0.0444 -0.5290
  286MPD2    H7 4377   2.720   0.628   0.831 -0.9880  2.0801  0.1593
  287TMC3    C1 4378   3.023   0.184   0.496  1.2798 -0.3865 -0.0847
  287TMC3    C2 4379   3.005   0.140   0.369  0.1807  1.4109 -0.1039
  287TMC3    C3 4380   3.051   0.016   0.346 -0.3599 -0.2813  0.1090
  287TMC3    C4 4381   3.079   0.113   0.594 -0.1673  0.4312 -0.8558
  287TMC3    C5 4382   3.134   4.736   0.566 -0.1879 -0.1443  0.5339
  287TMC3    C6 4383   3.121   4.683   0.439 -0.0258 -0.2404  0.5045
  287TMC3     C 4384   2.925   0.276   0.548  0.6171 -0.2743 -0.3598
  287TMC3     O 4385   2.946   0.398   0.535  0.6437 -0.2590 -0.3527
  287TMC3     H 4386   2.939   0.197   0.305  0.0325  1.9631  0.5306
  287TMC3    H1 4387   3.082   0.157   0.693  1.0315 -1.1250 -0.2159
  287TMC3    H2 4388   3.160   4.587   0.408  1.0181  0.2629  0.2446
  287TMC3    C7 4389   3.193   4.658   0.672  0.0573 -0.3357  0.0942
  287TMC3    C8 4390   3.000   4.676   0.235  0.2173  0.2975  0.1282
  287TMC3    O1 4391   3.242   4.732   0.753 -0.3953 -0.2927  0.3508
  287TMC3    O2 4392   2.994   4.553   0.242 -0.0980  0.5185  0.1391
  288TMC3    C1 4393   4.255   4.570  14.260  0.7808 -0.0196  0.1161
  288TMC3    C2 4394   4.169   4.550  14.357  0.1124 -0.2624 -0.0922
  288TMC3    C3 4395   4.069   4.645  14.371  0.2955 -0.1457  0.6040
  288TMC3    C4 4396   4.265   4.678  14.172  0.1579  0.7375 -0.1661
  288TMC3    C5 4397   4.168   0.028  14.197  0.3495 -0.6903  0.7080
  288TMC3    C6 4398   4.071   0.013  14.297 -0.6271  0.3157  0.4985
  288TMC3     C 4399   4.373   4.480  14.279  0.4190  0.4293  0.4843
  288TMC3     O 4400   4.370   4.373  14.336  0.1966 -0.2378 -0.3489
  288TMC3     H 4401   4.180   4.463  14.420 -1.5712 -0.5250 -0.1493
  288TMC3    H1 4402   4.340   4.690  14.095  1.4736 -0.0393  0.9985
  288TMC3    H2 4403   4.019   0.102  14.329  0.0171  0.5715  0.8467
  288TMC3    C7 4404   4.164   0.147  14.116 -0.0215 -0.6019  0.4153
  288TMC3    C8 4405   4.036   4.674  14.508 -0.2696 -0.3653 -0.5657
  288TMC3    O1 4406   4.058   0.206  14.120 -0.1844 -0.1185  0.6753
  288TMC3    O2 4407   4.044   0.051  14.538 -0.4544  0.1145  0.3602
  289MPD2     C 4408   4.496   3.814  14.488  0.2511  1.1311 -0.0979
  289MPD2    C1 4409   4.434   3.882  14.385  0.6021 -0.2399  0.6171
  289MPD2    C2 4410   4.305   3.880  14.372  1.1425 -0.1911  0.4253
  289MPD2    C3 4411   4.226   3.801  14.458  0.2006 -0.4040  0.8806
  289MPD2    C4 4412   4.283   3.724  14.550  0.0607  0.2618  0.1209
  289MPD2    C5 4413   4.417   3.734  14.569 -0.3350  0.2963 -0.1135
  289MPD2     H 4414   4.256   3.937  14.294  3.9044  0.2822 -0.9474
  289MPD2    H1 4415   4.222   3.662  14.615  1.2035 -2.0262 -0.9926
  289MPD2    H2 4416   4.602   3.831  14.506  0.4668  0.9156 -1.1692
  289MPD2    H3 4417   4.465   3.690  14.655 -2.0152  0.3363  0.8465
  289MPD2     N 4418   4.082   3.788  14.445  0.0495 -0.2154  0.3353
  289MPD2    H5 4419   4.041   3.728  14.516  1.0677 -2.1448 -0.7213
  289MPD2    N1 4420   4.524   3.964  14.310 -0.2763  0.1724  0.3805
  289MPD2    H7 4421   4.622   3.950  14.333 -0.2424 -0.2782 -0.0456
  290TMC3    C1 4422   3.861   3.817  14.358 -0.0444 -0.1091  0.6357
  290TMC3    C2 4423   3.769   3.899  14.302 -0.9976 -0.6423  0.0766
  290TMC3    C3 4424   3.640   3.864  14.302 -0.4403 -0.8603 -0.1070
  290TMC3    C4 4425   3.832   3.693  14.406 -0.0007 -0.4712 -0.5120
  290TMC3    C5 4426   3.693   3.658  14.395  0.4054 -0.0219  0.2296
  290TMC3    C6 4427   3.603   3.735  14.338 -0.1953 -0.0720 -0.1261
  290TMC3     C 4428   4.001   3.861  14.355 -0.2321 -0.6992  0.2412
  290TMC3     O 4429   4.034   3.952  14.273 -0.3458 -0.7334  0.1857
  290TMC3     H 4430   3.805   3.992  14.259  0.0246 -1.1608 -0.1800
  290TMC3    H1 4431   3.901   3.628  14.458 -1.7421 -0.5251  1.7129
  290TMC3    H2 4432   3.501   3.698  14.330  0.2284 -0.8290 -2.0623
  290TMC3    C7 4433   3.655   3.524  14.422  0.0984 -0.5980 -0.2832
  290TMC3    C8 4434   3.535   3.960  14.275 -0.3012  0.0673 -0.1577
  290TMC3    O1 4435   3.531   3.509  14.438  0.0206  0.0187  0.2736
  290TMC3    O2 4436   3.416   3.927  14.278  0.2195  0.2072 -0.1596
  291MPD2     C 4437   3.570   4.355  17.538  0.3077  0.4334 -0.3510
  291MPD2    C1 4438   3.683   4.283  17.576 -0.3689  0.7737  0.3641
  291MPD2    C2 4439   3.788   4.361  17.623  0.2051  0.4487  0.2491
  291MPD2    C3 4440   3.788   4.498  17.640 -0.6450 -0.1764  0.3227
  291MPD2    C4 4441   3.675   4.563  17.587 -0.4032 -0.6138  0.1416
  291MPD2    C5 4442   3.573   4.491  17.531 -0.6520  0.6231 -0.9037
  291MPD2     H 4443   3.871   4.298  17.653 -1.2321 -1.0752  1.0620
  291MPD2    H1 4444   3.689   4.670  17.596 -1.7281 -0.7725  4.0150
  291MPD2    H2 4445   3.473   4.316  17.510  0.6702 -1.1974  0.6864
  291MPD2    H3 4446   3.481   4.534  17.495 -0.8914  0.8284 -0.0493
  291MPD2     N 4447   3.893   4.573  17.691 -0.0553  0.1320  0.5615
  291MPD2    H5 4448   3.882   4.672  17.711  2.3136  0.2735  1.0992
  291MPD2    N1 4449   3.703   4.144  17.582 -0.2753 -0.7117 -0.2625
  291MPD2    H7 4450   3.792   4.107  17.613 -0.1340 -0.2568 -0.1286
  292TMC3    C1 4451   3.625   3.928  17.603 -0.7088 -1.1098  0.2838
  292TMC3    C2 4452   3.722   3.913  17.703  0.2538 -0.4517  0.3885
  292TMC3    C3 4453   3.751   3.793  17.751 -0.1713 -0.3304 -0.9888
  292TMC3    C4 4454   3.567   3.821  17.547 -0.0643 -0.0159 -0.2797
  292TMC3    C5 4455   3.611   3.699  17.586 -0.3686 -0.1352 -0.0950
  292TMC3    C6 4456   3.696   3.683  17.696  0.0559 -0.1842  0.0273
  292TMC3     C 4457   3.601   4.061  17.559  0.5762 -0.0440  0.6770
  292TMC3     O 4458   3.488   4.083  17.511 -0.1708 -0.2551  0.3566
  292TMC3     H 4459   3.759   3.997   0.003  1.3481  0.3049 -1.3772
  292TMC3    H1 4460   3.533   3.834  17.444  0.9244  0.3028 -0.5587
  292TMC3    H2 4461   3.732   3.581  17.712 -0.0653  0.0092  1.5037
  292TMC3    C7 4462   3.576   3.573  17.516  0.1292  0.2004  0.2695
  292TMC3    C8 4463   3.806   3.778   0.121  0.3169 -0.4722 -1.2587
  292TMC3    O1 4464   3.652   3.476  17.529 -0.2648  0.8193 -0.1200
  292TMC3    O2 4465   3.907   3.834   0.163  0.0491 -0.2136  0.5960
  293MPD2     C 4466   1.175   4.738  12.668 -0.4580 -0.1519  0.3508
  293MPD2    C1 4467   1.036   4.727  12.687 -0.3148 -0.8407  0.3137
  293MPD2    C2 4468   0.975   0.045  12.798 -0.1874  0.2496  0.5482
  293MPD2    C3 4469   1.058   0.119  12.881 -0.4641  0.2047  0.1787
  293MPD2    C4 4470   1.192   0.140  12.857  0.9011 -0.2204  0.9180
  293MPD2    C5 4471   1.254   0.075  12.747  0.0464 -0.4181  0.4500
  293MPD2     H 4472   0.873   0.028  12.830  0.4006  0.7819  2.6630
  293MPD2    H1 4473   1.254   0.195  12.927 -2.4742  0.2363  3.5506
  293MPD2    H2 4474   1.221   4.703  12.576  3.2016  3.6688  0.7342
  293MPD2    H3 4475   1.359   0.096  12.730 -0.4869 -0.1570 -2.5999
  293MPD2     N 4476   0.998   0.157  13.004  0.1507  0.3913  0.0314
  293MPD2    H5 4477   0.909   0.115  13.031  0.1051  0.3013 -0.2582
  293MPD2    N1 4478   0.970   4.642  12.596 -0.1556  0.6284  0.0949
  293MPD2    H7 4479   1.026   4.606  12.520  2.5697  0.4492  2.1818
  294TMC3    C1 4480   0.773   4.601  12.460 -1.0278  0.2989 -0.7849
  294TMC3    C2 4481   0.635   4.613  12.441  0.5354 -0.1364  0.4933
  294TMC3    C3 4482   0.589   4.612  12.311  0.0951  0.9360 -0.3670
  294TMC3    C4 4483   0.860   4.570  12.355  0.4388  0.2766 -0.1463
  294TMC3    C5 4484   0.801   4.572  12.227 -0.0856 -0.0269 -0.1621
  294TMC3    C6 4485   0.668   4.604  12.198  1.1277 -0.1969  0.1936
  294TMC3     C 4486   0.830   4.639  12.593  0.9639 -0.0058  0.0683
  294TMC3     O 4487   0.745   4.672  12.677  0.0251  0.0820 -0.7653
  294TMC3     H 4488   0.567   4.630  12.524 -0.1816  0.6878 -0.2621
  294TMC3    H1 4489   0.966   4.553  12.371  0.3704  0.4756  0.5182
  294TMC3    H2 4490   0.631   4.631  12.100  0.8323  2.7772  1.1097
  294TMC3    C7 4491   0.900   4.603  12.130 -0.2811  0.2104  0.2440
  294TMC3    C8 4492   0.447   4.621  12.295  0.1459 -0.9422 -0.8894
  294TMC3    O1 4493   1.008   4.643  12.167 -0.1081  0.3524 -0.3916
  294TMC3    O2 4494   0.383   4.655  12.391 -0.0162 -0.3101 -0.3945
  295MPD2     C 4495   2.007   4.288   0.895 -0.5445  0.4336 -0.0684
  295MPD2    C1 4496   1.953   4.171   0.845  0.1093  0.0829 -0.0301
  295MPD2    C2 4497   2.000   4.050   0.893  0.5419 -0.3782  0.1604
  295MPD2    C3 4498   2.110   4.043   0.973  0.7615  0.2267  0.4093
  295MPD2    C4 4499   2.161   4.164   1.022  0.6449  0.4194 -0.0967
  295MPD2    C5 4500   2.106   4.288   0.984 -0.1694  0.3028  0.7543
  295MPD2     H 4501   1.962   3.957   0.854 -0.3321 -0.3559  0.9461
  295MPD2    H1 4502   2.239   4.166   1.098 -0.4855 -1.0389  1.1012
  295MPD2    H2 4503   1.974   4.386   0.865  1.7437  1.1783 -0.1997
  295MPD2    H3 4504   2.153   4.381   1.014  1.0729 -0.0624 -0.0646
  295MPD2     N 4505   2.166   3.918   1.022  0.8223 -0.3173 -0.0628
  295MPD2    H5 4506   2.238   3.928   1.093 -1.2526  1.0482  1.8472
  295MPD2    N1 4507   1.847   4.170   0.750  0.1722 -0.3172  0.1346
  295MPD2    H7 4508   1.809   4.082   0.715  0.7339  0.0154 -1.3284
  296TMC3    C1 4509   2.191   3.683   1.046  0.2029  0.3714  0.0281
  296TMC3    C2 4510   2.236   3.687   1.172  0.3915  0.1394 -0.0780
  296TMC3    C3 4511   2.259   3.574   1.243  0.1742  0.1221  0.1402
  296TMC3    C4 4512   2.179   3.557   0.994  0.3983  0.4480  1.2403
  296TMC3    C5 4513   2.229   3.443   1.057  1.2784 -0.2443 -0.5425
  296TMC3    C6 4514   2.267   3.452   1.184  0.6979  0.0146 -0.0597
  296TMC3     C 4515   2.131   3.790   0.971 -0.0448 -0.3658 -0.4576
  296TMC3     O 4516   2.067   3.748   0.874 -0.1588 -0.3642  1.0438
  296TMC3     H 4517   2.209   3.773   1.232 -2.4141 -0.5365 -0.3398
  296TMC3    H1 4518   2.133   3.542   0.897 -0.5736  2.0897  1.4570
  296TMC3    H2 4519   2.282   3.359   1.237 -0.7923  0.1479  0.5992
  296TMC3    C7 4520   2.147   3.328   1.022 -0.3808 -0.5209  0.3017
  296TMC3    C8 4521   2.278   3.574   1.384 -0.2132 -0.1215  0.7635
  296TMC3    O1 4522   2.041   3.343   0.963 -0.4699  0.5776 -0.0742
  296TMC3    O2 4523   2.267   3.466   1.442  0.2583  0.3156  1.1278
  297MPD2     C 4524   3.351   0.974  16.109  0.5049  0.2679 -0.3256
  297MPD2    C1 4525   3.302   1.057  16.011 -0.0234  0.6730  0.0825
  297MPD2    C2 4526   3.381   1.166  15.989 -0.3745  0.3438 -0.1455
  297MPD2    C3 4527   3.487   1.198  16.067  0.2265  0.6636 -0.3278
  297MPD2    C4 4528   3.539   1.112  16.159  0.7408 -0.4505 -0.0350
  297MPD2    C5 4529   3.469   0.994  16.176 -0.2104  0.1698  0.3978
  297MPD2     H 4530   3.347   1.242  15.920 -0.0941  0.5993 -0.0060
  297MPD2    H1 4531   3.622   1.123  16.228  2.0622  3.0927 -2.2060
  297MPD2    H2 4532   3.294   0.883  16.126 -0.6264  1.4317  2.1825
  297MPD2    H3 4533   3.493   0.935  16.263  0.3912  2.1031  1.5430
  297MPD2     N 4534   3.555   1.322  16.039 -0.0303  1.0285 -0.4588
  297MPD2    H5 4535   3.525   1.359  15.949  0.4895 -1.3082 -1.5885
  297MPD2    N1 4536   3.181   1.042  15.940 -0.1146 -0.1381  0.3120
  297MPD2    H7 4537   3.171   1.102  15.859 -2.4432 -0.4515  0.3659
  298TMC3    C1 4538   2.955   0.969  15.912 -0.4618  0.4544 -0.2198
  298TMC3    C2 4539   2.952   0.987  15.778  0.5428  0.3444  0.3623
  298TMC3    C3 4540   2.830   1.002  15.711 -0.3060 -0.0299 -0.6169
  298TMC3    C4 4541   2.837   0.967  15.982 -0.6810  0.0137 -0.0260
  298TMC3    C5 4542   2.723   0.991  15.921  0.5184 -0.4331  0.8668
  298TMC3    C6 4543   2.714   0.998  15.785  0.0652  0.2667 -0.3566
  298TMC3     C 4544   3.079   0.968  15.992 -0.0942  0.2748  0.6227
  298TMC3     O 4545   3.067   0.920  16.103  0.2754 -0.5672  0.1992
  298TMC3     H 4546   3.039   1.000  15.714 -0.5358  3.3422 -0.5021
  298TMC3    H1 4547   2.831   0.937  16.087  0.1032 -2.1759 -0.6017
  298TMC3    H2 4548   2.621   0.991  15.731  0.4344 -0.4956 -0.9029
  298TMC3    C7 4549   2.614   1.039  15.996  0.0088 -0.2244 -0.6525
  298TMC3    C8 4550   2.835   1.011  15.569 -0.2290  0.2899 -0.3119
  298TMC3    O1 4551   2.613   1.030  16.116  0.5844  0.2733 -0.4183
  298TMC3    O2 4552   2.941   0.996  15.512 -0.3943  0.7272 -0.6749
  299MPD2     C 4553   3.795   0.610  10.524 -0.1217 -0.2816 -0.3015
  299MPD2    C1 4554   3.836   0.714  10.445 -0.1738  0.0047  0.6942
  299MPD2    C2 4555   3.745   0.784  10.370  0.0527  0.4001 -0.0911
  299MPD2    C3 4556   3.609   0.757  10.392 -0.0078 -0.0920 -0.0083
  299MPD2    C4 4557   3.576   0.648  10.479 -0.3455  0.1792 -0.0282
  299MPD2    C5 4558   3.671   0.575  10.538 -0.4919 -0.1305  0.0591
  299MPD2     H 4559   3.778   0.869  10.312 -3.5402  1.9052  0.0614
  299MPD2    H1 4560   3.474   0.616  10.494 -0.2665 -0.5446 -1.0626
  299MPD2    H2 4561   3.869   0.563  10.588 -0.3724 -0.7675 -0.3661
  299MPD2    H3 4562   3.644   0.501  10.612  0.1008  1.0338  1.4286
  299MPD2     N 4563   3.501   0.829  10.343 -0.4612  0.0974 -0.4537
  299MPD2    H5 4564   3.407   0.799  10.368 -1.0957  2.3171 -0.1176
  299MPD2    N1 4565   3.971   0.749  10.455  0.1821  0.2271 -0.2088
  299MPD2    H7 4566   4.023   0.723  10.538  0.8425  1.5926 -0.1909
  300TMC3    C1 4567   3.380   1.027  10.278 -0.2423 -0.4495  0.0074
  300TMC3    C2 4568   3.386   1.163  10.291 -0.0984 -0.4080 -0.0410
  300TMC3    C3 4569   3.284   1.233  10.350 -0.4386  0.6790  0.3693
  300TMC3    C4 4570   3.275   0.958  10.342  0.6298  0.7618 -0.4952
  300TMC3    C5 4571   3.186   1.033  10.410 -0.8151  0.1310  0.2496
  300TMC3    C6 4572   3.192   1.170  10.417  0.1278  0.2909  0.5898
  300TMC3     C 4573   3.509   0.953  10.281 -0.4704  0.0710  0.0166
  300TMC3     O 4574   3.611   1.015  10.242  0.8740 -0.4578  0.1842
  300TMC3     H 4575   3.472   1.214  10.249 -1.4990  2.7501  0.9344
  300TMC3    H1 4576   3.256   0.852  10.330 -0.1542  0.8806 -0.3092
  300TMC3    H2 4577   3.123   1.223  10.482  0.4246 -1.0236  1.9928
  300TMC3    C7 4578   3.074   0.963  10.474 -0.7765  0.1533 -0.2114
  300TMC3    C8 4579   3.319   1.366  10.401  0.6876 -1.4230  0.4271
  300TMC3    O1 4580   3.012   0.876  10.414 -0.0998 -0.0234 -0.0241
  300TMC3    O2 4581   3.437   1.393  10.404  0.3781  0.0226  0.3285
  301MPD2     C 4582   1.362   2.734   0.913 -0.2617 -0.1385 -0.3467
  301MPD2    C1 4583   1.246   2.663   0.941 -0.5609  0.2838  0.0006
  301MPD2    C2 4584   1.251   2.532   0.975  0.0911  0.0409  0.4842
  301MPD2    C3 4585   1.367   2.467   0.966  0.0874  0.0624  0.1517
  301MPD2    C4 4586   1.484   2.529   0.936 -0.0634  0.4153  0.1736
  301MPD2    C5 4587   1.479   2.670   0.912  0.1156 -0.4898 -0.0695
  301MPD2     H 4588   1.165   2.476   1.010  0.3859 -0.8452 -0.1852
  301MPD2    H1 4589   1.575   2.473   0.919  0.0778  0.6046  0.3104
  301MPD2    H2 4590   1.359   2.838   0.883 -2.5702 -0.4730 -1.3355
  301MPD2    H3 4591   1.567   2.732   0.893  1.1001 -1.7833  0.2581
  301MPD2     N 4592   1.369   2.320   0.969 -0.2736  0.3472  0.6236
  301MPD2    H5 4593   1.458   2.278   0.942 -0.2623 -0.8976  2.5758
  301MPD2    N1 4594   1.117   2.717   0.927 -0.2180  0.2365  0.2042
  301MPD2    H7 4595   1.052   2.643   0.951 -0.0158 -0.0105 -0.0062
  302TMC3    C1 4596   1.279   2.103   0.912 -0.3848 -0.6041  0.3845
  302TMC3    C2 4597   1.397   2.038   0.944 -0.6065  0.5636 -0.3137
  302TMC3    C3 4598   1.425   1.929   0.869 -0.4905  0.6734 -0.0841
  302TMC3    C4 4599   1.190   2.049   0.822 -0.2564  0.4951 -0.5703
  302TMC3    C5 4600   1.215   1.933   0.759 -0.3521  0.2159 -0.8016
  302TMC3    C6 4601   1.327   1.865   0.791 -0.5621  0.6482 -0.7747
  302TMC3     C 4602   1.255   2.235   0.957 -0.6402  0.4936  0.0154
  302TMC3     O 4603   1.137   2.269   0.972 -0.0760 -0.7404 -0.1153
  302TMC3     H 4604   1.473   2.089   1.001 -1.2383  1.4910 -0.3112
  302TMC3    H1 4605   1.110   2.114   0.789 -0.5827  0.3281 -0.1022
  302TMC3    H2 4606   1.366   1.780   0.738  1.4001  1.8155 -1.1929
  302TMC3    C7 4607   1.159   1.918   0.620  0.1451  0.0913 -0.5189
  302TMC3    C8 4608   1.520   1.835   0.932 -0.2035 -0.3649  0.2771
  302TMC3    O1 4609   1.226   1.861   0.536 -0.0904  0.1386 -1.0029
  302TMC3    O2 4610   1.554   1.737   0.869 -0.2385 -0.0371 -0.3742
  303MPD2     C 4611   1.167   4.257  10.794 -0.0190  0.1298 -0.7202
  303MPD2    C1 4612   1.057   4.305  10.727 -0.3394 -0.5888  0.7154
  303MPD2    C2 4613   1.072   4.413  10.646 -0.5412  0.4046  0.3203
  303MPD2    C3 4614   1.197   4.473  10.627 -0.2198  0.4979  0.5399
  303MPD2    C4 4615   1.307   4.418  10.689 -0.0380  0.4515 -0.0708
  303MPD2    C5 4616   1.290   4.312  10.770 -0.2620  0.0381  0.0687
  303MPD2     H 4617   0.992   4.458  10.589 -1.8404 -0.0350  1.7931
  303MPD2    H1 4618   1.406   4.455  10.666  0.6091 -1.5063 -0.5091
  303MPD2    H2 4619   1.151   4.168  10.853 -2.0808  0.1549 -1.2186
  303MPD2    H3 4620   1.372   4.269  10.828  1.2071  0.6493 -1.5562
  303MPD2     N 4621   1.220   4.591  10.550 -0.3783 -0.0260  0.1937
  303MPD2    H5 4622   1.315   4.625  10.535 -0.6076  0.5010 -0.0728
  303MPD2    N1 4623   0.924   4.243  10.744 -0.4785  0.0522  0.0287
  303MPD2    H7 4624   0.917   4.148  10.776  0.8860 -1.3270 -3.6934
  304TMC3    C1 4625   0.703   4.198  10.708 -0.3338 -0.2829 -0.0273
  304TMC3    C2 4626   0.579   4.256  10.719  0.1093  0.0979 -0.1902
  304TMC3    C3 4627   0.478   4.195  10.659  0.0742 -0.3122 -0.7263
  304TMC3    C4 4628   0.725   4.105  10.606  0.3968  0.5475 -0.1214
  304TMC3    C5 4629   0.623   4.041  10.550  1.0247 -0.4268  0.1467
  304TMC3    C6 4630   0.503   4.079  10.599 -0.8194  0.3792 -0.4990
  304TMC3     C 4631   0.803   4.302  10.714  0.2160 -0.3230  0.1670
  304TMC3     O 4632   0.776   4.419  10.692 -0.5307 -0.3434 -0.0904
  304TMC3     H 4633   0.561   4.353  10.765 -0.9838 -1.0412  1.8224
  304TMC3    H1 4634   0.826   4.077  10.578  0.5141  1.5881 -0.7602
  304TMC3    H2 4635   0.428   4.011  10.561  0.2284 -1.0115 -0.0786
  304TMC3    C7 4636   0.626   4.060  10.403  0.4951  0.5704 -0.8351
  304TMC3    C8 4637   0.372   4.274  10.620 -0.4767  0.1154  0.5137
  304TMC3    O1 4638   0.517   4.089  10.364 -0.3378 -0.4013  0.4048
  304TMC3    O2 4639   0.338   4.375  10.687 -0.1148  0.4058 -0.4825
  305MPD2     C 4640   4.638   2.833  13.781 -0.6008  0.1326 -0.1018
  305MPD2    C1 4641   4.621   2.697  13.778  0.7253  0.1357 -1.4112
  305MPD2    C2 4642   4.659   2.624  13.664 -0.0622  0.6107  0.1275
  305MPD2    C3 4643   4.717   2.683  13.552  0.4228 -0.0490  0.3411
  305MPD2    C4 4644   4.735   2.823  13.560  0.7037  0.6901  0.1378
  305MPD2    C5 4645   4.700   2.888  13.676 -0.2383  0.1147 -0.3052
  305MPD2     H 4646   4.653   2.516  13.663  1.9845  0.4967  0.9419
  305MPD2    H1 4647   0.041   2.885  13.485  0.0982 -0.5381 -1.2556
  305MPD2    H2 4648   4.626   2.886  13.875 -1.9775 -1.9316  0.9068
  305MPD2    H3 4649   4.721   2.994  13.670 -1.2935  0.3912  0.8780
  305MPD2     N 4650   0.017   2.608  13.435  0.3437 -0.2738  0.3081
  305MPD2    H5 4651   0.070   2.655  13.363 -0.8109  0.1836 -0.2422
  305MPD2    N1 4652   4.565   2.635  13.893 -0.3866  0.2778 -0.0754
  305MPD2    H7 4653   4.541   2.709  13.959 -0.3347  0.7142 -0.5419
  306TMC3    C1 4654   4.578   2.465  14.060 -0.4027 -0.6157 -0.9664
  306TMC3    C2 4655   4.602   2.333  14.087  0.0380 -0.4738 -0.5319
  306TMC3    C3 4656   4.663   2.295  14.203  0.2247 -0.0932  0.0619
  306TMC3    C4 4657   4.615   2.557  14.154  0.4197  0.5125 -0.9573
  306TMC3    C5 4658   4.684   2.515  14.265  0.4580  0.7082 -0.0972
  306TMC3    C6 4659   4.701   2.385  14.294 -0.4554 -0.6788  0.2649
  306TMC3     C 4660   4.547   2.501  13.920 -0.4272 -0.0477 -0.1679
  306TMC3     O 4661   4.546   2.411  13.837  0.3543 -0.4550  0.0329
  306TMC3     H 4662   4.557   2.251  14.032 -3.2694  0.2885  1.0220
  306TMC3    H1 4663   4.592   2.661  14.137 -1.0003 -0.0882 -2.7080
  306TMC3    H2 4664   0.011   2.362  14.387  0.7696 -2.0025 -0.7442
  306TMC3    C7 4665   4.637   2.565  14.389 -0.2767  0.0853  0.4851
  306TMC3    C8 4666   4.706   2.159  14.201 -0.4906  0.3421  0.0112
  306TMC3    O1 4667   4.514   2.577  14.385 -0.2075 -0.3579 -0.1711
  306TMC3    O2 4668   4.705   2.097  14.090 -0.1949 -0.6087  0.0334
  307MPD2     C 4669   1.864   0.584   0.267 -0.5214 -0.1861 -0.3885
  307MPD2    C1 4670   1.933   0.702   0.252  0.0462 -0.6318 -0.1000
  307MPD2    C2 4671   1.941   0.799   0.349  0.5936  0.0607 -0.5755
  307MPD2    C3 4672   1.897   0.775   0.477 -0.1609 -0.5920 -1.0093
  307MPD2    C4 4673   1.833   0.656   0.502  0.2249 -0.8922 -0.0471
  307MPD2    C5 4674   1.819   0.565   0.397 -0.3808  0.2297  0.3812
  307MPD2     H 4675   1.994   0.892   0.333 -0.1588  0.9496  1.9834
  307MPD2    H1 4676   1.802   0.620   0.599  3.4534  3.2830  2.5696
  307MPD2    H2 4677   1.847   0.511   0.189 -1.7603 -0.8550  0.5073
  307MPD2    H3 4678   1.779   0.466   0.418 -1.1002  0.3143 -0.6187
  307MPD2     N 4679   1.900   0.883   0.569  0.2709  0.2553  0.7589
  307MPD2    H5 4680   1.925   0.976   0.536  0.2192  0.4049  1.1429
  307MPD2    N1 4681   1.992   0.737   0.126 -0.1189  0.2000 -0.3742
  307MPD2    H7 4682   2.011   0.836   0.113 -2.2314  0.3396 -2.3140
  308TMC3    C1 4683   1.615   1.015   0.901 -0.4795  0.4067 -0.0513
  308TMC3    C2 4684   1.643   1.145   0.884  0.1100  0.3282  0.5197
  308TMC3    C3 4685   1.747   1.181   0.801  0.1278 -0.1821 -0.9553
  308TMC3    C4 4686   1.706   0.916   0.867 -0.2120  0.4948 -0.2291
  308TMC3    C5 4687   1.798   0.955   0.773  0.3251  0.8592 -0.3812
  308TMC3    C6 4688   1.813   1.084   0.731  0.0284  0.2279  0.0688
  308TMC3     C 4689   1.479   0.967   0.899 -0.1963 -0.5202 -0.0506
  308TMC3     O 4690   1.451   0.854   0.933  0.4776 -0.4751  0.0134
  308TMC3     H 4691   1.589   1.228   0.930  0.8137  1.0339  0.0605
  308TMC3    H1 4692   1.680   0.812   0.883 -0.0627  0.1696 -2.0361
  308TMC3    H2 4693   1.881   1.110   0.651  0.0611  0.7428  0.2607
  308TMC3    C7 4694   1.870   0.853   0.703 -0.1365  0.5014  0.3308
  308TMC3    C8 4695   1.792   1.319   0.809 -0.1401 -0.5324  0.0308
  308TMC3    O1 4696   1.867   0.750   0.768 -0.3442  0.2640 -0.4635
  308TMC3    O2 4697   1.758   1.386   0.908  0.0066  0.3253  1.0325
  309MPD2     C 4698   1.222   0.897  16.727 -0.4131  0.1352  0.0498
  309MPD2    C1 4699   1.273   1.016  16.776  0.3286  0.3011 -0.4044
  309MPD2    C2 4700   1.198   1.092  16.861  0.0365 -0.3620 -0.4213
  309MPD2    C3 4701   1.074   1.046  16.900 -0.2127  0.1172  0.0357
  309MPD2    C4 4702   1.034   0.922  16.861 -0.1927 -0.3620  0.6268
  309MPD2    C5 4703   1.097   0.852  16.766  0.2105  0.2719  0.3720
  309MPD2     H 4704   1.227   1.190  16.897  0.6881 -1.0242  0.8619
  309MPD2    H1 4705   0.935   0.895  16.897 -0.0064 -1.4945  0.2663
  309MPD2    H2 4706   1.275   0.836  16.656 -1.9663 -1.6730  0.4460
  309MPD2    H3 4707   1.046   0.762  16.736  0.9488  0.3264 -1.0603
  309MPD2     N 4708   0.974   1.110  16.974  0.2539  0.3124 -0.0661
  309MPD2    H5 4709   0.878   1.077  16.983  0.0662  0.7394 -0.4765
  309MPD2    N1 4710   1.397   1.066  16.732 -0.0129 -0.0819 -0.0457
  309MPD2    H7 4711   1.423   1.164  16.742  0.0902 -0.1859  0.6912
  310TMC3    C1 4712   1.593   1.064  16.606  0.7591 -0.1311  0.0152
  310TMC3    C2 4713   1.550   1.172  16.533 -0.5347  0.2825 -0.1638
  310TMC3    C3 4714   1.623   1.205  16.421 -0.5124  0.5157 -0.0937
  310TMC3    C4 4715   1.702   0.983  16.569 -0.1949 -0.1571  0.5610
  310TMC3    C5 4716   1.757   1.015  16.448  0.5385  0.2778 -0.3764
  310TMC3    C6 4717   1.719   1.117  16.372 -0.0334  0.4195  0.3517
  310TMC3     C 4718   1.493   0.988  16.672  0.0104  0.0393 -0.2658
  310TMC3     O 4719   1.498   0.864  16.661 -0.3060  0.1656  0.1715
  310TMC3     H 4720   1.479   1.241  16.575 -0.8734 -0.5077  0.5770
  310TMC3    H1 4721   1.730   0.894  16.625 -1.3276  0.1430  1.6051
  310TMC3    H2 4722   1.784   1.141  16.288  0.7899 -0.1139  0.8339
  310TMC3    C7 4723   1.842   0.921  16.372 -0.6466 -0.1879 -0.1826
  310TMC3    C8 4724   1.522   1.265  16.334 -0.5179 -0.0181 -0.4114
  310TMC3    O1 4725   1.818   0.915  16.249 -0.1038 -0.4161 -0.1144
  310TMC3    O2 4726   1.414   1.224  16.365 -0.2302  0.1814  0.2364
  311MPD2     C 4727   3.534   1.974  12.662 -0.1158  0.3259  0.4566
  311MPD2    C1 4728   3.545   2.094  12.724 -0.0045 -0.1782  0.2728
  311MPD2    C2 4729   3.456   2.121  12.823  0.3001  0.0818  0.0823
  311MPD2    C3 4730   3.360   2.029  12.865 -0.1203  0.8426  0.0145
  311MPD2    C4 4731   3.365   1.900  12.816  0.3574 -0.9771  0.4236
  311MPD2    C5 4732   3.443   1.881  12.706  0.3575  0.3107 -0.6127
  311MPD2     H 4733   3.448   2.221  12.865 -0.9431 -0.5864  1.4519
  311MPD2    H1 4734   3.304   1.818  12.854  1.4186 -1.5388  0.9295
  311MPD2    H2 4735   3.582   1.944  12.569  0.1238 -0.2480  0.7682
  311MPD2    H3 4736   3.432   1.793  12.645 -1.7481 -0.5900  1.0911
  311MPD2     N 4737   3.273   2.069  12.965  0.2815 -0.0031  0.0167
  311MPD2    H5 4738   3.297   2.151  13.019  2.6195  0.0184 -1.0949
  311MPD2    N1 4739   3.632   2.196  12.676  0.4052 -0.1041 -0.4022
  311MPD2    H7 4740   3.620   2.287  12.719 -2.3033 -0.2020 -0.9746
  312TMC3    C1 4741   3.059   2.075  13.078 -0.0665  0.1863 -0.5765
  312TMC3    C2 4742   2.928   2.082  13.046 -0.1498  0.1432 -0.6755
  312TMC3    C3 4743   2.840   2.098  13.149 -0.5204 -0.7004 -0.7480
  312TMC3    C4 4744   3.105   2.081  13.207 -0.3431  0.4339 -1.0530
  312TMC3    C5 4745   3.012   2.099  13.308  0.6001  0.4729  0.8664
  312TMC3    C6 4746   2.884   2.105  13.278  0.5291  0.1692 -0.6676
  312TMC3     C 4747   3.141   2.020  12.971  0.4790  0.6149  0.2279
  312TMC3     O 4748   3.102   1.946  12.884  0.0237  0.4695 -0.1029
  312TMC3     H 4749   2.888   2.064  12.947 -0.5225  0.1684 -0.5266
  312TMC3    H1 4750   3.207   2.060  13.234  0.1508  4.0194 -0.1003
  312TMC3    H2 4751   2.812   2.142  13.351  1.1907 -1.5743  0.8648
  312TMC3    C7 4752   3.055   2.065  13.444  0.2258 -0.4801 -0.7681
  312TMC3    C8 4753   2.700   2.100  13.126 -0.9478  0.0492 -0.3658
  312TMC3    O1 4754   3.171   2.032  13.459  0.4329 -0.9549  0.1943
  312TMC3    O2 4755   2.627   2.065  13.218 -0.4281  0.7450 -0.5645
  313MPD2     C 4756   2.869   1.476  10.932 -0.5057  0.6211  0.1389
  313MPD2    C1 4757   2.738   1.437  10.919 -0.3524  0.2272 -0.0062
  313MPD2    C2 4758   2.709   1.364  10.805 -0.1782 -0.3500 -0.1098
  313MPD2    C3 4759   2.805   1.344  10.709 -0.0195  0.1880  0.1557
  313MPD2    C4 4760   2.936   1.387  10.717 -0.1460  0.4990 -0.4350
  313MPD2    C5 4761   2.965   1.458  10.833  0.0373 -0.7271 -0.0708
  313MPD2     H 4762   2.607   1.336  10.783  0.7922 -3.7771 -0.3553
  313MPD2    H1 4763   3.005   1.370  10.636  0.0840 -0.1858 -0.0967
  313MPD2    H2 4764   2.910   1.522  11.021  0.7390 -1.3230  0.5651
  313MPD2    H3 4765   3.065   1.492  10.858 -0.6714 -0.6400  2.6025
  313MPD2     N 4766   2.759   1.282  10.593  0.4927  0.1663 -0.0877
  313MPD2    H5 4767   2.667   1.241  10.607 -0.2220  1.6334 -0.5436
  313MPD2    N1 4768   2.632   1.465  11.021  0.6176 -0.3040 -0.1053
  313MPD2    H7 4769   2.539   1.425  11.007 -0.6537  2.7572 -0.2355
  314TMC3    C1 4770   2.532   1.570  11.204 -0.2552  0.0320  0.3711
  314TMC3    C2 4771   2.551   1.623  11.324 -0.0241  0.5802  0.2480
  314TMC3    C3 4772   2.473   1.720  11.377  0.5506  0.5715 -0.6429
  314TMC3    C4 4773   2.422   1.605  11.126  0.5020 -0.1852  0.3545
  314TMC3    C5 4774   2.350   1.708  11.172  0.4106 -0.4405  0.1327
  314TMC3    C6 4775   2.381   1.769  11.289  0.0089  0.0957  0.0305
  314TMC3     C 4776   2.658   1.543  11.126 -0.5787 -0.2355 -0.4861
  314TMC3     O 4777   2.760   1.587  11.176 -0.3680  0.2020  0.2130
  314TMC3     H 4778   2.645   1.603  11.374  0.7537 -1.1138 -1.8834
  314TMC3    H1 4779   2.391   1.555  11.035 -1.2956  0.1397  0.7702
  314TMC3    H2 4780   2.328   1.860  11.315  0.2651  0.9435 -2.4413
  314TMC3    C7 4781   2.225   1.746  11.106 -0.3812  0.8558 -0.1710
  314TMC3    C8 4782   2.553   1.835  11.427 -0.7346  0.0352  0.1036
  314TMC3    O1 4783   2.125   1.729  11.171  0.5901 -0.3709  0.8698
  314TMC3    O2 4784   2.546   1.936  11.362 -0.4169 -0.0528  0.2427
  315MPD2     C 4785   2.413   0.635  17.736  0.5844 -0.3116 -0.2297
  315MPD2    C1 4786   2.463   0.701   0.085  1.2092 -1.0933  0.0899
  315MPD2    C2 4787   2.537   0.816   0.061 -0.7771 -0.1935 -0.1404
  315MPD2    C3 4788   2.536   0.868  17.689 -1.1235 -0.0993  0.1884
  315MPD2    C4 4789   2.485   0.798  17.580  0.5493 -0.4631 -0.4944
  315MPD2    C5 4790   2.425   0.680  17.608 -0.2180 -0.5047 -0.7995
  315MPD2     H 4791   2.569   0.870   0.149 -2.0518  2.1184 -1.0840
  315MPD2    H1 4792   2.481   0.839  17.480 -1.9897  2.4294  0.7742
  315MPD2    H2 4793   2.355   0.544  17.740 -0.3830  0.2750 -1.1115
  315MPD2    H3 4794   2.377   0.631  17.524 -1.0825 -1.6289  0.3360
  315MPD2     N 4795   2.583   1.002  17.676  0.2274 -0.5913 -0.2077
  315MPD2    H5 4796   2.628   1.036   0.002 -1.3089 -0.1962  0.4540
  315MPD2    N1 4797   2.444   0.650   0.214 -0.2518  0.5094 -0.0164
  315MPD2    H7 4798   2.499   0.690   0.290 -1.1339  1.7086 -0.0187
  316TMC3    C1 4799   2.627   1.214  17.573  0.0175 -0.6973  0.0834
  316TMC3    C2 4800   2.741   1.221  17.647 -0.0338 -0.0456 -0.0503
  316TMC3    C3 4801   2.813   1.339  17.657  0.8593  0.6883 -0.9039
  316TMC3    C4 4802   2.573   1.325  17.508 -0.0224 -0.9091  0.2745
  316TMC3    C5 4803   2.633   1.448  17.533 -0.8611  0.1451 -0.6901
  316TMC3    C6 4804   2.749   1.456  17.606 -0.3347 -0.5382  0.5365
  316TMC3     C 4805   2.569   1.082  17.567  0.6602  0.2508  0.3910
  316TMC3     O 4806   2.498   1.072  17.468 -0.1062 -0.2359 -0.0938
  316TMC3     H 4807   2.792   1.137  17.692 -0.0480  1.1458  2.2045
  316TMC3    H1 4808   2.477   1.313  17.458 -0.1284 -1.7008  0.6646
  316TMC3    H2 4809   2.796   1.552  17.626 -1.7723  0.0575  1.0269
  316TMC3    C7 4810   2.585   1.570  17.468 -1.1006 -0.5189 -0.2564
  316TMC3    C8 4811   2.927   1.356  17.745 -0.1189  0.0707 -0.0863
  316TMC3    O1 4812   2.602   1.684  17.518  0.3294 -0.8516 -0.6739
  316TMC3    O2 4813   2.946   1.456   0.058 -0.3906 -0.0506 -0.2864
  317MPD2     C 4814   4.293   4.401  13.083  0.6550  0.1699  0.0565
  317MPD2    C1 4815   4.386   4.364  12.991  0.2626  0.0860 -0.1442
  317MPD2    C2 4816   4.463   4.250  13.003 -0.3429 -1.2056 -0.2013
  317MPD2    C3 4817   4.444   4.170  13.116 -0.2663 -0.3585 -0.1141
  317MPD2    C4 4818   4.367   4.221  13.219  0.2755 -1.0278 -0.6443
  317MPD2    C5 4819   4.286   4.325  13.195 -0.1985 -0.1957  0.3107
  317MPD2     H 4820   4.538   4.223  12.929  0.6671  0.9873  0.0150
  317MPD2    H1 4821   4.358   4.179  13.318 -1.1160 -1.7408 -1.0689
  317MPD2    H2 4822   4.229   4.488  13.074 -1.2826 -1.2648 -0.1530
  317MPD2    H3 4823   4.231   4.352  13.284 -0.0429  0.4715  0.2083
  317MPD2     N 4824   4.517   4.052  13.126  0.6364 -0.2998  0.9513
  317MPD2    H5 4825   4.580   4.029  13.049 -2.3490 -0.3899 -1.4496
  317MPD2    N1 4826   4.408   4.437  12.873 -0.2155 -0.0503 -0.3526
  317MPD2    H7 4827   4.475   4.395  12.810 -1.1865 -1.8920 -0.1609
  318TMC3    C1 4828   4.566   3.833  13.202 -0.1689  0.1448  0.1566
  318TMC3    C2 4829   4.507   3.709  13.204  0.5689  0.4112 -0.6741
  318TMC3    C3 4830   4.577   3.600  13.152 -0.0960  0.0494 -0.3092
  318TMC3    C4 4831   4.696   3.855  13.158  1.0648  0.2431 -0.0588
  318TMC3    C5 4832   0.024   3.736  13.121 -1.0531  0.9658 -0.4083
  318TMC3    C6 4833   4.705   3.616  13.114  0.0649 -0.4153  0.5446
  318TMC3     C 4834   4.485   3.950  13.219  0.4611  0.0666  0.2178
  318TMC3     O 4835   4.385   3.940  13.289  0.3707  0.2361 -0.3370
  318TMC3     H 4836   4.414   3.702  13.261  0.5425 -2.2523 -1.0242
  318TMC3    H1 4837   0.003   3.953  13.154  1.5363  0.0339  0.3105
  318TMC3    H2 4838   0.018   3.539  13.060 -0.2651 -1.1544  1.2948
  318TMC3    C7 4839   0.158   3.753  13.061  0.5108  0.2618  0.2676
  318TMC3    C8 4840   4.499   3.487  13.095 -0.0764 -0.1058 -0.1923
  318TMC3    O1 4841   0.168   3.859  12.996  0.0105  0.4152  0.4663
  318TMC3    O2 4842   4.565   3.399  13.043 -0.3692 -0.1637  0.4367
  319MPD2     C 4843   0.717   0.585  16.320 -0.5329 -0.1255  0.3484
  319MPD2    C1 4844   0.623   0.524  16.402 -0.3340  0.1647  0.3458
  319MPD2    C2 4845   0.518   0.461  16.348  0.1594  0.5255 -0.3818
  319MPD2    C3 4846   0.507   0.447  16.211  0.1772  0.0054  0.7315
  319MPD2    C4 4847   0.599   0.505  16.129 -0.1141 -0.0423  0.9626
  319MPD2    C5 4848   0.701   0.581  16.181  0.1048  0.4466 -0.7754
  319MPD2     H 4849   0.439   0.417  16.408 -1.2646  1.7516 -1.3732
  319MPD2    H1 4850   0.587   0.495  16.022  3.8740  0.6660  0.4403
  319MPD2    H2 4851   0.804   0.639  16.356 -0.6233  0.4690 -0.3205
  319MPD2    H3 4852   0.772   0.638  16.122  2.0610 -2.2286 -1.0078
  319MPD2     N 4853   0.403   0.380  16.146  0.6971  0.1459  0.5474
  319MPD2    H5 4854   0.403   0.380  16.045 -0.2793 -0.9939  0.5445
  319MPD2    N1 4855   0.620   0.541  16.542  0.0518 -0.1503  0.4645
  319MPD2    H7 4856   0.538   0.515  16.595 -1.0202  0.7970 -0.7130
  320TMC3    C1 4857   0.199   0.264  16.118 -0.8078  0.1247  0.2934
  320TMC3    C2 4858   0.151   0.348  16.017 -0.4406  0.4544  0.2633
  320TMC3    C3 4859   0.045   0.301  15.938 -0.7782  0.6239 -0.7079
  320TMC3    C4 4860   0.144   0.143  16.145  0.1774 -1.5648  0.3937
  320TMC3    C5 4861   0.034   0.109  16.064 -0.2070 -0.2943 -0.0637
  320TMC3    C6 4862   4.726   0.179  15.956 -0.8304 -0.2477 -0.0775
  320TMC3     C 4863   0.309   0.298  16.202 -0.3919 -0.1789 -0.4043
  320TMC3     O 4864   0.322   0.238  16.310 -0.1051  0.1007 -0.0984
  320TMC3     H 4865   0.192   0.446  15.993  0.2495  0.0094 -0.3800
  320TMC3    H1 4866   0.177   0.086  16.231  1.2453  0.7946  1.5454
  320TMC3    H2 4867   4.647   0.139  15.894 -1.6578 -0.7316  1.3104
  320TMC3    C7 4868   0.000   4.710  16.066 -0.5399 -0.5880  0.2148
  320TMC3    C8 4869   4.727   0.399  15.850 -0.6117  0.2810  0.0034
  320TMC3    O1 4870   4.690   4.669  15.961  0.7576 -0.3781 -0.0024
  320TMC3    O2 4871   0.023   0.514  15.874 -0.1744 -0.0194  0.0489
  321TMC3    C1 4872   0.680   0.624  16.751 -0.1247 -0.4225  0.4601
  321TMC3    C2 4873   0.649   0.513  16.821 -0.9498  0.2866  0.0723
  321TMC3    C3 4874   0.619   0.512  16.951 -0.4316 -1.0500  0.0015
  321TMC3    C4 4875   0.701   0.745  16.817 -0.3075 -0.3971 -0.8445
  321TMC3    C5 4876   0.655   0.743  16.948  0.4364 -0.0436 -0.0088
  321TMC3    C6 4877   0.605   0.630  17.014 -0.2124  0.0518  0.1374
  321TMC3     C 4878   0.710   0.615  16.614 -0.0476  0.3953 -0.4852
  321TMC3     O 4879   0.803   0.691  16.578  0.1820 -0.7656 -0.3575
  321TMC3     H 4880   0.654   0.421  16.764 -0.4307 -0.0022  0.5855
  321TMC3    H1 4881   0.755   0.829  16.776  1.6089 -1.3753 -0.3078
  321TMC3    H2 4882   0.557   0.632  17.110 -3.3603 -3.1524 -1.4038
  321TMC3    C7 4883   0.739   0.829  17.027  0.2672  0.1519 -0.3788
  321TMC3    C8 4884   0.678   0.419  17.042 -0.5622  1.1128 -0.0411
  321TMC3    O1 4885   0.750   0.948  17.010  0.1287  0.3571  0.1559
  321TMC3    O2 4886   0.723   0.474  17.142 -0.0508 -0.6915 -0.8985
  322MPD2     C 4887   4.386   1.434  12.957  0.2155 -0.0310 -0.3077
  322MPD2    C1 4888   4.381   1.407  13.093 -0.3984 -1.2058  0.3729
  322MPD2    C2 4889   4.348   1.281  13.137 -0.6087  0.5981  0.0235
  322MPD2    C3 4890   4.326   1.175  13.053 -0.2247  0.3182  0.8683
  322MPD2    C4 4891   4.356   1.196  12.914  0.2702  0.2958  0.0979
  322MPD2    C5 4892   4.389   1.325  12.874 -0.0937 -0.6480 -0.4715
  322MPD2     H 4893   4.335   1.261  13.243  1.0759 -0.1566  0.0882
  322MPD2    H1 4894   4.345   1.117  12.841  0.0510 -0.6695  1.1676
  322MPD2    H2 4895   4.409   1.533  12.919 -0.5875 -0.2139 -1.2547
  322MPD2    H3 4896   4.397   1.341  12.767  1.7106  1.2916 -0.0629
  322MPD2     N 4897   4.296   1.047  13.106  0.6001  0.2052 -0.0465
  322MPD2    H5 4898   4.267   1.043  13.203 -1.6075  0.6488 -0.6853
  322MPD2    N1 4899   4.398   1.518  13.181 -0.1298 -0.5817  0.4438
  322MPD2    H7 4900   4.407   1.611  13.142  0.0363 -0.8461 -0.1563
  323TMC3    C1 4901   4.421   1.645  13.385 -0.5554  0.8886 -0.0720
  323TMC3    C2 4902   4.497   1.738  13.321 -0.0448 -0.1122 -0.3926
  323TMC3    C3 4903   4.545   1.836  13.396  0.6512  0.3293  0.0693
  323TMC3    C4 4904   4.384   1.659  13.514  0.4866 -0.1128  0.3751
  323TMC3    C5 4905   4.425   1.770  13.584 -0.5438  0.1053  0.3318
  323TMC3    C6 4906   4.517   1.854  13.529  0.6355  0.7986  0.0567
  323TMC3     C 4907   4.399   1.512  13.320  0.0239  0.6020  0.1022
  323TMC3     O 4908   4.408   1.416  13.396  1.0210 -0.0841 -0.0071
  323TMC3     H 4909   4.531   1.716  13.221  0.8709 -1.6175  0.2430
  323TMC3    H1 4910   4.309   1.594  13.557  0.0725 -0.4163 -0.7937
  323TMC3    H2 4911   4.563   1.939  13.579 -1.9056  1.4565  1.2644
  323TMC3    C7 4912   4.448   1.743  13.727 -0.0850 -0.2240 -0.0602
  323TMC3    C8 4913   4.683   1.870  13.360  0.3129  0.1726  0.3332
  323TMC3    O1 4914   4.482   1.834  13.798  0.2767  0.3843 -0.4711
  323TMC3    O2 4915   0.034   1.816  13.415 -0.0585  0.0961 -0.3447
  324MPD2     C 4916   1.317   2.518  14.472  0.5854  0.3377  0.1439
  324MPD2    C1 4917   1.291   2.651  14.486 -0.0198 -0.1354  0.2070
  324MPD2    C2 4918   1.161   2.692  14.463  0.4196  0.1123 -0.0518
  324MPD2    C3 4919   1.056   2.599  14.435  0.1584  0.1738  0.1567
  324MPD2    C4 4920   1.087   2.468  14.418  1.1218  0.2530  0.4416
  324MPD2    C5 4921   1.218   2.430  14.438 -0.2675 -0.5554  0.2154
  324MPD2     H 4922   1.139   2.796  14.483 -0.4360 -0.8935  4.1627
  324MPD2    H1 4923   1.015   2.392  14.389 -0.9963  1.4257  2.6145
  324MPD2    H2 4924   1.409   2.465  14.493  0.3557  0.1141  0.6207
  324MPD2    H3 4925   1.241   2.324  14.431  1.6626 -0.0583 -1.0958
  324MPD2     N 4926   0.918   2.630  14.410 -0.1439  0.4194 -0.5070
  324MPD2    H5 4927   0.859   2.558  14.370  2.4892 -1.0698 -1.6717
  324MPD2    N1 4928   1.393   2.746  14.516 -0.4377 -0.0883 -0.6781
  324MPD2    H7 4929   1.365   2.843  14.506 -0.0984 -0.1194 -1.8925
  325TMC3    C1 4930   0.731   2.776  14.340  0.6491 -0.5803  0.3371
  325TMC3    C2 4931   0.659   2.666  14.290  0.5746  0.8028  0.2066
  325TMC3    C3 4932   0.563   2.691  14.194 -0.9170  0.3556 -0.0249
  325TMC3    C4 4933   0.689   2.897  14.302  0.2638 -1.0354  0.0208
  325TMC3    C5 4934   0.588   2.917  14.207  0.7576 -0.2493 -0.5598
  325TMC3    C6 4935   0.525   2.813  14.148 -0.1924 -0.7084  0.0920
  325TMC3     C 4936   0.864   2.759  14.415 -0.1149 -0.7278  0.0337
  325TMC3     O 4937   0.922   2.866  14.430  0.7548 -0.4542 -0.1357
  325TMC3     H 4938   0.695   2.565  14.302  1.0003  1.1857  2.1140
  325TMC3    H1 4939   0.755   2.980  14.323 -4.0690  2.5908 -0.7226
  325TMC3    H2 4940   0.447   2.830  14.074 -0.2208 -0.8982  0.0789
  325TMC3    C7 4941   0.550   3.061  14.196 -0.1723  0.0559  0.5160
  325TMC3    C8 4942   0.533   2.579  14.115  0.3103  0.5931 -0.4508
  325TMC3    O1 4943   0.611   3.145  14.260  0.4458  0.2229 -1.3276
  325TMC3    O2 4944   0.617   2.483  14.105  0.1868  0.4082 -0.6154
  326MPD2     C 4945   2.294   3.702  11.069  0.3551 -0.2830 -0.4851
  326MPD2    C1 4946   2.383   3.746  10.973 -0.2090 -0.7073 -0.0337
  326MPD2    C2 4947   2.488   3.828  11.014 -0.2134 -1.1204 -0.0083
  326MPD2    C3 4948   2.499   3.873  11.141 -0.0379  0.5308 -0.1050
  326MPD2    C4 4949   2.406   3.835  11.232 -0.5020 -0.2944 -0.3591
  326MPD2    C5 4950   2.308   3.742  11.198 -0.0091  0.2943 -0.1063
  326MPD2     H 4951   2.550   3.867  10.934 -0.5289  0.0956  0.3301
  326MPD2    H1 4952   2.413   3.861  11.337  1.5016 -0.1662 -0.5102
  326MPD2    H2 4953   2.215   3.631  11.047 -0.1943  0.7758 -1.9538
  326MPD2    H3 4954   2.250   3.708  11.283 -0.8782  2.8227  0.3296
  326MPD2     N 4955   2.604   3.960  11.172  0.3531  0.3964  0.0069
  326MPD2    H5 4956   2.599   4.009  11.261 -1.8700  1.3179 -0.6063
  326MPD2    N1 4957   2.381   3.720  10.837  0.1455 -0.0015  0.5684
  326MPD2    H7 4958   2.454   3.763  10.782  1.2440 -2.3369  0.2124
  327TMC3    C1 4959   2.309   3.648  10.629 -0.7034  0.5928  0.8776
  327TMC3    C2 4960   2.215   3.687  10.541  0.1988  0.5946 -0.1506
  327TMC3    C3 4961   2.256   3.693  10.406 -0.2613 -0.7070  0.0977
  327TMC3    C4 4962   2.439   3.610  10.590 -0.3389 -0.3122  0.5791
  327TMC3    C5 4963   2.481   3.641  10.461  0.0581  0.1575  0.3954
  327TMC3    C6 4964   2.388   3.673  10.366  0.2681  0.0169 -0.2124
  327TMC3     C 4965   2.280   3.659  10.771  0.0715 -0.3286  0.1271
  327TMC3     O 4966   2.168   3.634  10.817  0.0688  0.1393 -0.4431
  327TMC3     H 4967   2.119   3.710  10.586  1.3083  1.7954  1.5968
  327TMC3    H1 4968   2.506   3.569  10.665 -0.2963  0.3311  0.8897
  327TMC3    H2 4969   2.423   3.685  10.265  0.8187  0.3873  0.0248
  327TMC3    C7 4970   2.612   3.696  10.434  0.3297 -0.5933  0.5051
  327TMC3    C8 4971   2.192   3.812  10.342 -0.2971 -0.1430 -0.0078
  327TMC3    O1 4972   2.627   3.751  10.326 -0.1592 -0.5517  0.2027
  327TMC3    O2 4973   2.162   3.906  10.415  0.3055 -0.5139  0.2706
  328MPD2     C 4974   0.039   4.240  17.271  0.2126 -0.1941  0.2543
  328MPD2    C1 4975   4.693   4.158  17.199  0.3150  0.6395  0.5268
  328MPD2    C2 4976   4.668   4.190  17.060  0.0332 -0.0451  0.9998
  328MPD2    C3 4977   4.702   4.313  17.013 -0.2763  0.0416  0.0352
  328MPD2    C4 4978   0.017   4.411  17.096 -0.7985 -0.2047 -0.4196
  328MPD2    C5 4979   0.064   4.368  17.220  0.9359 -0.8485  0.4913
  328MPD2     H 4980   4.603   4.129  16.999  0.0043  1.1126 -0.1442
  328MPD2    H1 4981   0.070   4.494  17.050  0.4718 -1.8275 -1.8985
  328MPD2    H2 4982   0.073   4.220  17.372 -0.2223 -0.5795  0.3263
  328MPD2    H3 4983   0.141   4.421  17.274  0.5962 -0.0154  0.1505
  328MPD2     N 4984   4.664   4.337  16.874 -0.5980  0.0968 -0.4502
  328MPD2    H5 4985   4.606   4.266  16.831 -0.4131 -1.8267  2.4513
  328MPD2    N1 4986   4.636   4.043  17.252  0.1126 -0.8753  0.0321
  328MPD2    H7 4987   4.658   4.021  17.348  2.6865  1.4450 -0.0102
  329TMC3    C1 4988   4.513   3.850  17.288 -0.4002 -0.5324  0.3635
  329TMC3    C2 4989   4.483   3.898  17.415 -0.1463  0.0451 -0.1510
  329TMC3    C3 4990   4.431   3.804  17.499  0.1728  0.3826  0.0101
  329TMC3    C4 4991   4.489   3.721  17.243  0.5813  0.0098  0.1463
  329TMC3    C5 4992   4.431   3.637  17.335  0.4710 -1.0670 -0.5194
  329TMC3    C6 4993   4.414   3.676  17.463  0.1374 -0.0892 -0.9069
  329TMC3     C 4994   4.546   3.955  17.195  0.0955  0.9000  0.0974
  329TMC3     O 4995   4.527   3.944  17.074  0.1942  0.3689 -0.2166
  329TMC3     H 4996   4.508   4.000  17.443  0.3403  0.5295 -2.3579
  329TMC3    H1 4997   4.502   3.706  17.136 -3.0576 -0.7462 -0.2182
  329TMC3    H2 4998   4.383   3.604  17.537  4.2381 -0.3652  0.5295
  329TMC3    C7 4999   4.397   3.499  17.306 -0.4587  0.6144 -0.3419
  329TMC3    C8 5000   4.399   3.840  17.639 -0.2075 -0.5141 -0.7561
  329TMC3    O1 5001   4.324   3.435  17.381  0.0072 -0.2842 -0.0986
  329TMC3    O2 5002   4.410   3.757  17.726 -0.7709  0.0922 -0.7565
  330TMC3    C1 5003   2.468   3.060   9.085  0.8964  0.3501 -0.5956
  330TMC3    C2 5004   2.374   2.966   9.064 -0.3616  0.0249  0.0553
  330TMC3    C3 5005   2.401   2.839   9.112 -0.8045  0.4159 -0.1318
  330TMC3    C4 5006   2.592   3.030   9.141  0.6392 -0.4769 -0.3099
  330TMC3    C5 5007   2.610   2.905   9.189 -0.0931  0.5845  0.2247
  330TMC3    C6 5008   2.520   2.804   9.179  0.2538 -0.4242 -0.6335
  330TMC3     C 5009   2.452   3.196   9.028 -0.5049 -0.0998  0.3870
  330TMC3     O 5010   2.556   3.255   9.020 -0.6346 -0.1352 -0.3940
  330TMC3     H 5011   2.276   2.987   9.023 -0.0357  0.4795 -0.4918
  330TMC3    H1 5012   2.666   3.108   9.155  0.1326 -0.0849  0.1830
  330TMC3    H2 5013   2.530   2.702   9.213  1.0770  0.5303  1.9358
  330TMC3    C7 5014   2.734   2.874   9.254  0.7266 -0.6169 -0.0283
  330TMC3    C8 5015   2.304   2.739   9.065 -0.4958 -0.2135  0.2757
  330TMC3    O1 5016   2.819   2.949   9.222  0.1399  0.0294 -0.2616
  330TMC3    O2 5017   2.244   2.761   8.961 -0.2554  0.1065  0.1260
  331MPD2     C 5018   1.120   2.815  13.003 -0.5973 -0.0109  0.1484
  331MPD2    C1 5019   1.187   2.771  12.889 -0.1907  0.0573  0.8709
  331MPD2    C2 5020   1.191   2.630  12.865  0.1805  0.2752  0.3739
  331MPD2    C3 5021   1.130   2.541  12.948  0.1422 -0.7147  0.1462
  331MPD2    C4 5022   1.079   2.585  13.066 -0.8481 -0.0161  0.0946
  331MPD2    C5 5023   1.075   2.721  13.096  0.2878  0.2221 -0.0133
  331MPD2     H 5024   1.251   2.591  12.784 -1.2691 -1.7348  0.2730
  331MPD2    H1 5025   1.039   2.513  13.136  2.5049 -3.2066 -1.2601
  331MPD2    H2 5026   1.105   2.919  13.030  3.0871  0.9703 -1.6251
  331MPD2    H3 5027   1.039   2.744  13.195  1.9661 -1.7575  1.0546
  331MPD2     N 5028   1.130   2.411  12.908 -0.5536  0.0214 -0.3411
  331MPD2    H5 5029   1.158   2.393  12.812 -2.6241 -1.2873 -0.7047
  331MPD2    N1 5030   1.242   2.857  12.790  0.7389  0.0522  0.7560
  331MPD2    H7 5031   1.283   2.809  12.712 -0.3195 -0.4202  0.4868
  332TMC3    C1 5032   1.009   2.206  12.894  0.2070  0.3022  0.1468
  332TMC3    C2 5033   0.948   2.245  12.775 -0.9500 -0.1987 -0.0334
  332TMC3    C3 5034   0.878   2.152  12.703  0.4029  0.3101 -0.1921
  332TMC3    C4 5035   1.005   2.078  12.937  0.0745 -0.0750 -0.5102
  332TMC3    C5 5036   0.930   1.989  12.867 -0.3634 -0.2901  0.5519
  332TMC3    C6 5037   0.870   2.023  12.750 -0.8651 -0.0355  0.0532
  332TMC3     C 5038   1.068   2.311  12.975 -0.0584  0.4038  0.0429
  332TMC3     O 5039   1.055   2.289  13.095 -0.8137 -0.5189  0.0135
  332TMC3     H 5040   0.949   2.346  12.736 -0.0245  0.1140  0.7930
  332TMC3    H1 5041   1.041   2.055  13.037  3.2256  0.7178 -1.4836
  332TMC3    H2 5042   0.832   1.950  12.679  0.9968 -0.8335 -0.1135
  332TMC3    C7 5043   0.993   1.858  12.854  0.3174 -0.1635  0.0048
  332TMC3    C8 5044   0.885   2.168  12.559  0.6426 -0.5185 -1.0013
  332TMC3    O1 5045   0.931   1.763  12.806  1.0603  0.0896  0.3754
  332TMC3    O2 5046   0.984   2.225  12.511  0.3558 -0.5442 -0.7840
  333MPD2     C 5047   0.919   1.554  10.823  0.0837  0.5830 -0.3131
  333MPD2    C1 5048   1.047   1.547  10.771  0.0239  0.3109 -0.9616
  333MPD2    C2 5049   1.126   1.433  10.796  0.3409 -0.1856 -0.0121
  333MPD2    C3 5050   1.082   1.337  10.880 -0.0579  0.3235  0.3086
  333MPD2    C4 5051   0.960   1.348  10.932 -0.1825  0.3685 -0.0264
  333MPD2    C5 5052   0.879   1.456  10.911  0.0102  0.4003 -0.1962
  333MPD2     H 5053   1.232   1.430  10.773  0.6016  3.1378  0.7050
  333MPD2    H1 5054   0.916   1.283  11.006 -1.1369  2.4058  1.2109
  333MPD2    H2 5055   0.862   1.646  10.830 -0.0889  0.2153  3.3355
  333MPD2    H3 5056   0.781   1.466  10.955 -0.6868 -0.6013 -1.4993
  333MPD2     N 5057   1.174   1.239  10.923  0.0359  0.2877  0.1100
  333MPD2    H5 5058   1.270   1.244  10.888 -0.8719 -0.8943 -2.5278
  333MPD2    N1 5059   1.085   1.664  10.708  0.0652  0.8123  0.6576
  333MPD2    H7 5060   1.013   1.730  10.685  0.3130  0.5985 -0.7232
  334TMC3    C1 5061   1.215   1.811  10.588  0.5207 -0.5164 -0.9583
  334TMC3    C2 5062   1.321   1.819  10.503 -0.9676  0.0119 -0.1027
  334TMC3    C3 5063   1.386   1.932  10.493 -0.3211 -0.1898  0.5760
  334TMC3    C4 5064   1.183   1.919  10.666  0.3997  0.3288  0.6191
  334TMC3    C5 5065   1.255   2.038  10.646 -0.2264 -0.3480 -0.0195
  334TMC3    C6 5066   1.347   2.048  10.551  0.5557  0.1332  0.7852
  334TMC3     C 5067   1.211   1.684  10.653 -0.1451 -0.2378 -0.0959
  334TMC3     O 5068   1.312   1.615  10.648  0.4154 -0.4460 -0.1767
  334TMC3     H 5069   1.340   1.729  10.446 -2.8517  0.2063 -1.0502
  334TMC3    H1 5070   1.099   1.905  10.733 -0.8775  3.7712 -0.3002
  334TMC3    H2 5071   1.406   2.137  10.538 -0.1063  1.2021  5.1368
  334TMC3    C7 5072   1.236   2.149  10.737 -0.2741 -0.1575  0.2288
  334TMC3    C8 5073   1.512   1.928  10.428 -0.4894 -0.1178  0.1928
  334TMC3    O1 5074   1.302   2.244  10.704  0.1532  0.0377 -0.6106
  334TMC3    O2 5075   1.523   1.831  10.355 -0.0276  0.1780  0.4212
  335TMC3    C1 5076   0.521   3.915  17.189 -0.0390 -0.0447 -0.1901
  335TMC3    C2 5077   0.478   3.957  17.061 -0.2063 -0.3202 -0.3581
  335TMC3    C3 5078   0.571   3.961  16.964 -0.5847 -0.7878 -0.4318
  335TMC3    C4 5079   0.653   3.886  17.212 -0.4809 -0.5524  0.3646
  335TMC3    C5 5080   0.746   3.895  17.106 -0.3691  0.2245  0.1951
  335TMC3    C6 5081   0.704   3.929  16.985 -0.0030 -0.1209  0.2036
  335TMC3     C 5082   0.436   3.950  17.301 -0.7374  0.1802 -0.6456
  335TMC3     O 5083   0.371   4.057  17.292  0.5365 -0.4002  0.2042
  335TMC3     H 5084   0.376   3.989  17.045  0.0492  0.2320 -0.8476
  335TMC3    H1 5085   0.697   3.886  17.311  1.3087  1.1236 -0.4195
  335TMC3    H2 5086   0.772   3.929  16.900 -0.8057 -0.1120 -0.4447
  335TMC3    C7 5087   0.860   3.817  17.107 -0.0926 -0.6157 -0.5229
  335TMC3    C8 5088   0.522   3.903  16.838  0.7796 -0.0050  0.4579
  335TMC3    O1 5089   0.942   3.832  17.013 -0.4284  0.0967 -0.2400
  335TMC3    O2 5090   0.587   3.926  16.741 -0.3165 -0.1631  0.0558
  336MPD2     C 5091   0.299   1.705  15.958 -0.1908 -0.4315  0.1831
  336MPD2    C1 5092   0.265   1.629  15.846  0.3295  0.2562  0.2183
  336MPD2    C2 5093   0.298   1.501  15.858  0.6330  0.2820  0.0583
  336MPD2    C3 5094   0.359   1.434  15.965 -0.0305  0.5542 -0.0535
  336MPD2    C4 5095   0.389   1.509  16.074 -0.2200 -0.1117 -0.5748
  336MPD2    C5 5096   0.363   1.648  16.073  0.0188 -0.1211  0.4513
  336MPD2     H 5097   0.260   1.445  15.772 -1.0566 -0.6587  1.4195
  336MPD2    H1 5098   0.442   1.466  16.159 -0.9007 -0.5179 -0.3562
  336MPD2    H2 5099   0.283   1.812  15.950 -2.1559 -0.6847  0.7695
  336MPD2    H3 5100   0.393   1.710  16.156 -1.3774 -0.4977  1.2244
  336MPD2     N 5101   0.384   1.295  15.966 -0.2313  0.0157 -0.1075
  336MPD2    H5 5102   0.420   1.256  16.052  1.4957  0.1673 -0.7584
  336MPD2    N1 5103   0.205   1.683  15.727  0.0422  0.8077 -0.3094
  336MPD2    H7 5104   0.169   1.622  15.654 -1.0446  1.9574 -0.7249
  337TMC3    C1 5105   0.134   1.839  15.567 -0.6835  0.1655 -0.9439
  337TMC3    C2 5106   0.038   1.757  15.520 -0.5753 -0.0569 -0.2989
  337TMC3    C3 5107   4.732   1.775  15.396  0.2548 -0.1001  0.5341
  337TMC3    C4 5108   0.194   1.928  15.482  0.0209  1.1949  0.4739
  337TMC3    C5 5109   0.137   1.945  15.356  0.2946 -0.5244 -0.3210
  337TMC3    C6 5110   0.042   1.867  15.304 -0.0303  0.8651 -0.3095
  337TMC3     C 5111   0.204   1.818  15.697  0.8850 -0.3689 -0.0870
  337TMC3     O 5112   0.293   1.898  15.723 -0.9073 -0.0272  0.1639
  337TMC3     H 5113   4.738   1.683  15.588  0.3506 -0.0623  0.2410
  337TMC3    H1 5114   0.275   1.992  15.517  0.3048 -0.4566  2.8431
  337TMC3    H2 5115   0.002   1.870  15.203 -0.5172 -0.3089 -0.1486
  337TMC3    C7 5116   0.200   2.036  15.260 -0.3370 -0.0570 -0.0568
  337TMC3    C8 5117   4.598   1.719  15.369 -0.1340 -0.2272 -0.2205
  337TMC3    O1 5118   0.199   1.995  15.142  0.5665 -0.2931 -0.0190
  337TMC3    O2 5119   4.574   1.615  15.426  0.7746  0.0156 -0.1117
  338MPD2     C 5120   0.482   1.745   0.742 -0.6707 -0.2638 -0.3963
  338MPD2    C1 5121   0.459   1.669   0.625  0.3123  0.2886  0.0586
  338MPD2    C2 5122   0.333   1.623   0.603 -0.6545 -0.2284  0.0133
  338MPD2    C3 5123   0.229   1.652   0.698  0.0908 -0.8313  0.0221
  338MPD2    C4 5124   0.249   1.743   0.800 -0.0240  0.5291 -0.7763
  338MPD2    C5 5125   0.377   1.779   0.826  0.5766 -0.2875 -0.3660
  338MPD2     H 5126   0.310   1.566   0.514 -0.7894 -0.3601  0.1327
  338MPD2    H1 5127   0.174   1.764   0.876 -0.7092  1.1350 -1.6323
  338MPD2    H2 5128   0.581   1.778   0.770 -1.6231  2.1270  0.1063
  338MPD2    H3 5129   0.399   1.833   0.917  0.6709 -0.7809 -0.0975
  338MPD2     N 5130   0.098   1.599   0.681  0.3646 -0.0705  0.2849
  338MPD2    H5 5131   0.019   1.653   0.714  0.8351  1.3943 -0.9940
  338MPD2    N1 5132   0.570   1.630   0.543 -0.2699 -0.0602  0.1132
  338MPD2    H7 5133   0.545   1.588   0.454 -2.1647 -3.5035  2.2655
  339TMC3    C1 5134   4.675   1.483   0.562  0.4571 -0.5383  0.3071
  339TMC3    C2 5135   4.659   1.342   0.546 -0.2531  0.2833 -0.1222
  339TMC3    C3 5136   4.639   1.293   0.416  0.1654 -0.0019 -0.1850
  339TMC3    C4 5137   4.665   1.565   0.455  0.1260 -0.6388 -0.1308
  339TMC3    C5 5138   4.664   1.512   0.326  0.7756  0.3322  0.2110
  339TMC3    C6 5139   4.656   1.372   0.303 -0.6781  0.2085  0.0642
  339TMC3     C 5140   0.070   1.491   0.610  0.0812  0.1261 -1.0495
  339TMC3     O 5141   0.141   1.394   0.581 -0.0728  0.1110 -0.0191
  339TMC3     H 5142   4.638   1.288   0.637 -0.3234  1.2930  0.4580
  339TMC3    H1 5143   4.719   1.658   0.470 -0.5554 -0.2910  0.1950
  339TMC3    H2 5144   4.669   1.340   0.201  0.7443  0.6422  0.1136
  339TMC3    C7 5145   0.007   1.598   0.243 -0.4098 -0.1468  0.1484
  339TMC3    C8 5146   4.657   1.151   0.402  0.2432  1.1254  0.3706
  339TMC3    O1 5147   4.711   1.712   0.224 -0.3284 -0.2601 -0.4719
  339TMC3    O2 5148   4.715   1.110   0.298  0.1257  0.0097  0.8155
  340MPD2     C 5149   0.770   3.553   9.856 -0.2792 -0.3981 -0.4788
  340MPD2    C1 5150   0.772   3.420   9.909 -0.3337 -0.6948 -0.0957
  340MPD2    C2 5151   0.749   3.407  10.050 -0.1771  0.1869  0.3937
  340MPD2    C3 5152   0.740   3.518  10.132  0.2086  0.2635 -0.1613
  340MPD2    C4 5153   0.727   3.642  10.076 -0.3033  0.5781 -0.6010
  340MPD2    C5 5154   0.747   3.657   9.942 -0.1998 -0.3679 -0.8739
  340MPD2     H 5155   0.755   3.312  10.102 -1.7070  0.0252  0.2771
  340MPD2    H1 5156   0.731   3.732  10.137  0.3291 -0.8005  1.4042
  340MPD2    H2 5157   0.804   3.575   9.756  0.3688 -1.4565 -0.4791
  340MPD2    H3 5158   0.741   3.755   9.897 -0.9505  0.4956  1.1299
  340MPD2     N 5159   0.722   3.511  10.271 -0.4020  0.2489  0.4698
  340MPD2    H5 5160   0.703   3.603  10.308 -1.5497  0.0850  0.2904
  340MPD2    N1 5161   0.806   3.311   9.829 -0.0454  0.0647  0.4539
  340MPD2    H7 5162   0.827   3.329   9.732  0.8122 -2.0488  0.2367
  341TMC3    C1 5163   0.808   3.081   9.759 -1.0365  0.1960 -0.1394
  341TMC3    C2 5164   0.743   2.960   9.778 -0.8123  0.2778 -0.0545
  341TMC3    C3 5165   0.793   2.856   9.710  0.5443 -0.0112 -0.2053
  341TMC3    C4 5166   0.915   3.090   9.681 -0.2492  0.2547 -0.6622
  341TMC3    C5 5167   0.948   2.988   9.599 -0.2130  0.1339 -0.1670
  341TMC3    C6 5168   0.885   2.873   9.609  0.3823 -0.3404  0.3327
  341TMC3     C 5169   0.773   3.179   9.863  0.4302 -0.6628  0.5050
  341TMC3     O 5170   0.708   3.140   9.957  0.3582 -0.3328  0.3633
  341TMC3     H 5171   0.662   2.953   9.849 -1.1513  1.7758 -0.3045
  341TMC3    H1 5172   0.965   3.184   9.663 -0.6160  0.5070 -0.3528
  341TMC3    H2 5173   0.926   2.791   9.551 -0.2036  1.0281 -2.0130
  341TMC3    C7 5174   1.051   3.003   9.497 -0.1068  0.4450 -0.5482
  341TMC3    C8 5175   0.752   2.720   9.722  0.0272 -0.1101  0.6518
  341TMC3    O1 5176   1.110   2.901   9.459  0.1974 -0.4135 -0.4342
  341TMC3    O2 5177   0.779   2.646   9.629  0.3179 -0.0765 -0.0022
  342MPD2     C 5178   3.175   2.138  17.409  0.1041  0.9382  0.5058
  342MPD2    C1 5179   3.288   2.147  17.334  0.1864  0.8859  0.4658
  342MPD2    C2 5180   3.345   2.266  17.289  0.0529 -0.4508 -0.0105
  342MPD2    C3 5181   3.285   2.382  17.327  0.3319 -0.6040  0.3611
  342MPD2    C4 5182   3.173   2.376  17.411 -0.2306  0.2376  0.7568
  342MPD2    C5 5183   3.117   2.253  17.452 -0.2660 -0.3700 -0.2910
  342MPD2     H 5184   3.442   2.265  17.242  1.0273  0.3709  1.9760
  342MPD2    H1 5185   3.130   2.467  17.453 -2.4970  0.1466 -1.3696
  342MPD2    H2 5186   3.133   2.045  17.444  0.1932 -0.9315 -4.4111
  342MPD2    H3 5187   3.034   2.254  17.521  1.4466  0.6070  1.7299
  342MPD2     N 5188   3.330   2.508  17.288  0.0765 -0.2480  0.4480
  342MPD2    H5 5189   3.285   2.586  17.335  0.9244 -1.0458  2.5871
  342MPD2    N1 5190   3.348   2.024  17.281 -0.0272  0.2631 -0.2386
  342MPD2    H7 5191   3.410   2.044  17.203 -1.6524  2.7829 -0.9013
  343TMC3    C1 5192   3.369   1.800  17.218  0.4946  0.2980 -0.4528
  343TMC3    C2 5193   3.473   1.843  17.136 -0.0246  0.0743 -0.3602
  343TMC3    C3 5194   3.529   1.747  17.054  0.3749 -0.7171  0.3838
  343TMC3    C4 5195   3.335   1.676  17.236  0.2775  0.7392  0.5217
  343TMC3    C5 5196   3.394   1.584  17.154 -0.5612  0.5812  0.2109
  343TMC3    C6 5197   3.481   1.621  17.058  0.6788  0.6718  0.1741
  343TMC3     C 5198   3.309   1.897  17.312 -0.5965 -0.3250 -0.1124
  343TMC3     O 5199   3.234   1.852  17.398 -0.2042 -0.0556 -0.6021
  343TMC3     H 5200   3.501   1.947  17.131 -2.0506  0.7098  1.4635
  343TMC3    H1 5201   3.267   1.651  17.316 -0.2972 -2.0069 -0.8455
  343TMC3    H2 5202   3.529   1.532  17.018 -0.6741  0.2841 -0.5919
  343TMC3    C7 5203   3.350   1.448  17.178 -0.0836 -0.1744  0.4495
  343TMC3    C8 5204   3.661   1.771  17.005  0.5281  0.1090  0.0886
  343TMC3    O1 5205   3.358   1.381  17.078 -0.2174 -0.1094 -0.2313
  343TMC3    O2 5206   3.718   1.867  17.059  0.0802  0.3941  0.1712
  344MPD2     C 5207   0.053   0.883  10.411 -0.5113 -0.0657 -0.8130
  344MPD2    C1 5208   4.709   0.947  10.322 -0.4611 -0.2126 -0.3725
  344MPD2    C2 5209   0.024   1.047  10.248 -0.4385 -0.6937 -0.0021
  344MPD2    C3 5210   0.160   1.078  10.243 -0.0595  1.2271 -0.0780
  344MPD2    C4 5211   0.239   1.007  10.328  0.1791  0.2394 -0.4899
  344MPD2    C5 5212   0.190   0.914  10.414  0.2064 -0.5093  0.0054
  344MPD2     H 5213   4.696   1.097  10.180 -0.0033  0.8444  0.6764
  344MPD2    H1 5214   0.343   1.036  10.338 -0.1565  1.3021 -0.1026
  344MPD2    H2 5215   0.020   0.804  10.476  2.0587  1.7557  2.7078
  344MPD2    H3 5216   0.262   0.872  10.483  1.5509 -0.2674 -1.2558
  344MPD2     N 5217   0.217   1.182  10.157 -0.7112 -0.4432 -0.1199
  344MPD2    H5 5218   0.317   1.196  10.169 -0.8644 -0.2159  0.8707
  344MPD2    N1 5219   4.574   0.938  10.333  0.1159 -0.1435 -0.4389
  344MPD2    H7 5220   4.512   0.995  10.276 -2.6555 -0.5810  2.1149
  345TMC3    C1 5221   0.208   1.374  10.021 -0.2704 -0.2115 -0.3327
  345TMC3    C2 5222   0.294   1.434  10.108  0.5739  0.5068 -0.0433
  345TMC3    C3 5223   0.356   1.544  10.067 -0.0304 -0.2850 -0.4300
  345TMC3    C4 5224   0.149   1.448   9.914  0.1030 -0.2087  0.0318
  345TMC3    C5 5225   0.208   1.571   9.885 -0.2275  0.4569  0.3589
  345TMC3    C6 5226   0.313   1.624   9.963  0.6907 -0.1150 -0.0818
  345TMC3     C 5227   0.144   1.250  10.060 -0.1539  0.3308  0.8292
  345TMC3     O 5228   0.025   1.248  10.036 -0.2089 -0.5885 -0.2517
  345TMC3     H 5229   0.331   1.388  10.199 -1.5411 -1.7427 -0.2989
  345TMC3    H1 5230   0.066   1.404   9.860  0.4357  0.8438 -1.3348
  345TMC3    H2 5231   0.369   1.713   9.938 -0.2981  1.3505  2.9459
  345TMC3    C7 5232   0.128   1.666   9.814 -0.3206 -0.2965 -0.0582
  345TMC3    C8 5233   0.439   1.607  10.169 -0.0091  0.4753 -0.1920
  345TMC3    O1 5234   0.180   1.774   9.787 -0.2147 -0.8201  0.4981
  345TMC3    O2 5235   0.437   1.576  10.288  0.4327 -0.1015  0.0118
  346MPD2     C 5236   4.169   2.683  13.479 -0.0655  0.6124 -1.1472
  346MPD2    C1 5237   4.292   2.737  13.456 -0.1006  0.0147 -0.7531
  346MPD2    C2 5238   4.341   2.827  13.553  0.0901 -0.1539  0.3546
  346MPD2    C3 5239   4.271   2.872  13.658  0.6443  0.4622 -0.1754
  346MPD2    C4 5240   4.147   2.812  13.677 -0.3474 -0.0052 -0.2609
  346MPD2    C5 5241   4.104   2.710  13.596 -0.1550  0.3897  0.0626
  346MPD2     H 5242   4.430   2.885  13.529  1.1960 -1.2389  1.7760
  346MPD2    H1 5243   4.086   2.839  13.763 -0.1548 -0.3260 -0.0259
  346MPD2    H2 5244   4.117   2.614  13.414 -1.2849  1.7431 -1.3722
  346MPD2    H3 5245   4.018   2.648  13.620  1.5639 -1.4813  1.3360
  346MPD2     N 5246   4.324   2.962  13.750  0.3533 -0.2726 -0.6997
  346MPD2    H5 5247   4.426   2.962  13.748  0.2635  0.2889 -4.6660
  346MPD2    N1 5248   4.356   2.688  13.340  0.0704 -0.3442  0.3181
  346MPD2    H7 5249   4.336   2.593  13.313  3.8172 -1.2646  0.8152
  347TMC3    C1 5250   4.342   3.102  13.935  0.0664 -0.4026 -0.2981
  347TMC3    C2 5251   4.478   3.129  13.914 -0.1137 -0.1613  0.3981
  347TMC3    C3 5252   4.546   3.203  14.009  0.3717 -0.1159 -0.2415
  347TMC3    C4 5253   4.280   3.157  14.045 -0.1135 -0.0664 -0.4517
  347TMC3    C5 5254   4.354   3.219  14.145 -0.1573  0.3192  0.3200
  347TMC3    C6 5255   4.490   3.233  14.132 -0.3279  0.0918  0.3243
  347TMC3     C 5256   4.255   3.036  13.838  0.9355 -0.3067  0.1280
  347TMC3     O 5257   4.133   3.060  13.844  0.1589 -0.2089 -0.2296
  347TMC3     H 5258   4.530   3.097  13.824  1.5561  0.3775  1.1752
  347TMC3    H1 5259   4.172   3.163  14.045  0.0878  3.0945  2.5204
  347TMC3    H2 5260   4.548   3.295  14.200 -1.6022  0.1256  1.3782
  347TMC3    C7 5261   4.288   3.250  14.270 -0.1577 -0.1713  0.2697
  347TMC3    C8 5262   4.689   3.197  13.996 -0.0604  0.4713 -0.0042
  347TMC3    O1 5263   4.181   3.187  14.292 -0.7811 -0.1417 -0.1582
  347TMC3    O2 5264   4.733   3.096  13.939  0.0266 -0.3299 -0.0344
  348MPD2     C 5265   3.356   2.725  11.935 -0.6511 -0.4572  0.5311
  348MPD2    C1 5266   3.455   2.759  11.838 -0.8732  0.0496  0.2840
  348MPD2    C2 5267   3.409   2.839  11.731  0.1721  1.2702 -0.5241
  348MPD2    C3 5268   3.275   2.863  11.720 -0.7320  0.2346 -0.0096
  348MPD2    C4 5269   3.181   2.818  11.817 -0.0378  0.1389  0.6402
  348MPD2    C5 5270   3.229   2.753  11.926  0.0164  0.1942 -0.0170
  348MPD2     H 5271   3.477   2.865  11.652  0.4037 -0.5820 -0.9385
  348MPD2    H1 5272   3.075   2.832  11.801  0.1033 -0.3091 -0.7000
  348MPD2    H2 5273   3.384   2.663  12.019  0.5800 -1.2817 -0.4794
  348MPD2    H3 5274   3.158   2.721  12.001  0.8118 -1.0641  0.1867
  348MPD2     N 5275   3.235   2.935  11.605 -0.3944 -0.6577 -0.3841
  348MPD2    H5 5276   3.314   2.977  11.557 -1.4378  1.2895 -0.3587
  348MPD2    N1 5277   3.590   2.714  11.830 -0.3089 -0.2417  0.1033
  348MPD2    H7 5278   3.655   2.745  11.758 -1.9650  1.6702 -0.5810
  349TMC3    C1 5279   3.749   2.543  11.873  0.8679 -0.9415  0.3656
  349TMC3    C2 5280   3.781   2.437  11.960  0.6333  0.0999 -0.1984
  349TMC3    C3 5281   3.735   2.316  11.923 -0.4215  0.0442  0.2043
  349TMC3    C4 5282   3.717   2.521  11.739 -0.4182  0.4533 -0.7156
  349TMC3    C5 5283   3.672   2.390  11.713  0.2630 -0.6940 -0.1524
  349TMC3    C6 5284   3.686   2.289  11.800  0.1411  0.0939  0.1477
  349TMC3     C 5285   3.646   2.631  11.929 -0.0019 -0.1707  0.6562
  349TMC3     O 5286   3.609   2.589  12.036  0.5513 -0.3465 -0.0414
  349TMC3     H 5287   3.811   2.466  12.059  0.4495 -1.0968  0.2079
  349TMC3    H1 5288   3.710   2.602  11.669 -0.1183  0.8204 -0.3213
  349TMC3    H2 5289   3.644   2.191  11.784  0.0461  0.4540 -1.8213
  349TMC3    C7 5290   3.532   2.396  11.654  0.0233  0.2175 -0.0021
  349TMC3    C8 5291   3.756   2.211  12.016  0.1449 -0.1357  0.1218
  349TMC3    O1 5292   3.448   2.333  11.717 -0.1829 -0.0984  0.3655
  349TMC3    O2 5293   3.818   2.241  12.120 -0.6859 -0.0648  0.2243
  350MPD2     C 5294   3.082   0.512   9.972  0.3401  0.4641  0.2877
  350MPD2    C1 5295   2.949   0.505   9.982 -0.2739  0.0386 -0.6251
  350MPD2    C2 5296   2.879   0.614  10.034 -0.0418 -0.1435 -0.2558
  350MPD2    C3 5297   2.944   0.735  10.056 -0.9264  0.5422  0.2995
  350MPD2    C4 5298   3.084   0.746  10.046  0.2694 -0.0469 -0.0358
  350MPD2    C5 5299   3.150   0.630  10.007 -0.1096  0.1139  0.0550
  350MPD2     H 5300   2.772   0.608  10.051  0.4881 -1.2583  2.8181
  350MPD2    H1 5301   3.149   0.831  10.065 -1.1337  1.3227 -1.3052
  350MPD2    H2 5302   3.146   0.428   9.947 -1.0299 -0.0324 -1.5260
  350MPD2    H3 5303   3.258   0.627  10.019 -0.2751 -0.1554  1.5563
  350MPD2     N 5304   2.859   0.843  10.095  0.0296  1.5125  0.4878
  350MPD2    H5 5305   2.760   0.821  10.091  0.9077 -2.6279  1.3116
  350MPD2    N1 5306   2.881   0.389   9.958 -0.0206  0.0423 -0.3228
  350MPD2    H7 5307   2.783   0.386   9.984  0.3545 -0.1160  1.0493
  351TMC3    C1 5308   2.846   0.168   9.893 -0.2979  0.2793 -0.0803
  351TMC3    C2 5309   2.859   0.070   9.795 -0.1882  0.2193  0.2451
  351TMC3    C3 5310   2.773   4.707   9.810 -0.5207  0.3461  0.7663
  351TMC3    C4 5311   2.748   0.154   9.990  0.0273 -0.0848 -0.0678
  351TMC3    C5 5312   2.665   0.046   9.995 -0.2412  0.0814  0.0807
  351TMC3    C6 5313   2.677   4.684   9.904 -0.3907 -0.8734 -0.0574
  351TMC3     C 5314   2.928   0.286   9.882 -0.0659  0.3057 -0.3965
  351TMC3     O 5315   3.033   0.273   9.822 -0.1492 -0.3236 -0.1843
  351TMC3     H 5316   2.924   0.082   9.710  0.2615  3.2962  1.0147
  351TMC3    H1 5317   2.736   0.238  10.058  0.0979 -0.1233 -0.0068
  351TMC3    H2 5318   2.597   4.610   9.904  1.1361 -2.5125  1.9605
  351TMC3    C7 5319   2.562   0.044  10.094  0.1530 -0.7560 -0.0797
  351TMC3    C8 5320   2.798   4.581   9.743 -0.0534  0.1274 -0.1374
  351TMC3    O1 5321   2.595   0.085  10.204 -0.0055  0.3024  0.1849
  351TMC3    O2 5322   2.712   4.494   9.738 -0.2388  0.1563  0.1540
  352MPD2     C 5323   0.603   3.631   1.021  0.6286  0.8525 -0.9279
  352MPD2    C1 5324   0.525   3.546   0.941 -0.2244 -1.1676  0.1744
  352MPD2    C2 5325   0.580   3.416   0.924  0.9277 -0.2247 -0.0495
  352MPD2    C3 5326   0.711   3.375   0.966 -0.4194 -0.9891  0.0239
  352MPD2    C4 5327   0.791   3.475   1.018 -0.1325  0.5476  0.3937
  352MPD2    C5 5328   0.730   3.594   1.051 -0.4671  0.6760 -0.4448
  352MPD2     H 5329   0.504   3.352   0.882  0.4081  0.2368  0.1898
  352MPD2    H1 5330   0.893   3.463   1.052 -0.9648  0.6923  2.9218
  352MPD2    H2 5331   0.556   3.725   1.048 -1.4409 -0.4969  0.1254
  352MPD2    H3 5332   0.794   3.664   1.103  0.9973 -1.5272  0.7249
  352MPD2     N 5333   0.763   3.243   0.953 -0.1407 -0.4124 -0.2461
  352MPD2    H5 5334   0.856   3.225   0.989 -0.4326  1.4777  1.5129
  352MPD2    N1 5335   0.402   3.597   0.889 -0.1736 -0.1557 -0.5347
  352MPD2    H7 5336   0.373   3.689   0.919  0.7978  0.4647 -1.4887
  353TMC3    C1 5337   0.756   3.008   0.907  0.7905  0.9950 -0.5860
  353TMC3    C2 5338   0.889   2.995   0.905  0.2606  0.0400  0.0228
  353TMC3    C3 5339   0.941   2.869   0.897  0.1253 -0.3954  0.1918
  353TMC3    C4 5340   0.665   2.904   0.889  0.3193 -0.2518 -0.0141
  353TMC3    C5 5341   0.720   2.779   0.879  0.2158 -0.1217 -0.4042
  353TMC3    C6 5342   0.859   2.758   0.881 -0.4715  0.0981 -0.0972
  353TMC3     C 5343   0.696   3.140   0.888  0.0296  0.2839 -0.1248
  353TMC3     O 5344   0.587   3.143   0.836 -0.0498 -0.4863  0.0221
  353TMC3     H 5345   0.959   3.078   0.907 -1.6996  1.7216 -0.6427
  353TMC3    H1 5346   0.557   2.912   0.877  0.8408  2.3569 -2.9381
  353TMC3    H2 5347   0.899   2.658   0.867  1.3015  1.1018 -2.2799
  353TMC3    C7 5348   0.639   2.659   0.852 -0.3950  0.5214  0.7014
  353TMC3    C8 5349   1.085   2.846   0.893 -0.0966 -0.1014  0.0191
  353TMC3    O1 5350   0.687   2.575   0.777  0.3708  0.2734 -0.5896
  353TMC3    O2 5351   1.156   2.944   0.882  0.0636  0.6764 -0.3905
  354TMC3    C1 5352   2.306   3.599  13.412 -0.1741  0.2086  0.6208
  354TMC3    C2 5353   2.316   3.721  13.345 -0.2342  0.3406  0.1151
  354TMC3    C3 5354   2.409   3.734  13.245  0.2498 -0.3820  1.0546
  354TMC3    C4 5355   2.389   3.491  13.383 -0.9866 -0.4937  0.8076
  354TMC3    C5 5356   2.478   3.512  13.281 -0.5128  0.2651 -0.1653
  354TMC3    C6 5357   2.488   3.625  13.211 -0.0450  0.0697 -0.0827
  354TMC3     C 5358   2.238   3.597  13.538 -0.5026  0.3387  0.8919
  354TMC3     O 5359   2.161   3.686  13.563 -0.1653  0.0512  0.0107
  354TMC3     H 5360   2.250   3.804  13.367  1.7494  1.5997  1.4148
  354TMC3    H1 5361   2.366   3.389  13.412 -0.7989 -0.7462  0.0616
  354TMC3    H2 5362   2.530   3.624  13.111  0.7851 -1.6115  0.2883
  354TMC3    C7 5363   2.589   3.414  13.274 -0.2176 -0.5719 -0.0229
  354TMC3    C8 5364   2.442   3.864  13.189 -0.1752 -0.4294  0.0269
  354TMC3    O1 5365   2.586   3.312  13.337 -0.1049 -0.1907  0.2776
  354TMC3    O2 5366   2.359   3.949  13.183 -0.1708 -0.7437 -0.0326
  355MPD2     C 5367   2.681   4.496  11.999 -1.2749  0.0525 -0.4928
  355MPD2    C1 5368   2.654   4.593  11.905  0.7051 -0.6338 -0.0121
  355MPD2    C2 5369   2.744   4.606  11.805  0.9203  0.5308 -0.1397
  355MPD2    C3 5370   2.869   4.551  11.812  0.6634 -0.6710 -0.4424
  355MPD2    C4 5371   2.900   4.463  11.906 -0.1800  0.2130 -0.2731
  355MPD2    C5 5372   2.800   4.425  11.992  0.0098 -0.1125  0.3858
  355MPD2     H 5373   2.731   4.677  11.724 -0.5016  1.1684  0.6639
  355MPD2    H1 5374   2.998   4.418  11.914 -0.1896  0.3909  0.8153
  355MPD2    H2 5375   2.616   4.475  12.084 -0.4585 -1.2139 -0.1847
  355MPD2    H3 5376   2.822   4.357  12.074  4.4550  2.0848  1.0297
  355MPD2     N 5377   2.974   4.594  11.728 -0.7717  0.0541  0.5504
  355MPD2    H5 5378   3.068   4.575  11.762 -0.0967 -1.0014 -1.9169
  355MPD2    N1 5379   2.527   4.653  11.906 -0.1780  0.3710 -0.1453
  355MPD2    H7 5380   2.469   4.595  11.965  1.8820 -0.8181  0.7344
  356TMC3    C1 5381   3.051   0.053  11.630  0.4116 -0.2855  0.3119
  356TMC3    C2 5382   3.068   0.128  11.518 -0.4784  0.2194  0.1765
  356TMC3    C3 5383   3.110   0.259  11.537  0.4319  0.0921 -0.6638
  356TMC3    C4 5384   3.072   0.091  11.756 -0.5545 -0.2792 -0.1181
  356TMC3    C5 5385   3.109   0.220  11.773  0.0436  0.1053  0.2070
  356TMC3    C6 5386   3.131   0.310  11.665  0.5256  0.0998 -0.6826
  356TMC3     C 5387   2.961   4.676  11.618 -0.3863 -0.6374 -0.9530
  356TMC3     O 5388   2.891   4.677  11.519 -0.6746  0.4426  0.2194
  356TMC3     H 5389   3.041   0.087  11.422  0.3663  0.0062  0.0290
  356TMC3    H1 5390   3.058   0.027  11.842 -1.0482 -0.2903 -0.2045
  356TMC3    H2 5391   3.138   0.416  11.685  4.9454 -0.3806  0.3087
  356TMC3    C7 5392   3.115   0.263  11.912 -0.0511  0.1472  0.4155
  356TMC3    C8 5393   3.122   0.343  11.420 -0.9475  1.1051 -0.7636
  356TMC3    O1 5394   3.070   0.193  11.999 -0.5800 -0.1529  0.8026
  356TMC3    O2 5395   3.072   0.306  11.311  0.5277  0.1363  0.1034
  357MPD2     C 5396   2.143   0.332   0.447 -0.0480  0.0940 -0.4863
  357MPD2    C1 5397   2.153   0.205   0.510  0.0347  0.4882 -0.4066
  357MPD2    C2 5398   2.153   0.209   0.647  0.2875 -0.3138 -0.4207
  357MPD2    C3 5399   2.139   0.325   0.719 -0.7521  0.1998 -1.0571
  357MPD2    C4 5400   2.119   0.448   0.656 -0.2030 -0.3877  0.3751
  357MPD2    C5 5401   2.124   0.444   0.522 -0.2728  0.5192 -0.4307
  357MPD2     H 5402   2.155   0.114   0.700  0.0931  1.0700  2.0756
  357MPD2    H1 5403   2.102   0.541   0.709  1.1664 -0.7260  1.4412
  357MPD2    H2 5404   2.150   0.333   0.339 -0.4794 -0.5654 -0.5265
  357MPD2    H3 5405   2.111   0.539   0.472  0.1149  2.2731  2.7918
  357MPD2     N 5406   2.153   0.326   0.858  0.2542  0.1534  0.0599
  357MPD2    H5 5407   2.141   0.412   0.910  2.5205 -1.0071  2.5258
  357MPD2    N1 5408   2.178   0.083   0.445 -0.3192  0.4361 -0.0435
  357MPD2    H7 5409   2.209   0.079   0.348 -2.1638 -2.1712 -0.5187
  358TMC3    C1 5410   2.195   4.591   0.409 -0.3915 -0.2139 -0.3999
  358TMC3    C2 5411   2.112   4.484   0.406  0.7199 -0.8748 -0.3977
  358TMC3    C3 5412   2.155   4.358   0.385  0.1927 -0.5089  0.3557
  358TMC3    C4 5413   2.324   4.574   0.383 -0.6077  0.0581  0.2428
  358TMC3    C5 5414   2.372   4.445   0.373  0.6307  0.5009  0.2198
  358TMC3    C6 5415   2.288   4.334   0.374 -0.4785  0.2048 -0.0550
  358TMC3     C 5416   2.151   4.703   0.493  0.0463  0.6654  0.2490
  358TMC3     O 5417   2.073   4.676   0.583 -0.8836  0.1187 -0.2921
  358TMC3     H 5418   2.009   4.495   0.437  1.5218  0.1165  1.9335
  358TMC3    H1 5419   2.399   4.652   0.383 -0.2408 -0.2905 -0.8741
  358TMC3    H2 5420   2.319   4.243   0.324  1.9352  0.0890  1.6446
  358TMC3    C7 5421   2.516   4.424   0.384 -0.3996  0.4077 -0.2578
  358TMC3    C8 5422   2.059   4.252   0.356  0.5560 -0.7910  0.7699
  358TMC3    O1 5423   2.590   4.521   0.370 -0.2456 -0.2162 -1.0476
  358TMC3    O2 5424   1.968   4.289   0.282  0.4563  0.1343 -0.6288
  359MPD2     C 5425   3.148   2.754  12.339  0.7323  0.7727 -0.6139
  359MPD2    C1 5426   3.090   2.850  12.261  0.0233 -0.3849  0.3216
  359MPD2    C2 5427   2.956   2.848  12.243  0.5910 -0.2868  0.0578
  359MPD2    C3 5428   2.874   2.755  12.313 -0.3502  0.0756 -0.6746
  359MPD2    C4 5429   2.934   2.655  12.389 -0.5769 -0.1114  0.7698
  359MPD2    C5 5430   3.073   2.661  12.395 -0.4900 -0.0115 -0.5942
  359MPD2     H 5431   2.918   2.927  12.180  2.3493  0.7599  0.3253
  359MPD2    H1 5432   2.884   2.573  12.439 -0.9341 -0.1760  0.3068
  359MPD2    H2 5433   3.251   2.765  12.371  0.1331 -0.6093  1.8432
  359MPD2    H3 5434   3.117   2.586  12.460 -1.3791  0.0272  0.0541
  359MPD2     N 5435   2.736   2.754  12.305  0.2428 -0.3638 -0.1862
  359MPD2    H5 5436   2.687   2.671  12.336  0.4812 -0.1750  0.7141
  359MPD2    N1 5437   3.164   2.959  12.202 -1.3281 -0.5235 -0.0960
  359MPD2    H7 5438   3.099   3.017  12.152 -0.7595  0.8710  0.7693
  360TMC3    C1 5439   3.329   3.099  12.124  0.1870  0.9275 -0.5476
  360TMC3    C2 5440   3.450   3.148  12.164  0.3084 -0.1158 -0.4746
  360TMC3    C3 5441   3.529   3.188  12.062  0.8244 -0.3424 -0.8869
  360TMC3    C4 5442   3.270   3.117  12.003 -0.0772 -0.1817 -0.5830
  360TMC3    C5 5443   3.345   3.183  11.907 -0.4598  0.7548 -1.0481
  360TMC3    C6 5444   3.477   3.213  11.935 -0.7146  0.0909 -0.0708
  360TMC3     C 5445   3.297   2.985  12.208  0.3595 -0.5504  0.9608
  360TMC3     O 5446   3.389   2.915  12.254  0.3940  0.0053 -0.0469
  360TMC3     H 5447   3.484   3.126  12.264 -0.2527  1.1782  0.0017
  360TMC3    H1 5448   3.177   3.068  11.977  0.9649 -1.0463 -2.7661
  360TMC3    H2 5449   3.540   3.253  11.856 -1.1446  2.2640  0.6932
  360TMC3    C7 5450   3.277   3.239  11.789 -0.6557 -0.0255 -0.4101
  360TMC3    C8 5451   3.661   3.242  12.085 -0.0904 -0.2281  0.5794
  360TMC3    O1 5452   3.353   3.270  11.700  0.6813  0.3949  0.1968
  360TMC3    O2 5453   3.682   3.296  12.195 -0.2311 -0.4620 -0.4389
  361MPD2     C 5454   4.338   2.270  16.625  0.3114  0.1067  0.3672
  361MPD2    C1 5455   4.383   2.381  16.687 -0.1450  0.9018  0.0889
  361MPD2    C2 5456   4.519   2.397  16.713  0.8569  0.1991 -0.5842
  361MPD2    C3 5457   4.602   2.293  16.694 -0.4247 -0.6588  0.3275
  361MPD2    C4 5458   4.553   2.174  16.631 -0.0175  0.0373 -0.7271
  361MPD2    C5 5459   4.423   2.165  16.599  0.3952 -0.0823 -0.6566
  361MPD2     H 5460   4.543   2.492  16.761 -0.5782 -0.7713  2.0695
  361MPD2    H1 5461   4.615   2.093  16.597 -1.5638 -2.4664  2.4048
  361MPD2    H2 5462   4.235   2.251  16.600  0.2634 -0.0765  0.6995
  361MPD2    H3 5463   4.385   2.082  16.540  0.0709  0.3142 -1.0041
  361MPD2     N 5464   4.739   2.293  16.726  0.4527  0.0385 -0.0262
  361MPD2    H5 5465   0.057   2.217  16.695  0.3428 -0.2745  0.5385
  361MPD2    N1 5466   4.300   2.490  16.713  0.1087 -0.4279  0.2460
  361MPD2    H7 5467   4.341   2.582  16.725  1.1287 -0.6094 -1.8844
  362TMC3    C1 5468   4.095   2.614  16.730 -0.2916  0.5221  0.3861
  362TMC3    C2 5469   3.975   2.620  16.788 -0.1184  0.0675 -0.2935
  362TMC3    C3 5470   3.899   2.734  16.773 -0.2551 -0.0756  0.0027
  362TMC3    C4 5471   4.136   2.706  16.638 -0.6260  0.0243 -0.0071
  362TMC3    C5 5472   4.057   2.812  16.619 -0.5457  0.8792  0.3253
  362TMC3    C6 5473   3.938   2.831  16.685 -0.4837  0.0652  0.3395
  362TMC3     C 5474   4.163   2.483  16.724 -0.0666 -0.3531 -0.0089
  362TMC3     O 5475   4.093   2.394  16.759 -0.0082  0.3149 -0.3697
  362TMC3     H 5476   3.947   2.534  16.849  0.3751 -1.0398 -1.6242
  362TMC3    H1 5477   4.221   2.690  16.572 -0.6244 -1.8330  0.4502
  362TMC3    H2 5478   3.872   2.916  16.667  0.1291  0.5336  0.3038
  362TMC3    C7 5479   4.075   2.888  16.499 -0.3289 -0.1155  0.0626
  362TMC3    C8 5480   3.770   2.729  16.832 -0.0873 -0.7929  0.2745
  362TMC3    O1 5481   4.044   3.006  16.504  0.3298  0.2661 -0.0715
  362TMC3    O2 5482   3.721   2.622  16.870 -0.1522 -0.5210 -0.0586
  363TMC3    C1 5483   3.595   4.735   9.624 -0.1274  0.4742 -0.8106
  363TMC3    C2 5484   3.715   4.715   9.675  0.1545 -0.5725 -0.2554
  363TMC3    C3 5485   3.774   0.073   9.756  0.2858  0.1190 -0.3292
  363TMC3    C4 5486   3.514   0.102   9.653  0.0839 -0.8348  0.3599
  363TMC3    C5 5487   3.572   0.196   9.736 -0.1024 -0.1749  0.5962
  363TMC3    C6 5488   3.693   0.182   9.795  0.1353  0.2187 -0.5200
  363TMC3     C 5489   3.542   4.639   9.536 -0.6467 -0.1686 -1.0475
  363TMC3     O 5490   3.445   4.676   9.467  0.1966  0.7755  0.2361
  363TMC3     H 5491   3.772   4.630   9.639 -0.6978 -0.7292 -1.2385
  363TMC3    H1 5492   3.417   0.116   9.606  1.2012 -0.3591 -1.7835
  363TMC3    H2 5493   3.734   0.258   9.861  0.3464  0.4317 -0.8944
  363TMC3    C7 5494   3.495   0.314   9.748  0.3842 -0.7424 -0.0134
  363TMC3    C8 5495   3.905   0.058   9.813  0.0595  0.6781 -0.6823
  363TMC3    O1 5496   3.379   0.319   9.723  0.0797 -0.2183 -0.4206
  363TMC3    O2 5497   3.953   0.143   9.886  0.1311 -0.2786  0.4473
  364MPD2     C 5498   2.172   4.102   9.922 -0.5884  0.7239  0.7236
  364MPD2    C1 5499   2.189   4.135  10.054 -0.4336 -0.3055  0.2121
  364MPD2    C2 5500   2.185   4.034  10.152  0.4560 -0.7361 -0.3053
  364MPD2    C3 5501   2.176   3.906  10.111  0.2735 -0.5634 -0.6462
  364MPD2    C4 5502   2.149   3.878   9.978  0.5963 -0.2581  0.4420
  364MPD2    C5 5503   2.136   3.977   9.888 -0.3633 -0.4807 -0.2157
  364MPD2     H 5504   2.210   4.056  10.255 -0.9589  1.3387 -0.4200
  364MPD2    H1 5505   2.147   3.781   9.931  1.8601 -0.9710  1.8928
  364MPD2    H2 5506   2.165   4.179   9.846 -1.1169 -1.4936 -1.4646
  364MPD2    H3 5507   2.113   3.960   9.783 -1.3907 -2.1859  0.2886
  364MPD2     N 5508   2.204   3.805  10.205  0.5789 -0.3748  0.2934
  364MPD2    H5 5509   2.211   3.709  10.173 -1.4869 -0.0806 -1.0072
  364MPD2    N1 5510   2.245   4.262  10.079  0.0134  0.5858  0.3244
  364MPD2    H7 5511   2.279   4.309   9.995 -0.7630  0.5504 -0.0065
  365TMC3    C1 5512   2.381   4.394  10.217  0.1520 -0.6971  0.2448
  365TMC3    C2 5513   2.479   4.375  10.129  0.2649 -0.2031 -0.1508
  365TMC3    C3 5514   2.605   4.409  10.172 -0.6278  0.8645 -0.0218
  365TMC3    C4 5515   2.395   4.469  10.328  0.1569  0.1825  0.0332
  365TMC3    C5 5516   2.524   4.510  10.363  0.1564 -0.3650  0.3253
  365TMC3    C6 5517   2.633   4.482  10.286 -0.5339  0.3560 -0.6486
  365TMC3     C 5518   2.255   4.316  10.206  0.2556  0.1404 -0.2833
  365TMC3     O 5519   2.196   4.291  10.308  0.2353  0.1308 -0.2911
  365TMC3     H 5520   2.468   4.327  10.032  0.3446 -0.3654 -0.0803
  365TMC3    H1 5521   2.304   4.500  10.379  0.3931  0.9520 -0.0162
  365TMC3    H2 5522   2.731   4.508  10.322 -1.0641  1.4110  0.0185
  365TMC3    C7 5523   2.542   4.566  10.498  0.2948 -0.0597  0.1533
  365TMC3    C8 5524   2.718   4.344  10.099  0.4000 -0.0794  0.5822
  365TMC3    O1 5525   2.653   4.586  10.543 -0.6009 -0.4770  0.2425
  365TMC3    O2 5526   2.815   4.417  10.077 -0.1904  0.2189 -0.1266
  366MPD2     C 5527   4.398   1.067  15.177 -0.2068  0.1566  0.1966
  366MPD2    C1 5528   4.537   1.069  15.204 -0.0352 -0.0458 -0.8027
  366MPD2    C2 5529   4.604   0.954  15.234 -0.1490 -0.8068  0.1527
  366MPD2    C3 5530   4.540   0.840  15.195 -0.2711 -1.1970 -0.2296
  366MPD2    C4 5531   4.409   0.832  15.153 -0.1992  0.0673 -0.7018
  366MPD2    C5 5532   4.337   0.948  15.158 -0.2316 -0.5319 -0.6182
  366MPD2     H 5533   4.706   0.952  15.273 -0.0469 -0.3898 -0.0913
  366MPD2    H1 5534   4.355   0.739  15.142 -1.0178  0.3362  1.0330
  366MPD2    H2 5535   4.344   1.160  15.161 -0.2023 -0.3425 -2.7815
  366MPD2    H3 5536   4.231   0.931  15.138 -0.1435 -0.6083 -1.0188
  366MPD2     N 5537   4.622   0.722  15.205 -0.5820  0.1264  0.1290
  366MPD2    H5 5538   4.712   0.736  15.252 -1.1515  1.1566  0.9128
  366MPD2    N1 5539   4.612   1.185  15.216 -0.6194  0.3985 -0.5789
  366MPD2    H7 5540   4.711   1.165  15.229 -0.6297 -0.2093 -1.4306
  367TMC3    C1 5541   4.675   1.414  15.198 -1.2151 -0.3305  0.4623
  367TMC3    C2 5542   0.036   1.410  15.289 -0.5230  0.3508 -0.7848
  367TMC3    C3 5543   0.137   1.498  15.274 -0.2342 -0.3819 -0.0994
  367TMC3    C4 5544   4.673   1.496  15.096 -0.0222  0.5772 -0.0511
  367TMC3    C5 5545   0.034   1.585  15.086  0.1032  0.3422  0.2534
  367TMC3    C6 5546   0.148   1.581  15.167 -0.1817  0.5659  0.2455
  367TMC3     C 5547   4.571   1.316  15.194 -0.2048 -0.1230 -0.4741
  367TMC3     O 5548   4.463   1.358  15.156  0.0245 -0.8343  0.5021
  367TMC3     H 5549   0.046   1.341  15.372  1.4278  1.8966  0.2651
  367TMC3    H1 5550   4.584   1.504  15.034 -0.7889  1.8581  1.2150
  367TMC3    H2 5551   0.215   1.665  15.154 -0.5945  0.6572 -1.2894
  367TMC3    C7 5552   0.028   1.663  14.963  0.6447  1.0835  0.1026
  367TMC3    C8 5553   0.225   1.519  15.391 -0.3609 -0.7643  0.2246
  367TMC3    O1 5554   0.009   1.786  14.969 -0.0035  0.7096  0.1991
  367TMC3    O2 5555   0.176   1.482  15.498  0.2083  0.0166  0.2148
  368MPD2     C 5556   1.085   3.021  13.308 -0.5397 -0.3965 -0.3024
  368MPD2    C1 5557   1.118   3.126  13.229 -0.4256 -0.2833  0.5708
  368MPD2    C2 5558   1.252   3.147  13.193 -0.2077  0.3379  0.5011
  368MPD2    C3 5559   1.346   3.050  13.223 -0.1986 -0.3036  0.3314
  368MPD2    C4 5560   1.310   2.948  13.310 -0.3459 -0.2877  0.4275
  368MPD2    C5 5561   1.182   2.928  13.352  0.8360  0.6431  0.6001
  368MPD2     H 5562   1.283   3.238  13.143 -0.1151 -0.1282 -0.2795
  368MPD2    H1 5563   1.383   2.871  13.334 -1.3589 -0.3660  3.2250
  368MPD2    H2 5564   0.980   2.999  13.320 -1.0782  1.8652 -0.8975
  368MPD2    H3 5565   1.143   2.844  13.407  1.0626 -0.3469 -0.7400
  368MPD2     N 5566   1.483   3.065  13.179  0.3898 -0.2024  0.3608
  368MPD2    H5 5567   1.546   2.989  13.204  1.6142  1.2787  1.9049
  368MPD2    N1 5568   1.010   3.201  13.181 -0.0375 -0.0052 -0.7236
  368MPD2    H7 5569   0.914   3.167  13.191  0.0963 -0.0276  0.5077
  369TMC3    C1 5570   0.894   3.353  13.031  0.4421 -0.3715  0.6007
  369TMC3    C2 5571   0.930   3.415  12.916 -0.0400 -0.3530 -0.1858
  369TMC3    C3 5572   0.901   3.343  12.799 -0.0830  0.2727 -0.6534
  369TMC3    C4 5573   0.801   3.254  13.026  0.3461  0.0743  0.3729
  369TMC3    C5 5574   0.788   3.178  12.911 -0.0111  0.5173  0.1166
  369TMC3    C6 5575   0.840   3.226  12.796 -0.3656 -0.5216  0.1150
  369TMC3     C 5576   1.020   3.306  13.093  0.0858  0.1767 -0.2214
  369TMC3     O 5577   1.122   3.360  13.046 -0.0578  0.3763  0.1193
  369TMC3     H 5578   0.982   3.509  12.905  0.7151 -0.8337 -0.6836
  369TMC3    H1 5579   0.751   3.221  13.116  3.1128  4.0053  3.3570
  369TMC3    H2 5580   0.828   3.171  12.704  0.3675  0.9679 -0.8756
  369TMC3    C7 5581   0.779   3.038  12.944  0.5268  0.0274 -0.4189
  369TMC3    C8 5582   1.009   3.358  12.698 -0.0011 -0.2404  0.4687
  369TMC3    O1 5583   0.791   3.012  13.061 -0.3696  0.2445 -0.4111
  369TMC3    O2 5584   0.990   3.345  12.578  0.0747 -0.4920  0.6269
  370TMC3    C1 5585   0.924   3.520  16.075 -0.1443  0.2879  0.0259
  370TMC3    C2 5586   0.867   3.429  16.168  0.0702 -0.4353  0.0568
  370TMC3    C3 5587   0.805   3.317  16.126  0.1768 -0.0928 -0.3311
  370TMC3    C4 5588   0.943   3.481  15.945  0.7637  0.7391 -0.4172
  370TMC3    C5 5589   0.887   3.359  15.906 -0.0494 -0.4315  0.1647
  370TMC3    C6 5590   0.819   3.281  15.995 -0.1361  0.2556  0.0284
  370TMC3     C 5591   1.013   3.618  16.135  0.9302 -0.5954  0.4292
  370TMC3     O 5592   1.020   3.613  16.258 -0.3168  0.4615  0.5452
  370TMC3     H 5593   0.856   3.460  16.271 -1.5979  1.0106 -0.5628
  370TMC3    H1 5594   0.986   3.535  15.862  3.0158  0.8975  0.8690
  370TMC3    H2 5595   0.768   3.194  15.954  1.1855  0.3367 -1.7576
  370TMC3    C7 5596   0.947   3.300  15.787 -0.1464  0.0254  0.0263
  370TMC3    C8 5597   0.778   3.218  16.227 -0.1574  0.1164  0.7219
  370TMC3    O1 5598   0.969   3.370  15.689  0.2180  0.7506  0.4211
  370TMC3    O2 5599   0.779   3.100  16.195  0.1819  0.1570  0.0738
  371TMC3    C1 5600   1.820   1.673  15.068 -0.6443 -0.9150  0.4722
  371TMC3    C2 5601   1.725   1.677  15.172  0.3467  1.1851 -0.3723
  371TMC3    C3 5602   1.686   1.800  15.224 -0.4078 -0.3373  0.2075
  371TMC3    C4 5603   1.861   1.792  15.015  0.3111  0.0499  0.6953
  371TMC3    C5 5604   1.814   1.916  15.060 -0.5916 -0.5106  0.3247
  371TMC3    C6 5605   1.723   1.921  15.163 -0.2754 -0.0881 -0.7506
  371TMC3     C 5606   1.897   1.562  15.030 -0.2091  0.3514  0.4250
  371TMC3     O 5607   1.974   1.578  14.939  0.0106  0.3967 -0.3325
  371TMC3     H 5608   1.665   1.593  15.202  0.1575  1.2887 -0.4632
  371TMC3    H1 5609   1.941   1.795  14.942 -1.1870  1.3080 -0.8751
  371TMC3    H2 5610   1.684   2.020  15.186 -0.0563 -0.2498  0.3113
  371TMC3    C7 5611   1.909   2.026  15.061 -0.9553  0.5448  0.5822
  371TMC3    C8 5612   1.698   1.800  15.367 -0.1125 -0.2390 -0.7667
  371TMC3    O1 5613   1.896   2.115  15.149  0.0866 -0.1729 -0.1508
  371TMC3    O2 5614   1.757   1.706  15.417  0.4606  0.7006 -0.3996
  372MPD2     C 5615   1.950   2.954  13.222  0.3517 -0.3379  0.0738
  372MPD2    C1 5616   1.975   2.818  13.204  0.5652 -0.4035  0.4835
  372MPD2    C2 5617   1.898   2.726  13.274  0.2261 -0.2052  0.3822
  372MPD2    C3 5618   1.795   2.765  13.358  0.1257 -0.2618  0.2787
  372MPD2    C4 5619   1.777   2.896  13.376  0.7416  0.0313  0.6277
  372MPD2    C5 5620   1.855   2.991  13.317 -0.1017 -1.8564  0.0864
  372MPD2     H 5621   1.914   2.621  13.250  3.4755  0.4078 -0.0517
  372MPD2    H1 5622   1.709   2.935  13.451 -1.8185  0.2184 -1.7868
  372MPD2    H2 5623   2.006   3.031  13.169  1.7951 -2.3741 -1.3791
  372MPD2    H3 5624   1.842   3.095  13.343 -1.5421 -1.6801 -1.3709
  372MPD2     N 5625   1.710   2.671  13.416 -0.2514 -0.5847 -0.1206
  372MPD2    H5 5626   1.745   2.575  13.413 -0.0108 -0.5648  1.9647
  372MPD2    N1 5627   2.072   2.771  13.113  0.2778  0.3159 -0.8758
  372MPD2    H7 5628   2.090   2.671  13.114 -1.4404  0.0047 -1.0833
  373TMC3    C1 5629   1.534   2.580  13.549  0.1480 -0.7581 -0.6859
  373TMC3    C2 5630   1.478   2.597  13.677 -0.0867  0.1788 -0.1752
  373TMC3    C3 5631   1.404   2.500  13.734  0.0339  0.0334 -0.0932
  373TMC3    C4 5632   1.533   2.457  13.487 -0.7135 -0.3510  0.7723
  373TMC3    C5 5633   1.470   2.357  13.552 -0.3206  0.6506 -0.0525
  373TMC3    C6 5634   1.412   2.380  13.672 -0.2495 -0.1708  0.4247
  373TMC3     C 5635   1.602   2.698  13.496  0.6876 -0.0423  0.5184
  373TMC3     O 5636   1.531   2.799  13.514  0.4145 -0.2623 -0.3279
  373TMC3     H 5637   1.477   2.693  13.728  1.9731  0.6621 -1.0748
  373TMC3    H1 5638   1.569   2.438  13.386  0.8497 -0.4402  1.3487
  373TMC3    H2 5639   1.391   2.298  13.740 -2.0847 -0.1551 -0.1125
  373TMC3    C7 5640   1.517   2.228  13.513  0.4167 -0.2752 -0.2880
  373TMC3    C8 5641   1.438   2.472  13.867  0.0563  0.2493 -0.0764
  373TMC3    O1 5642   1.624   2.219  13.457  0.0836 -0.3575  0.3498
  373TMC3    O2 5643   1.345   2.438  13.940 -0.1910 -0.1172 -0.7473
  374TMC3    C1 5644   1.878   2.434   9.733 -0.0251  0.0160  0.2040
  374TMC3    C2 5645   1.994   2.426   9.810 -0.5081 -0.0482 -0.0936
  374TMC3    C3 5646   2.100   2.485   9.755  0.2877  0.1840  0.3095
  374TMC3    C4 5647   1.865   2.504   9.616  0.2038  0.5350  0.0245
  374TMC3    C5 5648   1.974   2.559   9.567 -0.2250  0.2381  0.3349
  374TMC3    C6 5649   2.094   2.559   9.633  0.0887 -0.3871 -0.4688
  374TMC3     C 5650   1.752   2.373   9.785  0.0237 -0.1460 -0.8791
  374TMC3     O 5651   1.659   2.359   9.709 -0.5385 -0.1272  0.5779
  374TMC3     H 5652   2.015   2.352   9.888  1.7548  0.8369  0.1346
  374TMC3    H1 5653   1.766   2.518   9.574  0.1046 -0.2604 -0.0142
  374TMC3    H2 5654   2.182   2.603   9.589 -0.1069 -0.4639 -0.9366
  374TMC3    C7 5655   1.969   2.630   9.442  0.3581 -0.3051  0.4482
  374TMC3    C8 5656   2.233   2.465   9.821 -0.9300  0.3418  0.3938
  374TMC3    O1 5657   2.053   2.718   9.428  0.1993  0.2152  0.4142
  374TMC3    O2 5658   2.256   2.352   9.858  0.0622 -0.0809  0.2081
  375MPD2     C 5659   2.104   3.538  17.200  0.4683  0.4782 -0.0755
  375MPD2    C1 5660   2.073   3.550  17.069 -0.4959 -0.4380 -0.0594
  375MPD2    C2 5661   2.180   3.555  16.979 -1.0149 -0.5449 -0.4475
  375MPD2    C3 5662   2.313   3.534  17.024  0.6180  0.4481 -0.1146
  375MPD2    C4 5663   2.334   3.508  17.160 -0.3008  0.2232  0.6226
  375MPD2    C5 5664   2.231   3.522  17.246  0.6039 -0.0877  0.3004
  375MPD2     H 5665   2.168   3.582  16.875 -1.9100  3.2071  0.6464
  375MPD2    H1 5666   2.430   3.473  17.197  0.9942  0.3677 -2.5510
  375MPD2    H2 5667   2.033   3.523  17.281 -3.6423  0.7917 -3.6133
  375MPD2    H3 5668   2.248   3.507  17.351 -0.0596  1.3463  0.6196
  375MPD2     N 5669   2.427   3.538  16.935  0.5769 -0.2426  0.1814
  375MPD2    H5 5670   2.507   3.481  16.962 -0.0289 -1.4794 -0.6413
  375MPD2    N1 5671   1.939   3.556  17.026  0.1214  0.5617 -0.8181
  375MPD2    H7 5672   1.921   3.586  16.931 -1.0755  0.6825 -0.5481
  376TMC3    C1 5673   2.521   3.517  16.715 -0.4083 -0.1112  0.4194
  376TMC3    C2 5674   2.631   3.459  16.772  0.7546 -0.4132 -0.7354
  376TMC3    C3 5675   2.702   3.366  16.707  0.1777  0.3145 -0.1195
  376TMC3    C4 5676   2.482   3.483  16.588  0.3490  0.2457 -1.3356
  376TMC3    C5 5677   2.565   3.392  16.518 -0.6294 -0.2942 -0.2185
  376TMC3    C6 5678   2.678   3.335  16.573  0.0998 -0.2975  0.4347
  376TMC3     C 5679   2.426   3.579  16.805  0.4897 -0.1738  0.2453
  376TMC3     O 5680   2.350   3.654  16.741  0.3626 -0.0414  0.1898
  376TMC3     H 5681   2.666   3.472  16.874 -1.5734  0.3834 -0.0259
  376TMC3    H1 5682   2.392   3.523  16.542 -1.0713 -0.0889  1.1151
  376TMC3    H2 5683   2.759   3.290  16.518 -1.2079 -1.4727 -0.5183
  376TMC3    C7 5684   2.540   3.376  16.375  0.4564 -0.1714  0.6253
  376TMC3    C8 5685   2.837   3.346  16.759  1.7977  0.9878  0.7405
  376TMC3    O1 5686   2.441   3.429  16.322 -0.0834 -0.6117 -0.0746
  376TMC3    O2 5687   2.898   3.437  16.807 -0.2794 -0.3311 -0.6616
  377MPD2     C 5688   0.203   3.315  11.922 -0.2479  0.6224 -0.1595
  377MPD2    C1 5689   0.281   3.289  12.031  0.2800  0.1296  0.5485
  377MPD2    C2 5690   0.238   3.310  12.165  0.4649  0.3807 -0.2900
  377MPD2    C3 5691   0.109   3.365  12.180 -0.3458 -0.4921 -0.7503
  377MPD2    C4 5692   0.035   3.397  12.064  0.4959  0.6491 -0.4491
  377MPD2    C5 5693   0.083   3.375  11.939  0.6040 -0.6874 -0.2574
  377MPD2     H 5694   0.295   3.286  12.254  1.4442  0.5487 -0.8750
  377MPD2    H1 5695   4.678   3.443  12.076  0.9778  1.4649  0.2946
  377MPD2    H2 5696   0.247   3.308  11.824  1.7387 -0.6207  0.8306
  377MPD2    H3 5697   0.024   3.400  11.851 -1.6649 -1.1925  1.1299
  377MPD2     N 5698   0.055   3.371  12.314 -0.6084 -0.1676 -0.1949
  377MPD2    H5 5699   0.101   3.324  12.391  1.9479  0.7172 -1.1807
  377MPD2    N1 5700   0.409   3.229  12.000 -0.0813  0.2434  0.1959
  377MPD2    H7 5701   0.436   3.219  11.903  2.8617 -1.2952  1.1671
  378TMC3    C1 5702   0.737   3.004  11.895  0.3783  0.0084  0.1977
  378TMC3    C2 5703   0.620   3.076  11.921 -0.3903 -0.2921 -0.4901
  378TMC3    C3 5704   0.630   3.169  12.023  0.7686  0.2933  0.6362
  378TMC3    C4 5705   0.854   3.025  11.966 -0.1848  0.3350  0.0674
  378TMC3    C5 5706   0.862   3.121  12.063  0.5210  0.0258  0.0870
  378TMC3    C6 5707   0.746   3.187  12.101  0.7109  0.3576 -0.1359
  378TMC3     C 5708   0.728   2.898  11.797 -0.3442  0.0054  0.6279
  378TMC3     O 5709   0.623   2.876  11.742  0.1707  0.0062  0.0729
  378TMC3     H 5710   0.533   3.046  11.864 -0.5645  0.1496 -0.4574
  378TMC3    H1 5711   0.940   2.958  11.964  1.2597  2.2578 -1.5680
  378TMC3    H2 5712   0.749   3.254  12.186 -1.1877  2.2539 -1.5733
  378TMC3    C7 5713   0.984   3.139  12.145 -0.2118 -0.2858 -0.1135
  378TMC3    C8 5714   0.507   3.194  12.092  0.1936 -0.3979 -0.3492
  378TMC3    O1 5715   0.985   3.223  12.236 -0.0430 -0.3396  0.3256
  378TMC3    O2 5716   0.510   3.207  12.216 -0.0317  0.0313  0.2575
  379MPD2     C 5717   1.336   1.379  15.876 -0.0153 -0.2447  0.1213
  379MPD2    C1 5718   1.272   1.338  15.988  0.0206 -0.5460 -0.1625
  379MPD2    C2 5719   1.346   1.322  16.104  0.4031  0.6172  0.6000
  379MPD2    C3 5720   1.490   1.332  16.104 -0.4420 -0.4062 -0.2407
  379MPD2    C4 5721   1.547   1.381  15.992 -0.4404 -0.6883  0.6250
  379MPD2    C5 5722   1.473   1.404  15.874 -0.6981 -0.2273  0.0711
  379MPD2     H 5723   1.281   1.298  16.187  2.6894  2.3170  2.8965
  379MPD2    H1 5724   1.654   1.399  15.994 -0.8615  1.8801 -0.1822
  379MPD2    H2 5725   1.272   1.408  15.794  2.3150  0.6934 -1.3842
  379MPD2    H3 5726   1.521   1.448  15.787 -0.0122 -0.6445  0.2452
  379MPD2     N 5727   1.573   1.296  16.209 -0.5078 -0.6771 -0.2444
  379MPD2    H5 5728   1.675   1.293  16.207 -0.3915  2.1181  1.8987
  379MPD2    N1 5729   1.132   1.329  15.986 -0.2255  0.2840  0.1667
  379MPD2    H7 5730   1.087   1.375  15.907  0.0424  0.3613  0.0593
  380TMC3    C1 5731   0.909   1.257  16.026  0.1325  0.3526  0.1504
  380TMC3    C2 5732   0.840   1.138  16.015 -0.3891 -0.2878 -0.6755
  380TMC3    C3 5733   0.742   1.138  15.917 -0.0891  0.4638  0.8538
  380TMC3    C4 5734   0.853   1.376  15.984 -0.4342  0.3282  0.0803
  380TMC3    C5 5735   0.736   1.377  15.908 -0.7117  0.8677 -0.0457
  380TMC3    C6 5736   0.687   1.251  15.868 -0.3880 -0.1550  0.1488
  380TMC3     C 5737   1.049   1.248  16.063 -0.0800 -0.4954 -0.9061
  380TMC3     O 5738   1.071   1.147  16.128  0.3009 -0.2810 -0.0814
  380TMC3     H 5739   0.882   1.046  16.056 -0.3764  0.2062  0.4246
  380TMC3    H1 5740   0.906   1.466  16.013 -0.1705 -0.2384  1.3290
  380TMC3    H2 5741   0.605   1.245  15.797  0.1180  1.0718 -0.5406
  380TMC3    C7 5742   0.706   1.497  15.834 -0.3391  0.4790  0.0641
  380TMC3    C8 5743   0.775   1.049  15.808  0.0500 -0.1357  0.9226
  380TMC3    O1 5744   0.767   1.601  15.856 -0.0955  0.9429  0.2482
  380TMC3    O2 5745   0.735   1.087  15.698 -1.0142  0.1984  0.6431
  381TMC3    C1 5746   0.844   2.611  15.946  0.1265 -0.7274  0.9959
  381TMC3    C2 5747   0.930   2.714  15.959  0.3937 -0.0896  0.2199
  381TMC3    C3 5748   0.939   2.774  16.087 -1.2315  0.0774 -0.6128
  381TMC3    C4 5749   0.767   2.564  16.055  0.0630 -0.4593 -0.0213
  381TMC3    C5 5750   0.794   2.624  16.176  0.8197  0.2994 -0.5164
  381TMC3    C6 5751   0.874   2.734  16.197  0.1217 -0.5374  0.7060
  381TMC3     C 5752   0.833   2.547  15.815  0.9504  1.0443  0.1469
  381TMC3     O 5753   0.914   2.590  15.734 -0.1237  0.2686 -0.6913
  381TMC3     H 5754   0.993   2.744  15.876 -3.3847  3.7596 -1.2515
  381TMC3    H1 5755   0.682   2.497  16.053 -0.9647  0.8099  1.1409
  381TMC3    H2 5756   0.890   2.776  16.296 -1.0931 -0.2641  0.7846
  381TMC3    C7 5757   0.740   2.555  16.282 -0.3435  1.1760  1.1201
  381TMC3    C8 5758   1.067   2.845  16.103 -0.6792 -0.2106  1.2488
  381TMC3    O1 5759   0.705   2.438  16.263  0.2123  0.0294 -0.4906
  381TMC3    O2 5760   1.152   2.805  16.026  0.5138  1.0417 -0.5547
  382MPD2     C 5761   0.061   0.683  16.504  0.1088  1.0201  1.1014
  382MPD2    C1 5762   0.013   0.699  16.634 -0.1666 -0.1407 -0.6226
  382MPD2    C2 5763   4.735   0.590  16.712  0.5319  0.3164 -0.2001
  382MPD2    C3 5764   0.011   0.459  16.665 -0.3789  0.3367  0.9063
  382MPD2    C4 5765   0.059   0.438  16.541  0.3269 -0.4777  0.3048
  382MPD2    C5 5766   0.082   0.550  16.466  0.1965 -0.4254 -0.3686
  382MPD2     H 5767   4.701   0.605  16.814 -2.4549 -0.3355 -1.0798
  382MPD2    H1 5768   0.087   0.339  16.505 -0.2456 -0.1921 -0.9401
  382MPD2    H2 5769   0.081   0.762  16.433  0.7702 -0.0240  0.1235
  382MPD2    H3 5770   0.120   0.525  16.368  0.2071 -0.9356 -0.2348
  382MPD2     N 5771   0.003   0.344  16.757  0.4464  0.2456  0.4496
  382MPD2    H5 5772   0.024   0.256  16.713 -0.0106  0.0002  0.7196
  382MPD2    N1 5773   4.723   0.833  16.683 -0.0090 -0.3453  0.5953
  382MPD2    H7 5774   4.671   0.849  16.768 -0.8458  0.1747 -0.0145
  383TMC3    C1 5775   0.009   0.223  16.956  0.1576  0.0254  0.1682
  383TMC3    C2 5776   4.643   0.144  16.921 -0.1823 -0.5075 -0.0382
  383TMC3    C3 5777   4.621   0.035  17.003 -0.2663  0.4752 -0.5929
  383TMC3    C4 5778   0.067   0.213  17.087 -0.3509  0.1928  0.2056
  383TMC3    C5 5779   0.039   0.099  17.161 -0.2561 -0.4429 -0.4346
  383TMC3    C6 5780   4.682   0.013  17.126 -0.1535 -0.6088 -0.6000
  383TMC3     C 5781   0.009   0.353  16.896 -0.6077 -0.1085 -0.2307
  383TMC3     O 5782   0.045   0.446  16.971 -0.2355 -0.6584  0.5209
  383TMC3     H 5783   4.600   0.155  16.822  0.4583  1.3098 -0.1251
  383TMC3    H1 5784   0.135   0.283  17.132  2.2530 -0.9532 -1.9398
  383TMC3    H2 5785   4.663   4.663  17.182 -0.0594 -0.2232  0.0645
  383TMC3    C7 5786   0.113   0.062  17.279 -0.5335  0.3064 -0.7228
  383TMC3    C8 5787   4.516   4.692  16.948  0.2232 -0.4399  1.7135
  383TMC3    O1 5788   0.049   4.727  17.356 -0.0400 -0.0658  0.1194
  383TMC3    O2 5789   4.469   4.706  16.834 -0.2089 -0.1088 -0.4031
  384MPD2     C 5790   2.056   1.159  11.890 -0.4895  0.7749 -0.5668
  384MPD2    C1 5791   1.977   1.051  11.917 -0.4784  0.0884 -0.1206
  384MPD2    C2 5792   1.946   0.961  11.821 -0.0039  0.3423  0.0125
  384MPD2    C3 5793   1.990   0.978  11.686 -0.6554 -0.3051 -0.1288
  384MPD2    C4 5794   2.062   1.091  11.664  0.5915 -0.3485 -0.2086
  384MPD2    C5 5795   2.087   1.184  11.758 -0.1062  0.7682 -0.1472
  384MPD2     H 5796   1.882   0.876  11.840 -1.3815  1.7322  1.5495
  384MPD2    H1 5797   2.091   1.109  11.561 -0.3957  1.4127 -0.1819
  384MPD2    H2 5798   2.072   1.241  11.959 -2.9185  0.9491 -0.2207
  384MPD2    H3 5799   2.123   1.280  11.724  1.2349 -0.0353 -1.0151
  384MPD2     N 5800   1.965   0.898  11.573 -0.5797 -0.6066 -0.1095
  384MPD2    H5 5801   1.995   0.933  11.483 -0.9316 -2.2089 -0.8427
  384MPD2    N1 5802   1.940   1.042  12.056  0.0547  0.1797 -0.5567
  384MPD2    H7 5803   1.979   1.106  12.125 -0.1159 -1.5136  1.1223
  385TMC3    C1 5804   1.906   0.680  11.679  0.0403 -0.9060  0.0382
  385TMC3    C2 5805   1.820   0.579  11.666 -0.5463  0.4989  0.2974
  385TMC3    C3 5806   1.825   0.481  11.761  0.2700 -0.0023 -0.2015
  385TMC3    C4 5807   2.020   0.656  11.751  0.5547  0.3976 -0.8925
  385TMC3    C5 5808   2.032   0.555  11.840 -0.2485 -0.1103  0.3904
  385TMC3    C6 5809   1.930   0.460  11.846  0.2497 -0.1051  0.3922
  385TMC3     C 5810   1.904   0.769  11.564  0.1399  0.9460  0.2538
  385TMC3     O 5811   1.876   0.726  11.456 -0.1642  0.3735 -0.7833
  385TMC3     H 5812   1.732   0.597  11.605  0.0741 -1.3411 -1.1334
  385TMC3    H1 5813   2.089   0.739  11.750  2.3108 -1.0609 -1.7791
  385TMC3    H2 5814   1.920   0.389  11.928 -0.5890  1.6714  1.8264
  385TMC3    C7 5815   2.107   0.586  11.966 -0.4155  0.1890  0.5108
  385TMC3    C8 5816   1.730   0.370  11.763 -0.4255  0.3214  0.2310
  385TMC3    O1 5817   2.144   0.698  11.998 -0.2890  0.4194 -0.1044
  385TMC3    O2 5818   1.712   0.319  11.871  0.0658 -0.0235 -0.5070
  386TMC3    C1 5819   2.353   2.935  11.683  0.9239 -0.1698  0.4521
  386TMC3    C2 5820   2.364   2.935  11.544 -0.2649  0.6830  0.3728
  386TMC3    C3 5821   2.261   2.988  11.469  0.1396  0.6358  0.9823
  386TMC3    C4 5822   2.244   2.960  11.750  0.1452 -0.7006 -0.3863
  386TMC3    C5 5823   2.145   3.024  11.677  0.6662  0.7190  0.0144
  386TMC3    C6 5824   2.153   3.029  11.541 -1.1077 -0.9099 -0.4569
  386TMC3     C 5825   2.463   2.871  11.753  0.4814 -0.1356 -0.0116
  386TMC3     O 5826   2.572   2.876  11.705  0.2360  0.0392 -0.3227
  386TMC3     H 5827   2.441   2.888  11.484 -0.7736  2.9053 -2.0381
  386TMC3    H1 5828   2.223   2.946  11.855 -1.0239 -1.2248 -0.6997
  386TMC3    H2 5829   2.066   3.064  11.486 -0.5456  0.7871 -0.2550
  386TMC3    C7 5830   2.012   3.037  11.739  0.0857 -0.3459 -0.1034
  386TMC3    C8 5831   2.252   2.969  11.330 -1.3461 -0.4061 -0.8582
  386TMC3    O1 5832   2.004   3.119  11.831  0.2818  0.7314  0.6045
  386TMC3    O2 5833   2.191   3.057  11.269  0.0244 -0.1241 -0.3248
  387MPD2     C 5834   4.323   3.130   9.567 -0.4421 -0.6460  0.3985
  387MPD2    C1 5835   4.407   3.110   9.677 -0.1605 -0.2666  0.3169
  387MPD2    C2 5836   4.410   2.990   9.746 -0.1222  0.2013  0.2626
  387MPD2    C3 5837   4.332   2.877   9.705  0.7666 -0.2940  0.7859
  387MPD2    C4 5838   4.263   2.892   9.588 -0.0137 -0.7171 -0.5074
  387MPD2    C5 5839   4.252   3.015   9.528  0.5232  0.5113 -1.0639
  387MPD2     H 5840   4.478   2.989   9.831  2.4059 -0.5413 -1.7754
  387MPD2    H1 5841   4.223   2.808   9.533 -0.7014 -0.0561 -1.0066
  387MPD2    H2 5842   4.313   3.225   9.515  0.5887 -0.7571 -0.0006
  387MPD2    H3 5843   4.185   3.035   9.446 -0.2623 -0.4317 -0.6500
  387MPD2     N 5844   4.368   2.751   9.762  0.4437 -0.4101 -0.1902
  387MPD2    H5 5845   4.447   2.751   9.826  1.2529 -0.4956 -1.1862
  387MPD2    N1 5846   4.497   3.207   9.714  0.0891 -0.2878 -0.5566
  387MPD2    H7 5847   4.567   3.168   9.776 -1.1154  0.7395  1.4809
  388TMC3    C1 5848   4.657   3.367   9.675 -0.0710  0.0514 -0.3290
  388TMC3    C2 5849   4.695   3.466   9.590  0.3917  0.7699  0.2924
  388TMC3    C3 5850   0.081   3.485   9.551 -0.4294 -0.0569  0.3721
  388TMC3    C4 5851   0.007   3.277   9.733  0.6516 -0.0136 -0.1936
  388TMC3    C5 5852   0.138   3.302   9.699 -0.0710 -0.3429 -0.2702
  388TMC3    C6 5853   0.179   3.399   9.608  0.6605 -0.9251  0.5393
  388TMC3     C 5854   4.524   3.327   9.657 -0.4417 -1.3234  0.3505
  388TMC3     O 5855   4.454   3.397   9.582 -0.0405  0.2470 -0.1004
  388TMC3     H 5856   4.620   3.537   9.557  0.2481  1.4994  2.1729
  388TMC3    H1 5857   4.715   3.204   9.805 -0.8214 -0.7562 -1.6033
  388TMC3    H2 5858   0.284   3.409   9.583 -0.0575  0.1862 -2.0572
  388TMC3    C7 5859   0.223   3.193   9.739 -0.0896 -0.0762 -0.0734
  388TMC3    C8 5860   0.116   3.602   9.484 -0.1775  0.1530  0.4036
  388TMC3    O1 5861   0.332   3.222   9.789  0.2483 -0.1787  0.1236
  388TMC3    O2 5862   0.036   3.691   9.496  0.1464  0.3651 -0.7578
  389MPD2     C 5863   3.570   1.510  11.308  0.5152  0.6589  0.3349
  389MPD2    C1 5864   3.533   1.420  11.207 -1.0696  1.2848  0.4247
  389MPD2    C2 5865   3.468   1.303  11.244  0.5941  0.3886  0.3310
  389MPD2    C3 5866   3.439   1.289  11.384 -0.3069 -0.3010  0.1272
  389MPD2    C4 5867   3.493   1.376  11.471 -0.0020 -0.4682  0.0238
  389MPD2    C5 5868   3.552   1.489  11.438  0.2867  0.2204  0.3555
  389MPD2     H 5869   3.436   1.234  11.167  2.3435 -0.0984  0.0446
  389MPD2    H1 5870   3.492   1.351  11.577  0.4142 -0.4257  0.0386
  389MPD2    H2 5871   3.628   1.595  11.274  2.6459  0.4514  3.4984
  389MPD2    H3 5872   3.587   1.548  11.522  0.4567 -1.4075  1.4242
  389MPD2     N 5873   3.363   1.180  11.440 -1.0554  0.5038  0.0155
  389MPD2    H5 5874   3.368   1.176  11.541 -3.2190 -0.5578  0.0702
  389MPD2    N1 5875   3.571   1.439  11.076 -0.2656  0.1996  0.6227
  389MPD2    H7 5876   3.630   1.520  11.058  0.8164 -0.5984  0.5483
  390TMC3    C1 5877   3.193   1.012  11.446  0.3449 -0.0877 -0.5529
  390TMC3    C2 5878   3.215   1.013  11.585  0.6957 -0.2864 -0.2307
  390TMC3    C3 5879   3.116   1.006  11.677  0.1058 -0.7878 -0.4830
  390TMC3    C4 5880   3.062   1.015  11.401 -0.4769 -0.1136 -0.6987
  390TMC3    C5 5881   2.967   1.018  11.495  0.2489  0.2022  0.1700
  390TMC3    C6 5882   2.988   1.022  11.635  0.3456  0.0386  0.5846
  390TMC3     C 5883   3.280   1.095  11.365 -0.7594 -0.0285  0.0377
  390TMC3     O 5884   3.250   1.115  11.245 -0.4523  0.2303 -0.4569
  390TMC3     H 5885   3.317   0.998  11.619  0.6268  0.6310  0.4091
  390TMC3    H1 5886   3.046   1.018  11.294  0.5733  1.0973 -0.8191
  390TMC3    H2 5887   2.909   1.034  11.708 -1.1518  1.2705 -1.2305
  390TMC3    C7 5888   2.851   0.933  11.459 -0.4278  0.5185 -0.3426
  390TMC3    C8 5889   3.124   0.885  11.758 -0.3023  0.3739  0.3226
  390TMC3    O1 5890   2.837   0.902  11.342 -0.0095  0.3957  0.2372
  390TMC3    O2 5891   3.160   0.781  11.699  0.5439 -0.4313 -0.6319
  391MPD2     C 5892   2.629   2.876  11.194 -0.1902 -0.3680  0.3356
  391MPD2    C1 5893   2.697   2.984  11.148 -0.2047  0.1599  0.1432
  391MPD2    C2 5894   2.700   3.006  11.007  0.9031  0.4158 -0.7165
  391MPD2    C3 5895   2.664   2.903  10.917  0.2163  0.1996  0.0174
  391MPD2    C4 5896   2.591   2.802  10.968 -0.0797 -0.0091 -0.5837
  391MPD2    C5 5897   2.575   2.787  11.103 -0.0138  0.1613  0.2402
  391MPD2     H 5898   2.756   3.090  10.966  0.4661  0.5484 -1.0463
  391MPD2    H1 5899   2.548   2.721  10.911 -0.2008  0.8429 -1.7016
  391MPD2    H2 5900   2.611   2.863  11.300  0.3661 -0.2386  0.4427
  391MPD2    H3 5901   2.519   2.706  11.147 -1.1162  1.6121  1.5055
  391MPD2     N 5902   2.691   2.930  10.774 -0.3656  0.4302  0.4673
  391MPD2    H5 5903   2.752   3.010  10.757  0.2548 -0.3452 -0.9491
  391MPD2    N1 5904   2.762   3.066  11.243  0.7526 -0.5337 -0.0375
  391MPD2    H7 5905   2.739   3.044  11.340  1.1690 -0.8916 -0.0161
  392TMC3    C1 5906   2.684   2.911  10.542  0.3085  0.1790 -0.1585
  392TMC3    C2 5907   2.611   2.866  10.427 -0.1743 -0.0714  0.0614
  392TMC3    C3 5908   2.669   2.869  10.305 -0.0200 -0.0227  0.0270
  392TMC3    C4 5909   2.821   2.945  10.527 -0.7639 -0.3350  0.2194
  392TMC3    C5 5910   2.873   2.944  10.398 -0.3619 -0.5154 -0.3254
  392TMC3    C6 5911   2.801   2.911  10.287 -0.2323  1.0116 -0.1572
  392TMC3     C 5912   2.634   2.859  10.671 -0.9692 -0.2651 -0.1216
  392TMC3     O 5913   2.549   2.771  10.676  0.1735  0.0393  0.0240
  392TMC3     H 5914   2.502   2.871  10.435 -0.1448 -0.3239  0.6476
  392TMC3    H1 5915   2.892   2.973  10.604 -1.3692 -0.7409  0.9225
  392TMC3    H2 5916   2.853   2.898  10.193  3.0047  0.0199  1.7685
  392TMC3    C7 5917   2.989   3.030  10.376  0.1506  0.9071 -0.1738
  392TMC3    C8 5918   2.592   2.817  10.196 -0.4780 -0.5701 -0.0303
  392TMC3    O1 5919   3.068   3.041  10.467  0.2173  0.2026 -0.3053
  392TMC3    O2 5920   2.471   2.833  10.198  0.0579  0.2823  0.6294
  393TMC3    C1 5921   1.784   0.766  10.750  0.8110  0.0943  0.0699
  393TMC3    C2 5922   1.686   0.672  10.754 -0.8372 -0.5833  0.2948
  393TMC3    C3 5923   1.724   0.542  10.765  0.4379 -0.0508  0.9498
  393TMC3    C4 5924   1.914   0.729  10.760  0.0383 -0.7099  0.0840
  393TMC3    C5 5925   1.948   0.597  10.786 -0.4352 -0.2283 -0.9069
  393TMC3    C6 5926   1.854   0.503  10.788  0.1700 -0.5573 -0.0795
  393TMC3     C 5927   1.739   0.901  10.706 -0.1397  0.3141 -0.4954
  393TMC3     O 5928   1.623   0.908  10.662  0.1556 -0.8510  0.3741
  393TMC3     H 5929   1.582   0.698  10.741 -0.3299  1.4484  0.2951
  393TMC3    H1 5930   1.993   0.802  10.746 -0.7390  0.2399  0.6843
  393TMC3    H2 5931   1.881   0.401  10.812  0.6360 -0.1601  1.1319
  393TMC3    C7 5932   2.079   0.545  10.750 -0.3653 -0.5362 -0.0394
  393TMC3    C8 5933   1.620   0.443  10.744  0.3203 -0.2581  0.2442
  393TMC3    O1 5934   2.105   0.432  10.773 -0.5015  0.2995  0.1575
  393TMC3    O2 5935   1.517   0.485  10.693  0.4030  0.5561  0.0461
  394TMC3    C1 5936   3.584   1.423  10.846  0.4840  0.5134 -0.1596
  394TMC3    C2 5937   3.572   1.559  10.829  0.3669 -0.5098  0.4958
  394TMC3    C3 5938   3.633   1.613  10.715 -0.3336 -0.3781 -0.7442
  394TMC3    C4 5939   3.671   1.360  10.761 -0.2560 -0.6543 -0.2430
  394TMC3    C5 5940   3.735   1.419  10.658  0.0966 -0.4185  0.3831
  394TMC3    C6 5941   3.714   1.554  10.627  0.4685  0.5316 -0.4472
  394TMC3     C 5942   3.547   1.356  10.964 -0.2502  0.5645 -0.8201
  394TMC3     O 5943   3.525   1.236  10.965  0.3325  0.3085 -0.4497
  394TMC3     H 5944   3.506   1.613  10.896  0.1739  0.8972 -0.8145
  394TMC3    H1 5945   3.691   1.258  10.791  0.6105  0.2490  2.2401
  394TMC3    H2 5946   3.741   1.593  10.530 -0.7510  0.3524 -0.8508
  394TMC3    C7 5947   3.822   1.341  10.570 -0.2884  0.0348 -0.2166
  394TMC3    C8 5948   3.599   1.744  10.673  0.7097  0.5755 -0.2776
  394TMC3    O1 5949   3.797   1.221  10.556  0.3556 -0.0501 -0.4913
  394TMC3    O2 5950   3.696   1.815  10.648  0.4272  0.6644 -0.2094
  395TMC3    C1 5951   2.959   3.103  14.923  0.0386  0.1435  0.3172
  395TMC3    C2 5952   2.835   3.150  14.907  0.2378  0.1678  0.6672
  395TMC3    C3 5953   2.822   3.283  14.909 -0.5009 -0.9643  0.3239
  395TMC3    C4 5954   3.074   3.182  14.932  0.2889  0.1179 -0.3128
  395TMC3    C5 5955   3.055   3.313  14.911  0.4427 -0.2396  0.1547
  395TMC3    C6 5956   2.930   3.366  14.900  0.3303 -0.2701 -0.7353
  395TMC3     C 5957   2.973   2.986  14.996 -0.1059  0.1417  0.4558
  395TMC3     O 5958   2.972   2.881  14.933  0.2266 -0.1080  0.0279
  395TMC3     H 5959   2.749   3.085  14.923 -1.8284  3.1014  1.4629
  395TMC3    H1 5960   3.172   3.136  14.937  0.0069 -0.4645 -0.1389
  395TMC3    H2 5961   2.914   3.473  14.888  2.4486 -0.1705 -2.6319
  395TMC3    C7 5962   3.162   3.415  14.915  0.0902 -0.1113 -0.0551
  395TMC3    C8 5963   2.696   3.346  14.938 -0.1030 -0.0129 -0.3631
  395TMC3    O1 5964   3.132   3.535  14.905 -0.1267  0.1411  0.1470
  395TMC3    O2 5965   2.697   3.414  15.037 -0.0578  0.5099 -0.0834
  396MPD2     C 5966   3.006   4.539  16.594  0.2643 -0.1739 -0.5241
  396MPD2    C1 5967   3.134   4.547  16.653 -0.4657 -0.5726 -0.1653
  396MPD2    C2 5968   3.212   4.654  16.611  0.2962 -0.0705 -0.3196
  396MPD2    C3 5969   3.170   0.009  16.518  0.1848 -0.4594  0.4430
  396MPD2    C4 5970   3.033   0.003  16.484  0.5935  0.2747  0.6427
  396MPD2    C5 5971   2.955   4.634  16.512 -0.2947 -0.0007 -0.3938
  396MPD2     H 5972   3.307   4.671  16.659  0.7167 -1.1553 -0.7556
  396MPD2    H1 5973   2.989   0.070  16.411  2.4933  1.8704  0.9622
  396MPD2    H2 5974   2.939   4.455  16.612  0.4137 -0.6094 -2.0545
  396MPD2    H3 5975   2.858   4.622  16.465 -1.2651  3.8931  0.6179
  396MPD2     N 5976   3.259   0.108  16.475 -0.1420 -0.4485 -0.0804
  396MPD2    H5 5977   3.351   0.105  16.517  0.9225 -0.4993 -2.3785
  396MPD2    N1 5978   3.164   4.443  16.749 -0.0781 -0.4614  0.3675
  396MPD2    H7 5979   3.107   4.360  16.756 -1.2244  0.3876  1.2364
  397TMC3    C1 5980   3.287   4.328  16.909 -0.2982  0.3309 -0.2252
  397TMC3    C2 5981   3.412   4.283  16.879  1.0021  0.1046  0.3579
  397TMC3    C3 5982   3.432   4.151  16.843 -0.4386  0.6097  0.7587
  397TMC3    C4 5983   3.176   4.245  16.896  0.0558 -0.8609 -1.1586
  397TMC3    C5 5984   3.202   4.114  16.859 -0.0508  0.7958  0.2940
  397TMC3    C6 5985   3.332   4.065  16.827 -1.2804  0.4788 -0.4381
  397TMC3     C 5986   3.269   4.449  16.845 -0.9533 -0.4078  0.4296
  397TMC3     O 5987   3.360   4.537  16.856  0.1920 -0.1127 -0.5087
  397TMC3     H 5988   3.499   4.333  16.920  0.9319  0.4012  0.1499
  397TMC3    H1 5989   3.084   4.286  16.936  0.9614  1.1337 -1.1276
  397TMC3    H2 5990   3.347   3.959  16.810 -1.5770  0.9822 -3.8350
  397TMC3    C7 5991   3.103   4.012  16.878 -0.4266  0.4848 -0.8737
  397TMC3    C8 5992   3.569   4.101  16.841 -0.3885  0.2737 -1.1236
  397TMC3    O1 5993   3.117   3.895  16.840  0.2894  0.0625 -0.0254
  397TMC3    O2 5994   3.584   3.987  16.875 -0.1985  0.3989 -0.0964
  398MPD2     C 5995   1.262   1.780   0.121 -0.1061  0.6518 -0.0551
  398MPD2    C1 5996   1.342   1.673   0.123 -0.0705  0.6000 -0.9811
  398MPD2    C2 5997   1.478   1.688   0.115  0.2498  0.1257  0.0222
  398MPD2    C3 5998   1.539   1.812   0.096 -0.2080 -0.3023  0.7151
  398MPD2    C4 5999   1.459   1.921   0.103 -0.2218 -0.1908  0.6723
  398MPD2    C5 6000   1.319   1.907   0.113  0.3147  0.0727 -0.0221
  398MPD2     H 6001   1.550   1.608   0.120 -0.3688 -0.4827 -0.9108
  398MPD2    H1 6002   1.500   2.020   0.094  0.1276 -0.3636  0.3312
  398MPD2    H2 6003   1.153   1.780   0.124 -0.1216  3.8034  0.0928
  398MPD2    H3 6004   1.251   1.991   0.117 -1.2484 -1.1699  0.1105
  398MPD2     N 6005   1.679   1.823   0.078 -0.1559 -0.0576  0.2076
  398MPD2    H5 6006   1.732   1.737   0.065  0.4194  0.4296 -0.7281
  398MPD2    N1 6007   1.293   1.545   0.136  0.3427  0.8162  0.3717
  398MPD2    H7 6008   1.359   1.470   0.152  0.7694  1.4342  1.4608
  399TMC3    C1 6009   1.137   1.365   0.144 -0.3182  0.3603  0.1795
  399TMC3    C2 6010   1.205   1.299   0.236  0.2931 -0.2710  0.1110
  399TMC3    C3 6011   1.192   1.164   0.250  0.2995  0.1039  0.6859
  399TMC3    C4 6012   1.055   1.304   0.053 -0.3402  0.3497  0.6111
  399TMC3    C5 6013   1.042   1.166   0.072  0.1927  0.0853 -0.0916
  399TMC3    C6 6014   1.104   1.094   0.170  0.4681 -0.5802  0.9800
  399TMC3     C 6015   1.159   1.508   0.128 -0.6963  0.4656  0.6843
  399TMC3     O 6016   1.059   1.570   0.093  0.0228 -0.1672 -1.0660
  399TMC3     H 6017   1.280   1.352   0.293 -2.5270  3.4210  0.4401
  399TMC3    H1 6018   1.003   1.367  17.740 -0.9836 -0.4914  0.3336
  399TMC3    H2 6019   1.103   0.987   0.157 -2.2330 -0.4099 -0.3286
  399TMC3    C7 6020   0.944   1.097  17.742  0.0441  0.0350 -0.2938
  399TMC3    C8 6021   1.280   1.084   0.336 -0.3660  0.1143  0.9810
  399TMC3    O1 6022   0.962   0.972  17.735 -0.2349 -0.2372  0.3764
  399TMC3    O2 6023   1.379   1.142   0.376 -0.2324 -0.4306  0.5365
  400TMC3    C1 6024   4.669   4.412  16.660 -0.6015  0.4098 -0.4883
  400TMC3    C2 6025   4.633   4.278  16.640  0.3680  0.0569  0.6890
  400TMC3    C3 6026   4.527   4.257  16.562  0.2353  0.1587  0.3055
  400TMC3    C4 6027   4.596   4.514  16.605 -0.2515  0.0859  0.2783
  400TMC3    C5 6028   4.489   4.491  16.527  0.2967 -0.2271  0.1342
  400TMC3    C6 6029   4.455   4.359  16.501 -0.2997 -0.8451 -0.3517
  400TMC3     C 6030   4.719   4.429  16.796  0.4803 -0.2596 -0.5425
  400TMC3     O 6031   0.035   4.536  16.819  0.2193  0.4439  0.0424
  400TMC3     H 6032   4.683   4.195  16.689 -0.8815 -0.2176  1.5158
  400TMC3    H1 6033   4.630   4.617  16.605  3.4001 -1.1250 -0.0885
  400TMC3    H2 6034   4.365   4.334  16.446 -0.9758  0.5461  0.1009
  400TMC3    C7 6035   4.427   4.597  16.448 -0.5140  0.2868  0.6019
  400TMC3    C8 6036   4.456   4.139  16.595  0.0673 -0.1188  0.1876
  400TMC3    O1 6037   4.412   4.572  16.327 -0.1185 -0.1802  0.4280
  400TMC3    O2 6038   4.471   4.102  16.711 -0.3799 -0.0009  0.3648
  401MPD2     C 6039   2.895   3.189   0.148 -0.1289  0.1905  0.4336
  401MPD2    C1 6040   2.906   3.125   0.270  0.8381 -0.7520  0.3989
  401MPD2    C2 6041   2.842   3.001   0.290  0.4160 -0.4079 -0.2324
  401MPD2    C3 6042   2.764   2.948   0.187 -0.1766  0.0809  0.3476
  401MPD2    C4 6043   2.757   3.011   0.064  0.6629 -0.5965  0.2283
  401MPD2    C5 6044   2.823   3.128   0.051  0.0587  0.6604  0.0209
  401MPD2     H 6045   2.854   2.944   0.381 -0.4134  0.3315  0.3288
  401MPD2    H1 6046   2.697   2.975  17.740  0.8618 -1.0359  0.2788
  401MPD2    H2 6047   2.945   3.283   0.129 -0.0503 -0.1600 -1.1026
  401MPD2    H3 6048   2.814   3.187  17.719  3.0908  0.4322 -0.4564
  401MPD2     N 6049   2.713   2.820   0.204  0.0419  0.1199  0.2333
  401MPD2    H5 6050   2.704   2.788   0.299  0.8308 -1.5504 -0.2651
  401MPD2    N1 6051   2.986   3.189   0.361  0.5522  0.2791 -0.3396
  401MPD2    H7 6052   3.032   3.269   0.320  0.1852 -0.9405 -3.0896
  402TMC3    C1 6053   2.647   2.592   0.142  0.0110 -0.4656  0.3051
  402TMC3    C2 6054   2.643   2.545   0.274 -0.6934  0.1585 -0.2516
  402TMC3    C3 6055   2.653   2.408   0.297  0.0411 -0.8461 -0.1331
  402TMC3    C4 6056   2.662   2.502   0.039 -0.1196 -0.8525  0.2004
  402TMC3    C5 6057   2.665   2.367   0.065  0.6720 -1.2259  0.6027
  402TMC3    C6 6058   2.664   2.317   0.191  0.4715  0.3345 -0.1884
  402TMC3     C 6059   2.666   2.735   0.109 -0.2378  0.3343 -0.2882
  402TMC3     O 6060   2.677   2.747  17.748  0.6257  0.2697  0.1594
  402TMC3     H 6061   2.636   2.608   0.362 -2.5124  1.7005 -1.4795
  402TMC3    H1 6062   2.677   2.536  17.695 -1.6259  1.7582  0.8257
  402TMC3    H2 6063   2.658   2.209   0.201  2.1564  0.1764 -0.9222
  402TMC3    C7 6064   2.712   2.290  17.716 -0.4570  0.1398  0.3779
  402TMC3    C8 6065   2.710   2.360   0.419  0.1305  0.3378 -0.4349
  402TMC3    O1 6066   2.691   2.340  17.604  0.4210  0.1340  1.0304
  402TMC3    O2 6067   2.758   2.247   0.416  0.0747 -0.1079 -0.1739
  403MPD2     C 6068   1.409   0.419  13.232 -0.3799 -0.1609  0.2194
  403MPD2    C1 6069   1.326   0.486  13.323 -0.1364  0.2504  0.7053
  403MPD2    C2 6070   1.387   0.544  13.432 -1.2152  0.2848 -0.5366
  403MPD2    C3 6071   1.521   0.532  13.453 -0.1569  0.3422  0.0484
  403MPD2    C4 6072   1.598   0.463  13.360  0.5436 -0.2239  0.2083
  403MPD2    C5 6073   1.545   0.414  13.248  0.7001  0.0455 -0.7897
  403MPD2     H 6074   1.325   0.576  13.515 -0.9353 -0.9067  0.1374
  403MPD2    H1 6075   1.706   0.465  13.369  0.5296 -2.0068  0.8773
  403MPD2    H2 6076   1.366   0.375  13.143  1.5401  0.2714 -0.9127
  403MPD2    H3 6077   1.597   0.351  13.178 -0.2952  0.1438 -1.6135
  403MPD2     N 6078   1.571   0.568  13.581 -0.8768  0.3876  0.7340
  403MPD2    H5 6079   1.504   0.599  13.651 -1.6981  2.6758 -1.0795
  403MPD2    N1 6080   1.185   0.493  13.302  0.1202 -0.1293 -0.3295
  403MPD2    H7 6081   1.156   0.454  13.213 -1.3615 -0.2856  0.2234
  404TMC3    C1 6082   0.963   0.490  13.345  0.1413  0.0556 -0.0726
  404TMC3    C2 6083   0.919   0.411  13.449  0.5665 -0.8365  0.8598
  404TMC3    C3 6084   0.920   0.277  13.415 -0.4078 -0.3194  0.2239
  404TMC3    C4 6085   0.967   0.434  13.221  0.2537 -0.5843 -0.4049
  404TMC3    C5 6086   0.956   0.300  13.196  0.0617  0.5632  0.0290
  404TMC3    C6 6087   0.936   0.213  13.297  0.8101  0.2987 -0.2432
  404TMC3     C 6088   1.088   0.545  13.378 -0.6143  0.9904 -0.9808
  404TMC3     O 6089   1.098   0.601  13.488  0.6878  0.5644  0.1274
  404TMC3     H 6090   0.928   0.453  13.548 -2.3436  1.8715 -0.0472
  404TMC3    H1 6091   1.000   0.503  13.144  1.4565 -0.4486  0.2257
  404TMC3    H2 6092   0.944   0.105  13.298  2.3727  0.4266  0.8231
  404TMC3    C7 6093   1.052   0.254  13.088  0.3618 -0.4061 -0.0047
  404TMC3    C8 6094   0.981   0.198  13.520 -0.5963  0.0442  0.0784
  404TMC3    O1 6095   1.136   0.337  13.066  0.8110  0.0833 -0.1806
  404TMC3    O2 6096   1.064   0.116  13.495 -0.2094  0.2404 -0.0124
  405MPD2     C 6097   1.313   1.191  14.743 -0.1529  0.8092  0.1483
  405MPD2    C1 6098   1.236   1.121  14.650  0.0429  0.0759  0.4320
  405MPD2    C2 6099   1.162   1.196  14.558 -0.0303  0.2108  0.2646
  405MPD2    C3 6100   1.154   1.334  14.566  0.2097  0.0835  0.2625
  405MPD2    C4 6101   1.227   1.401  14.663  0.2968  0.4254  0.1997
  405MPD2    C5 6102   1.308   1.325  14.744  0.2617 -0.1270 -0.4243
  405MPD2     H 6103   1.101   1.148  14.483 -2.5414  2.1835  1.0432
  405MPD2    H1 6104   1.226   1.509  14.666 -0.8119  0.4200 -0.1316
  405MPD2    H2 6105   1.383   1.145  14.812  0.9894 -0.1538 -1.6691
  405MPD2    H3 6106   1.370   1.385  14.808 -0.5134 -0.9766  1.1149
  405MPD2     N 6107   1.065   1.388  14.480 -0.7989 -0.2285 -0.0074
  405MPD2    H5 6108   1.030   1.327  14.406  3.8257 -2.8951  0.0336
  405MPD2    N1 6109   1.231   0.986  14.652  0.3559  0.1236 -0.0349
  405MPD2    H7 6110   1.276   0.936  14.729  0.5481  0.0295 -0.2103
  406TMC3    C1 6111   0.783   1.639  14.227 -0.4496 -1.0680  0.6466
  406TMC3    C2 6112   0.716   1.529  14.196 -0.4303  0.0450  0.1925
  406TMC3    C3 6113   0.742   1.417  14.268  0.2874  0.7441 -0.5097
  406TMC3    C4 6114   0.877   1.645  14.326  0.1285 -0.0780 -0.3885
  406TMC3    C5 6115   0.914   1.527  14.389  0.1678  0.5326 -0.1111
  406TMC3    C6 6116   0.836   1.411  14.370  0.5565 -0.0620  0.9490
  406TMC3     C 6117   0.772   1.763  14.153 -0.2031 -0.5068  0.6963
  406TMC3     O 6118   0.805   1.863  14.218  0.2780  0.3656  0.8757
  406TMC3     H 6119   0.636   1.538  14.123  0.0888 -0.1070 -0.3974
  406TMC3    H1 6120   0.950   1.726  14.324 -1.0158  0.9341 -1.4301
  406TMC3    H2 6121   0.838   1.331  14.443  0.3400 -1.5399 -0.6631
  406TMC3    C7 6122   1.027   1.516  14.474  0.3911  0.0573 -0.1777
  406TMC3    C8 6123   0.669   1.295  14.237  0.9505 -0.5706 -0.1802
  406TMC3    O1 6124   1.072   1.616  14.530 -0.2223 -0.0164  0.3495
  406TMC3    O2 6125   0.555   1.295  14.194 -0.5851 -0.3056 -0.3158
  407MPD2     C 6126   3.757   2.761   9.663 -0.1034 -0.4144  0.3269
  407MPD2    C1 6127   3.881   2.717   9.675  0.2126 -0.3330  0.4810
  407MPD2    C2 6128   3.955   2.756   9.788 -0.4235 -0.5583 -0.0246
  407MPD2    C3 6129   3.902   2.848   9.878 -0.5483  0.1790  0.2923
  407MPD2    C4 6130   3.775   2.895   9.863 -0.2705 -0.4746 -0.3662
  407MPD2    C5 6131   3.706   2.846   9.755 -0.3686 -0.3786  0.0379
  407MPD2     H 6132   4.056   2.720   9.803 -0.3571 -0.1603  0.4628
  407MPD2    H1 6133   3.725   2.965   9.930  0.0755  0.6317 -1.2639
  407MPD2    H2 6134   3.701   2.737   9.574  2.4238 -1.0109 -1.1189
  407MPD2    H3 6135   3.608   2.888   9.734 -0.9872 -1.0565  1.5452
  407MPD2     N 6136   3.980   2.915   9.982 -1.0416 -0.2335 -0.7342
  407MPD2    H5 6137   3.939   2.989  10.037  0.2767  1.5169 -2.1347
  407MPD2    N1 6138   3.949   2.665   9.571  0.3627 -0.1294 -0.7187
  407MPD2    H7 6139   4.046   2.643   9.590  0.3498  1.1616  0.7875
  408TMC3    C1 6140   3.999   2.613   9.344  0.2607 -0.2278  0.0494
  408TMC3    C2 6141   4.098   2.523   9.375  0.5838  0.6743 -0.1920
  408TMC3    C3 6142   4.221   2.549   9.321  0.1765 -0.1884 -0.7434
  408TMC3    C4 6143   4.019   2.716   9.265 -0.2293 -0.2090  0.0017
  408TMC3    C5 6144   4.143   2.740   9.207 -0.5192 -0.7073 -0.2436
  408TMC3    C6 6145   4.244   2.645   9.228 -0.3035 -0.3347  0.2729
  408TMC3     C 6146   3.900   2.643   9.447  0.4485  0.7851 -0.3055
  408TMC3     O 6147   3.789   2.660   9.392 -0.4876 -0.2288 -0.2100
  408TMC3     H 6148   4.087   2.451   9.455 -0.5975  0.5316 -0.4816
  408TMC3    H1 6149   3.939   2.789   9.267 -1.4784 -1.5853  0.5672
  408TMC3    H2 6150   4.340   2.658   9.180  0.1477  1.2992  1.6135
  408TMC3    C7 6151   4.189   2.874   9.168  0.2971  0.6365 -0.4734
  408TMC3    C8 6152   4.317   2.452   9.362 -0.6905  0.2728  0.2200
  408TMC3    O1 6153   4.309   2.896   9.175  0.0806 -0.2908 -0.4860
  408TMC3    O2 6154   4.271   2.336   9.390 -0.0287  0.0627 -0.2123
  409MPD2     C 6155   3.370   3.832  16.510 -0.2181 -0.0245  0.0654
  409MPD2    C1 6156   3.461   3.786  16.595 -0.3973  0.1037  0.7875
  409MPD2    C2 6157   3.585   3.843  16.603 -0.5265  0.0973 -0.3697
  409MPD2    C3 6158   3.612   3.946  16.526  0.4306  0.2802  0.5510
  409MPD2    C4 6159   3.520   4.001  16.440  0.1285  0.1232 -0.0415
  409MPD2    C5 6160   3.401   3.937  16.426  0.1884  0.1278 -0.3414
  409MPD2     H 6161   3.658   3.791  16.664  0.3674  2.2080  0.3840
  409MPD2    H1 6162   3.533   4.083  16.370 -1.2852 -0.4970 -1.0367
  409MPD2    H2 6163   3.269   3.793  16.502 -0.9952  1.9470  0.3104
  409MPD2    H3 6164   3.321   3.969  16.360  1.1130  1.2231 -0.9234
  409MPD2     N 6165   3.740   4.009  16.526 -0.2917 -0.2006  0.5430
  409MPD2    H5 6166   3.731   4.096  16.475 -0.6182 -0.0697  0.8254
  409MPD2    N1 6167   3.426   3.705  16.708  0.4824  0.1657 -0.4328
  409MPD2    H7 6168   3.492   3.712  16.785 -1.3093  1.4710  0.9644
  410TMC3    C1 6169   3.965   4.062  16.532  0.7339 -0.4081 -0.4613
  410TMC3    C2 6170   4.020   4.137  16.624 -0.0057  0.1042  0.6058
  410TMC3    C3 6171   4.048   4.269  16.597 -0.0306 -0.4631  0.1779
  410TMC3    C4 6172   3.939   4.126  16.412  0.1270  0.5198 -0.3296
  410TMC3    C5 6173   3.970   4.258  16.387 -0.1394 -0.7712  0.0217
  410TMC3    C6 6174   4.023   4.337  16.488 -0.3281  0.4654  1.0628
  410TMC3     C 6175   3.859   3.976  16.582 -0.1083 -0.5461  0.4095
  410TMC3     O 6176   3.895   3.875  16.634 -0.2099 -0.0098 -0.2841
  410TMC3     H 6177   4.053   4.099  16.720  0.1663 -0.0778  0.4735
  410TMC3    H1 6178   3.897   4.057  16.340  0.1351  0.7431 -0.5491
  410TMC3    H2 6179   4.052   4.441  16.474 -1.5365  0.7656  0.8227
  410TMC3    C7 6180   3.857   4.317  16.330  0.0183  0.1705  0.2648
  410TMC3    C8 6181   4.136   4.345  16.683  0.1693 -0.2605  0.5675
  410TMC3    O1 6182   3.761   4.245  16.311  0.7768  0.7610  1.0444
  410TMC3    O2 6183   4.190   4.442  16.633  0.1364 -0.2051  0.2940
  411MPD2     C 6184   3.527   3.986  14.691  0.3348 -0.0218  0.0822
  411MPD2    C1 6185   3.427   4.077  14.727 -0.9523  0.2407 -0.4181
  411MPD2    C2 6186   3.302   4.017  14.732 -0.0730 -0.2686  1.2101
  411MPD2    C3 6187   3.288   3.884  14.709  0.0326  0.1143  0.1718
  411MPD2    C4 6188   3.387   3.796  14.683  0.1097  0.4938 -0.0493
  411MPD2    C5 6189   3.509   3.852  14.669  0.3177 -0.9326 -0.4110
  411MPD2     H 6190   3.213   4.071  14.764  0.2924  1.5729 -0.8964
  411MPD2    H1 6191   3.355   3.694  14.664 -0.7193  0.6364  0.6136
  411MPD2    H2 6192   3.634   4.002  14.689  0.5562 -1.6501 -0.9182
  411MPD2    H3 6193   3.595   3.787  14.657  0.2311 -1.4842  2.0307
  411MPD2     N 6194   3.165   3.826  14.705 -0.4631  0.4299 -0.4627
  411MPD2    H5 6195   3.171   3.725  14.705  1.5428  0.5382 -0.4407
  411MPD2    N1 6196   3.442   4.220  14.740 -0.0338  0.4836 -0.7525
  411MPD2    H7 6197   3.354   4.271  14.734  0.1183  0.7915 -0.3583
  412TMC3    C1 6198   2.930   3.793  14.724 -0.2381  0.0962  0.2599
  412TMC3    C2 6199   2.803   3.840  14.742 -0.0180  0.2387 -0.5509
  412TMC3    C3 6200   2.698   3.760  14.735  0.4680  0.2413  0.3022
  412TMC3    C4 6201   2.948   3.664  14.683 -0.0162 -0.5621  0.0811
  412TMC3    C5 6202   2.837   3.583  14.668 -0.0497 -0.6164  0.3135
  412TMC3    C6 6203   2.716   3.626  14.695 -0.4809  0.1239 -0.5345
  412TMC3     C 6204   3.037   3.887  14.715  0.9668 -0.1372  0.0553
  412TMC3     O 6205   3.006   4.004  14.729 -0.0014 -0.0384  0.4030
  412TMC3     H 6206   2.781   3.945  14.761  1.5868  0.7561 -1.4958
  412TMC3    H1 6207   3.043   3.616  14.668  0.3917 -0.1677  1.3679
  412TMC3    H2 6208   2.628   3.570  14.665  0.5814 -0.9931 -1.5626
  412TMC3    C7 6209   2.844   3.475  14.573 -0.4591 -0.4386  0.3601
  412TMC3    C8 6210   2.583   3.821  14.672  0.2283 -0.0617  0.7694
  412TMC3    O1 6211   2.753   3.400  14.550 -0.1325  0.0644 -0.7285
  412TMC3    O2 6212   2.607   3.899  14.580 -0.5776 -0.3986 -0.1842
  413MPD2     C 6213   0.975   2.750  15.323 -0.4272 -0.2704  0.0305
  413MPD2    C1 6214   0.903   2.703  15.215  0.2461 -0.4922 -0.5201
  413MPD2    C2 6215   0.929   2.578  15.154 -0.0060  0.3084 -0.3448
  413MPD2    C3 6216   1.045   2.506  15.194  0.5112  0.1227  0.1676
  413MPD2    C4 6217   1.125   2.565  15.290 -0.0269  0.2838  0.3472
  413MPD2    C5 6218   1.089   2.684  15.358 -0.2080  0.0642  0.2177
  413MPD2     H 6219   0.870   2.535  15.074  0.5245  1.6575 -1.4558
  413MPD2    H1 6220   1.197   2.500  15.338 -0.5625 -0.4036  0.2048
  413MPD2    H2 6221   0.948   2.837  15.383  2.5862  1.6481 -1.3964
  413MPD2    H3 6222   1.147   2.721  15.442 -0.1289 -0.0093  0.1953
  413MPD2     N 6223   1.068   2.379  15.134 -0.0785  0.0464  0.1877
  413MPD2    H5 6224   1.008   2.351  15.057 -3.0215 -0.6681  2.7551
  413MPD2    N1 6225   0.783   2.779  15.191 -0.4597 -0.5182 -0.1062
  413MPD2    H7 6226   0.767   2.854  15.257  1.0359 -1.1341  0.9436
  414TMC3    C1 6227   1.130   2.177  15.070 -0.6017 -0.2153  0.4934
  414TMC3    C2 6228   1.160   2.050  15.118  0.2949  0.1393  0.6555
  414TMC3    C3 6229   1.186   1.951  15.027  0.0862 -0.2886 -0.6055
  414TMC3    C4 6230   1.120   2.205  14.937  0.3091 -0.2293  0.4995
  414TMC3    C5 6231   1.150   2.107  14.845  1.0920 -0.2900 -0.1937
  414TMC3    C6 6232   1.175   1.977  14.887  0.0452 -0.4719  1.0767
  414TMC3     C 6233   1.148   2.277  15.170 -0.0089  0.1640 -0.0362
  414TMC3     O 6234   1.220   2.252  15.267 -0.0064 -0.6400  0.2291
  414TMC3     H 6235   1.155   2.028  15.224 -2.4482  0.9614  0.6882
  414TMC3    H1 6236   1.109   2.305  14.895 -2.0713 -0.0632  1.5479
  414TMC3    H2 6237   1.196   1.891  14.825 -2.3407 -0.0756 -0.2750
  414TMC3    C7 6238   1.235   2.167  14.745  0.3189  0.8144 -0.3836
  414TMC3    C8 6239   1.226   1.813  15.073 -0.4496 -0.0403  0.2318
  414TMC3    O1 6240   1.269   2.284  14.771 -0.4613 -0.6671  0.2533
  414TMC3    O2 6241   1.218   1.715  14.995 -0.0513 -0.1378 -0.3550
  415TMC3    C1 6242   1.178   0.055  10.424 -0.1664 -0.3571  0.3842
  415TMC3    C2 6243   1.310   0.093  10.437  0.5615  0.1560 -0.3714
  415TMC3    C3 6244   1.356   0.194  10.353  0.4070 -0.5235  0.9330
  415TMC3    C4 6245   1.093   0.103  10.323 -0.7385 -0.0894  0.4250
  415TMC3    C5 6246   1.140   0.202  10.237 -0.0972  0.1658 -0.1389
  415TMC3    C6 6247   1.275   0.249  10.254  0.0835 -0.1858 -0.5516
  415TMC3     C 6248   1.126   4.672  10.489 -0.0236  0.0447 -0.5058
  415TMC3     O 6249   1.004   4.660  10.480 -0.5724  0.2064 -0.3608
  415TMC3     H 6250   1.368   0.051  10.518  0.9784  1.3624 -0.0502
  415TMC3    H1 6251   0.994   0.063  10.307 -0.7838 -0.5129  1.8441
  415TMC3    H2 6252   1.311   0.332  10.194 -0.6390 -1.3544 -2.5814
  415TMC3    C7 6253   1.068   0.240  10.119 -0.1507 -0.6041 -0.7718
  415TMC3    C8 6254   1.499   0.217  10.363 -0.1404  0.6113  0.2003
  415TMC3    O1 6255   1.106   0.341  10.061  0.1938  0.2610 -0.0847
  415TMC3    O2 6256   1.572   0.119  10.377  0.4463 -0.3927  0.3029
  416MPD2     C 6257   3.094   4.436  11.294  0.5922  0.7761 -0.2337
  416MPD2    C1 6258   3.050   4.332  11.368  0.0811  0.3853 -0.3573
  416MPD2    C2 6259   3.104   4.208  11.332  0.3526 -0.4758 -0.8516
  416MPD2    C3 6260   3.196   4.193  11.225 -0.4338  0.6272 -0.7536
  416MPD2    C4 6261   3.240   4.305  11.164 -0.0201 -0.2628  0.4105
  416MPD2    C5 6262   3.185   4.426  11.191 -0.6228  0.2268  0.3689
  416MPD2     H 6263   3.069   4.117  11.379 -0.0091 -0.1257 -0.4399
  416MPD2    H1 6264   3.318   4.301  11.089  2.1889  0.6521  2.6346
  416MPD2    H2 6265   3.044   4.530  11.316 -1.2811 -0.4856  0.9231
  416MPD2    H3 6266   3.221   4.510  11.133 -0.7312 -1.1869 -1.7649
  416MPD2     N 6267   3.252   4.068  11.180  0.1972 -0.4463 -0.3443
  416MPD2    H5 6268   3.291   4.070  11.086 -0.9449 -0.1478 -0.8115
  416MPD2    N1 6269   2.942   4.350  11.460  0.9142 -0.3023 -0.5385
  416MPD2    H7 6270   2.904   4.444  11.465  1.5567 -0.1907  1.9380
  417TMC3    C1 6271   2.755   4.294  11.604  0.1304 -0.6628 -0.0140
  417TMC3    C2 6272   2.697   4.218  11.708 -0.4832 -0.2219  0.1610
  417TMC3    C3 6273   2.578   4.257  11.754  0.5084 -1.1974  0.7282
  417TMC3    C4 6274   2.679   4.394  11.551 -0.1278  0.0980 -0.2425
  417TMC3    C5 6275   2.553   4.417  11.597 -1.0274 -0.3312 -0.4148
  417TMC3    C6 6276   2.497   4.357  11.703  0.7698 -0.5503  0.0440
  417TMC3     C 6277   2.873   4.244  11.526 -0.0869  0.0261 -0.3998
  417TMC3     O 6278   2.885   4.125  11.511  0.1822 -0.0201 -0.3385
  417TMC3     H 6279   2.753   4.131  11.741 -0.8614  0.1724  1.8132
  417TMC3    H1 6280   2.710   4.451  11.464 -1.5004 -0.9369 -1.4021
  417TMC3    H2 6281   2.396   4.378  11.736  1.2334  0.4839  0.8178
  417TMC3    C7 6282   2.481   4.534  11.540 -0.1481 -0.4234  0.6911
  417TMC3    C8 6283   2.534   4.215  11.889  0.3261 -0.4637  0.1160
  417TMC3    O1 6284   2.539   4.628  11.498  0.0755  0.5315  0.0341
  417TMC3    O2 6285   2.455   4.281  11.951  0.1651  0.1694 -0.0629
  418TMC3    C1 6286   2.055   1.762  17.714  0.3970 -0.1812  0.3589
  418TMC3    C2 6287   1.953   1.853  17.706  0.0138 -0.2614  0.4903
  418TMC3    C3 6288   1.900   1.893   0.063  0.4870 -0.9296 -0.3439
  418TMC3    C4 6289   2.098   1.711   0.071 -0.3012  0.1096 -0.1958
  418TMC3    C5 6290   2.045   1.754   0.191 -0.8530 -0.0934  0.1918
  418TMC3    C6 6291   1.943   1.844   0.183  0.8781 -0.3974  0.0629
  418TMC3     C 6292   2.100   1.707  17.587 -0.5447  0.2575  0.4578
  418TMC3     O 6293   2.094   1.777  17.488  0.2326 -0.2589  0.0286
  418TMC3     H 6294   1.908   1.876  17.610  1.6515  0.2161 -0.1668
  418TMC3    H1 6295   2.180   1.641   0.082  0.6250  1.4876  1.7055
  418TMC3    H2 6296   1.897   1.869   0.278 -2.5341  0.8561 -1.9098
  418TMC3    C7 6297   2.045   1.667   0.307  0.0614 -0.4324 -0.1513
  418TMC3    C8 6298   1.760   1.934   0.072 -0.1498 -0.2849  0.0602
  418TMC3    O1 6299   2.065   1.549   0.277 -0.0666  0.1187 -1.2532
  418TMC3    O2 6300   1.730   2.052   0.083 -0.0094  0.0984  0.9105
  419MPD2     C 6301   0.301   4.058  12.078  0.0867  0.4705 -0.2210
  419MPD2    C1 6302   0.215   4.163  12.070  0.5074 -0.4309  0.0004
  419MPD2    C2 6303   0.202   4.252  12.173  0.5538 -0.5584  0.3894
  419MPD2    C3 6304   0.267   4.247  12.293  0.5088  0.5307  0.3032
  419MPD2    C4 6305   0.354   4.143  12.309 -0.2458  0.1251 -0.6907
  419MPD2    C5 6306   0.372   4.055  12.195  0.3480  0.7398 -0.1186
  419MPD2     H 6307   0.136   4.335  12.152  0.6865 -0.5802 -0.1050
  419MPD2    H1 6308   0.414   4.130  12.399 -3.2406  0.2666  1.3266
  419MPD2    H2 6309   0.328   3.996  11.994 -1.0234  0.1790 -0.3603
  419MPD2    H3 6310   0.453   3.985  12.214 -0.5805 -0.6768 -1.2979
  419MPD2     N 6311   0.227   4.329  12.397 -0.3651  0.7321  0.7092
  419MPD2    H5 6312   0.149   4.390  12.376  0.3497  0.8533 -1.5495
  419MPD2    N1 6313   0.133   4.184  11.953  0.5684  0.4268  0.0988
  419MPD2    H7 6314   0.085   4.273  11.949  0.2089  0.3055  1.8322
  420TMC3    C1 6315   0.212   4.431  12.608 -0.6262  0.1000  0.1093
  420TMC3    C2 6316   0.120   4.515  12.543  0.0865  0.5265  0.1782
  420TMC3    C3 6317   0.031   4.581  12.620  0.0851  0.1196 -0.3966
  420TMC3    C4 6318   0.212   4.405  12.742  1.0758  0.1662 -0.3895
  420TMC3    C5 6319   0.107   4.460  12.813  0.3270 -0.0733  0.5674
  420TMC3    C6 6320   0.015   4.551  12.758 -0.7040  0.5275 -0.4108
  420TMC3     C 6321   0.279   4.338  12.520 -0.4539  0.0778 -0.0996
  420TMC3     O 6322   0.366   4.267  12.572  0.6758  0.4495  0.1474
  420TMC3     H 6323   0.135   4.552  12.442  1.9162  1.0474  0.6377
  420TMC3    H1 6324   0.264   4.329  12.799 -1.2687 -0.1362  1.3372
  420TMC3    H2 6325   4.672   4.597  12.810 -1.1844  0.0814 -0.7927
  420TMC3    C7 6326   0.075   4.401  12.941  0.3137 -1.0006 -0.2462
  420TMC3    C8 6327   4.732   4.715  12.575 -0.1990  0.1785  0.5367
  420TMC3    O1 6328   0.107   4.288  12.973 -0.2802 -0.8194 -0.0623
  420TMC3    O2 6329   4.710   4.728  12.453  0.1817 -0.2678  0.4846
  421TMC3    C1 6330   1.708   0.607  13.770  0.0768  0.3509 -0.4097
  421TMC3    C2 6331   1.668   0.734  13.796 -0.9072 -0.8181 -0.1523
  421TMC3    C3 6332   1.703   0.788  13.919  0.6328 -0.2272 -0.1118
  421TMC3    C4 6333   1.790   0.541  13.862  0.2179  0.3752 -0.4321
  421TMC3    C5 6334   1.832   0.606  13.977 -0.2494 -0.5598 -0.6477
  421TMC3    C6 6335   1.788   0.730  14.012  0.1150  1.0492  0.1173
  421TMC3     C 6336   1.699   0.555  13.635  0.1897 -0.5171  0.5027
  421TMC3     O 6337   1.804   0.539  13.575 -0.5521  0.4092  0.0712
  421TMC3     H 6338   1.598   0.788  13.734 -1.0475 -1.3213 -0.4351
  421TMC3    H1 6339   1.831   0.443  13.839 -1.0777 -0.2659 -0.0041
  421TMC3    H2 6340   1.819   0.782  14.101  0.1083  2.5642 -0.7621
  421TMC3    C7 6341   1.934   0.540  14.056  0.4976 -1.3141 -0.2776
  421TMC3    C8 6342   1.636   0.910  13.952 -0.3264 -0.5282 -0.2806
  421TMC3    O1 6343   2.019   0.619  14.099 -0.2022 -0.5352 -0.3569
  421TMC3    O2 6344   1.630   0.989  13.855  0.4725  0.3311  0.2622
  422TMC3    C1 6345   3.901   2.481  12.400 -0.2462 -0.3763  0.9766
  422TMC3    C2 6346   3.852   2.586  12.475 -0.3174  0.3296 -0.0874
  422TMC3    C3 6347   3.777   2.565  12.588 -0.0672 -0.0199  0.0917
  422TMC3    C4 6348   3.853   2.356  12.433 -0.2748 -0.1522 -0.2810
  422TMC3    C5 6349   3.758   2.338  12.529  0.0635  0.8862 -0.0978
  422TMC3    C6 6350   3.711   2.446  12.602 -0.0882 -0.7553  0.1088
  422TMC3     C 6351   4.023   2.510  12.324 -0.2387  0.0603 -0.1444
  422TMC3     O 6352   4.067   2.624  12.330 -1.0459 -0.1978  0.2292
  422TMC3     H 6353   3.888   2.685  12.447 -0.5090  0.2974 -0.4544
  422TMC3    H1 6354   3.903   2.267  12.396 -0.9863 -0.3679 -0.7098
  422TMC3    H2 6355   3.643   2.444  12.686  0.4509 -4.8132  0.4325
  422TMC3    C7 6356   3.707   2.200  12.559  0.2992 -0.3905  0.3827
  422TMC3    C8 6357   3.735   2.688  12.657  0.6684 -0.6447  0.3232
  422TMC3    O1 6358   3.748   2.109  12.488 -0.0882  0.1749  0.1117
  422TMC3    O2 6359   3.754   2.797  12.606  0.1223 -0.3825  0.2055
  423MPD2     C 6360   0.007   3.706   0.130  1.0299 -0.2906  0.1537
  423MPD2    C1 6361   0.079   3.610   0.203  0.8344 -0.5393  0.1407
  423MPD2    C2 6362   0.153   3.515   0.133  0.5690  0.5288 -0.5491
  423MPD2    C3 6363   0.171   3.532  17.749 -0.4887 -0.1473  0.1611
  423MPD2    C4 6364   0.109   3.639  17.682  1.0840 -0.9714 -0.0760
  423MPD2    C5 6365   0.026   3.722  17.751 -0.8151  0.0434  0.4428
  423MPD2     H 6366   0.197   3.434   0.189 -1.5077  0.2110  0.6267
  423MPD2    H1 6367   0.142   3.680  17.587 -1.0981 -0.4156 -0.5970
  423MPD2    H2 6368   4.687   3.778   0.184  1.5738 -1.4172  2.2667
  423MPD2    H3 6369   4.718   3.805  17.701  0.6747  0.3252 -0.5090
  423MPD2     N 6370   0.256   3.444  17.673 -0.3751 -0.3709 -0.6818
  423MPD2    H5 6371   0.264   3.466  17.574 -1.4062 -0.1209 -0.7112
  423MPD2    N1 6372   0.084   3.611   0.346  0.4777 -0.3928 -0.4875
  423MPD2    H7 6373   0.145   3.538   0.381 -0.4666 -1.3189 -0.7652
  424TMC3    C1 6374   0.063   3.675   0.576  0.1013 -0.3597  0.5290
  424TMC3    C2 6375   0.188   3.629   0.604  0.6127  1.1093  0.2515
  424TMC3    C3 6376   0.220   3.624   0.740 -0.1036 -0.3132  0.2240
  424TMC3    C4 6377   4.713   3.720   0.669  0.2652  0.7905 -0.2584
  424TMC3    C5 6378   0.008   3.709   0.803  0.2021  0.0648  0.8961
  424TMC3    C6 6379   0.133   3.656   0.840 -0.5496 -0.0583 -0.3813
  424TMC3     C 6380   0.025   3.698   0.436 -0.1721 -0.2396  0.8109
  424TMC3     O 6381   4.673   3.772   0.422  0.6776  0.1872 -0.5338
  424TMC3     H 6382   0.243   3.563   0.537 -0.9965  0.6548 -0.6266
  424TMC3    H1 6383   4.612   3.753   0.646  0.1802  0.3296 -0.5428
  424TMC3    H2 6384   0.163   3.643   0.943 -1.1046 -1.1181 -0.3515
  424TMC3    C7 6385   4.644   3.692   0.901 -0.2809 -0.2964 -0.1703
  424TMC3    C8 6386   0.337   3.544   0.779 -0.5108 -0.3504  0.4936
  424TMC3    O1 6387   4.686   3.630   0.996  0.1199 -0.6574  0.3581
  424TMC3    O2 6388   0.360   3.443   0.712 -0.3542 -0.0285 -0.3539
  425MPD2     C 6389   4.254   2.725  16.990 -0.1680 -0.2268  1.3512
  425MPD2    C1 6390   4.193   2.622  17.052 -0.1788 -0.1811  0.0626
  425MPD2    C2 6391   4.074   2.638  17.109 -0.3253  0.2363  0.3713
  425MPD2    C3 6392   4.015   2.762  17.113 -0.2242 -0.7643  1.0423
  425MPD2    C4 6393   4.071   2.864  17.048  0.3701 -0.5074 -0.2642
  425MPD2    C5 6394   4.195   2.847  16.988 -0.3090 -0.0054  0.2722
  425MPD2     H 6395   4.029   2.560  17.169  1.4042 -0.7725  0.3510
  425MPD2    H1 6396   4.027   2.963  17.048  0.4914 -0.4450 -3.2671
  425MPD2    H2 6397   4.354   2.703  16.953 -1.1556 -0.4391 -1.1946
  425MPD2    H3 6398   4.241   2.925  16.928  1.2997 -1.4837 -0.4138
  425MPD2     N 6399   3.890   2.771  17.173 -0.2265  0.0150 -0.2871
  425MPD2    H5 6400   3.851   2.681  17.201  0.4361  0.7437  2.9970
  425MPD2    N1 6401   4.254   2.496  17.056 -0.2210 -0.5220 -0.3865
  425MPD2    H7 6402   4.341   2.483  17.005 -0.0146 -2.2098  0.4107
  426TMC3    C1 6403   4.307   2.275  17.128  0.1143 -0.4202 -0.3238
  426TMC3    C2 6404   4.305   2.218  17.004 -0.0459 -0.3113 -0.0965
  426TMC3    C3 6405   4.336   2.083  16.997 -0.1272  0.6950  1.3153
  426TMC3    C4 6406   4.324   2.196  17.242  0.0948  0.4069 -0.8702
  426TMC3    C5 6407   4.356   2.063  17.222  1.2535  0.2582 -0.1574
  426TMC3    C6 6408   4.365   2.004  17.104 -0.4645  0.2683  0.1131
  426TMC3     C 6409   4.228   2.397  17.145 -0.0590  0.6521 -0.8631
  426TMC3     O 6410   4.162   2.401  17.248  0.1572 -0.1330 -0.4804
  426TMC3     H 6411   4.263   2.261  16.913  0.6682 -1.6132 -1.0430
  426TMC3    H1 6412   4.345   2.245  17.337 -0.1434 -0.0993 -0.5571
  426TMC3    H2 6413   4.386   1.898  17.092 -0.3707 -0.0513  2.9799
  426TMC3    C7 6414   4.308   1.971  17.323 -0.0000 -0.8405  0.4974
  426TMC3    C8 6415   4.302   2.010  16.879  0.0892  0.0339  0.9133
  426TMC3    O1 6416   4.330   1.853  17.304 -0.5078  0.6995 -0.1465
  426TMC3    O2 6417   4.391   1.932  16.839 -0.2403 -0.0203 -0.7285
  427MPD2     C 6418   2.573   4.045  15.013  0.0426  0.3177  0.7538
  427MPD2    C1 6419   2.568   4.116  15.132 -0.0468 -0.8464 -0.5810
  427MPD2    C2 6420   2.483   4.225  15.151  0.2737 -0.8767 -0.3247
  427MPD2    C3 6421   2.383   4.249  15.057  0.6097  0.3298  0.1313
  427MPD2    C4 6422   2.382   4.174  14.940  0.1345 -0.7581  0.2619
  427MPD2    C5 6423   2.478   4.075  14.918 -0.5233  0.2710  0.1261
  427MPD2     H 6424   2.484   4.285  15.241 -3.0863 -0.6991 -0.4115
  427MPD2    H1 6425   2.314   4.201  14.861  1.4044  0.0970 -0.5438
  427MPD2    H2 6426   2.655   3.976  14.993 -0.2518 -0.3009  1.6885
  427MPD2    H3 6427   2.472   4.009  14.832 -1.2389  0.2347  0.2105
  427MPD2     N 6428   2.285   4.355  15.070  0.3790  0.4895 -0.1666
  427MPD2    H5 6429   2.211   4.367  15.001  1.0375  1.3875 -0.7088
  427MPD2    N1 6430   2.658   4.091  15.234 -0.2249  0.5829 -0.3413
  427MPD2    H7 6431   2.679   4.166  15.300  0.3646 -1.2156  1.5011
  428TMC3    C1 6432   2.808   3.983  15.363 -0.1827  0.2133 -0.2865
  428TMC3    C2 6433   2.807   3.874  15.451  1.2598 -0.0999 -0.3073
  428TMC3    C3 6434   2.907   3.860  15.540  0.3274 -0.5073  0.1197
  428TMC3    C4 6435   2.896   4.086  15.382  0.4291 -0.1984  0.7694
  428TMC3    C5 6436   2.992   4.067  15.479 -0.1125 -0.7737 -0.1826
  428TMC3    C6 6437   3.003   3.955  15.558  0.4395 -0.5175 -0.2122
  428TMC3     C 6438   2.723   3.972  15.245  0.0782 -0.2927  0.2530
  428TMC3     O 6439   2.698   3.862  15.199  0.0850 -0.0200  0.0175
  428TMC3     H 6440   2.738   3.791  15.436  0.1761  0.8221 -0.4807
  428TMC3    H1 6441   2.909   4.158  15.302  0.6857 -1.3714 -0.2428
  428TMC3    H2 6442   3.092   3.951  15.619 -0.4515  1.2555  1.2056
  428TMC3    C7 6443   3.110   4.155  15.474 -0.0835  0.1928 -0.6332
  428TMC3    C8 6444   2.914   3.748  15.628 -0.7055 -0.5983 -0.3628
  428TMC3    O1 6445   3.149   4.220  15.566 -0.4952 -0.3924  0.9641
  428TMC3    O2 6446   2.908   3.637  15.575 -0.3272 -0.0180  0.4998
  429MPD2     C 6447   3.750   0.203  17.078  0.0301  0.0393  0.1061
  429MPD2    C1 6448   3.878   0.145  17.083  0.0026  0.0134  0.1612
  429MPD2    C2 6449   3.976   0.228  17.035 -0.3742 -0.1515  0.7369
  429MPD2    C3 6450   3.957   0.363  17.000 -0.6043  0.4306 -0.8028
  429MPD2    C4 6451   3.833   0.422  17.015 -0.3636 -0.1987  0.4617
  429MPD2    C5 6452   3.728   0.339  17.055 -0.1812  0.0092 -0.5303
  429MPD2     H 6453   4.077   0.188  17.036 -0.7706 -1.1079  2.1792
  429MPD2    H1 6454   3.811   0.526  16.991 -0.8995 -0.0513  1.5885
  429MPD2    H2 6455   3.662   0.144  17.099  0.3179 -1.1591 -2.0004
  429MPD2    H3 6456   3.624   0.371  17.055 -1.0961 -2.9599 -2.2075
  429MPD2     N 6457   4.068   0.435  16.968  0.2357 -0.2764 -0.0455
  429MPD2    H5 6458   4.156   0.387  16.951  0.3236 -0.2503  0.3464
  429MPD2    N1 6459   3.917   0.008  17.120  0.1144 -0.0998  0.3573
  429MPD2    H7 6460   4.018   4.738  17.123  0.3155  1.5641 -0.7800
  430TMC3    C1 6461   4.190   0.622  16.887 -0.4409  0.1250 -0.6638
  430TMC3    C2 6462   4.168   0.721  16.794  0.4014  0.2654 -0.0213
  430TMC3    C3 6463   4.250   0.735  16.687 -0.3784 -0.5110 -0.0237
  430TMC3    C4 6464   4.300   0.547  16.884  0.6146 -0.0531 -0.3305
  430TMC3    C5 6465   4.384   0.562  16.778  0.0970 -0.3550 -0.2082
  430TMC3    C6 6466   4.367   0.657  16.681 -0.2510  0.1009  0.5354
  430TMC3     C 6467   4.066   0.575  16.955 -0.2743  0.2143 -0.2959
  430TMC3     O 6468   3.988   0.655  17.010 -0.2916 -0.3024  0.0174
  430TMC3     H 6469   4.076   0.778  16.784  0.1270 -0.3772 -1.2216
  430TMC3    H1 6470   4.316   0.476  16.964 -0.2283 -0.1160 -0.2209
  430TMC3    H2 6471   4.438   0.674  16.601  0.3840 -0.0247  1.0708
  430TMC3    C7 6472   4.425   0.433  16.728 -0.2201  0.2007  0.1690
  430TMC3    C8 6473   4.192   0.743  16.550 -0.0250  0.7366  0.3141
  430TMC3    O1 6474   4.414   0.341  16.804 -0.7070  0.2470 -0.4475
  430TMC3    O2 6475   4.227   0.661  16.468 -0.0980 -0.0288  0.7039
  431MPD2     C 6476   0.171   4.660  12.195  0.1992 -0.5145 -0.0094
  431MPD2    C1 6477   0.271   4.597  12.128  0.1163 -0.0097  0.2376
  431MPD2    C2 6478   0.237   4.542  12.003  0.6567  0.3432  0.8037
  431MPD2    C3 6479   0.112   4.563  11.951  0.1410  0.8070 -0.3520
  431MPD2    C4 6480   0.012   4.629  12.032  0.2483 -0.3103  0.9832
  431MPD2    C5 6481   0.040   4.684  12.151 -0.1327  0.3801  0.5523
  431MPD2     H 6482   0.316   4.486  11.956 -0.5769  1.1088 -2.1368
  431MPD2    H1 6483   4.658   4.645  11.983 -0.1248 -0.9240  1.5053
  431MPD2    H2 6484   0.179   4.689  12.299  0.1655 -1.0348  0.1382
  431MPD2    H3 6485   4.709   4.736  12.213  0.4352  1.9242 -0.0635
  431MPD2     N 6486   0.061   4.509  11.834  0.3005  0.4472  0.8907
  431MPD2    H5 6487   4.702   4.524  11.819 -0.0832 -1.2815  1.7154
  431MPD2    N1 6488   0.404   4.576  12.174 -0.2811 -0.5382  0.5877
  431MPD2    H7 6489   0.472   4.525  12.118 -2.6355  0.4283 -3.1218
  432TMC3    C1 6490   0.054   4.347  11.668 -0.3015 -0.2410 -0.1172
  432TMC3    C2 6491   0.128   4.292  11.568 -1.0662  0.6430 -0.1990
  432TMC3    C3 6492   0.120   4.155  11.552 -0.3567 -0.5546  0.1820
  432TMC3    C4 6493   4.729   4.266  11.762  0.1248 -0.8748  0.9047
  432TMC3    C5 6494   0.016   4.135  11.753  0.3031 -0.2266  0.3811
  432TMC3    C6 6495   0.057   4.077  11.643 -0.0548 -1.2292 -0.0498
  432TMC3     C 6496   0.136   4.444  11.741  0.2220 -0.4562  0.0760
  432TMC3     O 6497   0.253   4.439  11.742 -0.1392  0.1784  0.7573
  432TMC3     H 6498   0.201   4.349  11.511 -1.4664 -0.3634 -1.7371
  432TMC3    H1 6499   4.686   4.306  11.853  0.0794  1.0084  0.0594
  432TMC3    H2 6500   0.072   3.970  11.637 -0.9737 -1.2378 -2.0542
  432TMC3    C7 6501   0.086   4.083  11.868 -0.0461  0.2664  0.5039
  432TMC3    C8 6502   0.216   4.085  11.466 -0.3340 -0.0566 -0.2627
  432TMC3    O1 6503   0.135   3.972  11.870  0.7417 -0.1611 -0.4244
  432TMC3    O2 6504   0.170   3.984  11.413 -0.1019 -0.3300  0.4757
  433MPD2     C 6505   4.144   3.067  10.891  0.5641 -0.1814 -0.0235
  433MPD2    C1 6506   4.119   2.935  10.931 -0.1551 -0.4439 -0.4404
  433MPD2    C2 6507   4.150   2.902  11.063 -0.4060  0.6007  0.8164
  433MPD2    C3 6508   4.211   2.989  11.152  0.3357 -0.2038 -0.2903
  433MPD2    C4 6509   4.235   3.119  11.107  0.1634  0.0167  0.2301
  433MPD2    C5 6510   4.204   3.155  10.981 -0.3221 -0.5450 -0.3012
  433MPD2     H 6511   4.128   2.799  11.091  0.4528  0.4185  0.7951
  433MPD2    H1 6512   4.288   3.190  11.170 -0.8661  0.9089  0.0788
  433MPD2    H2 6513   4.119   3.107  10.794 -0.7125  0.7289  0.6774
  433MPD2    H3 6514   4.226   3.253  10.942 -0.1750 -0.3237  0.3346
  433MPD2     N 6515   4.248   2.937  11.280  0.2027 -0.6654 -0.2335
  433MPD2    H5 6516   4.231   2.837  11.292 -0.7884 -0.3782  0.7179
  433MPD2    N1 6517   4.048   2.846  10.848  0.3695 -0.0216  0.8589
  433MPD2    H7 6518   4.048   2.864  10.748  1.4013 -1.1550  0.6467
  434TMC3    C1 6519   3.987   2.628  10.771  0.2069  0.0913  0.2178
  434TMC3    C2 6520   4.021   2.501  10.806  0.1672  0.1744 -0.1769
  434TMC3    C3 6521   4.094   2.425  10.714  0.6550 -0.2039 -0.0536
  434TMC3    C4 6522   4.014   2.672  10.641  0.2264  1.3117 -0.8851
  434TMC3    C5 6523   4.079   2.593  10.549  0.6353  0.0316  0.6881
  434TMC3    C6 6524   4.117   2.468  10.582  0.6013 -0.3278  0.2419
  434TMC3     C 6525   4.002   2.719  10.884  0.6229  0.8401  0.9346
  434TMC3     O 6526   3.968   2.689  11.000 -0.0855 -0.0964 -0.2372
  434TMC3     H 6527   4.016   2.476  10.911  1.2223 -2.0189 -0.6655
  434TMC3    H1 6528   3.969   2.766  10.614 -1.2754  0.1774 -2.2964
  434TMC3    H2 6529   4.158   2.399  10.509  0.6066  2.0791 -2.0426
  434TMC3    C7 6530   4.040   2.608  10.409  0.2729  0.4031 -0.0869
  434TMC3    C8 6531   4.188   2.331  10.776 -0.6292  0.4752  0.4362
  434TMC3    O1 6532   4.122   2.557  10.331  0.1125  0.4566 -0.3047
  434TMC3    O2 6533   4.158   2.284  10.890  0.4467  0.1213  0.0086
  435MPD2     C 6534   1.234   3.517  15.311  0.2668  0.0236 -0.6539
  435MPD2    C1 6535   1.183   3.487  15.433  0.1226  0.9607  0.0544
  435MPD2    C2 6536   1.257   3.398  15.515 -0.1671  0.8602  0.0001
  435MPD2    C3 6537   1.379   3.335  15.468 -0.1184  0.2558 -0.6767
  435MPD2    C4 6538   1.426   3.380  15.348 -0.1417  0.3647  0.4454
  435MPD2    C5 6539   1.352   3.461  15.268 -0.2672 -0.0263 -0.5699
  435MPD2     H 6540   1.221   3.391  15.617  0.0603  1.3009  0.1092
  435MPD2    H1 6541   1.520   3.341  15.310  0.2430  0.2363  1.4983
  435MPD2    H2 6542   1.195   3.594  15.246 -0.8780  0.7454  0.8796
  435MPD2    H3 6543   1.392   3.495  15.173 -1.1675 -1.2332 -1.3812
  435MPD2     N 6544   1.446   3.248  15.553  1.0163 -0.8266  0.7601
  435MPD2    H5 6545   1.408   3.234  15.646 -0.5177  0.7662  0.3561
  435MPD2    N1 6546   1.056   3.541  15.483  0.4200  0.2727  0.1815
  435MPD2    H7 6547   1.033   3.504  15.574  0.2850  0.0910  0.0741
  436TMC3    C1 6548   0.736   3.656  15.698 -0.3814 -0.1748 -0.1913
  436TMC3    C2 6549   0.849   3.647  15.622 -0.2923  0.4682  0.1136
  436TMC3    C3 6550   0.850   3.626  15.490 -0.3495  0.0506  0.0588
  436TMC3    C4 6551   0.616   3.638  15.637 -0.3458 -0.2045 -0.4453
  436TMC3    C5 6552   0.620   3.620  15.502 -0.3101 -0.4479 -0.3571
  436TMC3    C6 6553   0.732   3.612  15.425 -0.3035 -0.3776  0.1616
  436TMC3     C 6554   0.743   3.700  15.831  1.0120  0.0638 -0.6008
  436TMC3     O 6555   0.848   3.752  15.873  1.0843 -0.4936  0.1006
  436TMC3     H 6556   0.940   3.681  15.671 -0.2885  1.3847 -0.5283
  436TMC3    H1 6557   0.518   3.637  15.684  0.1107 -1.5866  0.4829
  436TMC3    H2 6558   0.741   3.595  15.319  0.1933  0.1080  0.1279
  436TMC3    C7 6559   0.502   3.562  15.445  0.4798  1.1673  0.0379
  436TMC3    C8 6560   0.972   3.623  15.414  0.1902 -0.6478 -0.0003
  436TMC3    O1 6561   0.518   3.458  15.383  0.8403 -0.8209 -0.6381
  436TMC3    O2 6562   0.982   3.665  15.299 -0.0206  0.4246 -0.0070
  437TMC3    C1 6563   0.382   0.527  11.563  0.5253  0.2519 -0.5149
  437TMC3    C2 6564   0.390   0.576  11.438 -0.2164 -0.0091 -0.4240
  437TMC3    C3 6565   0.500   0.557  11.371 -0.6609 -0.1243 -0.3913
  437TMC3    C4 6566   0.485   0.468  11.627  0.3685 -0.3880 -0.5367
  437TMC3    C5 6567   0.603   0.453  11.553  0.1694 -0.5998  0.2927
  437TMC3    C6 6568   0.613   0.504  11.427  0.4648 -0.0808 -0.4038
  437TMC3     C 6569   0.247   0.524  11.620  0.7891 -0.1521 -0.3500
  437TMC3     O 6570   0.154   0.547  11.544 -0.2560  0.3683 -0.5198
  437TMC3     H 6571   0.305   0.624  11.391  0.5483 -0.6941 -2.5088
  437TMC3    H1 6572   0.473   0.413  11.720 -0.1990 -0.3362 -0.5775
  437TMC3    H2 6573   0.703   0.488  11.370  0.0454 -1.3880 -0.7043
  437TMC3    C7 6574   0.696   0.346  11.584  0.6429 -0.1311 -0.0918
  437TMC3    C8 6575   0.503   0.584  11.232 -0.4242 -0.5875  0.7560
  437TMC3    O1 6576   0.754   0.278  11.501 -0.4213  0.1009 -0.2624
  437TMC3    O2 6577   0.615   0.612  11.187 -0.7115 -0.1721 -0.0222
  438MPD2     C 6578   1.972   1.377  16.526  0.2107  0.7973 -0.0214
  438MPD2    C1 6579   2.027   1.265  16.587  0.0217 -0.4379  0.5958
  438MPD2    C2 6580   2.009   1.250  16.725  0.1151 -1.1036 -0.6091
  438MPD2    C3 6581   1.940   1.343  16.795 -0.4931  0.1502  0.2762
  438MPD2    C4 6582   1.896   1.453  16.733 -0.6825  0.2719  0.6887
  438MPD2    C5 6583   1.905   1.475  16.600 -0.4123 -0.0892  0.3020
  438MPD2     H 6584   2.049   1.161  16.772 -0.2209 -0.4533  0.9100
  438MPD2    H1 6585   1.858   1.538  16.788 -2.6394  0.5698 -1.1071
  438MPD2    H2 6586   1.967   1.393  16.419  3.9379  0.5570 -0.2595
  438MPD2    H3 6587   1.852   1.559  16.556  2.0942  0.4512 -1.6999
  438MPD2     N 6588   1.913   1.330  16.931 -0.1486 -0.6175  0.1140
  438MPD2    H5 6589   1.866   1.406  16.979 -0.0812 -1.9004  2.2321
  438MPD2    N1 6590   2.095   1.164  16.512 -0.1297  0.1423 -0.3212
  438MPD2    H7 6591   2.142   1.094  16.567  2.3878  0.0877 -2.5686
  439TMC3    C1 6592   2.213   1.061  16.336 -0.0654 -0.3117 -0.0789
  439TMC3    C2 6593   2.202   0.994  16.218  0.4451  0.2396 -0.0613
  439TMC3    C3 6594   2.287   0.891  16.186  0.4037 -0.4307 -0.0584
  439TMC3    C4 6595   2.306   1.029  16.432 -0.1470 -0.1905  0.1524
  439TMC3    C5 6596   2.395   0.934  16.392  0.1984 -0.3379  0.1285
  439TMC3    C6 6597   2.384   0.862  16.273 -0.5528 -0.4020 -0.6455
  439TMC3     C 6598   2.108   1.157  16.374  0.3443 -0.1153  0.0611
  439TMC3     O 6599   2.044   1.211  16.286 -0.8293 -0.5660  0.3511
  439TMC3     H 6600   2.111   1.021  16.165 -0.6873 -1.1601  1.1554
  439TMC3    H1 6601   2.323   1.077  16.528 -0.5005  0.5166 -0.1367
  439TMC3    H2 6602   2.449   0.779  16.247 -1.5570 -1.3434 -0.1352
  439TMC3    C7 6603   2.505   0.913  16.482 -0.3784  0.4276  0.3253
  439TMC3    C8 6604   2.293   0.847  16.048 -0.2929  0.2431 -0.4713
  439TMC3    O1 6605   2.480   0.918  16.601 -0.1701 -0.2579  0.2733
  439TMC3    O2 6606   2.377   0.756  16.030 -0.6267  0.4065  0.1809
  440MPD2     C 6607   0.647   1.283  14.639 -0.7704 -0.0460  0.5668
  440MPD2    C1 6608   0.734   1.373  14.708 -0.2234 -0.3089  0.3481
  440MPD2    C2 6609   0.841   1.325  14.782 -0.1173 -0.2785 -0.1300
  440MPD2    C3 6610   0.852   1.190  14.805  0.2874 -0.4730  0.1940
  440MPD2    C4 6611   0.766   1.104  14.741 -0.2950  0.0159 -0.5183
  440MPD2    C5 6612   0.661   1.151  14.664  0.7898 -0.3364 -0.3042
  440MPD2     H 6613   0.904   1.389  14.843 -0.3650  1.6986 -1.9153
  440MPD2    H1 6614   0.774   0.999  14.766 -0.4217  0.0423 -0.3679
  440MPD2    H2 6615   0.563   1.319  14.580  1.2905  1.7742 -1.2685
  440MPD2    H3 6616   0.600   1.069  14.626 -1.0400  1.5140 -1.3158
  440MPD2     N 6617   0.943   1.131  14.899 -0.2751 -0.5512 -0.1440
  440MPD2    H5 6618   0.926   1.032  14.914 -1.1958 -0.4472 -0.5104
  440MPD2    N1 6619   0.737   1.514  14.688 -0.3434 -0.2868 -0.3127
  440MPD2    H7 6620   0.792   1.569  14.753 -0.3165 -0.1244 -0.4725
  441TMC3    C1 6621   1.123   1.113  15.066  0.3849 -0.3592 -0.0633
  441TMC3    C2 6622   1.243   1.169  15.107 -0.8546  0.0097  0.2957
  441TMC3    C3 6623   1.291   1.126  15.224 -0.6915  1.3688 -0.2283
  441TMC3    C4 6624   1.056   1.010  15.135  0.3875 -0.1941 -0.5002
  441TMC3    C5 6625   1.120   0.963  15.244 -0.1211  0.1020 -0.4925
  441TMC3    C6 6626   1.240   1.027  15.291 -0.0132 -0.4578  0.7562
  441TMC3     C 6627   1.039   1.199  14.973  0.7112 -0.1274  0.8065
  441TMC3     O 6628   1.064   1.320  14.980 -0.3491  0.5028 -0.9229
  441TMC3     H 6629   1.291   1.241  15.041 -0.6520  0.5814  1.0576
  441TMC3    H1 6630   0.950   0.994  15.119 -0.1886  2.2049  0.8069
  441TMC3    H2 6631   1.288   0.992  15.381  0.2108  1.0428  1.2274
  441TMC3    C7 6632   1.033   0.923  15.354  0.3909  0.2067  0.1057
  441TMC3    C8 6633   1.328   1.229  15.320  0.6723  0.4987 -0.1555
  441TMC3    O1 6634   0.931   0.990  15.362  0.3157  0.2620 -0.0261
  441TMC3    O2 6635   1.399   1.204  15.416 -0.0835  0.3057  0.4247
  442MPD2     C 6636   3.929   2.233  16.498  0.0561  0.8626 -0.0545
  442MPD2    C1 6637   3.802   2.185  16.499  0.0813 -0.8078  0.4419
  442MPD2    C2 6638   3.763   2.077  16.418  0.2144 -0.4301 -0.0825
  442MPD2    C3 6639   3.858   2.026  16.333  0.0493 -0.4705 -0.0995
  442MPD2    C4 6640   3.985   2.080  16.328  0.9376  0.3315  0.4678
  442MPD2    C5 6641   4.022   2.178  16.414 -0.0921  0.1487  0.0223
  442MPD2     H 6642   3.659   2.047  16.417  0.1827 -0.3532  1.1295
  442MPD2    H1 6643   4.061   2.036  16.264 -0.0335 -1.3062  0.4303
  442MPD2    H2 6644   3.962   2.311  16.565 -0.3420  0.0374  1.1060
  442MPD2    H3 6645   4.124   2.209  16.427 -0.9569  2.6371  0.7631
  442MPD2     N 6646   3.830   1.922  16.238  0.2353 -0.0616 -0.3579
  442MPD2    H5 6647   3.901   1.910  16.167  1.4827  0.6444  0.7750
  442MPD2    N1 6648   3.698   2.245  16.576  0.4399 -0.0455  0.0899
  442MPD2    H7 6649   3.608   2.198  16.576  0.3552  0.1109 -1.3791
  443TMC3    C1 6650   3.580   2.416  16.675 -0.0532  0.0862  0.6344
  443TMC3    C2 6651   3.517   2.530  16.624  0.1502  0.1818 -0.1597
  443TMC3    C3 6652   3.385   2.550  16.656  0.0905 -0.1375  0.3985
  443TMC3    C4 6653   3.516   2.330  16.762  0.6439  0.5705  0.1106
  443TMC3    C5 6654   3.386   2.359  16.796  0.3621  0.5472 -0.0139
  443TMC3    C6 6655   3.316   2.467  16.742  0.0665  0.1729  0.9806
  443TMC3     C 6656   3.709   2.371  16.623  0.9108 -0.2395  0.7521
  443TMC3     O 6657   3.790   2.458  16.590 -0.3181 -0.0792  0.0090
  443TMC3     H 6658   3.561   2.589  16.544 -1.3371 -1.0141 -1.8628
  443TMC3    H1 6659   3.568   2.246  16.806  2.5268  1.7405  0.1345
  443TMC3    H2 6660   3.209   2.478  16.753  0.1507  0.4898  1.5015
  443TMC3    C7 6661   3.316   2.245  16.848 -0.1421  0.3068  0.8497
  443TMC3    C8 6662   3.311   2.610  16.547  0.2995  0.4365  0.5529
  443TMC3    O1 6663   3.373   2.139  16.827 -0.5707  0.2618  0.1585
  443TMC3    O2 6664   3.350   2.719  16.510 -0.1524 -0.3523 -0.5350
  444MPD2     C 6665   3.945   1.722  16.936 -0.6609  0.5721 -0.6394
  444MPD2    C1 6666   3.837   1.654  16.874 -0.4198 -0.1048  0.0204
  444MPD2    C2 6667   3.871   1.549  16.792  0.5690 -0.3123 -0.1081
  444MPD2    C3 6668   4.003   1.508  16.761 -0.5516  0.7042  0.0973
  444MPD2    C4 6669   4.106   1.583  16.826  0.7943 -0.3245 -0.3068
  444MPD2    C5 6670   4.077   1.682  16.914 -0.0031  0.5998  0.2882
  444MPD2     H 6671   3.794   1.499  16.734  1.4003 -0.6193 -0.9457
  444MPD2    H1 6672   4.211   1.561  16.809  0.9985  1.4793 -1.3294
  444MPD2    H2 6673   3.930   1.806  17.003 -0.7525  1.3831 -1.6851
  444MPD2    H3 6674   4.158   1.727  16.970  0.6002 -0.3027  0.1400
  444MPD2     N 6675   4.028   1.401  16.668  0.3622 -0.0906 -0.0451
  444MPD2    H5 6676   3.952   1.370  16.608 -2.8349  0.3668  3.7611
  444MPD2    N1 6677   3.699   1.674  16.909  0.1711 -0.0819 -0.0218
  444MPD2    H7 6678   3.631   1.610  16.870  0.6232 -0.9472  0.6241
  445TMC3    C1 6679   4.161   1.267  16.515 -0.1472  0.3152  0.0286
  445TMC3    C2 6680   4.065   1.255  16.419 -0.2334 -0.6731 -0.2119
  445TMC3    C3 6681   4.068   1.174  16.311  0.7904  0.6457  0.2772
  445TMC3    C4 6682   4.276   1.199  16.495  0.3573  0.2772  0.1379
  445TMC3    C5 6683   4.285   1.115  16.380 -0.5037 -0.4091  0.0157
  445TMC3    C6 6684   4.187   1.100  16.286 -1.0785 -0.5159 -0.1634
  445TMC3     C 6685   4.148   1.351  16.634 -0.5430 -0.7627  0.2742
  445TMC3     O 6686   4.253   1.383  16.688  0.4793  0.0573 -0.2909
  445TMC3     H 6687   3.976   1.314  16.437  1.1329  1.6747 -1.1079
  445TMC3    H1 6688   4.366   1.202  16.555  1.5579  0.3259 -1.6417
  445TMC3    H2 6689   4.218   1.059  16.191 -2.2059  1.3861 -1.3302
  445TMC3    C7 6690   4.408   1.045  16.352 -0.4460 -0.6300  0.8549
  445TMC3    C8 6691   3.979   1.197  16.200  0.1208 -0.0703 -0.3024
  445TMC3    O1 6692   4.507   1.093  16.401  0.3311  0.3492 -0.4868
  445TMC3    O2 6693   3.923   1.303  16.185  0.7964 -0.0838  0.0796
  446MPD2     C 6694   3.736   2.065  11.346  0.0845  0.1817 -0.1047
  446MPD2    C1 6695   3.717   2.191  11.294 -0.9729  0.5371  0.8768
  446MPD2    C2 6696   3.827   2.271  11.260 -0.7108 -0.0486  0.4189
  446MPD2    C3 6697   3.959   2.220  11.281  0.0666  0.0065  0.1583
  446MPD2    C4 6698   3.969   2.095  11.335  0.2101 -0.3124 -0.4029
  446MPD2    C5 6699   3.859   2.016  11.357  0.1907  1.0979 -0.3572
  446MPD2     H 6700   3.808   2.363  11.206  0.7636 -0.6951 -1.1920
  446MPD2    H1 6701   4.066   2.060  11.369  0.0840  1.2545  1.5538
  446MPD2    H2 6702   3.655   2.002  11.382 -1.0749  0.5833 -1.9919
  446MPD2    H3 6703   3.881   1.923  11.407 -0.4272  0.7157 -0.7944
  446MPD2     N 6704   4.085   2.277  11.253  0.2042 -0.0475 -0.3142
  446MPD2    H5 6705   4.172   2.227  11.269  0.4662  0.2246 -0.9161
  446MPD2    N1 6706   3.581   2.249  11.277 -0.5194 -0.4906  0.1499
  446MPD2    H7 6707   3.573   2.339  11.230  1.1478 -1.3248 -1.7559
  447TMC3    C1 6708   4.240   2.442  11.177  0.1222 -0.3368  0.2913
  447TMC3    C2 6709   4.253   2.517  11.068  0.2733  0.5280 -0.0842
  447TMC3    C3 6710   4.375   2.531  11.011  0.1403 -0.2029 -0.1741
  447TMC3    C4 6711   4.345   2.380  11.229  0.4189  0.6589 -0.1145
  447TMC3    C5 6712   4.474   2.404  11.181 -0.2506  0.2647 -0.3275
  447TMC3    C6 6713   4.489   2.486  11.069 -0.0343  0.0518 -0.8085
  447TMC3     C 6714   4.100   2.405  11.205 -0.5012 -0.2632 -0.4976
  447TMC3     O 6715   4.018   2.493  11.205 -0.8173 -0.7060 -0.1331
  447TMC3     H 6716   4.166   2.560  11.020  0.5641  0.8208 -0.3424
  447TMC3    H1 6717   4.330   2.325  11.321 -0.4626  1.1794  0.0575
  447TMC3    H2 6718   4.587   2.497  11.026  0.0182  2.3098 -0.1472
  447TMC3    C7 6719   4.588   2.331  11.235  0.1823 -0.3492  0.1047
  447TMC3    C8 6720   4.383   2.594  10.877 -0.4945  0.4492  0.5250
  447TMC3    O1 6721   4.656   2.271  11.156  0.3072  0.0105 -0.6114
  447TMC3    O2 6722   4.290   2.665  10.845  0.3899 -0.2182  0.1144
  448TMC3    C1 6723   2.159   2.695  16.407  0.0716 -0.2595 -0.1442
  448TMC3    C2 6724   2.126   2.568  16.375 -0.1112 -0.2795  0.1176
  448TMC3    C3 6725   2.128   2.483  16.481  0.3015 -0.3864  0.1125
  448TMC3    C4 6726   2.193   2.743  16.529  0.2444 -0.6328  0.5628
  448TMC3    C5 6727   2.188   2.656  16.634  0.0193  1.4354  0.8054
  448TMC3    C6 6728   2.159   2.527  16.613 -0.9036  0.3135  0.2808
  448TMC3     C 6729   2.093   2.791  16.318 -0.0070  0.4154 -0.1337
  448TMC3     O 6730   2.091   2.754  16.200  0.3334 -0.1155  0.1953
  448TMC3     H 6731   2.140   2.535  16.273 -1.0505 -0.9899  0.2153
  448TMC3    H1 6732   2.240   2.839  16.542  0.2903 -0.5758 -0.0260
  448TMC3    H2 6733   2.163   2.446  16.685  1.0161 -0.5550 -0.7770
  448TMC3    C7 6734   2.283   2.680  16.727  0.6641  0.1000 -0.0929
  448TMC3    C8 6735   2.127   2.331  16.471 -0.1575  0.5095  0.2190
  448TMC3    O1 6736   2.390   2.718  16.692 -0.3245  0.4350 -0.8080
  448TMC3    O2 6737   2.179   2.270  16.565 -0.3498 -0.3168  0.3493
  449MPD2     C 6738   3.706   1.086  13.718  0.4136 -0.3162  0.1820
  449MPD2    C1 6739   3.580   1.136  13.719 -0.3128  0.3315  0.3620
  449MPD2    C2 6740   3.485   1.072  13.793  0.3579  0.0964 -0.2846
  449MPD2    C3 6741   3.499   0.956  13.862  0.0706  0.1099 -0.4655
  449MPD2    C4 6742   3.629   0.904  13.865 -0.2077 -0.1005 -0.6118
  449MPD2    C5 6743   3.733   0.976  13.799 -0.1850  0.2614  0.1525
  449MPD2     H 6744   3.382   1.105  13.781 -0.3243 -1.9554 -0.1277
  449MPD2    H1 6745   3.653   0.812  13.918 -1.2317 -1.3052 -2.1940
  449MPD2    H2 6746   3.788   1.131  13.662 -0.6203  0.6991 -0.5105
  449MPD2    H3 6747   3.833   0.936  13.798 -0.1853  0.2740 -0.2304
  449MPD2     N 6748   3.381   0.896  13.904 -0.0850 -0.1430 -0.0734
  449MPD2    H5 6749   3.296   0.942  13.875  1.1715  2.8774  1.0405
  449MPD2    N1 6750   3.534   1.252  13.652 -0.1872  0.6596  0.0130
  449MPD2    H7 6751   3.439   1.272  13.681 -0.3315 -1.0379  0.7217
  450TMC3    C1 6752   3.518   1.425  13.501 -0.1784  0.4693  0.2860
  450TMC3    C2 6753   3.529   1.423  13.358 -0.9911  0.1767  0.2432
  450TMC3    C3 6754   3.408   1.419  13.288 -0.6155 -0.1119 -0.0503
  450TMC3    C4 6755   3.396   1.447  13.553 -0.0579  0.4392  0.2921
  450TMC3    C5 6756   3.279   1.443  13.480 -0.0891  0.2332  0.2212
  450TMC3    C6 6757   3.282   1.417  13.348  0.1351 -0.5732  0.1324
  450TMC3     C 6758   3.606   1.333  13.565  0.8410  0.1340 -0.8800
  450TMC3     O 6759   3.707   1.304  13.509 -0.0691 -0.1236  0.6334
  450TMC3     H 6760   3.622   1.410  13.304 -0.5586  2.5882  0.4175
  450TMC3    H1 6761   3.381   1.443  13.661 -1.8438  2.2526  0.1160
  450TMC3    H2 6762   3.189   1.406  13.293 -0.6287  1.4463  1.0127
  450TMC3    C7 6763   3.191   1.355  13.553  0.2781 -0.2293  0.2472
  450TMC3    C8 6764   3.416   1.435  13.143  0.6332  0.7359 -0.3808
  450TMC3    O1 6765   3.251   1.272  13.622  0.0892 -0.8180  0.6837
  450TMC3    O2 6766   3.322   1.469  13.075 -0.7302 -0.1254  0.1582
  451MPD2     C 6767   0.096   4.496   0.946  0.8502  0.2139 -0.0247
  451MPD2    C1 6768   0.123   4.561   0.830 -0.0123  0.3125  0.2379
  451MPD2    C2 6769   0.223   4.520   0.747 -0.8710 -0.8940 -0.2780
  451MPD2    C3 6770   0.294   4.397   0.778 -0.0214 -0.4030  0.3240
  451MPD2    C4 6771   0.259   4.329   0.893 -0.1192  0.5590  0.4001
  451MPD2    C5 6772   0.163   4.386   0.979  0.5693  0.4029  0.2166
  451MPD2     H 6773   0.251   4.582   0.663 -1.5498  0.7566  0.7101
  451MPD2    H1 6774   0.305   4.235   0.921  0.7011  0.5264 -1.0431
  451MPD2    H2 6775   0.019   4.523   1.017  1.5421  0.7761  0.5100
  451MPD2    H3 6776   0.143   4.339   1.075 -0.7013  1.5888  0.5341
  451MPD2     N 6777   0.395   4.348   0.684 -0.2042  0.5498 -0.5501
  451MPD2    H5 6778   0.463   4.295   0.737  1.3658 -0.1542 -3.3119
  451MPD2    N1 6779   0.048   4.674   0.791  0.3742  0.4304 -0.1741
  451MPD2    H7 6780   4.730   4.709   0.866 -0.3811  0.2164 -0.6577
  452TMC3    C1 6781   0.330   4.440   0.465  0.4923  0.2311 -0.0975
  452TMC3    C2 6782   0.197   4.392   0.476 -0.0859 -0.2842 -0.1157
  452TMC3    C3 6783   0.106   4.416   0.371  0.1417 -0.0861  0.0813
  452TMC3    C4 6784   0.367   4.497   0.345 -0.0652  0.6631 -0.3687
  452TMC3    C5 6785   0.278   4.520   0.244  1.0523  0.5833 -0.2081
  452TMC3    C6 6786   0.149   4.480   0.253 -0.1061  1.0775 -0.1018
  452TMC3     C 6787   0.431   4.393   0.555  0.3193 -0.7535  0.0464
  452TMC3     O 6788   0.540   4.380   0.498 -0.6979 -0.1669  0.3204
  452TMC3     H 6789   0.164   4.340   0.565 -1.0373  1.0028  0.2802
  452TMC3    H1 6790   0.473   4.517   0.344  0.0056  0.3726  1.2267
  452TMC3    H2 6791   0.070   4.519   0.190  1.3113  1.3348 -1.7345
  452TMC3    C7 6792   0.322   4.575   0.122 -0.0075 -0.3869 -0.6038
  452TMC3    C8 6793   4.707   4.443   0.404  0.6446 -0.8201 -0.3645
  452TMC3    O1 6794   0.241   4.626   0.046 -0.0601  0.0825  0.1476
  452TMC3    O2 6795   4.637   4.502   0.317  0.2748 -0.1387  0.3192
  453TMC3    C1 6796   1.000   1.664  12.116  0.2790  0.0617  0.1149
  453TMC3    C2 6797   0.960   1.567  12.200 -0.4896  0.7338 -0.5821
  453TMC3    C3 6798   0.948   1.440  12.141 -0.6656  0.3752  0.4993
  453TMC3    C4 6799   1.007   1.648  11.979  0.0373 -0.0289 -0.5821
  453TMC3    C5 6800   0.970   1.528  11.928  0.4776  0.2596  0.2146
  453TMC3    C6 6801   0.943   1.420  12.009  0.3754 -0.1945  0.1977
  453TMC3     C 6802   1.101   1.760  12.165  0.9436 -0.5470  0.5922
  453TMC3     O 6803   1.189   1.785  12.086 -0.5729  0.2499  0.5479
  453TMC3     H 6804   0.954   1.585  12.307 -1.7597 -1.2277 -0.3018
  453TMC3    H1 6805   1.025   1.730  11.912 -4.5964  1.6999  0.2927
  453TMC3    H2 6806   0.930   1.324  11.960 -0.2033  0.2350 -0.4940
  453TMC3    C7 6807   1.006   1.503  11.789  0.4986  0.1298  0.1192
  453TMC3    C8 6808   0.923   1.324  12.220 -0.5180  0.2480 -0.7175
  453TMC3    O1 6809   0.985   1.592  11.706  0.5049 -0.3609 -0.0554
  453TMC3    O2 6810   0.839   1.347  12.310 -0.4088 -0.1814 -0.0007
  454MPD2     C 6811   0.026   1.246  15.977 -0.1525 -0.1065  0.3421
  454MPD2    C1 6812   4.708   1.329  15.888 -0.7513  0.4823  0.4332
  454MPD2    C2 6813   4.675   1.459  15.915  0.3231 -0.0999 -0.9081
  454MPD2    C3 6814   4.692   1.516  16.039  0.7316 -0.3368 -0.5320
  454MPD2    C4 6815   0.009   1.436  16.136 -0.5316 -0.4419  0.4315
  454MPD2    C5 6816   0.049   1.303  16.105  0.3028  0.2560  0.9982
  454MPD2     H 6817   4.625   1.520  15.840 -1.2961  0.5054  0.6624
  454MPD2    H1 6818   0.023   1.463  16.240  0.8578  0.2325  0.0729
  454MPD2    H2 6819   0.052   1.143  15.954  0.3397  0.4136 -1.4290
  454MPD2    H3 6820   0.109   1.254  16.180  1.3909  0.2718  0.1412
  454MPD2     N 6821   4.649   1.649  16.079  0.8764 -0.4218  0.4054
  454MPD2    H5 6822   4.634   1.661  16.179  2.1544 -1.5192  0.7345
  454MPD2    N1 6823   4.684   1.295  15.755  0.1069 -0.0980 -0.2420
  454MPD2    H7 6824   4.640   1.371  15.704  1.2287  1.7100  1.4811
  455TMC3    C1 6825   4.432   1.736  16.055 -0.0418  0.5667 -0.2114
  455TMC3    C2 6826   4.422   1.776  16.181 -0.0841  0.0393 -0.0276
  455TMC3    C3 6827   4.333   1.713  16.261 -0.4845 -0.2146 -0.2588
  455TMC3    C4 6828   4.355   1.634  16.001 -0.6332 -0.3229  0.2722
  455TMC3    C5 6829   4.274   1.567  16.083 -0.1702 -0.3489 -0.6948
  455TMC3    C6 6830   4.253   1.613  16.214 -0.2369  0.3567 -0.1575
  455TMC3     C 6831   4.566   1.727  15.997 -1.0901 -0.3422 -0.3538
  455TMC3     O 6832   4.581   1.742  15.875  0.6789  0.2439  0.5005
  455TMC3     H 6833   4.488   1.853  16.218  1.2114 -1.6589  1.1692
  455TMC3    H1 6834   4.376   1.594  15.903 -1.6692 -1.2951  0.4484
  455TMC3    H2 6835   4.198   1.545  16.277  0.3328 -0.6124 -0.7038
  455TMC3    C7 6836   4.308   1.434  16.082 -0.3016  0.0458  0.1125
  455TMC3    C8 6837   4.303   1.773  16.393  0.0505  0.1320 -0.4361
  455TMC3    O1 6838   4.374   1.385  16.174 -0.0721 -0.1683 -0.3342
  455TMC3    O2 6839   4.391   1.845  16.438  0.0954 -0.4221  0.5637
  456MPD2     C 6840   2.332   1.244  15.877  0.2653  0.1866  0.1632
  456MPD2    C1 6841   2.427   1.195  15.965 -0.1991 -0.4250  0.0640
  456MPD2    C2 6842   2.417   1.241  16.099  0.3838 -0.1799  0.2252
  456MPD2    C3 6843   2.318   1.335  16.132 -0.2747 -0.2769 -0.8913
  456MPD2    C4 6844   2.227   1.377  16.044 -0.0516  0.0565  0.4073
  456MPD2    C5 6845   2.241   1.339  15.915  0.2020 -0.4327 -0.0025
  456MPD2     H 6846   2.481   1.208  16.179  0.7290 -1.2196 -0.4786
  456MPD2    H1 6847   2.149   1.447  16.072  1.7181  2.3624 -0.3300
  456MPD2    H2 6848   2.329   1.210  15.775 -1.3580  1.3378 -0.1908
  456MPD2    H3 6849   2.175   1.369  15.834  0.7728 -1.9638 -1.0498
  456MPD2     N 6850   2.297   1.394  16.260 -0.5386  0.2412  0.2006
  456MPD2    H5 6851   2.207   1.441  16.264 -1.5348 -1.5970 -0.8121
  456MPD2    N1 6852   2.524   1.104  15.922  0.7049  0.5877  0.4118
  456MPD2    H7 6853   2.543   1.103  15.822 -1.4623 -0.8701  0.0079
  457TMC3    C1 6854   2.333   1.461  16.477  0.5299  0.4715  0.0869
  457TMC3    C2 6855   2.275   1.581  16.438 -0.3980 -0.0145 -0.7587
  457TMC3    C3 6856   2.232   1.662  16.539  0.0857 -0.2577  0.7721
  457TMC3    C4 6857   2.346   1.432  16.610  0.0723 -0.3865 -0.0682
  457TMC3    C5 6858   2.307   1.526  16.704  0.0272 -0.0935 -0.1389
  457TMC3    C6 6859   2.248   1.643  16.673  0.7332  0.7862  0.6088
  457TMC3     C 6860   2.382   1.378  16.370  0.1352  0.4245  0.0517
  457TMC3     O 6861   2.473   1.305  16.394  0.3784  0.7201 -0.0114
  457TMC3     H 6862   2.273   1.617  16.336 -0.8076 -0.9569 -1.0836
  457TMC3    H1 6863   2.393   1.340  16.644  2.2770  1.5616  2.1769
  457TMC3    H2 6864   2.212   1.710  16.750  0.1861  2.6692 -1.2948
  457TMC3    C7 6865   2.378   1.519  16.834  0.6223 -0.5097  0.7653
  457TMC3    C8 6866   2.178   1.784  16.516 -0.1252  0.5502 -0.1255
  457TMC3    O1 6867   2.398   1.403  16.871  0.4711  0.3363 -0.1193
  457TMC3    O2 6868   2.201   1.874  16.599  0.0901  0.0473  0.2681
  458MPD2     C 6869   1.001   0.188  11.949 -0.3030 -0.5732  0.4159
  458MPD2    C1 6870   0.911   0.263  12.022  0.0282  0.4424 -0.1236
  458MPD2    C2 6871   0.804   0.313  11.940  0.1203 -0.4710 -0.8132
  458MPD2    C3 6872   0.798   0.283  11.803  0.0004 -0.6584 -0.0256
  458MPD2    C4 6873   0.894   0.201  11.739  0.5525 -0.1569 -0.4838
  458MPD2    C5 6874   0.999   0.161  11.814  0.5609  0.9241  0.5414
  458MPD2     H 6875   0.724   0.372  11.983  1.5125  0.2193  0.8310
  458MPD2    H1 6876   0.892   0.167  11.636 -1.3380  0.5818 -0.6879
  458MPD2    H2 6877   1.083   0.141  12.004 -1.2522 -1.3086  1.2134
  458MPD2    H3 6878   1.066   0.092  11.765  1.1633  0.7187  1.6574
  458MPD2     N 6879   0.704   0.350  11.724  0.0346 -0.5025 -0.2606
  458MPD2    H5 6880   0.651   0.425  11.767 -0.5044 -0.4421 -1.0427
  458MPD2    N1 6881   0.922   0.271  12.157  0.0836  0.3167  0.4707
  458MPD2    H7 6882   1.010   0.241  12.198  0.9358 -1.9435 -3.0197
  459TMC3    C1 6883   0.874   0.328  12.372  0.8719  0.4727 -0.2556
  459TMC3    C2 6884   1.005   0.370  12.386  0.0636  0.8567 -0.9253
  459TMC3    C3 6885   1.052   0.393  12.514  0.4120 -0.2830 -0.6474
  459TMC3    C4 6886   0.789   0.328  12.483 -0.0906  0.5928  0.4285
  459TMC3    C5 6887   0.839   0.348  12.606  0.8575 -0.3258 -0.6873
  459TMC3    C6 6888   0.973   0.377  12.629 -0.2377 -0.4395  0.0946
  459TMC3     C 6889   0.823   0.320  12.236  0.3575 -0.4706  0.7781
  459TMC3     O 6890   0.702   0.332  12.214  0.6782  0.0956  0.7986
  459TMC3     H 6891   1.064   0.397  12.299 -0.3105  2.1687 -0.7616
  459TMC3    H1 6892   0.684   0.303  12.472 -0.3471  1.3641  1.1514
  459TMC3    H2 6893   1.012   0.382  12.730  1.0123  1.4925 -0.4868
  459TMC3    C7 6894   0.754   0.335  12.724 -0.5697  0.4330 -0.6481
  459TMC3    C8 6895   1.181   0.454  12.527  0.3759  0.9389 -0.4565
  459TMC3    O1 6896   0.692   0.231  12.745 -0.3194  0.1660 -0.3540
  459TMC3    O2 6897   1.236   0.484  12.423 -0.4579  0.5357  0.5515
  460MPD2     C 6898   4.659   2.597  10.633 -0.1174  1.0001 -0.3630
  460MPD2    C1 6899   4.532   2.621  10.677  0.3670  0.0989 -0.2153
  460MPD2    C2 6900   4.460   2.699  10.600  0.1381 -0.3594 -0.1564
  460MPD2    C3 6901   4.496   2.755  10.481  0.3548  0.3637  0.7529
  460MPD2    C4 6902   4.627   2.735  10.441  0.2965  0.0658  0.3866
  460MPD2    C5 6903   4.708   2.656  10.516  0.4725  0.1035 -0.4749
  460MPD2     H 6904   4.364   2.718  10.646 -0.2821  0.5002 -1.4052
  460MPD2    H1 6905   4.660   2.772  10.345  1.3628 -1.3716  0.1993
  460MPD2    H2 6906   4.723   2.541  10.700 -1.2817 -1.4263 -1.2840
  460MPD2    H3 6907   0.067   2.624  10.489  0.5890  0.9795 -1.0832
  460MPD2     N 6908   4.402   2.833  10.408 -0.6576 -0.5596  0.0147
  460MPD2    H5 6909   4.309   2.844  10.448 -0.3320 -0.8442  0.8476
  460MPD2    N1 6910   4.501   2.574  10.806  0.1588  0.6456 -0.1927
  460MPD2    H7 6911   4.577   2.522  10.848 -0.5499 -1.2937 -1.2999
  461TMC3    C1 6912   4.322   2.983  10.271 -0.6184  0.0931 -0.1228
  461TMC3    C2 6913   4.212   2.908  10.229  0.6666  0.0863  0.1766
  461TMC3    C3 6914   4.152   2.956  10.116  0.5314  0.1930  0.0850
  461TMC3    C4 6915   4.362   3.105  10.221 -0.2008 -0.3585  0.5066
  461TMC3    C5 6916   4.285   3.152  10.115  0.4065 -0.0737 -0.5904
  461TMC3    C6 6917   4.189   3.075  10.056  0.1583 -0.0915 -0.5430
  461TMC3     C 6918   4.428   2.899  10.291  0.2964 -0.2427  0.1125
  461TMC3     O 6919   4.529   2.913  10.226  0.5496  0.0054 -0.2287
  461TMC3     H 6920   4.193   2.804  10.253  2.9008 -0.2920  0.3099
  461TMC3    H1 6921   4.448   3.153  10.264  0.7964  0.2988 -2.1872
  461TMC3    H2 6922   4.138   3.112   9.968  0.1260  1.0782 -0.0339
  461TMC3    C7 6923   4.318   3.281  10.044 -0.2245  0.0641  0.3624
  461TMC3    C8 6924   4.095   2.862  10.035  0.4049 -0.1015  0.0622
  461TMC3    O1 6925   4.240   3.321   9.960 -1.2393  0.0762  0.1161
  461TMC3    O2 6926   4.156   2.760  10.018 -0.2951  0.0192 -0.9099
  462TMC3    C1 6927   4.245   0.011  17.705 -0.0735  0.2513  0.4787
  462TMC3    C2 6928   4.349   4.685   0.013  0.3394 -0.1620 -0.2936
  462TMC3    C3 6929   4.322   4.582   0.097  0.2641  0.7926  0.3890
  462TMC3    C4 6930   4.115   4.717  17.722 -0.8224 -0.2061  0.5031
  462TMC3    C5 6931   4.095   4.614   0.050  0.0844  0.2224 -0.0853
  462TMC3    C6 6932   4.191   4.553   0.123  0.2342 -0.1384 -0.1707
  462TMC3     C 6933   4.267   0.072  17.576  1.1409 -0.2001 -0.2489
  462TMC3     O 6934   4.177   0.075  17.499  0.3291 -0.0059  0.2242
  462TMC3     H 6935   4.449   4.690  17.730  0.0091  2.4811 -0.7837
  462TMC3    H1 6936   4.041   0.028  17.663 -0.8610 -0.1171  0.6292
  462TMC3    H2 6937   4.161   4.463   0.176 -0.6729  0.9118  1.1045
  462TMC3    C7 6938   4.004   4.517  17.748 -0.3315 -0.8533 -0.1199
  462TMC3    C8 6939   4.403   4.461   0.084 -0.1581  0.3588  0.1937
  462TMC3    O1 6940   4.043   4.403  17.741 -0.1921  0.0781  0.0284
  462TMC3    O2 6941   4.476   4.461  17.742  0.1825  0.0655  0.8613
  463MPD2     C 6942   1.103   2.210   1.286  0.4299 -0.1259 -0.2503
  463MPD2    C1 6943   1.056   2.335   1.295  0.3240 -0.2078 -0.0585
  463MPD2    C2 6944   1.142   2.438   1.328 -1.1076  0.2591  0.1377
  463MPD2    C3 6945   1.280   2.422   1.324  0.3506  0.2461  0.2748
  463MPD2    C4 6946   1.327   2.291   1.312  0.5653 -0.2054  0.5474
  463MPD2    C5 6947   1.236   2.192   1.292 -0.1155 -0.6971 -0.8512
  463MPD2     H 6948   1.100   2.536   1.346 -1.8032  0.3450 -1.9830
  463MPD2    H1 6949   1.432   2.270   1.292  0.2509 -0.5528 -0.7632
  463MPD2    H2 6950   1.049   2.116   1.276  0.9066 -0.3045 -1.0942
  463MPD2    H3 6951   1.266   2.090   1.271  1.8533 -0.8633  2.8621
  463MPD2     N 6952   1.369   2.527   1.338 -0.1460 -0.1967 -0.0549
  463MPD2    H5 6953   1.466   2.499   1.336 -0.0444  0.1842 -0.3977
  463MPD2    N1 6954   0.917   2.360   1.298 -0.1859  0.6812 -0.2073
  463MPD2    H7 6955   0.882   2.455   1.289  0.7594  1.1198  0.7714
  464TMC3    C1 6956   0.691   2.321   1.258 -0.1534 -0.7587 -0.2524
  464TMC3    C2 6957   0.673   2.455   1.271 -0.0895 -0.5953 -0.2969
  464TMC3    C3 6958   0.566   2.516   1.216  0.4365  0.8649 -0.0398
  464TMC3    C4 6959   0.595   2.238   1.200 -0.3670 -0.3854 -0.4400
  464TMC3    C5 6960   0.481   2.302   1.160 -0.0520 -0.6578 -0.2439
  464TMC3    C6 6961   0.464   2.440   1.168  0.1668 -0.7191  0.1657
  464TMC3     C 6962   0.817   2.259   1.289 -0.6590 -0.7144  0.7472
  464TMC3     O 6963   0.820   2.133   1.301 -0.0336 -0.3662  0.7983
  464TMC3     H 6964   0.733   2.515   1.338 -0.3404 -1.2400  0.5074
  464TMC3    H1 6965   0.609   2.130   1.203 -0.9612 -0.3911  1.5964
  464TMC3    H2 6966   0.375   2.483   1.123  0.9918  1.3640  0.5199
  464TMC3    C7 6967   0.393   2.215   1.082  0.4317 -0.1256 -0.1788
  464TMC3    C8 6968   0.539   2.654   1.227 -0.2795 -0.3013 -0.2040
  464TMC3    O1 6969   0.449   2.114   1.032 -0.1884 -0.6366  0.3348
  464TMC3    O2 6970   0.422   2.687   1.225 -0.0617 -0.5593 -0.5280
  465MPD2     C 6971   1.764   1.773  16.736  0.9448  0.3518 -0.0270
  465MPD2    C1 6972   1.646   1.693  16.721  0.4588  0.4861  0.6478
  465MPD2    C2 6973   1.595   1.682  16.597 -0.7847  0.1607  0.2630
  465MPD2    C3 6974   1.655   1.749  16.491 -0.3138  0.5863 -0.1063
  465MPD2    C4 6975   1.768   1.823  16.507 -0.0230  0.0218 -1.2249
  465MPD2    C5 6976   1.817   1.845  16.632  0.4254  0.1613  0.1197
  465MPD2     H 6977   1.502   1.626  16.591 -0.6099 -0.1412  0.3686
  465MPD2    H1 6978   1.819   1.871  16.424 -0.6174  1.8200 -0.5332
  465MPD2    H2 6979   1.795   1.785  16.839  1.9056 -2.0186 -0.0264
  465MPD2    H3 6980   1.903   1.909  16.642 -0.4757  1.4770 -0.5237
  465MPD2     N 6981   1.598   1.729  16.366 -0.1821 -0.5699 -1.2179
  465MPD2    H5 6982   1.517   1.667  16.364  0.6458 -1.6958 -0.2402
  465MPD2    N1 6983   1.587   1.626  16.827 -0.0439  0.5401 -0.1772
  465MPD2    H7 6984   1.516   1.559  16.799  1.3014 -1.2505  0.6874
  466TMC3    C1 6985   1.324   1.704  16.072 -0.5476  0.1374  0.1736
  466TMC3    C2 6986   1.308   1.820  15.991 -0.0301  0.4074 -0.2359
  466TMC3    C3 6987   1.402   1.920  15.988 -0.1869 -0.3560  0.4754
  466TMC3    C4 6988   1.440   1.693  16.145  0.4700  0.5255  0.0203
  466TMC3    C5 6989   1.533   1.799  16.148 -0.1371 -0.4547  0.2160
  466TMC3    C6 6990   1.506   1.915  16.081 -0.3893  0.1214 -0.0987
  466TMC3     C 6991   1.203   1.655  16.142 -0.1263  0.7432  0.2221
  466TMC3     O 6992   1.220   1.572  16.231  0.1172  0.1859  0.1984
  466TMC3     H 6993   1.228   1.838  15.921 -0.0830  2.1539  0.2755
  466TMC3    H1 6994   1.441   1.614  16.219  0.3688  1.8124  1.3969
  466TMC3    H2 6995   1.582   1.991  16.068  0.0385 -0.2715  0.1249
  466TMC3    C7 6996   1.618   1.813  16.261 -0.1988  0.1017 -0.2380
  466TMC3    C8 6997   1.356   2.054  15.963  0.1572  0.4883  0.2377
  466TMC3    O1 6998   1.686   1.916  16.260  0.2708 -0.0513  0.2263
  466TMC3    O2 6999   1.328   2.085  15.848 -0.3498  0.5778  0.6225
  467TMC3    C1 7000   2.169   4.499  13.843 -0.5738  0.0889 -0.0542
  467TMC3    C2 7001   2.173   4.540  13.719  0.0712 -0.3008  0.0332
  467TMC3    C3 7002   2.076   4.641  13.696 -0.2184  0.4760  0.3647
  467TMC3    C4 7003   2.081   4.532  13.943  0.5166 -1.3352  0.2464
  467TMC3    C5 7004   1.977   4.615  13.909 -0.6166 -0.1515  0.2261
  467TMC3    C6 7005   1.978   4.674  13.785 -0.1947 -0.4350  0.3430
  467TMC3     C 7006   2.298   4.495  13.905  0.8543 -0.2201 -0.3308
  467TMC3     O 7007   2.330   4.592  13.969 -0.0053 -0.7420  0.2591
  467TMC3     H 7008   2.247   4.497  13.652  1.3458  0.3890  0.9767
  467TMC3    H1 7009   2.111   4.496  14.041  1.3797  0.7385  0.7546
  467TMC3    H2 7010   1.904   0.005  13.752  3.0994  2.3088 -1.0815
  467TMC3    C7 7011   1.855   4.603  14.001 -0.5825 -0.5912 -0.4538
  467TMC3    C8 7012   2.123   0.006  13.617  0.2890 -0.6446 -0.5325
  467TMC3    O1 7013   1.745   4.631  13.955 -0.1936  0.1203 -0.1608
  467TMC3    O2 7014   2.110   0.121  13.655  0.0455  0.3016 -0.1178
  468MPD2     C 7015   1.108   2.401  11.177 -0.3478  0.1550 -0.1773
  468MPD2    C1 7016   1.203   2.426  11.078 -0.5560  0.4260 -0.0686
  468MPD2    C2 7017   1.209   2.345  10.963  0.2730 -0.5037  0.5787
  468MPD2    C3 7018   1.140   2.220  10.949 -0.8855  0.2010 -0.6798
  468MPD2    C4 7019   1.048   2.200  11.049  0.4400 -0.5890 -0.4907
  468MPD2    C5 7020   1.036   2.282  11.165 -0.2099 -0.3507  0.1201
  468MPD2     H 7021   1.289   2.376  10.896  0.8333  1.0536  1.9797
  468MPD2    H1 7022   0.983   2.113  11.043 -1.1696  0.7534 -2.6983
  468MPD2    H2 7023   1.092   2.464  11.264 -0.3967  0.1345 -0.1711
  468MPD2    H3 7024   0.972   2.238  11.240 -0.3542  0.2525  0.3569
  468MPD2     N 7025   1.153   2.126  10.841  0.4234 -0.0860  1.0048
  468MPD2    H5 7026   1.108   2.035  10.848  2.9140 -1.5332 -1.8847
  468MPD2    N1 7027   1.289   2.535  11.081 -0.0292  1.2599  0.2078
  468MPD2    H7 7028   1.355   2.541  11.004 -0.8300  1.7587 -0.4438
  469TMC3    C1 7029   1.390   2.733  11.113  0.6161  0.2597 -0.1285
  469TMC3    C2 7030   1.512   2.679  11.075 -0.5018  0.2815  0.5689
  469TMC3    C3 7031   1.613   2.768  11.049 -0.6928 -0.0305  0.7309
  469TMC3    C4 7032   1.373   2.868  11.137  0.0406 -0.2400  0.4637
  469TMC3    C5 7033   1.471   2.953  11.097  0.3656 -0.2819 -0.4635
  469TMC3    C6 7034   1.595   2.902  11.058 -0.2195 -0.3361  0.5731
  469TMC3     C 7035   1.298   2.637  11.170  0.5266 -0.2227  0.3107
  469TMC3     O 7036   1.219   2.676  11.258  0.2509 -0.2490  0.0397
  469TMC3     H 7037   1.525   2.571  11.081  0.3549  0.2981 -0.9988
  469TMC3    H1 7038   1.283   2.910  11.180 -0.3010 -1.2790  0.7402
  469TMC3    H2 7039   1.677   2.969  11.032 -1.7588  2.2963  2.5032
  469TMC3    C7 7040   1.447   3.086  11.135 -0.0829 -0.2451  0.0880
  469TMC3    C8 7041   1.741   2.708  11.020 -0.3315 -0.7374  0.0307
  469TMC3    O1 7042   1.332   3.126  11.134  0.2504  0.0596 -0.6407
  469TMC3    O2 7043   1.731   2.590  10.980 -0.0308  0.0244 -0.0632
  470TMC3    C1 7044   3.120   4.658  17.429 -0.0331 -0.2393  0.1116
  470TMC3    C2 7045   3.170   0.020  17.502  0.2185  0.0905 -0.5598
  470TMC3    C3 7046   3.218   4.727  17.624 -0.0506  0.9778 -0.6077
  470TMC3    C4 7047   3.138   4.533  17.468  0.5728  0.3431  0.2614
  470TMC3    C5 7048   3.178   4.507  17.595 -0.5799  0.0040 -0.0171
  470TMC3    C6 7049   3.227   4.603  17.674 -0.6465 -0.3579  0.2027
  470TMC3     C 7050   3.064   4.678  17.299  0.4874  0.4585  0.4704
  470TMC3     O 7051   3.083   4.593  17.210 -0.2697 -0.1535 -0.6646
  470TMC3     H 7052   3.168   0.116  17.452  1.7219  0.5314  0.2398
  470TMC3    H1 7053   3.091   4.455  17.408 -0.2780 -0.1328  1.5491
  470TMC3    H2 7054   3.256   4.586   0.019 -0.7565  1.4244  0.5361
  470TMC3    C7 7055   3.174   4.372  17.649 -0.4066  0.0616 -0.2914
  470TMC3    C8 7056   3.262   0.087  17.718 -0.0438  0.0582  0.1782
  470TMC3    O1 7057   3.110   4.295  17.582 -0.2037  0.0988  0.0525
  470TMC3    O2 7058   3.343   0.058   0.046 -0.3021 -0.0321 -0.0654
  471MPD2     C 7059   3.752   0.820  16.286 -0.4410 -0.6206  0.2631
  471MPD2    C1 7060   3.847   0.719  16.277  0.8821  0.2032  0.4350
  471MPD2    C2 7061   3.953   0.716  16.362  0.8402 -0.3512 -0.6145
  471MPD2    C3 7062   3.974   0.814  16.456 -1.0409  0.2050 -0.4625
  471MPD2    C4 7063   3.882   0.919  16.472 -0.5794  0.5794 -0.7434
  471MPD2    C5 7064   3.779   0.919  16.381 -0.1753 -0.0410 -0.8812
  471MPD2     H 7065   4.024   0.635  16.353  0.3692 -0.7217 -0.9666
  471MPD2    H1 7066   3.887   1.000  16.543 -1.0054 -0.5948  0.6156
  471MPD2    H2 7067   3.663   0.832  16.225 -1.0742 -0.2798  1.2638
  471MPD2    H3 7068   3.704   0.997  16.392  1.6748  1.6292 -0.0552
  471MPD2     N 7069   4.080   0.824  16.550 -0.4881  0.3109  0.1350
  471MPD2    H5 7070   4.065   0.895  16.621 -0.6869  1.5111 -1.0980
  471MPD2    N1 7071   3.848   0.613  16.180  0.2279 -0.4386 -0.4560
  471MPD2    H7 7072   3.925   0.547  16.177  0.1809 -0.6394  3.4992
  472TMC3    C1 7073   3.789   0.506  15.985  0.2303  0.1653  0.8263
  472TMC3    C2 7074   3.723   0.514  15.867 -0.3593  0.2801  0.2735
  472TMC3    C3 7075   3.728   0.412  15.770 -0.2402 -0.5929 -0.0642
  472TMC3    C4 7076   3.868   0.402  16.014 -0.3520  0.3546  0.6039
  472TMC3    C5 7077   3.858   0.296  15.929 -0.2927  0.2712  0.0931
  472TMC3    C6 7078   3.794   0.302  15.807  0.9602 -0.0606 -0.1478
  472TMC3     C 7079   3.758   0.600  16.083  0.5062 -0.1791  0.6332
  472TMC3     O 7080   3.664   0.671  16.059 -0.6666  0.6006 -0.9634
  472TMC3     H 7081   3.651   0.592  15.845  0.9243  1.0787 -1.0800
  472TMC3    H1 7082   3.912   0.382  16.111 -1.5979  1.3415  1.3861
  472TMC3    H2 7083   3.795   0.226  15.729 -0.6100  1.1191 -1.3204
  472TMC3    C7 7084   3.871   0.159  15.987 -0.1732 -0.6463  0.3973
  472TMC3    C8 7085   3.594   0.376  15.713  0.7771 -0.7038  0.3889
  472TMC3    O1 7086   3.933   0.153  16.089 -0.1698  0.3912  0.3654
  472TMC3    O2 7087   3.536   0.450  15.642  0.0134 -0.0417 -0.2094
  473MPD2     C 7088   3.866   2.083  13.862 -0.3046  0.0532 -0.2689
  473MPD2    C1 7089   3.960   2.158  13.795  0.3704  0.4017  0.6265
  473MPD2    C2 7090   4.010   2.273  13.850  0.1745 -0.6331  0.0408
  473MPD2    C3 7091   3.968   2.323  13.966 -0.6125 -0.4202 -0.4363
  473MPD2    C4 7092   3.870   2.250  14.035  0.0620  0.2323 -0.0858
  473MPD2    C5 7093   3.825   2.128  13.984 -0.1691  0.2725  0.3171
  473MPD2     H 7094   4.082   2.328  13.791 -2.1823  2.0818 -0.2699
  473MPD2    H1 7095   3.843   2.281  14.135 -1.2350  0.8190 -0.6201
  473MPD2    H2 7096   3.842   1.979  13.839  0.2172 -0.6783  2.5530
  473MPD2    H3 7097   3.748   2.071  14.035 -1.2731  1.7192  0.2767
  473MPD2     N 7098   4.017   2.438  14.027  0.3964 -0.1744  0.0507
  473MPD2    H5 7099   3.982   2.458  14.120  0.2584 -0.7252  0.1159
  473MPD2    N1 7100   4.008   2.114  13.675 -0.4567  0.1302  0.1127
  473MPD2    H7 7101   4.079   2.169  13.627  0.4525 -1.8945 -0.8511
  474TMC3    C1 7102   4.116   2.637  14.051 -0.4995 -0.3505  0.3196
  474TMC3    C2 7103   4.011   2.691  14.118  0.5531 -0.6109 -0.5666
  474TMC3    C3 7104   4.031   2.812  14.176  0.0676 -0.4139  0.2600
  474TMC3    C4 7105   4.240   2.689  14.060 -0.1030 -1.0491 -0.9644
  474TMC3    C5 7106   4.255   2.799  14.134 -0.0925 -0.3774 -0.8983
  474TMC3    C6 7107   4.150   2.872  14.191 -0.1055  0.0169  0.5344
  474TMC3     C 7108   4.111   2.524  13.970 -0.2995 -0.1692 -0.2046
  474TMC3     O 7109   4.195   2.510  13.884  0.4336 -0.1996 -0.3258
  474TMC3     H 7110   3.910   2.657  14.095  0.4723 -0.8173  0.1075
  474TMC3    H1 7111   4.331   2.650  14.017 -0.0084  0.1575 -1.8370
  474TMC3    H2 7112   4.172   2.972  14.227 -2.4045 -0.0083  2.0136
  474TMC3    C7 7113   4.388   2.841  14.158  0.0868  0.7681 -0.9519
  474TMC3    C8 7114   3.914   2.864  14.249 -0.5682  0.3948 -0.1494
  474TMC3    O1 7115   4.458   2.839  14.058  0.2416  0.4244  0.5139
  474TMC3    O2 7116   3.820   2.788  14.264 -0.1901  0.1673 -0.2997
  475MPD2     C 7117   2.530   0.579  10.504 -0.1562 -0.4490  0.4124
  475MPD2    C1 7118   2.467   0.696  10.487 -0.2971  0.8196  0.2469
  475MPD2    C2 7119   2.335   0.706  10.532  0.2077  0.2160 -0.4168
  475MPD2    C3 7120   2.274   0.608  10.610 -0.0396 -0.1092  0.2067
  475MPD2    C4 7121   2.335   0.491  10.619 -0.1245 -0.0532  0.4133
  475MPD2    C5 7122   2.464   0.474  10.568 -0.6969  0.4921 -0.6388
  475MPD2     H 7123   2.281   0.798  10.515 -0.2586  0.4066  1.9939
  475MPD2    H1 7124   2.284   0.411  10.671 -0.2002 -0.9116 -0.9625
  475MPD2    H2 7125   2.633   0.562  10.477 -0.2141 -0.1445 -0.0009
  475MPD2    H3 7126   2.512   0.377  10.583 -1.9914  0.4215  3.0335
  475MPD2     N 7127   2.151   0.633  10.676  0.2035 -0.3166 -0.2288
  475MPD2    H5 7128   2.107   0.719  10.644  0.5939 -0.4521 -1.1478
  475MPD2    N1 7129   2.539   0.798  10.425  0.1177  0.7527  0.0620
  475MPD2    H7 7130   2.628   0.778  10.380  1.2995  0.6649  2.4633
  476TMC3    C1 7131   2.600   1.011  10.355 -0.4504  0.4461 -0.0096
  476TMC3    C2 7132   2.683   0.951  10.265 -0.3022  0.1705 -0.0896
  476TMC3    C3 7133   2.788   1.027  10.218  0.3490 -0.4407  0.5590
  476TMC3    C4 7134   2.631   1.137  10.407 -0.3827  0.3175 -0.2884
  476TMC3    C5 7135   2.750   1.198  10.374 -0.7118 -0.4725 -1.1820
  476TMC3    C6 7136   2.824   1.154  10.268 -0.2442  0.0112 -0.3106
  476TMC3     C 7137   2.505   0.930  10.433 -1.0330 -0.0968 -0.0894
  476TMC3     O 7138   2.426   0.982  10.511  0.7092  0.3137 -0.6852
  476TMC3     H 7139   2.651   0.860  10.216  0.1444 -0.3963  0.6721
  476TMC3    H1 7140   2.564   1.166  10.487 -1.0738 -1.2846 -0.2832
  476TMC3    H2 7141   2.906   1.218  10.236  0.0216  0.4929  1.3336
  476TMC3    C7 7142   2.820   1.278  10.470 -0.4794 -0.2099 -0.4173
  476TMC3    C8 7143   2.895   0.966  10.142 -0.1853 -0.1156  0.3697
  476TMC3    O1 7144   2.920   1.346  10.443  0.0511  0.2192  0.0065
  476TMC3    O2 7145   3.004   1.018  10.142  1.0001  0.4341  0.1453
  477MPD2     C 7146   0.283   1.459  11.254 -0.5455  0.0519 -0.1248
  477MPD2    C1 7147   0.217   1.501  11.369  0.3901 -0.2059 -1.2144
  477MPD2    C2 7148   0.273   1.465  11.494  0.0420 -0.3299  0.0183
  477MPD2    C3 7149   0.403   1.424  11.505 -0.2937 -0.6967  0.5932
  477MPD2    C4 7150   0.471   1.395  11.389 -0.1722  0.0284  0.0612
  477MPD2    C5 7151   0.412   1.402  11.265  0.5082  0.1993 -0.5244
  477MPD2     H 7152   0.207   1.485  11.578  2.2550 -0.8918  1.8925
  477MPD2    H1 7153   0.566   1.343  11.384  0.1889  0.7276 -0.3053
  477MPD2    H2 7154   0.248   1.486  11.155  1.9766 -0.0773 -1.0497
  477MPD2    H3 7155   0.461   1.369  11.173  0.0814 -0.6474 -0.4463
  477MPD2     N 7156   0.452   1.391  11.632 -0.0198 -0.1137 -1.0276
  477MPD2    H5 7157   0.383   1.394  11.706  1.4969 -1.9274  0.4602
  477MPD2    N1 7158   0.089   1.563  11.338  0.0996  0.7798 -0.1131
  477MPD2    H7 7159   0.063   1.567  11.240  0.2910 -0.1186 -0.2006
  478TMC3    C1 7160   4.632   1.694  11.367 -0.9803  0.3727 -0.0437
  478TMC3    C2 7161   4.538   1.749  11.453 -0.6615  0.6434  0.5349
  478TMC3    C3 7162   4.471   1.860  11.413  0.4472 -0.1921 -0.2576
  478TMC3    C4 7163   4.660   1.760  11.249  0.2795 -0.0490  0.2581
  478TMC3    C5 7164   4.595   1.878  11.219 -0.5283 -0.5654  0.5141
  478TMC3    C6 7165   4.503   1.936  11.303 -0.0859 -0.6096 -0.3180
  478TMC3     C 7166   4.740   1.610  11.426  0.8893  0.3708  0.0591
  478TMC3     O 7167   0.008   1.621  11.550 -0.0499 -0.7433  0.8807
  478TMC3     H 7168   4.525   1.702  11.550  1.5033 -2.9755 -0.9281
  478TMC3    H1 7169   4.706   1.709  11.165 -0.2221 -2.1953  1.2965
  478TMC3    H2 7170   4.457   2.031  11.277 -0.8020 -1.2053 -1.2069
  478TMC3    C7 7171   4.620   1.929  11.081  0.0469  0.4659  0.8750
  478TMC3    C8 7172   4.361   1.906  11.495 -0.5102  0.4724 -0.2388
  478TMC3    O1 7173   4.706   1.877  11.009  0.0248 -0.0381 -0.2562
  478TMC3    O2 7174   4.294   1.827  11.552 -0.0869 -0.3433  0.1553
  479MPD2     C 7175   3.294   4.256  15.169  0.2804  0.4512 -0.1279
  479MPD2    C1 7176   3.281   4.236  15.304  0.3067 -0.3759  0.2630
  479MPD2    C2 7177   3.373   4.305  15.381 -0.0032  0.7858  0.0913
  479MPD2    C3 7178   3.468   4.395  15.335 -0.5420  0.0066 -0.0244
  479MPD2    C4 7179   3.470   4.412  15.197 -0.1965 -0.0183 -0.4143
  479MPD2    C5 7180   3.386   4.336  15.113 -0.8915 -0.0531  0.3187
  479MPD2     H 7181   3.369   4.286  15.488 -0.7032  0.5526  0.0251
  479MPD2    H1 7182   3.548   4.475  15.155  0.7444 -0.6997  0.2956
  479MPD2    H2 7183   3.220   4.224  15.098  0.6982  1.9832 -1.2653
  479MPD2    H3 7184   3.390   4.339  15.004  0.4734 -1.1759  0.3305
  479MPD2     N 7185   3.570   4.463  15.403  0.0962  0.4800 -0.4858
  479MPD2    H5 7186   3.640   4.505  15.343 -0.3349  0.0482 -1.2962
  479MPD2    N1 7187   3.171   4.154  15.350  0.2905 -0.5356  0.3351
  479MPD2    H7 7188   3.114   4.100  15.285  1.5435 -0.3792 -0.8870
  480TMC3    C1 7189   3.315   4.402  15.752  0.7111  0.2727 -0.1556
  480TMC3    C2 7190   3.217   4.482  15.698  0.1743  0.2673  0.2934
  480TMC3    C3 7191   3.258   4.577  15.605 -0.3322 -0.6787  0.2457
  480TMC3    C4 7192   3.445   4.402  15.711 -1.1580  0.0521 -0.7739
  480TMC3    C5 7193   3.473   4.493  15.612  0.8532  0.4172  0.8817
  480TMC3    C6 7194   3.384   4.575  15.559  0.3154 -0.4325  0.0517
  480TMC3     C 7195   3.288   4.299  15.853 -0.0667 -0.0852  0.7766
  480TMC3     O 7196   3.384   4.248  15.911 -0.2993 -0.4043  0.1529
  480TMC3     H 7197   3.111   4.488  15.720  0.3065 -1.7049  1.4784
  480TMC3    H1 7198   3.516   4.340  15.765 -1.5061  0.8682  0.6153
  480TMC3    H2 7199   3.420   4.666  15.513  1.3878  1.2006  4.0947
  480TMC3    C7 7200   3.594   4.470  15.536 -0.1793  0.7058 -0.3590
  480TMC3    C8 7201   3.156   4.608  15.500 -0.9445  0.1781  0.5147
  480TMC3    O1 7202   3.697   4.509  15.592  0.6898  0.6987  0.3665
  480TMC3    O2 7203   3.040   4.595  15.535 -0.4282 -0.1392  0.4569
  481MPD2     C 7204   0.490   4.145  13.854  0.3135  0.0862 -1.1020
  481MPD2    C1 7205   0.396   4.056  13.883  0.3725  0.3332 -0.2296
  481MPD2    C2 7206   0.402   3.993  14.006 -0.0206  0.4863  1.2444
  481MPD2    C3 7207   0.516   4.000  14.082  0.3260  0.3806 -0.1075
  481MPD2    C4 7208   0.625   4.071  14.037  0.1332 -0.1878  0.0220
  481MPD2    C5 7209   0.604   4.150  13.926 -0.5574 -0.2396 -0.2093
  481MPD2     H 7210   0.320   3.938  14.050 -1.6306  1.2516 -0.7919
  481MPD2    H1 7211   0.714   4.086  14.098 -1.2072  2.0453  1.4225
  481MPD2    H2 7212   0.485   4.216  13.772 -1.4895  2.6646  1.2590
  481MPD2    H3 7213   0.684   4.219  13.905  0.0011 -0.0029  2.7428
  481MPD2     N 7214   0.526   3.945  14.209  0.1275  0.1923 -0.5430
  481MPD2    H5 7215   0.619   3.953  14.249  0.2961 -0.2547 -0.8467
  481MPD2    N1 7216   0.283   4.043  13.794 -0.3954 -0.2306  0.2825
  481MPD2    H7 7217   0.282   4.103  13.713  1.7481 -1.1844 -0.4438
  482TMC3    C1 7218   0.070   3.953  13.717 -0.3043 -0.2844  0.1405
  482TMC3    C2 7219   4.719   3.854  13.734  1.0771 -0.1248  0.2758
  482TMC3    C3 7220   4.605   3.852  13.664  0.2282 -1.3674  0.1317
  482TMC3    C4 7221   0.038   4.063  13.646  0.7600 -0.1170 -0.3966
  482TMC3    C5 7222   4.661   4.067  13.589 -1.0914 -0.2680  0.5043
  482TMC3    C6 7223   4.571   3.961  13.593 -0.6396  0.4632 -1.1110
  482TMC3     C 7224   0.185   3.948  13.811  0.0887  1.3402  0.0022
  482TMC3     O 7225   0.192   3.843  13.874  0.3020 -0.4978  0.3953
  482TMC3     H 7226   4.732   3.763  13.792 -1.2990 -0.7130 -0.1133
  482TMC3    H1 7227   0.106   4.147  13.634  0.4050  0.0414 -1.2873
  482TMC3    H2 7228   4.487   3.972  13.525 -2.0688 -1.2775  0.3781
  482TMC3    C7 7229   4.613   4.183  13.525  0.5813 -0.5405 -0.1312
  482TMC3    C8 7230   4.548   3.725  13.625  0.1058 -0.0262 -0.3364
  482TMC3    O1 7231   4.505   4.223  13.565  0.1180  0.5111 -0.4772
  482TMC3    O2 7232   4.622   3.625  13.622 -0.0204  0.3343  0.0045
  483TMC3    C1 7233   3.111   3.208   0.566  0.1794 -0.3238 -0.0929
  483TMC3    C2 7234   3.202   3.295   0.503  0.4083  0.7083 -0.3159
  483TMC3    C3 7235   3.313   3.327   0.567 -0.1736 -0.1234  0.2413
  483TMC3    C4 7236   3.135   3.165   0.694  0.6890 -0.4377  0.3924
  483TMC3    C5 7237   3.245   3.223   0.759 -0.2571  0.8728 -0.4233
  483TMC3    C6 7238   3.330   3.305   0.697 -0.5209 -0.3197  0.4539
  483TMC3     C 7239   2.997   3.150   0.495 -0.4299 -0.0087 -0.6586
  483TMC3     O 7240   2.927   3.067   0.552 -0.1339  0.2668 -0.3570
  483TMC3     H 7241   3.196   3.319   0.398 -0.9277  0.5318 -0.2816
  483TMC3    H1 7242   3.070   3.111   0.763  0.2696  0.2995  0.5799
  483TMC3    H2 7243   3.419   3.345   0.743  0.2355 -1.6699  0.1963
  483TMC3    C7 7244   3.291   3.148   0.871 -0.1543  0.7884  0.3165
  483TMC3    C8 7245   3.406   3.421   0.499  0.4879  0.5338  0.1224
  483TMC3    O1 7246   3.237   3.043   0.892 -0.4423  0.4094  0.4932
  483TMC3    O2 7247   3.351   3.480   0.407  0.3147 -0.0923  0.7447
  484MPD2     C 7248   1.387   0.477  12.824 -0.2139  0.0291 -0.8958
  484MPD2    C1 7249   1.349   0.515  12.700 -0.6086 -0.4778 -0.2414
  484MPD2    C2 7250   1.442   0.580  12.624  0.8493  0.5364 -0.6287
  484MPD2    C3 7251   1.574   0.602  12.664  0.6603 -0.0965 -0.6369
  484MPD2    C4 7252   1.608   0.561  12.796  0.5297 -0.3307  0.6746
  484MPD2    C5 7253   1.517   0.492  12.866 -0.1748  0.0476  0.1701
  484MPD2     H 7254   1.415   0.600  12.521 -0.8774 -0.9414 -0.4631
  484MPD2    H1 7255   1.704   0.577  12.845  1.1017 -0.9067 -0.2565
  484MPD2    H2 7256   1.315   0.425  12.887 -2.1668  2.3520 -1.1928
  484MPD2    H3 7257   1.552   0.443  12.957 -2.7170 -1.1092  0.5348
  484MPD2     N 7258   1.673   0.655  12.582  0.1943  0.1415 -1.0240
  484MPD2    H5 7259   1.763   0.647  12.627  1.5201  2.6611 -3.2354
  484MPD2    N1 7260   1.217   0.476  12.656  0.1350 -0.4435 -0.1081
  484MPD2    H7 7261   1.159   0.431  12.726  1.1121  0.8926  1.5588
  485TMC3    C1 7262   1.764   0.790  12.406 -0.0992 -0.0415 -1.0412
  485TMC3    C2 7263   1.890   0.773  12.454 -0.1505  0.2977 -0.0787
  485TMC3    C3 7264   1.988   0.848  12.401 -0.0138 -0.0352  0.5638
  485TMC3    C4 7265   1.733   0.883  12.306 -0.3029  0.5136 -0.0128
  485TMC3    C5 7266   1.840   0.954  12.254  0.8473 -0.2990 -0.3213
  485TMC3    C6 7267   1.967   0.944  12.308  0.4468 -0.6848  0.1361
  485TMC3     C 7268   1.653   0.718  12.452 -0.4815 -0.0805 -0.8699
  485TMC3     O 7269   1.546   0.747  12.401 -0.9178 -0.1469  0.3640
  485TMC3     H 7270   1.918   0.698  12.526 -0.8446  0.2679  0.1632
  485TMC3    H1 7271   1.638   0.891  12.254 -0.0646 -1.9456 -0.8510
  485TMC3    H2 7272   2.052   0.993  12.263 -1.0743  0.3888 -1.5780
  485TMC3    C7 7273   1.843   0.963  12.109 -0.4003  0.3262 -0.4104
  485TMC3    C8 7274   2.122   0.837  12.458 -0.1809 -0.5360  0.5061
  485TMC3    O1 7275   1.777   0.874  12.049  0.2864 -0.5385  0.0552
  485TMC3    O2 7276   2.180   0.935  12.502 -0.3559 -0.2871  0.5074
  486MPD2     C 7277   3.450   4.493  13.381 -0.1082  0.1159  0.4127
  486MPD2    C1 7278   3.342   4.446  13.313 -0.7560 -0.0346 -1.0535
  486MPD2    C2 7279   3.264   4.530  13.235 -0.0352 -0.5491 -0.2136
  486MPD2    C3 7280   3.300   4.661  13.218 -0.5291 -0.8792 -0.0502
  486MPD2    C4 7281   3.413   4.712  13.284 -0.3221  0.0168  0.2376
  486MPD2    C5 7282   3.488   4.622  13.357 -0.3162  0.2857  0.1373
  486MPD2     H 7283   3.179   4.490  13.182 -0.1912 -0.5070  0.0033
  486MPD2    H1 7284   3.447   0.074  13.279 -0.8905  0.2449  1.1171
  486MPD2    H2 7285   3.518   4.428  13.435 -1.4123 -2.5766 -1.1968
  486MPD2    H3 7286   3.580   4.659  13.400 -0.2436 -1.5420  1.5174
  486MPD2     N 7287   3.230   4.720  13.113 -0.4374 -0.0531  0.6558
  486MPD2    H5 7288   3.146   4.679  13.073 -1.0179 -0.4063  2.2304
  486MPD2    N1 7289   3.319   4.306  13.316 -0.4173  0.4070  0.1544
  486MPD2    H7 7290   3.354   4.256  13.397 -0.1580  2.3461  1.2488
  487TMC3    C1 7291   3.211   4.106  13.256  0.4530 -1.0479  0.5233
  487TMC3    C2 7292   3.236   3.991  13.185 -0.0619  0.0725 -0.3812
  487TMC3    C3 7293   3.226   3.863  13.240  0.8003 -0.7363  0.5704
  487TMC3    C4 7294   3.163   4.092  13.386  0.1942  0.4895 -0.0910
  487TMC3    C5 7295   3.153   3.965  13.433 -0.4962 -0.2029  0.1228
  487TMC3    C6 7296   3.203   3.853  13.377  0.4535  0.2345  0.4779
  487TMC3     C 7297   3.249   4.240  13.211 -0.0918 -0.5634  0.7514
  487TMC3     O 7298   3.218   4.287  13.101 -0.1536  0.3496  0.2235
  487TMC3     H 7299   3.258   3.998  13.079  1.2708 -2.1538 -0.2288
  487TMC3    H1 7300   3.136   4.177  13.448 -1.0475  0.9996 -1.3243
  487TMC3    H2 7301   3.170   3.760  13.421 -2.1936  1.6644  1.5230
  487TMC3    C7 7302   3.048   3.940  13.526  0.1389 -0.2266 -0.3955
  487TMC3    C8 7303   3.158   3.758  13.167  0.3764 -0.7630 -0.0748
  487TMC3    O1 7304   3.053   3.842  13.603 -0.6512  0.4193 -0.1377
  487TMC3    O2 7305   3.089   3.792  13.074  0.8378  0.1631 -0.1553
  488MPD2     C 7306   3.168   1.372  16.209  0.0869 -0.1353 -0.1251
  488MPD2    C1 7307   3.201   1.494  16.270  0.1366  0.3917  0.9818
  488MPD2    C2 7308   3.176   1.514  16.404 -0.2488  0.3180  0.0734
  488MPD2    C3 7309   3.128   1.406  16.479  0.5646  0.2208 -0.3671
  488MPD2    C4 7310   3.096   1.284  16.414  0.5578  0.3275 -0.2612
  488MPD2    C5 7311   3.098   1.279  16.278 -0.7398  0.0620 -0.1264
  488MPD2     H 7312   3.190   1.608  16.456 -0.9705  0.8246 -0.6541
  488MPD2    H1 7313   3.060   1.195  16.465  1.8268 -0.5791 -0.9381
  488MPD2    H2 7314   3.198   1.356  16.107  1.1017 -0.8532  0.2817
  488MPD2    H3 7315   3.064   1.191  16.226  0.8774 -0.5366 -0.1638
  488MPD2     N 7316   3.109   1.440  16.613  0.4233 -0.3581  0.5142
  488MPD2    H5 7317   3.131   1.535  16.642  0.5177 -0.8259  1.9511
  488MPD2    N1 7318   3.248   1.606  16.198  0.0092 -0.0481  0.2813
  488MPD2    H7 7319   3.265   1.686  16.258  0.6583 -0.9514  1.3042
  489TMC3    C1 7320   3.066   1.419  16.847 -0.2540  0.1509 -0.3168
  489TMC3    C2 7321   3.127   1.536  16.862  0.7664 -0.0060  0.1242
  489TMC3    C3 7322   3.103   1.610  16.974  0.9089  0.6958  0.0350
  489TMC3    C4 7323   2.993   1.362  16.949  0.0476 -0.0424  0.2564
  489TMC3    C5 7324   2.990   1.426  17.071  0.0704 -0.2693 -0.5746
  489TMC3    C6 7325   3.043   1.551  17.080  0.6759 -0.4283  0.2618
  489TMC3     C 7326   3.074   1.354  16.717 -0.1419 -0.4188  0.1640
  489TMC3     O 7327   3.038   1.238  16.711  0.3091  0.2045 -0.2809
  489TMC3     H 7328   3.180   1.590  16.784 -1.4477  0.4426 -1.0844
  489TMC3    H1 7329   2.961   1.260  16.932 -1.8651  0.4793  0.7560
  489TMC3    H2 7330   3.044   1.607  17.173  0.2122  0.6657 -0.3905
  489TMC3    C7 7331   2.967   1.350  17.192 -0.1318  0.1036  0.4306
  489TMC3    C8 7332   3.131   1.752  16.961 -0.0738  1.0849 -0.1473
  489TMC3    O1 7333   3.003   1.395  17.299 -0.3855 -0.2976  0.1926
  489TMC3    O2 7334   3.224   1.786  16.887  0.4580 -0.9854  0.3302
  490MPD2     C 7335   4.230   1.357  17.010 -1.5476 -0.1742 -0.0242
  490MPD2    C1 7336   4.162   1.324  17.127 -0.4360  0.1697  0.0514
  490MPD2    C2 7337   4.217   1.356  17.252  0.4405  0.0067 -0.2980
  490MPD2    C3 7338   4.334   1.427  17.260  0.0542 -0.1091 -0.1531
  490MPD2    C4 7339   4.408   1.460  17.144  0.1194 -1.0135  0.0663
  490MPD2    C5 7340   4.349   1.426  17.022 -0.0802  0.1346 -0.9048
  490MPD2     H 7341   4.160   1.329  17.340  0.1564  1.0340 -0.1603
  490MPD2    H1 7342   4.498   1.518  17.155  0.2314 -1.3461  0.9134
  490MPD2    H2 7343   4.187   1.336  16.913  0.3943  3.2344 -1.6064
  490MPD2    H3 7344   4.396   1.442  16.925 -2.1839  1.7543 -1.6400
  490MPD2     N 7345   4.403   1.469  17.371 -0.5116 -0.5157  0.0286
  490MPD2    H5 7346   4.493   1.512  17.352  0.7990 -2.9130  0.7090
  490MPD2    N1 7347   4.044   1.248  17.128  0.7170  0.1842  0.6825
  490MPD2    H7 7348   4.016   1.211  17.219  0.1680  1.4853  1.0483
  491TMC3    C1 7349   3.888   1.089  17.055 -0.0040  0.2586 -0.4242
  491TMC3    C2 7350   3.936   1.010  17.157  0.1056 -0.1862  0.2041
  491TMC3    C3 7351   3.873   0.892  17.178  0.2993  0.4654  0.0040
  491TMC3    C4 7352   3.798   1.042  16.963 -0.5160 -0.3770 -0.6550
  491TMC3    C5 7353   3.741   0.923  16.986 -0.4748 -0.2417 -0.2452
  491TMC3    C6 7354   3.775   0.846  17.093  0.2948 -0.3134  0.1082
  491TMC3     C 7355   3.968   1.202  17.019  0.2943  0.6184  0.4120
  491TMC3     O 7356   3.991   1.212  16.898  0.1898 -0.0022 -0.1569
  491TMC3     H 7357   4.018   1.036  17.223 -0.2635  0.6928  0.3239
  491TMC3    H1 7358   3.785   1.093  16.868  0.6796 -0.3583 -0.8160
  491TMC3    H2 7359   3.727   0.750  17.108 -0.6741  0.2683  0.7194
  491TMC3    C7 7360   3.681   0.862  16.868  0.1335  0.1785  0.3475
  491TMC3    C8 7361   3.894   0.825  17.300 -0.0596  0.7914  0.0840
  491TMC3    O1 7362   3.688   0.738  16.858  0.1505 -0.2866 -0.2476
  491TMC3    O2 7363   3.919   0.894  17.402  0.3779 -0.6756  0.4842
  492MPD2     C 7364   4.455   0.939  11.056  0.4474 -0.2696  0.1628
  492MPD2    C1 7365   4.330   0.925  11.000 -0.7155 -0.4506  0.3638
  492MPD2    C2 7366   4.224   0.883  11.079 -0.1873 -0.0886  0.1121
  492MPD2    C3 7367   4.237   0.846  11.213  0.1179  0.8038 -0.3658
  492MPD2    C4 7368   4.370   0.856  11.268  0.1018 -0.4029 -0.5858
  492MPD2    C5 7369   4.474   0.907  11.190 -0.7408  0.1718 -0.3806
  492MPD2     H 7370   4.128   0.856  11.037 -1.0777  1.3479  1.2483
  492MPD2    H1 7371   4.387   0.831  11.372 -0.6541  0.5016 -0.2444
  492MPD2    H2 7372   4.542   0.969  10.999 -0.4729  1.6951 -0.2004
  492MPD2    H3 7373   4.570   0.927  11.237 -0.2369  0.7231 -1.6487
  492MPD2     N 7374   4.133   0.815  11.297  0.5713  0.0244 -0.2888
  492MPD2    H5 7375   4.170   0.788  11.388 -0.6467 -0.7428 -0.0252
  492MPD2    N1 7376   4.325   0.935  10.859  0.2280  0.0811 -0.1461
  492MPD2    H7 7377   4.401   0.980  10.809 -0.7073 -0.8237 -2.3908
  493TMC3    C1 7378   4.245   0.939  10.644 -0.0901 -0.0968 -0.4382
  493TMC3    C2 7379   4.369   0.937  10.587 -0.3799  0.0244  0.6504
  493TMC3    C3 7380   4.378   0.898  10.458  0.1438  0.2250  0.1565
  493TMC3    C4 7381   4.140   0.909  10.567 -0.1692  0.1167  0.0042
  493TMC3    C5 7382   4.155   0.881  10.431 -0.5271  0.1147 -0.3025
  493TMC3    C6 7383   4.272   0.888  10.366  0.1449 -1.0219 -0.3506
  493TMC3     C 7384   4.226   0.888  10.780  0.5433 -0.1905 -0.2812
  493TMC3     O 7385   4.134   0.806  10.802 -0.3556  0.2935 -0.5576
  493TMC3     H 7386   4.460   0.939  10.646 -0.7534  0.2330  1.2134
  493TMC3    H1 7387   4.044   0.912  10.617 -0.3275  0.5224 -0.3294
  493TMC3    H2 7388   4.270   0.856  10.262  1.3132 -0.4227 -0.5501
  493TMC3    C7 7389   4.034   0.832  10.366  0.0861  0.5129  0.0913
  493TMC3    C8 7390   4.510   0.845  10.422 -0.2584 -0.3263  0.4365
  493TMC3    O1 7391   4.009   0.852  10.246  0.3362 -0.1468 -0.0526
  493TMC3    O2 7392   4.548   0.778  10.513 -0.4690 -0.4278 -0.0004
  494TMC3    C1 7393   4.735   2.992   0.314 -0.0544  0.4537 -0.4393
  494TMC3    C2 7394   4.658   2.884   0.309 -0.1192  1.1853  0.3742
  494TMC3    C3 7395   4.655   2.817   0.191  0.5154 -0.1140  0.2489
  494TMC3    C4 7396   0.047   3.061   0.206 -0.2887  0.2254 -0.5407
  494TMC3    C5 7397   0.045   2.985   0.090 -0.7058  0.2762 -0.3269
  494TMC3    C6 7398   4.735   2.861   0.088 -0.3685 -0.1012  0.9327
  494TMC3     C 7399   4.722   3.060   0.442  0.3487 -0.0029 -0.2043
  494TMC3     O 7400   4.732   2.989   0.543 -0.2634  0.2460  0.0026
  494TMC3     H 7401   4.613   2.858   0.404 -0.9160 -3.1805 -1.2094
  494TMC3    H1 7402   0.102   3.154   0.212 -1.9162  1.2169 -0.8483
  494TMC3    H2 7403   0.023   2.807  17.757 -0.5774  1.7546 -0.2625
  494TMC3    C7 7404   0.086   3.033  17.716  0.0843  0.2675 -0.3595
  494TMC3    C8 7405   4.598   2.682   0.193  0.7721  0.2402  0.2805
  494TMC3    O1 7406   0.146   2.957  17.644  0.1804 -0.5906 -0.0429
  494TMC3    O2 7407   4.565   2.634   0.304  0.0365  0.0384  0.3718
  495TMC3    C1 7408   3.539   4.418  14.694 -0.3562  0.0984 -0.0037
  495TMC3    C2 7409   3.465   4.418  14.582 -0.3383  0.0704  0.0023
  495TMC3    C3 7410   3.367   4.513  14.559 -0.7019 -0.4542  0.0892
  495TMC3    C4 7411   3.508   4.501  14.796  0.4943  0.0635  0.1503
  495TMC3    C5 7412   3.421   4.600  14.772 -0.7784 -0.6678 -0.3178
  495TMC3    C6 7413   3.349   4.613  14.655  0.0459 -0.4354 -1.1526
  495TMC3     C 7414   3.565   4.284  14.732 -0.0879 -0.3565  0.0835
  495TMC3     O 7415   3.680   4.245  14.722 -0.2492  0.3115  0.2344
  495TMC3     H 7416   3.475   4.333  14.515 -1.4767 -2.3948  3.0003
  495TMC3    H1 7417   3.565   4.507  14.888  0.2262  0.8747  0.2659
  495TMC3    H2 7418   3.266   4.682  14.640  0.1545 -0.0922 -0.1384
  495TMC3    C7 7419   3.363   4.646  14.894 -0.0901  1.0736  0.3868
  495TMC3    C8 7420   3.242   4.466  14.507 -0.0179 -0.1771  0.8156
  495TMC3    O1 7421   3.447   4.680  14.978 -0.0549 -0.5451  0.6790
  495TMC3    O2 7422   3.160   4.550  14.492  0.3508 -0.8232  0.2688
  496MPD2     C 7423   0.226   0.206  15.103  0.1003 -0.4760 -0.0802
  496MPD2    C1 7424   0.252   0.215  15.234 -0.5048  0.2495 -0.4272
  496MPD2    C2 7425   0.152   0.184  15.325 -0.2248  0.0414  0.0141
  496MPD2    C3 7426   0.030   0.130  15.277  0.0556  0.5379  0.4965
  496MPD2    C4 7427   0.012   0.109  15.137 -0.2245  1.5455 -1.0979
  496MPD2    C5 7428   0.114   0.149  15.052 -0.3493 -0.3689  0.3827
  496MPD2     H 7429   0.181   0.194  15.429 -0.3630 -0.0006  0.0572
  496MPD2    H1 7430   4.658   0.064  15.106  1.1310 -1.4786 -0.8806
  496MPD2    H2 7431   0.304   0.243  15.038 -0.3479  0.7988  0.1121
  496MPD2    H3 7432   0.106   0.126  14.946 -2.5133 -0.6675  0.6225
  496MPD2     N 7433   4.682   0.064  15.367  0.0132  0.0381  0.2967
  496MPD2    H5 7434   4.610   0.007  15.323  0.4535  0.5158 -1.0347
  496MPD2    N1 7435   0.375   0.268  15.269 -0.0791  0.7615  0.9949
  496MPD2    H7 7436   0.430   0.313  15.196 -0.4946 -1.2561 -0.5664
  497TMC3    C1 7437   4.634   4.678  15.555 -0.2217  0.1151 -0.6841
  497TMC3    C2 7438   4.588   4.591  15.454  0.1055 -0.3951 -0.1615
  497TMC3    C3 7439   4.647   4.472  15.443  0.1848 -0.0252 -0.1239
  497TMC3    C4 7440   4.724   4.629  15.650 -0.3981 -0.0810 -0.1681
  497TMC3    C5 7441   0.027   4.500  15.641  0.7647 -0.2319 -0.3476
  497TMC3    C6 7442   4.735   4.422  15.532 -0.2448  1.1120 -0.0845
  497TMC3     C 7443   4.681   0.069  15.505  0.5847  0.4147 -0.0343
  497TMC3     O 7444   0.010   0.136  15.580 -0.5420 -0.1793  0.4254
  497TMC3     H 7445   4.507   4.622  15.389 -2.3870 -2.4136  1.9801
  497TMC3    H1 7446   0.022   4.704  15.718 -0.7513  0.6501 -0.7844
  497TMC3    H2 7447   0.057   4.336  15.511 -0.5381  1.0184 -0.5746
  497TMC3    C7 7448   0.140   4.449  15.712  0.9066  0.6851 -0.9083
  497TMC3    C8 7449   4.629   4.416  15.313  0.1691  0.6130  0.9075
  497TMC3    O1 7450   0.144   4.326  15.729 -0.0934 -0.4315  0.4285
  497TMC3    O2 7451   4.570   4.486  15.233 -0.2493  0.1571  0.0323
  498MPD2     C 7452   1.895   0.530  10.450 -0.2984 -0.2195  1.1070
  498MPD2    C1 7453   1.790   0.613  10.408  1.1258  0.5047  0.1451
  498MPD2    C2 7454   1.668   0.557  10.372  0.6584 -0.3374 -0.4382
  498MPD2    C3 7455   1.654   0.412  10.383 -0.3500 -0.3894  0.6296
  498MPD2    C4 7456   1.764   0.333  10.423 -0.3070 -0.0634  0.3878
  498MPD2    C5 7457   1.882   0.392  10.460 -0.6372 -0.3326  0.1481
  498MPD2     H 7458   1.587   0.620  10.337  1.1736  0.2228 -0.6113
  498MPD2    H1 7459   1.757   0.225  10.411 -0.4572 -0.0644  0.4866
  498MPD2    H2 7460   1.997   0.566  10.461 -0.2341 -0.2505  0.6063
  498MPD2    H3 7461   1.966   0.330  10.490  0.7845  1.4540 -0.1102
  498MPD2     N 7462   1.531   0.349  10.352 -0.1676 -0.2990  0.5828
  498MPD2    H5 7463   1.451   0.408  10.333 -0.2205 -0.8634 -1.0135
  498MPD2    N1 7464   1.815   0.755  10.377 -0.2975  0.5047  0.0998
  498MPD2    H7 7465   1.739   0.806  10.333 -0.1862 -0.8641 -1.7307
  499TMC3    C1 7466   1.946   0.954  10.337  0.0742 -0.8213 -0.4770
  499TMC3    C2 7467   2.075   1.004  10.358  0.4466  0.3747 -0.3016
  499TMC3    C3 7468   2.088   1.130  10.314 -0.1781  0.1380 -0.1316
  499TMC3    C4 7469   1.845   1.016  10.286 -0.7134  1.1503 -0.4895
  499TMC3    C5 7470   1.863   1.145  10.253  0.1366 -0.3587  0.1756
  499TMC3    C6 7471   1.983   1.207  10.270  0.1117 -0.6967  0.3926
  499TMC3     C 7472   1.933   0.821  10.395 -0.6774  0.1627 -0.4432
  499TMC3     O 7473   2.038   0.779  10.432  0.2635  0.7483 -0.6579
  499TMC3     H 7474   2.162   0.955  10.401 -0.0323 -0.8744 -0.7584
  499TMC3    H1 7475   1.751   0.966  10.264 -0.1313  0.2675 -0.9895
  499TMC3    H2 7476   1.990   1.315  10.256  2.6229 -0.8548  0.4030
  499TMC3    C7 7477   1.755   1.230  10.207  0.2823 -0.2384  0.4454
  499TMC3    C8 7478   2.204   1.206  10.354 -0.6337  0.1040 -0.3975
  499TMC3    O1 7479   1.798   1.343  10.172  0.2811 -0.2430 -0.2032
  499TMC3    O2 7480   2.241   1.195  10.473  0.3341  0.8538 -0.3257
  500MPD2     C 7481   2.657   2.488  10.369 -0.4995  0.3408  0.5251
  500MPD2    C1 7482   2.727   2.379  10.330 -0.0823 -0.0222 -1.1652
  500MPD2    C2 7483   2.668   2.255  10.319  0.6994 -0.4319 -0.1077
  500MPD2    C3 7484   2.533   2.240  10.346 -0.7761 -0.0716 -0.4902
  500MPD2    C4 7485   2.466   2.348  10.385  0.3476  0.0834 -0.2414
  500MPD2    C5 7486   2.525   2.472  10.390 -0.2706  0.2020 -0.1465
  500MPD2     H 7487   2.723   2.164  10.296 -1.3720 -1.5735 -0.6028
  500MPD2    H1 7488   2.358   2.340  10.389  0.2088  1.3102 -1.6988
  500MPD2    H2 7489   2.700   2.586  10.384 -2.9632  1.2794  1.4310
  500MPD2    H3 7490   2.458   2.555  10.410 -0.1629  0.6342 -1.5684
  500MPD2     N 7491   2.464   2.113  10.331 -0.4448  0.0799 -1.4252
  500MPD2    H5 7492   2.371   2.107  10.372  0.6930  1.1333  1.3050
  500MPD2    N1 7493   2.861   2.384  10.308  0.3637 -0.4455 -0.2228
  500MPD2    H7 7494   2.909   2.295  10.309  0.7796 -0.2034  1.8147
  501TMC3    C1 7495   3.083   2.468  10.316  0.0535  0.3974  0.7192
  501TMC3    C2 7496   3.161   2.500  10.210 -0.2986  0.8852  0.1162
  501TMC3    C3 7497   3.276   2.429  10.203  0.2701 -0.7960 -0.2308
  501TMC3    C4 7498   3.123   2.380  10.419  0.7896  0.3287  0.2392
  501TMC3    C5 7499   3.240   2.316  10.401  0.1229 -0.8673 -1.0337
  501TMC3    C6 7500   3.316   2.334  10.289  0.8365 -0.4255  0.2802
  501TMC3     C 7501   2.941   2.499  10.307 -0.2745 -1.1310  0.1023
  501TMC3     O 7502   2.903   2.603  10.258 -0.3261 -0.3913  0.3258
  501TMC3     H 7503   3.143   2.573  10.132  1.4802 -1.3424 -2.3825
  501TMC3    H1 7504   3.055   2.375  10.503  0.9765 -2.8606  0.2095
  501TMC3    H2 7505   3.404   2.276  10.264  0.8283 -0.3492  0.0743
  501TMC3    C7 7506   3.321   2.264  10.511 -0.4944  0.3626 -0.3985
  501TMC3    C8 7507   3.386   2.488  10.134  0.0839 -0.5897 -0.0751
  501TMC3    O1 7508   3.435   2.226  10.482 -0.1785 -0.2870 -0.5591
  501TMC3    O2 7509   3.382   2.493  10.012 -0.4600 -0.0770 -0.0792
  502TMC3    C1 7510   2.692   0.300  14.571 -0.9829 -0.6317 -0.5148
  502TMC3    C2 7511   2.685   0.397  14.470  0.1775  0.0530 -0.5394
  502TMC3    C3 7512   2.621   0.508  14.508 -0.5512  0.7183 -0.5089
  502TMC3    C4 7513   2.584   0.290  14.657  0.4906 -0.7589 -0.1612
  502TMC3    C5 7514   2.494   0.395  14.668 -0.7384  0.4156  0.1405
  502TMC3    C6 7515   2.515   0.510  14.597 -0.7051  0.2635  0.5482
  502TMC3     C 7516   2.824   0.318  14.643  0.1468 -0.0588  0.3015
  502TMC3     O 7517   2.915   0.338  14.564 -0.2402 -0.3657 -0.4388
  502TMC3     H 7518   2.773   0.389  14.406  2.9837  0.4329  3.2535
  502TMC3    H1 7519   2.588   0.204  14.722  1.8895  0.1670  0.9778
  502TMC3    H2 7520   2.471   0.598  14.642 -0.0723  1.5677 -1.4090
  502TMC3    C7 7521   2.428   0.399  14.794 -0.4157  0.2982 -0.0516
  502TMC3    C8 7522   2.703   0.633  14.514  0.0968  0.1476  0.0071
  502TMC3    O1 7523   2.479   0.332  14.881 -0.1321 -0.0486 -0.4699
  502TMC3    O2 7524   2.649   0.732  14.555 -0.7987 -0.3315  0.3054
  503MPD2     C 7525   0.403   1.757  16.673  0.8556  0.0453 -0.4505
  503MPD2    C1 7526   0.442   1.803  16.794 -0.0387  0.0091  0.5441
  503MPD2    C2 7527   0.486   1.717  16.891 -0.0960  0.4071 -0.1221
  503MPD2    C3 7528   0.496   1.584  16.855 -0.0715 -0.3189  0.4458
  503MPD2    C4 7529   0.452   1.534  16.734 -0.0624 -0.7871  0.1293
  503MPD2    C5 7530   0.413   1.627  16.641  0.1035 -0.1648 -0.4521
  503MPD2     H 7531   0.503   1.743  16.995  3.0706 -1.0454 -0.2649
  503MPD2    H1 7532   0.464   1.431  16.705  1.9487 -0.5454  0.0483
  503MPD2    H2 7533   0.378   1.826  16.593  2.0623 -0.0099 -0.8771
  503MPD2    H3 7534   0.369   1.597  16.546 -0.9431 -1.6260  0.4956
  503MPD2     N 7535   0.539   1.487  16.956  0.1739 -0.6518 -0.0060
  503MPD2    H5 7536   0.572   1.530  17.042 -2.1605  0.5519  0.3043
  503MPD2    N1 7537   0.419   1.932  16.847  0.0122  0.2623 -0.5471
  503MPD2    H7 7538   0.422   1.940  16.949  3.5830  1.5468 -0.7398
  504TMC3    C1 7539   0.638   1.307  17.055  1.0591 -0.0748 -0.2577
  504TMC3    C2 7540   0.640   1.395  17.158  0.2119  0.9251 -0.3165
  504TMC3    C3 7541   0.759   1.425  17.223 -0.8441  0.4649 -0.0743
  504TMC3    C4 7542   0.751   1.243  17.023 -0.2518 -0.5703  0.1627
  504TMC3    C5 7543   0.870   1.274  17.082  0.1956  0.4743  0.2002
  504TMC3    C6 7544   0.875   1.373  17.183 -0.2355  0.0875  0.1394
  504TMC3     C 7545   0.582   1.362  16.935 -0.1067 -0.0965  0.0558
  504TMC3     O 7546   0.585   1.297  16.831  0.1010 -0.5507 -0.4042
  504TMC3     H 7547   0.547   1.436  17.195 -0.0333 -0.0548  0.1537
  504TMC3    H1 7548   0.753   1.187  16.930 -1.5454 -1.6503  0.7855
  504TMC3    H2 7549   0.967   1.420  17.216 -1.2762  2.0413  0.2673
  504TMC3    C7 7550   0.991   1.230  17.028  0.5453 -0.5609 -0.8561
  504TMC3    C8 7551   0.756   1.556  17.276 -0.6206 -0.2063  0.3056
  504TMC3    O1 7552   1.094   1.285  17.067  0.7580 -0.1900 -0.7035
  504TMC3    O2 7553   0.672   1.633  17.229  0.1591  0.1900  0.1001
  505MPD2     C 7554   0.137   4.509  10.223 -0.2189 -0.6583 -0.2027
  505MPD2    C1 7555   0.225   4.417  10.177 -0.1286 -0.2811 -0.7293
  505MPD2    C2 7556   0.288   4.329  10.266  0.3276 -0.6032 -0.3736
  505MPD2    C3 7557   0.265   4.336  10.402 -0.2661  0.1998 -0.2772
  505MPD2    C4 7558   0.176   4.431  10.448  0.3392 -0.6218 -0.4644
  505MPD2    C5 7559   0.114   4.519  10.359  0.0428 -0.1190  0.7424
  505MPD2     H 7560   0.352   4.248  10.232 -0.6934 -1.3251 -0.5748
  505MPD2    H1 7561   0.154   4.453  10.552  0.0638  1.0644 -0.8793
  505MPD2    H2 7562   0.094   4.585  10.159 -0.2924  1.1365  1.9673
  505MPD2    H3 7563   0.070   4.606  10.408 -0.0967  0.4696 -0.4250
  505MPD2     N 7564   0.343   4.251  10.489 -0.1273 -0.2470  0.3988
  505MPD2    H5 7565   0.400   4.179  10.446  0.1670 -0.0526  0.4647
  505MPD2    N1 7566   0.256   4.427  10.043  0.3920 -0.2176  0.4207
  505MPD2    H7 7567   0.212   4.502   9.991 -1.3504 -0.5371  1.4378
  506TMC3    C1 7568   0.356   4.373   9.844  0.1281 -0.2816  0.6307
  506TMC3    C2 7569   0.391   4.501   9.820  0.6062 -0.0330 -0.0359
  506TMC3    C3 7570   0.492   4.519   9.734  0.2724  0.8603  0.3407
  506TMC3    C4 7571   0.426   4.266   9.786 -1.1216 -0.4066  0.7665
  506TMC3    C5 7572   0.541   4.296   9.722 -0.0773 -0.1179 -0.4336
  506TMC3    C6 7573   0.578   4.423   9.689 -0.3994  0.0376 -0.2053
  506TMC3     C 7574   0.329   4.333   9.976 -0.3484 -0.2904  0.0582
  506TMC3     O 7575   0.404   4.242  10.008  0.0776 -0.0514  0.2238
  506TMC3     H 7576   0.353   4.591   9.868 -0.3075 -0.7510  0.5979
  506TMC3    H1 7577   0.394   4.165   9.807 -2.0375  0.0567  1.6159
  506TMC3    H2 7578   0.671   4.440   9.637  0.2184  1.7675  1.4934
  506TMC3    C7 7579   0.651   4.215   9.763  0.1026  0.7863  0.0357
  506TMC3    C8 7580   0.548   4.651   9.725  0.1503 -0.0117 -0.7397
  506TMC3    O1 7581   0.762   4.232   9.709  0.2719  0.5586  0.8431
  506TMC3    O2 7582   0.542   4.710   9.616 -0.0965  0.4837  0.0131
  507TMC3    C1 7583   0.983   0.694  14.795  0.3492  0.0321 -0.4897
  507TMC3    C2 7584   0.954   0.593  14.710 -0.1600  0.2087  0.5503
  507TMC3    C3 7585   0.979   0.605  14.577 -0.3995 -0.1174  0.1920
  507TMC3    C4 7586   1.068   0.787  14.753 -0.1228  0.2130  0.8821
  507TMC3    C5 7587   1.125   0.780  14.624  0.6032 -0.0597  0.3824
  507TMC3    C6 7588   1.074   0.690  14.530  0.4026 -0.2845 -0.5653
  507TMC3     C 7589   0.874   0.739  14.877 -0.2398  0.0680 -0.3142
  507TMC3     O 7590   0.904   0.825  14.963  0.4352  0.1802  0.0571
  507TMC3     H 7591   0.874   0.524  14.736  0.8485 -0.8865  0.7196
  507TMC3    H1 7592   1.112   0.851  14.829 -1.1275  2.7996 -0.7209
  507TMC3    H2 7593   1.092   0.695  14.423 -0.3458 -1.1846 -0.7281
  507TMC3    C7 7594   1.161   0.910  14.568 -0.2050  0.8798 -0.3698
  507TMC3    C8 7595   0.855   0.629  14.502 -0.3569 -0.0554 -0.0672
  507TMC3    O1 7596   1.103   0.921  14.460  0.0503  0.0897 -0.1235
  507TMC3    O2 7597   0.755   0.572  14.550  0.0450  0.1609 -0.3497
  508MPD2     C 7598   2.722   3.178  16.126 -0.3132  0.0256 -0.6860
  508MPD2    C1 7599   2.646   3.281  16.179 -0.4684 -0.4524 -0.0456
  508MPD2    C2 7600   2.602   3.377  16.095  0.8362  0.0718 -0.1493
  508MPD2    C3 7601   2.638   3.374  15.961 -0.7277 -0.3336  0.4527
  508MPD2    C4 7602   2.709   3.268  15.904  0.0247  0.5352  0.7884
  508MPD2    C5 7603   2.753   3.168  15.993 -0.5560  0.4668  0.4003
  508MPD2     H 7604   2.556   3.468  16.132 -0.0529 -0.7760  0.7990
  508MPD2    H1 7605   2.735   3.262  15.799  0.5834  1.8607  0.8515
  508MPD2    H2 7606   2.767   3.110  16.197 -2.2934 -0.5114  0.0315
  508MPD2    H3 7607   2.811   3.083  15.959 -1.1023 -0.1587  1.0421
  508MPD2     N 7608   2.595   3.490  15.891 -0.2696  0.2676 -0.0495
  508MPD2    H5 7609   2.568   3.568  15.951 -1.6543 -0.1178 -0.1665
  508MPD2    N1 7610   2.628   3.288  16.318 -1.0183 -0.5606 -0.1984
  508MPD2    H7 7611   2.680   3.222  16.375 -2.2217 -0.1929  1.3482
  509TMC3    C1 7612   2.444   3.727  15.512 -0.5725  0.0536  0.2205
  509TMC3    C2 7613   2.472   3.850  15.554  0.1466  0.3155  0.9649
  509TMC3    C3 7614   2.526   3.857  15.682  0.6492 -0.4068 -0.5911
  509TMC3    C4 7615   2.468   3.617  15.579 -0.0472 -0.5325 -0.7350
  509TMC3    C5 7616   2.528   3.628  15.701 -0.1940 -0.2890  0.2472
  509TMC3    C6 7617   2.541   3.751  15.765 -0.1463 -0.1045  0.2768
  509TMC3     C 7618   2.355   3.723  15.398  0.4308  0.3357 -0.3121
  509TMC3     O 7619   2.355   3.618  15.337 -0.8863 -0.0650  0.5385
  509TMC3     H 7620   2.475   3.934  15.486 -0.3574  0.7327  1.4544
  509TMC3    H1 7621   2.463   3.519  15.533  1.7354 -1.6087  1.3138
  509TMC3    H2 7622   2.596   3.766  15.857 -1.0558 -0.3372  0.8508
  509TMC3    C7 7623   2.585   3.502  15.756  0.2102  0.5313 -0.0928
  509TMC3    C8 7624   2.597   3.974  15.711 -0.3775 -0.0094 -0.0207
  509TMC3    O1 7625   2.600   3.406  15.676  0.3703  0.5188 -0.4019
  509TMC3    O2 7626   2.697   3.960  15.776  0.0164 -0.6303 -0.1499
  510MPD2     C 7627   4.572   0.168  14.334 -0.1499  0.6588  0.2237
  510MPD2    C1 7628   4.638   0.124  14.445 -0.0424  0.5435  0.5482
  510MPD2    C2 7629   0.032   0.105  14.440 -0.2281  0.4119 -0.0094
  510MPD2    C3 7630   0.106   0.123  14.329 -0.0874  0.3145  0.1734
  510MPD2    C4 7631   0.043   0.159  14.209 -0.5052  0.0357 -0.1335
  510MPD2    C5 7632   4.648   0.189  14.220 -0.7587  0.2984 -0.5523
  510MPD2     H 7633   0.076   0.064  14.530 -1.1897  0.7039  0.5904
  510MPD2    H1 7634   0.095   0.180  14.117  0.0211  0.7469  0.3335
  510MPD2    H2 7635   4.464   0.179  14.329 -0.0573  0.9095 -1.2716
  510MPD2    H3 7636   4.593   0.238  14.141  1.2676  0.8822 -1.5950
  510MPD2     N 7637   0.243   0.099  14.348 -0.1644 -0.1840  0.1700
  510MPD2    H5 7638   0.264   0.098  14.448 -1.5114 -0.2253  0.4440
  510MPD2    N1 7639   4.559   0.084  14.557 -0.3363 -0.2905  0.0347
  510MPD2    H7 7640   4.460   0.093  14.535  0.1477  1.6574 -1.2918
  511TMC3    C1 7641   4.499   0.022  14.770  0.8003 -0.0871 -0.2219
  511TMC3    C2 7642   4.495   0.052  14.903  0.2535  0.0507  0.0186
  511TMC3    C3 7643   4.420   4.710  14.987 -0.5033  0.1772  0.1974
  511TMC3    C4 7644   4.450   4.642  14.723 -0.1100  0.2646  0.7952
  511TMC3    C5 7645   4.389   4.561  14.811 -0.3845  0.3088  0.3418
  511TMC3    C6 7646   4.363   4.594  14.942  0.9149  0.2981  0.1560
  511TMC3     C 7647   4.603   0.080  14.686  0.2870  0.5972  0.9634
  511TMC3     O 7648   4.703   0.130  14.740  0.6598 -0.2008 -0.0066
  511TMC3     H 7649   4.542   0.139  14.948  0.8853  0.7239 -1.9152
  511TMC3    H1 7650   4.465   4.610  14.620  0.3492  0.1983  0.8814
  511TMC3    H2 7651   4.286   4.535  14.990  1.1866 -0.5172 -0.4226
  511TMC3    C7 7652   4.329   4.439  14.751  0.3268 -0.2441  0.4565
  511TMC3    C8 7653   4.372   0.026  15.120  0.3762 -0.8293 -0.0392
  511TMC3    O1 7654   4.341   4.426  14.630  0.7997 -0.3267  0.3379
  511TMC3    O2 7655   4.422   0.132  15.157  0.1710  0.4601 -0.6777
  512TMC3    C1 7656   3.362   4.142  13.775  0.0696 -0.5962  0.2714
  512TMC3    C2 7657   3.476   4.184  13.840 -0.4676  0.1107  1.0719
  512TMC3    C3 7658   3.550   4.093  13.910 -0.1648  0.0394 -0.7626
  512TMC3    C4 7659   3.328   4.015  13.768 -0.0440 -0.0698  0.5805
  512TMC3    C5 7660   3.412   3.928  13.828  0.0741 -0.2199  0.4702
  512TMC3    C6 7661   3.519   3.960  13.905 -0.5736  0.5796  0.4260
  512TMC3     C 7662   3.289   4.243  13.696 -0.3117 -0.0852 -0.2682
  512TMC3     O 7663   3.352   4.327  13.635  0.1549 -0.4287  0.5656
  512TMC3     H 7664   3.497   4.289  13.851  2.3939 -0.2062 -1.2686
  512TMC3    H1 7665   3.241   3.981  13.713  1.1125  0.9186 -1.8129
  512TMC3    H2 7666   3.569   3.886  13.967 -1.5835 -0.2254  0.2744
  512TMC3    C7 7667   3.403   3.790  13.781 -0.1928 -1.0394 -0.9560
  512TMC3    C8 7668   3.684   4.120  13.959  0.1340 -0.0224 -0.2279
  512TMC3    O1 7669   3.435   3.710  13.870  0.2779  0.6780 -0.5870
  512TMC3    O2 7670   3.756   4.031  14.007 -0.1137 -0.3192 -0.0475
  513MPD2     C 7671   0.720   4.014  13.190 -0.2420 -0.0400  0.5857
  513MPD2    C1 7672   0.825   4.113  13.170  0.3009  0.7700  0.1316
  513MPD2    C2 7673   0.839   4.207  13.263  0.6012 -0.2430 -0.2860
  513MPD2    C3 7674   0.763   4.212  13.374 -0.7163  0.0848 -0.4439
  513MPD2    C4 7675   0.656   4.131  13.392  0.6929  0.3192  0.2669
  513MPD2    C5 7676   0.638   4.031  13.296 -0.5170  0.2615  0.1753
  513MPD2     H 7677   0.917   4.280  13.248  0.9132 -0.5277 -0.0530
  513MPD2    H1 7678   0.585   4.129  13.474  0.5002 -1.1257  0.0576
  513MPD2    H2 7679   0.695   3.931  13.125 -2.1895 -0.3309  1.6891
  513MPD2    H3 7680   0.561   3.958  13.317  0.1587  0.0433  1.9345
  513MPD2     N 7681   0.791   4.315  13.467 -0.5150  0.6660  0.1758
  513MPD2    H5 7682   0.869   4.365  13.425 -0.1904 -0.5379 -0.6498
  513MPD2    N1 7683   0.904   4.119  13.051  0.1022 -0.2383  0.4242
  513MPD2    H7 7684   0.966   4.199  13.046  0.1129 -0.3498 -1.1508
  514TMC3    C1 7685   0.979   4.073  12.834  0.4878 -0.1609 -0.1312
  514TMC3    C2 7686   0.901   4.080  12.724 -0.3000 -0.0836 -0.5097
  514TMC3    C3 7687   0.936   4.177  12.634 -0.2049 -0.3899 -0.0974
  514TMC3    C4 7688   1.090   4.148  12.855  0.2946  0.2309  0.0580
  514TMC3    C5 7689   1.130   4.232  12.750  0.2937  0.1300 -0.2665
  514TMC3    C6 7690   1.051   4.255  12.642 -0.5806 -0.6420 -0.9873
  514TMC3     C 7691   0.903   4.034  12.946 -0.7215 -0.0461  0.0943
  514TMC3     O 7692   0.847   3.926  12.944 -0.2593  0.1340 -0.3114
  514TMC3     H 7693   0.816   4.015  12.707  0.5273 -1.9437  2.5192
  514TMC3    H1 7694   1.160   4.111  12.930  0.9695 -1.8168 -1.5711
  514TMC3    H2 7695   1.080   4.321  12.561  1.5778  0.2036  0.4852
  514TMC3    C7 7696   1.224   4.334  12.787 -0.1608  0.2071  0.1075
  514TMC3    C8 7697   0.854   4.197  12.517 -0.1995  0.4725  0.5104
  514TMC3    O1 7698   1.343   4.311  12.764  1.0118 -0.5078  0.1792
  514TMC3    O2 7699   0.732   4.195  12.541 -0.5823 -1.0012 -0.3042
  515MPD2     C 7700   4.224   1.146  14.434 -0.2186  0.2219  0.3806
  515MPD2    C1 7701   4.118   1.211  14.378 -0.0478  0.1098 -0.3072
  515MPD2    C2 7702   4.119   1.352  14.393 -0.5495  0.7638  0.2845
  515MPD2    C3 7703   4.200   1.418  14.472  0.8605  0.2220 -0.3590
  515MPD2    C4 7704   4.302   1.350  14.526  0.0160  0.8926 -0.2716
  515MPD2    C5 7705   4.310   1.216  14.511  0.2684 -0.0311 -0.4301
  515MPD2     H 7706   4.026   1.394  14.356 -0.0327  0.1988 -1.6517
  515MPD2    H1 7707   4.385   1.392  14.582  0.5605 -0.1571 -0.2805
  515MPD2    H2 7708   4.238   1.039  14.422 -0.8370  0.2345 -0.4516
  515MPD2    H3 7709   4.400   1.182  14.561 -1.0009 -2.5536  0.1302
  515MPD2     N 7710   4.182   1.556  14.514  0.1913  0.6004 -0.0469
  515MPD2    H5 7711   4.247   1.600  14.579 -0.3196  0.3700  0.6207
  515MPD2    N1 7712   4.020   1.151  14.292  0.3966  0.0285  0.2751
  515MPD2    H7 7713   3.944   1.207  14.255 -0.4423 -1.1168  0.2607
  516TMC3    C1 7714   3.861   0.977  14.240  0.3745 -0.1179  0.2236
  516TMC3    C2 7715   3.758   1.079  14.223  0.4039  0.4948  0.2249
  516TMC3    C3 7716   3.629   1.026  14.206  0.1747  0.5709 -0.3125
  516TMC3    C4 7717   3.833   0.846  14.261 -0.4017 -0.6891  0.3667
  516TMC3    C5 7718   3.706   0.806  14.243  0.6993 -0.3282 -0.3707
  516TMC3    C6 7719   3.604   0.893  14.217  0.5410  0.0047  0.5354
  516TMC3     C 7720   3.997   1.019  14.294  0.3651 -0.4553  0.4130
  516TMC3     O 7721   4.062   0.930  14.353  0.5206  0.5198 -0.0774
  516TMC3     H 7722   3.779   1.185  14.220  2.5605  0.0408 -0.5494
  516TMC3    H1 7723   3.916   0.778  14.270 -0.3891 -0.5971  0.9080
  516TMC3    H2 7724   3.498   0.872  14.213  0.6672 -0.7983  1.4357
  516TMC3    C7 7725   3.672   0.683  14.315  0.3689  0.0257 -0.9021
  516TMC3    C8 7726   3.522   1.109  14.153  0.3271  0.2704 -0.9176
  516TMC3    O1 7727   3.764   0.647  14.391 -0.2147 -0.0466  0.2085
  516TMC3    O2 7728   3.406   1.075  14.183  0.6126  0.2770  0.3685
  517MPD2     C 7729   3.227   3.275  17.282 -0.0826  0.4528 -0.3028
  517MPD2    C1 7730   3.351   3.248  17.332 -0.4008  1.0993 -0.4522
  517MPD2    C2 7731   3.424   3.345  17.395 -0.3122  0.2023  0.5993
  517MPD2    C3 7732   3.369   3.472  17.406 -0.0904 -0.3220 -0.0809
  517MPD2    C4 7733   3.241   3.498  17.360  0.3477 -0.5777 -0.4119
  517MPD2    C5 7734   3.170   3.400  17.300 -0.3305 -0.1143 -0.5226
  517MPD2     H 7735   3.528   3.323  17.418 -0.4903 -0.0136  1.2004
  517MPD2    H1 7736   3.196   3.596  17.368  2.7035  0.6412 -1.7155
  517MPD2    H2 7737   3.159   3.203  17.237  0.9316 -0.2624 -0.6811
  517MPD2    H3 7738   3.077   3.437  17.256 -0.3451  0.5600  0.0766
  517MPD2     N 7739   3.450   3.579  17.461 -0.1363  0.3255 -0.0893
  517MPD2    H5 7740   3.394   3.662  17.478  0.7080  0.9623 -0.4116
  517MPD2    N1 7741   3.417   3.125  17.319 -0.0734  0.1444  0.3924
  517MPD2    H7 7742   3.500   3.109  17.376 -0.5723 -2.3944  0.4146
  518TMC3    C1 7743   3.443   2.906  17.267  0.6259  0.0029 -0.2516
  518TMC3    C2 7744   3.393   2.778  17.252 -0.2383  0.5956 -0.6852
  518TMC3    C3 7745   3.475   2.677  17.201 -0.0200  0.4742  0.5916
  518TMC3    C4 7746   3.575   2.932  17.224 -0.0008  0.0697 -0.8649
  518TMC3    C5 7747   3.658   2.828  17.187  0.2433 -0.0954  0.1684
  518TMC3    C6 7748   3.609   2.702  17.174 -0.6430 -0.4998  0.6083
  518TMC3     C 7749   3.353   3.017  17.281 -0.0694 -0.0465 -0.0859
  518TMC3     O 7750   3.231   2.991  17.281 -0.5261 -0.0509  0.0915
  518TMC3     H 7751   3.286   2.761  17.266 -0.1201  0.1935 -0.2637
  518TMC3    H1 7752   3.619   3.030  17.236  0.0174  0.3003 -2.8857
  518TMC3    H2 7753   3.673   2.632  17.122  1.2198  1.9959 -0.4507
  518TMC3    C7 7754   3.799   2.873  17.176  0.1357  1.2483 -0.0947
  518TMC3    C8 7755   3.444   2.538  17.210 -0.2643  0.1428  0.7616
  518TMC3    O1 7756   3.828   2.991  17.175 -0.0129  0.1760 -0.0201
  518TMC3    O2 7757   3.514   2.465  17.147  0.6131 -0.5924  0.5468
  519MPD2     C 7758   0.094   1.295  13.910 -0.4861 -0.4014 -0.3004
  519MPD2    C1 7759   0.131   1.212  13.805 -0.1322 -0.3850  0.0008
  519MPD2    C2 7760   0.187   1.087  13.837  1.3063  0.2056 -0.1483
  519MPD2    C3 7761   0.207   1.050  13.971  0.1348 -0.0407 -0.4228
  519MPD2    C4 7762   0.181   1.143  14.062  0.9138  0.8660 -0.2938
  519MPD2    C5 7763   0.125   1.260  14.038 -0.3699 -0.7524 -0.0258
  519MPD2     H 7764   0.219   1.024  13.756  1.1505 -0.2689  0.1615
  519MPD2    H1 7765   0.204   1.121  14.165  1.3308 -1.9311 -0.9939
  519MPD2    H2 7766   0.045   1.391  13.897  0.4267  0.0694 -0.3317
  519MPD2    H3 7767   0.086   1.324  14.115 -0.2398 -1.1235  0.3480
  519MPD2     N 7768   0.246   0.920  14.013  0.4466 -0.0285  0.5158
  519MPD2    H5 7769   0.259   0.907  14.113  3.5629  0.0238  0.1425
  519MPD2    N1 7770   0.097   1.249  13.675 -0.3507 -0.0251 -0.8267
  519MPD2    H7 7771   0.039   1.332  13.667 -1.1779 -0.3509  1.8057
  520TMC3    C1 7772   0.275   0.686  13.996  0.0192 -0.6616 -0.0232
  520TMC3    C2 7773   0.228   0.588  13.925 -1.3628  0.7906  0.3291
  520TMC3    C3 7774   0.293   0.469  13.912 -0.4479 -0.2102 -0.0187
  520TMC3    C4 7775   0.404   0.674  14.042  0.2467  0.4096  0.2571
  520TMC3    C5 7776   0.470   0.550  14.030 -0.4205  0.5357 -0.4886
  520TMC3    C6 7777   0.421   0.447  13.958 -0.4351 -0.1615  0.4563
  520TMC3     C 7778   0.254   0.811  13.925  0.3999  0.0224 -0.0787
  520TMC3     O 7779   0.205   0.799  13.814 -0.2387  0.5883 -0.3371
  520TMC3     H 7780   0.124   0.599  13.895 -0.7047  2.0778 -1.4827
  520TMC3    H1 7781   0.442   0.753  14.106 -0.5566 -0.8201  2.2314
  520TMC3    H2 7782   0.464   0.348  13.964 -0.2170 -0.0736  0.3393
  520TMC3    C7 7783   0.604   0.528  14.083 -0.6835 -0.0632  0.2347
  520TMC3    C8 7784   0.281   0.409  13.780  0.4902 -0.5399  0.0700
  520TMC3    O1 7785   0.623   0.408  14.107 -0.1884  0.1728 -0.2443
  520TMC3    O2 7786   0.378   0.347  13.737 -0.3136 -0.2579 -0.3091
  521MPD2     C 7787   0.916   3.508  17.305 -0.3898 -0.0567  0.4880
  521MPD2    C1 7788   0.945   3.614  17.229  0.0153 -0.4631 -0.0274
  521MPD2    C2 7789   1.069   3.617  17.159 -0.4154  0.2946 -0.1584
  521MPD2    C3 7790   1.164   3.530  17.176 -0.5271 -0.0610 -0.8503
  521MPD2    C4 7791   1.139   3.425  17.258  0.7383  0.0767  0.0402
  521MPD2    C5 7792   1.022   3.419  17.322  0.2848 -0.4288 -0.2609
  521MPD2     H 7793   1.101   3.694  17.089  0.6641  0.3967  0.4385
  521MPD2    H1 7794   1.223   3.362  17.286 -0.0434 -0.4316  1.2698
  521MPD2    H2 7795   0.821   3.496  17.356 -0.4480 -4.8566 -0.6659
  521MPD2    H3 7796   1.003   3.329  17.379  0.3554 -0.1590  0.1819
  521MPD2     N 7797   1.280   3.545  17.091 -0.1279 -0.1189  0.4116
  521MPD2    H5 7798   1.281   3.622  17.026 -0.6306  0.0173  0.5649
  521MPD2    N1 7799   0.846   3.713  17.205 -0.0918  0.3208 -0.2597
  521MPD2    H7 7800   0.757   3.708  17.255  0.6380 -0.2563  0.9774
  522TMC3    C1 7801   1.487   3.516  17.021  0.4640  0.5083 -0.0119
  522TMC3    C2 7802   1.609   3.473  17.070 -0.5402 -0.0684  0.3065
  522TMC3    C3 7803   1.712   3.553  17.034 -0.1607  0.8575 -0.2665
  522TMC3    C4 7804   1.468   3.626  16.941  0.0399 -0.4457 -0.5465
  522TMC3    C5 7805   1.577   3.703  16.911 -0.3664 -0.6226  0.5540
  522TMC3    C6 7806   1.700   3.665  16.962  0.4940 -0.4613  1.0367
  522TMC3     C 7807   1.381   3.456  17.087  0.5920  0.1015  0.3215
  522TMC3     O 7808   1.393   3.348  17.143 -0.2283  0.9854 -0.0539
  522TMC3     H 7809   1.624   3.384  17.129  1.3483 -0.5408 -0.8849
  522TMC3    H1 7810   1.375   3.659  16.897 -1.2071 -3.2279 -0.0246
  522TMC3    H2 7811   1.774   3.744  16.952  0.9028 -0.9007  0.6077
  522TMC3    C7 7812   1.587   3.808  16.814 -0.2060  0.3028  0.5578
  522TMC3    C8 7813   1.832   3.513  17.104 -0.3176  0.3359 -0.2948
  522TMC3    O1 7814   1.699   3.834  16.763 -0.1385  0.1910  0.0253
  522TMC3    O2 7815   1.835   3.447  17.209  0.0400  0.3363  0.0016
  523MPD2     C 7816   4.636   3.463  10.089  0.1080  0.0143  0.2297
  523MPD2    C1 7817   4.505   3.440  10.041  0.2811  0.1105  0.0637
  523MPD2    C2 7818   4.451   3.529   9.953 -0.2525  0.5831  0.2332
  523MPD2    C3 7819   4.527   3.639   9.904  0.4549  0.2460  0.4303
  523MPD2    C4 7820   4.656   3.660   9.951 -0.1497 -0.1251  0.3798
  523MPD2    C5 7821   4.708   3.571  10.045 -0.0223 -0.1684  0.7458
  523MPD2     H 7822   4.351   3.522   9.913  1.4390 -2.7929 -3.3475
  523MPD2    H1 7823   4.711   3.749   9.923 -0.2739 -1.0020 -2.6015
  523MPD2    H2 7824   4.684   3.402  10.165  0.2215  0.3675  0.4421
  523MPD2    H3 7825   0.069   3.584  10.084  1.0202  0.5517 -2.2182
  523MPD2     N 7826   4.482   3.730   9.812  0.0999 -0.5860 -0.1957
  523MPD2    H5 7827   4.550   3.794   9.773 -0.3581  0.4825  0.7599
  523MPD2    N1 7828   4.447   3.321  10.071 -0.0789 -0.3513  0.3026
  523MPD2    H7 7829   4.498   3.258  10.132  2.1848 -0.4147 -1.6199
  524TMC3    C1 7830   4.331   3.848   9.678 -0.1049 -0.4519  0.0288
  524TMC3    C2 7831   4.228   3.827   9.597  0.5240 -0.4962  0.5679
  524TMC3    C3 7832   4.157   3.939   9.570  0.4276 -0.5387 -0.2006
  524TMC3    C4 7833   4.376   3.969   9.727 -0.3665 -0.0655 -0.5512
  524TMC3    C5 7834   4.305   4.077   9.686  0.0331  0.1414 -0.2533
  524TMC3    C6 7835   4.189   4.063   9.611 -0.1701  0.2992  0.0592
  524TMC3     C 7836   4.361   3.730   9.756 -0.3532  0.4074 -0.4778
  524TMC3     O 7837   4.279   3.643   9.748  0.0844 -0.2252 -0.0141
  524TMC3     H 7838   4.232   3.736   9.538 -0.7883 -0.3627  0.2764
  524TMC3    H1 7839   4.462   3.966   9.793 -0.8362  0.9511  0.1156
  524TMC3    H2 7840   4.123   4.145   9.584  0.3856  0.8093  0.2294
  524TMC3    C7 7841   4.335   4.209   9.748  0.5430 -0.0663  0.2155
  524TMC3    C8 7842   4.053   3.923   9.470 -0.8839 -0.3159 -0.1598
  524TMC3    O1 7843   4.447   4.222   9.796 -0.4727 -0.0274 -0.0196
  524TMC3    O2 7844   4.028   4.024   9.403  0.0878 -0.4178  0.4506
  525MPD2     C 7845   1.661   0.756  14.694 -0.1674 -0.3918 -0.4212
  525MPD2    C1 7846   1.774   0.685  14.657  0.3287  0.0916  0.1846
  525MPD2    C2 7847   1.854   0.715  14.547 -0.3969  0.3823  0.4256
  525MPD2    C3 7848   1.814   0.829  14.470  0.8557  0.0643 -0.2953
  525MPD2    C4 7849   1.702   0.894  14.506 -0.5296 -0.2898 -0.8123
  525MPD2    C5 7850   1.631   0.868  14.614  0.5723 -0.7145  0.1313
  525MPD2     H 7851   1.940   0.653  14.526 -0.6368 -0.1129  0.9315
  525MPD2    H1 7852   1.673   0.980  14.447 -0.1389 -0.0250 -0.6115
  525MPD2    H2 7853   1.597   0.738  14.779  0.5441  1.1880  0.4570
  525MPD2    H3 7854   1.556   0.941  14.643  1.2923  0.4621 -0.9920
  525MPD2     N 7855   1.886   0.887  14.359 -0.5299 -0.3012 -0.0107
  525MPD2    H5 7856   1.849   0.979  14.340 -1.5915 -0.4068  1.5172
  525MPD2    N1 7857   1.804   0.563  14.720 -0.8142  0.1315  0.8265
  525MPD2    H7 7858   1.865   0.499  14.671  0.4589 -0.4589  3.1839
  526TMC3    C1 7859   1.756   0.365  14.828  1.2345  0.0003  0.2895
  526TMC3    C2 7860   1.643   0.300  14.875 -0.1794 -0.3308 -0.7027
  526TMC3    C3 7861   1.663   0.209  14.978 -0.0222  0.2788 -0.2630
  526TMC3    C4 7862   1.880   0.320  14.864 -0.2951  0.5283 -0.1023
  526TMC3    C5 7863   1.890   0.217  14.957  0.2576  0.8110  0.5229
  526TMC3    C6 7864   1.783   0.159  15.009  0.0873 -0.0023 -0.0150
  526TMC3     C 7865   1.733   0.506  14.822 -0.3381 -0.4100 -0.2322
  526TMC3     O 7866   1.642   0.551  14.892  0.9292  0.0261 -0.1853
  526TMC3     H 7867   1.541   0.330  14.854  0.8255  2.5198 -1.5039
  526TMC3    H1 7868   1.968   0.366  14.820  0.3428 -0.6366 -0.0396
  526TMC3    H2 7869   1.787   0.086  15.089  0.8348  0.7885  0.6564
  526TMC3    C7 7870   2.012   0.152  14.981 -1.0761  0.0209 -0.4027
  526TMC3    C8 7871   1.563   0.192  15.083  0.7360  0.2200  0.6546
  526TMC3    O1 7872   2.030   0.074  15.076  0.1603  0.4037 -0.2888
  526TMC3    O2 7873   1.559   0.085  15.134 -0.0038  0.8596  0.0388
  527MPD2     C 7874   4.154   3.642   1.080 -0.4495 -0.2909  0.3241
  527MPD2    C1 7875   4.157   3.716   0.961 -0.1872  0.2622 -0.1254
  527MPD2    C2 7876   4.273   3.740   0.888  0.3722  0.2374 -0.1366
  527MPD2    C3 7877   4.395   3.704   0.944  0.1946 -0.0663 -0.2152
  527MPD2    C4 7878   4.392   3.639   1.070  0.0191 -0.3635  0.0331
  527MPD2    C5 7879   4.276   3.593   1.125  0.6724 -0.3218 -0.7539
  527MPD2     H 7880   4.257   3.801   0.800  3.1171 -1.1084 -1.5623
  527MPD2    H1 7881   4.480   3.607   1.125 -0.4499 -1.3645  0.2069
  527MPD2    H2 7882   4.061   3.593   1.108 -2.1883  2.3236 -0.8830
  527MPD2    H3 7883   4.260   3.530   1.212  1.1565  0.3847 -0.1514
  527MPD2     N 7884   4.516   3.743   0.877 -0.1829 -0.1052  0.0107
  527MPD2    H5 7885   4.492   3.790   0.790  0.5793  0.9338  0.3558
  527MPD2    N1 7886   4.037   3.759   0.898  0.2654  0.6237 -0.4605
  527MPD2    H7 7887   4.038   3.820   0.816 -0.1106  0.4999 -0.5542
  528TMC3    C1 7888   3.813   3.799   0.860  0.0355 -0.2107 -0.5385
  528TMC3    C2 7889   3.848   3.895   0.767 -0.3236 -0.7433  0.4282
  528TMC3    C3 7890   3.758   3.917   0.662  0.2638  0.5983  1.6558
  528TMC3    C4 7891   3.696   3.734   0.859  0.5788  0.1227  0.2267
  528TMC3    C5 7892   3.607   3.762   0.763 -0.2419  0.8159 -0.3129
  528TMC3    C6 7893   3.631   3.854   0.663 -0.1640  0.0164  0.0204
  528TMC3     C 7894   3.912   3.734   0.940 -0.4931  0.0355 -0.9438
  528TMC3     O 7895   3.863   3.659   1.026 -0.2068 -0.4308  0.3341
  528TMC3     H 7896   3.929   3.966   0.779 -1.2707  0.5259 -0.6901
  528TMC3    H1 7897   3.671   3.658   0.933  0.3229  0.5772  0.6058
  528TMC3    H2 7898   3.554   3.868   0.588  0.7491 -0.3982 -1.0046
  528TMC3    C7 7899   3.472   3.707   0.768 -0.2011  0.1514  0.2019
  528TMC3    C8 7900   3.770   4.041   0.587 -0.5027  0.0479  0.6623
  528TMC3    O1 7901   3.411   3.723   0.666  0.2091 -0.0097 -0.2212
  528TMC3    O2 7902   3.834   4.128   0.641 -0.1604 -0.2000 -0.3020
  529MPD2     C 7903   2.253   2.583   0.643  0.1273 -0.0275  0.4010
  529MPD2    C1 7904   2.293   2.469   0.575 -0.1881 -0.3402  0.3471
  529MPD2    C2 7905   2.260   2.464   0.440  0.1366  0.0761 -0.0204
  529MPD2    C3 7906   2.194   2.569   0.379  0.2032  0.1586 -0.0817
  529MPD2    C4 7907   2.147   2.677   0.450 -0.1505  0.8597  0.3313
  529MPD2    C5 7908   2.177   2.678   0.585  0.1822 -0.3373 -0.0127
  529MPD2     H 7909   2.279   2.375   0.380 -1.3130  0.1094 -0.5220
  529MPD2    H1 7910   2.095   2.750   0.389 -1.5517  1.0631  1.7887
  529MPD2    H2 7911   2.273   2.608   0.747 -1.4946  1.3703  0.3937
  529MPD2    H3 7912   2.140   2.761   0.645  1.3396  0.3858 -0.3024
  529MPD2     N 7913   2.180   2.572   0.242  0.4744  0.1944 -0.1553
  529MPD2    H5 7914   2.132   2.652   0.200  0.2052 -1.0088 -2.1663
  529MPD2    N1 7915   2.372   2.366   0.631 -0.2998  0.4659  0.1399
  529MPD2    H7 7916   2.393   2.280   0.581  0.9125  1.0116 -0.2960
  530TMC3    C1 7917   2.476   2.232   0.781  0.1874  0.6086  0.3221
  530TMC3    C2 7918   2.522   2.218   0.912 -0.0760 -0.7674 -0.7968
  530TMC3    C3 7919   2.539   2.091   0.958  0.2492  0.3933 -0.2483
  530TMC3    C4 7920   2.431   2.123   0.702 -0.7538 -0.1033 -0.2762
  530TMC3    C5 7921   2.458   2.000   0.756  0.6200 -0.3138 -0.1082
  530TMC3    C6 7922   2.523   1.980   0.876 -0.4003  0.1070 -0.3223
  530TMC3     C 7923   2.393   2.352   0.763  1.3346 -0.1217 -0.7421
  530TMC3     O 7924   2.367   2.422   0.860 -0.0922  0.0160 -0.7728
  530TMC3     H 7925   2.535   2.300   0.981  0.1712 -0.5826 -1.0631
  530TMC3    H1 7926   2.373   2.119   0.610  0.4659  2.2212 -1.1582
  530TMC3    H2 7927   2.538   1.883   0.923  0.3464 -0.2507 -1.3092
  530TMC3    C7 7928   2.394   1.891   0.686 -0.4686  0.3382  0.5770
  530TMC3    C8 7929   2.602   2.079   1.086  0.3141  0.4036  0.2239
  530TMC3    O1 7930   2.361   1.900   0.573  0.4106 -0.7977 -0.3841
  530TMC3    O2 7931   2.576   2.160   1.176  0.4508 -0.4959 -0.3168
  531MPD2     C 7932   1.309   4.663  13.185 -0.2888 -0.0508  0.3845
  531MPD2    C1 7933   1.183   4.608  13.190  0.2552 -0.1345 -0.3602
  531MPD2    C2 7934   1.140   4.528  13.085  0.2081  0.7440  0.1649
  531MPD2    C3 7935   1.219   4.505  12.979  0.1324  0.3356  0.1466
  531MPD2    C4 7936   1.341   4.558  12.973 -0.1667 -0.7694 -0.2909
  531MPD2    C5 7937   1.384   4.640  13.072 -0.1811 -0.2573  0.1324
  531MPD2     H 7938   1.052   4.465  13.091  1.4387 -0.8105  1.8305
  531MPD2    H1 7939   1.395   4.545  12.879  1.3394 -1.3380  0.6541
  531MPD2    H2 7940   1.350   4.715  13.270  1.6685 -2.0463  0.6653
  531MPD2    H3 7941   1.486   4.672  13.056  0.8191 -1.6949  3.6958
  531MPD2     N 7942   1.166   4.417  12.878 -0.0219  0.1761  0.3626
  531MPD2    H5 7943   1.065   4.407  12.886 -0.3016  0.7965 -2.2853
  531MPD2    N1 7944   1.120   4.638  13.312 -0.4576 -0.0406  0.1778
  531MPD2    H7 7945   1.158   4.694  13.387  0.7409  1.4542 -1.5529
  532TMC3    C1 7946   0.950   4.597  13.479  0.0898 -0.4283 -0.2982
  532TMC3    C2 7947   0.818   4.561  13.489 -0.1417 -0.3214 -0.4567
  532TMC3    C3 7948   0.767   4.499  13.605  0.4704  0.2521 -0.0288
  532TMC3    C4 7949   1.035   4.580  13.573 -0.1901 -0.0610  0.4615
  532TMC3    C5 7950   0.981   4.535  13.695 -0.2885  0.6675  0.2389
  532TMC3    C6 7951   0.854   4.488  13.709  0.1738  0.4113 -0.7141
  532TMC3     C 7952   0.999   4.585  13.343 -0.1601 -0.2364 -0.0965
  532TMC3     O 7953   0.922   4.528  13.267  0.9536  0.1427 -0.1984
  532TMC3     H 7954   0.752   4.577  13.404 -0.8202 -1.2939 -0.1139
  532TMC3    H1 7955   1.139   4.609  13.568  0.7511 -3.3130  0.9757
  532TMC3    H2 7956   0.819   4.453  13.805  1.6035 -0.4972 -0.5200
  532TMC3    C7 7957   1.063   4.500  13.808 -0.3521  0.5608 -0.0449
  532TMC3    C8 7958   0.710   4.365  13.571  0.1731  0.3437 -0.6614
  532TMC3    O1 7959   1.016   4.504  13.923 -0.3930 -0.3431  0.5189
  532TMC3    O2 7960   0.594   4.336  13.604  0.7432  0.1965  0.1101
  533TMC3    C1 7961   2.065   0.985  14.264 -0.1939 -0.3490  0.1706
  533TMC3    C2 7962   2.183   1.033  14.315 -0.9638 -0.0018  1.2659
  533TMC3    C3 7963   2.191   1.167  14.329  0.3678 -0.0978 -0.1649
  533TMC3    C4 7964   1.966   1.065  14.212  0.1589  0.7726  0.1894
  533TMC3    C5 7965   1.977   1.197  14.227  0.8643 -0.5186  0.2268
  533TMC3    C6 7966   2.098   1.250  14.274 -0.7088 -0.4164  0.3696
  533TMC3     C 7967   2.017   0.862  14.326 -0.0625 -0.4706 -0.1825
  533TMC3     O 7968   2.098   0.771  14.358 -0.7426 -0.1163  0.3483
  533TMC3     H 7969   2.252   0.963  14.360 -1.2129 -0.9484  0.1943
  533TMC3    H1 7970   1.886   1.023  14.151 -0.0308 -1.3455  1.8937
  533TMC3    H2 7971   2.100   1.356  14.293 -0.5924 -0.5229  0.9614
  533TMC3    C7 7972   1.856   1.235  14.294 -0.1741  0.0481 -0.7539
  533TMC3    C8 7973   2.322   1.217  14.367  1.2006 -0.1065 -0.2193
  533TMC3    O1 7974   1.789   1.144  14.336  0.0188 -0.2483  0.1833
  533TMC3    O2 7975   2.404   1.135  14.404 -0.6050 -0.0201  0.0476
  534MPD2     C 7976   0.176   2.090   0.937  0.4428  0.3957 -0.8512
  534MPD2    C1 7977   0.158   2.207   1.004 -0.3066  0.3696 -0.2033
  534MPD2    C2 7978   0.035   2.265   1.016 -0.2581  0.6441  0.2642
  534MPD2    C3 7979   4.670   2.218   0.937  0.8026 -1.2136  0.1072
  534MPD2    C4 7980   4.689   2.106   0.862  0.3764 -0.1219 -0.3259
  534MPD2    C5 7981   0.069   2.041   0.866  0.0302 -0.9189 -0.0963
  534MPD2     H 7982   0.017   2.350   1.081 -1.1708  0.2345  0.5402
  534MPD2    H1 7983   4.613   2.063   0.798  0.8470 -1.5261  0.0538
  534MPD2    H2 7984   0.268   2.034   0.928 -0.2738 -0.6660 -1.5522
  534MPD2    H3 7985   0.084   1.947   0.813  0.6791  0.9223 -3.2242
  534MPD2     N 7986   4.549   2.281   0.923  0.4553  0.6308 -0.1623
  534MPD2    H5 7987   4.474   2.234   0.872  0.8883 -1.2340  0.9146
  534MPD2    N1 7988   0.268   2.267   1.073 -0.9335  0.1944 -0.1028
  534MPD2    H7 7989   0.243   2.345   1.132  1.2659 -0.9353  2.3057
  535TMC3    C1 7990   4.371   2.415   0.950  0.4019 -0.3159  0.6105
  535TMC3    C2 7991   4.282   2.315   0.985 -0.9655  0.4042  0.0651
  535TMC3    C3 7992   4.162   2.327   0.923 -0.2885  0.1511 -0.2582
  535TMC3    C4 7993   4.335   2.520   0.875 -0.9376  0.1630 -0.4613
  535TMC3    C5 7994   4.210   2.525   0.814  0.0535  0.0665  0.5339
  535TMC3    C6 7995   4.123   2.422   0.841 -0.3400 -0.1932  0.4999
  535TMC3     C 7996   4.516   2.407   0.949 -0.3576  0.4030  0.2961
  535TMC3     O 7997   4.585   2.500   0.968 -1.0219 -0.2276 -0.3229
  535TMC3     H 7998   4.310   2.223   1.035  4.5107  3.1271  2.0412
  535TMC3    H1 7999   4.405   2.598   0.846  0.2809 -1.6117 -2.3682
  535TMC3    H2 8000   4.030   2.406   0.787 -0.7404  0.2009  1.0603
  535TMC3    C7 8001   4.177   2.603   0.695 -0.4457 -0.0801  0.4124
  535TMC3    C8 8002   4.055   2.232   0.962  0.5294 -0.5102  0.4654
  535TMC3    O1 8003   4.084   2.567   0.626 -0.1355  0.3266 -0.8733
  535TMC3    O2 8004   3.990   2.185   0.871  0.2344  0.2915  0.2019
  536MPD2     C 8005   3.435   0.787  15.824 -0.3146  0.1815 -0.2898
  536MPD2    C1 8006   3.342   0.691  15.865 -1.0169  0.7417  0.3024
  536MPD2    C2 8007   3.235   0.663  15.785 -0.7735 -0.0272 -0.0342
  536MPD2    C3 8008   3.215   0.728  15.665  0.1345  0.3939  0.0357
  536MPD2    C4 8009   3.312   0.820  15.624  0.2685 -0.2023  0.9860
  536MPD2    C5 8010   3.419   0.850  15.701 -0.2270 -0.2139 -0.3184
  536MPD2     H 8011   3.173   0.580  15.818 -0.2061  0.3944  2.0596
  536MPD2    H1 8012   3.301   0.877  15.533 -0.8784 -1.6137  0.2321
  536MPD2    H2 8013   3.510   0.820  15.896  0.9494  0.8135 -1.8863
  536MPD2    H3 8014   3.491   0.924  15.667 -1.6157  2.2310  2.1077
  536MPD2     N 8015   3.104   0.707  15.579  0.6726 -0.7336 -0.3097
  536MPD2    H5 8016   3.102   0.733  15.481 -0.8896 -0.0140 -0.0835
  536MPD2    N1 8017   3.373   0.612  15.986  0.0310  0.5605 -0.1763
  536MPD2    H7 8018   3.456   0.634  16.040 -1.2135  2.4608  0.9578
  537TMC3    C1 8019   3.374   0.441  16.147  0.5082  0.2976  0.4525
  537TMC3    C2 8020   3.439   0.518  16.239 -0.1579 -0.3480 -0.3671
  537TMC3    C3 8021   3.462   0.463  16.365  0.0146  0.1439  0.1740
  537TMC3    C4 8022   3.314   0.323  16.188 -0.0322  0.1995 -0.1391
  537TMC3    C5 8023   3.339   0.268  16.316 -0.3872  0.1212 -0.0817
  537TMC3    C6 8024   3.416   0.341  16.399  0.1625 -0.1864 -0.2748
  537TMC3     C 8025   3.302   0.502  16.039  0.3428 -0.2599  0.2700
  537TMC3     O 8026   3.198   0.444  16.005  0.1362  0.0874 -0.4565
  537TMC3     H 8027   3.488   0.610  16.212  0.1960  0.1102  1.7819
  537TMC3    H1 8028   3.251   0.269  16.118  1.9321  1.4397 -2.8572
  537TMC3    H2 8029   3.425   0.317  16.504 -1.1746  0.2648 -0.0668
  537TMC3    C7 8030   3.235   0.180  16.360 -0.5559  0.0899 -0.2388
  537TMC3    C8 8031   3.492   0.557  16.466 -0.4098 -0.5405 -0.6413
  537TMC3    O1 8032   3.139   0.172  16.285 -0.0074 -0.3430 -0.0627
  537TMC3    O2 8033   3.548   0.512  16.563  0.3597 -0.2095  0.2469
  538TMC3    C1 8034   4.589   2.959  10.809 -0.1811 -0.2373 -0.5708
  538TMC3    C2 8035   4.710   2.948  10.744 -0.7785 -1.0603  0.2824
  538TMC3    C3 8036   4.724   3.003  10.617 -1.2198 -0.5535 -0.6915
  538TMC3    C4 8037   4.490   3.026  10.749 -0.1309 -0.1679 -0.3447
  538TMC3    C5 8038   4.513   3.092  10.627  0.0067 -0.1312  0.5260
  538TMC3    C6 8039   4.633   3.084  10.561 -0.0387  0.2946  0.0213
  538TMC3     C 8040   4.577   2.929  10.950  0.2198  0.9478  0.1257
  538TMC3     O 8041   4.497   3.002  11.008 -0.0922  0.3032 -0.1220
  538TMC3     H 8042   0.053   2.910  10.802 -0.5296 -0.2841  0.4352
  538TMC3    H1 8043   4.393   3.019  10.797  0.4825 -1.6969  0.6645
  538TMC3    H2 8044   4.647   3.121  10.460  4.1633 -1.4652 -0.0468
  538TMC3    C7 8045   4.408   3.177  10.565  0.2108  0.8819 -0.1134
  538TMC3    C8 8046   0.113   2.987  10.549  0.2575  0.0789 -0.1447
  538TMC3    O1 8047   4.303   3.166  10.627 -0.1855  0.0824 -0.1165
  538TMC3    O2 8048   0.183   2.901  10.602 -0.1307  0.6066  0.1606
  539MPD2     C 8049   4.141   2.073  11.619  0.0715  0.0723  0.2138
  539MPD2    C1 8050   4.262   2.122  11.564 -0.4831  0.5004  0.1530
  539MPD2    C2 8051   4.286   2.259  11.557 -0.0762 -0.3018 -0.9238
  539MPD2    C3 8052   4.190   2.349  11.604 -0.1014  0.1518  0.5449
  539MPD2    C4 8053   4.077   2.302  11.664 -0.0904 -0.2223  0.0780
  539MPD2    C5 8054   4.053   2.166  11.674 -0.6705 -0.2698  0.2943
  539MPD2     H 8055   4.383   2.288  11.519  0.5802 -0.3037  0.7548
  539MPD2    H1 8056   4.012   2.379  11.703  1.0449  0.2234  1.0534
  539MPD2    H2 8057   4.123   1.967  11.636 -0.2076  0.1258  0.2486
  539MPD2    H3 8058   3.959   2.132  11.716 -0.0525 -1.8458  0.4008
  539MPD2     N 8059   4.211   2.486  11.597 -0.6282  0.4969 -0.0867
  539MPD2    H5 8060   4.128   2.540  11.622  0.1528  0.9334  1.5331
  539MPD2    N1 8061   4.365   2.040  11.505  0.4331 -0.0962  0.2645
  539MPD2    H7 8062   4.446   2.091  11.470 -0.1272 -0.9554 -2.2856
  540TMC3    C1 8063   4.295   2.699  11.578  0.0900 -0.4362  0.5938
  540TMC3    C2 8064   4.333   2.780  11.478 -0.4975 -0.4280  0.1151
  540TMC3    C3 8065   4.323   2.919  11.501  0.2549  0.3270  0.5266
  540TMC3    C4 8066   4.247   2.737  11.698 -0.4023 -0.7945 -0.0431
  540TMC3    C5 8067   4.250   2.869  11.720 -0.2234  0.0076  0.2562
  540TMC3    C6 8068   4.287   2.959  11.625  0.0852  0.2758 -0.5153
  540TMC3     C 8069   4.321   2.554  11.552  0.2972 -0.3253 -0.9941
  540TMC3     O 8070   4.413   2.525  11.476  0.5905  0.1937  0.2491
  540TMC3     H 8071   4.365   2.750  11.379  0.3502  1.7013 -0.2465
  540TMC3    H1 8072   4.228   2.664  11.775  0.5932 -2.0216 -0.9702
  540TMC3    H2 8073   4.283   3.065  11.645 -0.9555  0.4474 -1.6053
  540TMC3    C7 8074   4.159   2.906  11.824 -0.4694 -0.7209  0.0125
  540TMC3    C8 8075   4.289   3.011  11.388  0.3867  0.2730 -0.0832
  540TMC3    O1 8076   4.062   2.836  11.844  0.1916 -0.2642  0.7152
  540TMC3    O2 8077   4.328   3.123  11.400  0.5372  0.2360  0.8324
  541MPD2     C 8078   2.790   3.950  13.120  0.7693  0.3287 -0.0942
  541MPD2    C1 8079   2.652   3.959  13.111  0.5879 -0.4236  0.1673
  541MPD2    C2 8080   2.594   4.060  13.044 -0.2090 -0.5554 -0.3307
  541MPD2    C3 8081   2.677   4.149  12.973  0.0771 -1.1189  0.0555
  541MPD2    C4 8082   2.810   4.133  12.975 -0.4096 -0.3549  0.1808
  541MPD2    C5 8083   2.864   4.037  13.049 -0.0083  0.0342 -0.4696
  541MPD2     H 8084   2.485   4.062  13.040 -0.2667  1.6278  1.8793
  541MPD2    H1 8085   2.880   4.193  12.918 -1.8426 -0.2481 -1.4871
  541MPD2    H2 8086   2.844   3.878  13.181 -1.7375 -0.3271  1.3597
  541MPD2    H3 8087   2.972   4.022  13.046 -0.1874 -1.3807 -0.1248
  541MPD2     N 8088   2.628   4.255  12.897 -0.6255 -0.1634  0.1566
  541MPD2    H5 8089   2.684   4.306  12.830  0.4022 -0.9701  0.3915
  541MPD2    N1 8090   2.576   3.864  13.177 -0.2084  0.5578 -0.5708
  541MPD2    H7 8091   2.628   3.796  13.232  0.0448  0.6623 -0.6783
  542TMC3    C1 8092   2.475   4.378  12.778 -0.5810  0.2323  0.6119
  542TMC3    C2 8093   2.520   4.324  12.662  0.6096 -0.1733  0.4335
  542TMC3    C3 8094   2.456   4.352  12.542 -0.3605  0.5447 -0.4748
  542TMC3    C4 8095   2.365   4.466  12.777  0.0780 -0.4770  0.0415
  542TMC3    C5 8096   2.311   4.491  12.654 -0.7201 -0.0558  0.2487
  542TMC3    C6 8097   2.355   4.441  12.530 -0.2824  0.0690 -0.5076
  542TMC3     C 8098   2.500   4.299  12.890 -0.1813 -0.1931  0.0572
  542TMC3     O 8099   2.410   4.278  12.971 -0.1498  0.8932 -0.2768
  542TMC3     H 8100   2.611   4.266  12.662 -1.9940 -4.2660  1.0915
  542TMC3    H1 8101   2.321   4.515  12.863  1.2963 -0.5269  0.6963
  542TMC3    H2 8102   2.300   4.446  12.436 -0.6667  0.0169 -0.2858
  542TMC3    C7 8103   2.197   4.583  12.658  0.0145 -0.4050 -0.5700
  542TMC3    C8 8104   2.501   4.304  12.411  0.0866  0.2704 -0.5611
  542TMC3    O1 8105   2.178   4.639  12.766  0.6393 -0.2818  0.5182
  542TMC3    O2 8106   2.465   4.365  12.314  0.1271 -0.0947 -0.5447
  543TMC3    C1 8107   1.906   1.249  17.153 -0.3066  0.7485 -0.2164
  543TMC3    C2 8108   1.919   1.135  17.239 -0.4045 -0.0799 -0.2988
  543TMC3    C3 8109   1.859   1.142  17.363  0.2569 -0.4549  0.1905
  543TMC3    C4 8110   1.852   1.366  17.199  0.0114  0.5060 -0.1102
  543TMC3    C5 8111   1.798   1.366  17.325 -0.1226  0.2496  0.6141
  543TMC3    C6 8112   1.801   1.254  17.410 -0.2185 -0.1696  0.8496
  543TMC3     C 8113   1.928   1.220  17.011  0.6451  0.1961  0.0962
  543TMC3     O 8114   1.969   1.111  16.972  0.3503 -0.7233 -0.4974
  543TMC3     H 8115   1.961   1.043  17.198  0.7125 -0.7247  2.2891
  543TMC3    H1 8116   1.825   1.442  17.126 -3.4290 -1.4172 -0.8853
  543TMC3    H2 8117   1.747   1.256  17.505 -0.5056 -3.3902  0.7515
  543TMC3    C7 8118   1.732   1.478  17.381 -0.1256  0.2040  0.2929
  543TMC3    C8 8119   1.834   1.009  17.418 -0.7158  0.5682 -0.1529
  543TMC3    O1 8120   1.660   1.458  17.480  0.2885  0.4564 -0.5881
  543TMC3    O2 8121   1.831   0.922  17.334 -0.2964 -0.3255  0.6456
  544MPD2     C 8122   1.650   0.665  17.740  0.4352  0.4377  0.7256
  544MPD2    C1 8123   1.708   0.652  17.616  0.0637 -0.1973  0.0941
  544MPD2    C2 8124   1.770   0.758  17.558 -0.4017  0.3782 -0.3552
  544MPD2    C3 8125   1.762   0.890  17.616  0.4322 -1.1563 -0.4809
  544MPD2    C4 8126   1.706   0.899  17.734 -0.0206 -0.4378 -0.2632
  544MPD2    C5 8127   1.660   0.792   0.042 -0.3911  0.0715  0.0744
  544MPD2     H 8128   1.831   0.740  17.470 -0.2914  0.3585 -0.2744
  544MPD2    H1 8129   1.703   0.999   0.017 -1.8778 -0.8895  0.6827
  544MPD2    H2 8130   1.597   0.582   0.027 -0.2463 -0.1867 -1.2347
  544MPD2    H3 8131   1.625   0.821   0.141  1.7420 -1.3189  1.2359
  544MPD2     N 8132   1.806   1.011  17.554 -0.1173 -0.0458 -0.0443
  544MPD2    H5 8133   1.807   1.095  17.610 -0.6254 -1.4361  2.0569
  544MPD2    N1 8134   1.706   0.519  17.573 -0.0062 -0.2670 -0.3033
  544MPD2    H7 8135   1.643   0.456  17.622  1.1823 -3.0311 -2.2826
  545TMC3    C1 8136   1.797   0.331  17.474  0.7778 -0.6702  0.3386
  545TMC3    C2 8137   1.924   0.273  17.490 -0.6137 -0.4110 -0.4500
  545TMC3    C3 8138   1.940   0.139  17.486 -0.1289  0.4169  0.8792
  545TMC3    C4 8139   1.680   0.254  17.474 -0.9965 -0.2590 -0.1512
  545TMC3    C5 8140   1.707   0.120  17.461 -0.2324  0.4363 -0.1177
  545TMC3    C6 8141   1.828   0.064  17.470 -0.1352  0.3029 -0.4003
  545TMC3     C 8142   1.791   0.475  17.473 -0.1697  0.9167 -0.1133
  545TMC3     O 8143   1.874   0.534  17.405  0.3905 -0.3734  0.5599
  545TMC3     H 8144   2.002   0.338  17.528 -0.7408 -1.4249  1.5152
  545TMC3    H1 8145   1.582   0.299  17.464 -2.0868 -1.9988  2.8621
  545TMC3    H2 8146   1.843   4.700  17.443  0.7680  0.2683  0.2181
  545TMC3    C7 8147   1.593   0.038  17.424 -0.2219 -0.7458  0.4191
  545TMC3    C8 8148   2.076   0.087  17.504 -0.3822  0.0178  0.2139
  545TMC3    O1 8149   1.488   0.099  17.393  0.5697  0.0072 -0.7574
  545TMC3    O2 8150   2.159   0.169  17.475  0.0355  0.4115 -0.8844
  546MPD2     C 8151   3.325   1.039  17.500 -0.1697 -0.0535 -0.7172
  546MPD2    C1 8152   3.265   1.045  17.373 -0.6229  0.4616 -0.0101
  546MPD2    C2 8153   3.267   1.176  17.313 -0.8871  0.2354  0.0098
  546MPD2    C3 8154   3.322   1.292  17.369  0.6918  0.1635  0.2651
  546MPD2    C4 8155   3.373   1.276  17.493 -1.1410 -0.1771  0.6765
  546MPD2    C5 8156   3.380   1.156  17.560 -0.8105  0.2417  0.3976
  546MPD2     H 8157   3.236   1.184  17.210  0.9631 -0.0522 -0.5676
  546MPD2    H1 8158   3.414   1.359  17.548 -1.1475  0.8306 -0.8271
  546MPD2    H2 8159   3.332   0.956  17.570  0.3266  1.3350  0.8768
  546MPD2    H3 8160   3.420   1.144  17.660 -2.7834 -1.9616  0.9378
  546MPD2     N 8161   3.340   1.422  17.313 -0.4391  0.4574  0.6883
  546MPD2    H5 8162   3.374   1.484  17.385 -0.0124 -0.4769  1.2862
  546MPD2    N1 8163   3.217   0.931  17.313 -0.3303 -0.1696  0.1172
  546MPD2    H7 8164   3.226   0.850  17.373  1.1150 -0.5474 -0.6120
  547TMC3    C1 8165   3.089   0.797  17.157  0.1603  0.2379 -0.1034
  547TMC3    C2 8166   3.029   0.796  17.034  0.0825 -0.5401  0.1201
  547TMC3    C3 8167   2.908   0.732  17.021 -1.1841  0.4840 -0.0899
  547TMC3    C4 8168   3.034   0.722  17.261 -0.2190 -0.2726 -0.3501
  547TMC3    C5 8169   2.917   0.653  17.230  0.0157 -0.7838 -0.6187
  547TMC3    C6 8170   2.846   0.657  17.116 -0.5803  0.1859 -0.0892
  547TMC3     C 8171   3.151   0.927  17.191  0.1174  0.2971  0.2614
  547TMC3     O 8172   3.152   1.007  17.098  0.5272 -0.7536  0.3009
  547TMC3     H 8173   3.070   0.867  16.963  1.5267 -0.9044  0.5935
  547TMC3    H1 8174   3.076   0.725  17.361  4.1167 -0.2139 -2.1488
  547TMC3    H2 8175   2.751   0.610  17.095  0.7387 -1.9339 -1.3060
  547TMC3    C7 8176   2.860   0.586  17.342 -0.1344  0.2236  0.1140
  547TMC3    C8 8177   2.835   0.742  16.889  0.4843 -0.1063  0.0922
  547TMC3    O1 8178   2.938   0.544  17.429 -0.1476  0.5411 -0.3806
  547TMC3    O2 8179   2.714   0.743  16.893  0.2591  0.7011 -0.8110
  548MPD2     C 8180   3.152   1.496  12.533 -0.0615  0.2585 -0.3344
  548MPD2    C1 8181   3.118   1.367  12.556  0.1995  0.0763  0.2607
  548MPD2    C2 8182   3.192   1.271  12.496  0.4163 -0.0895 -0.4772
  548MPD2    C3 8183   3.307   1.299  12.418 -0.1164 -0.2325  0.0561
  548MPD2    C4 8184   3.323   1.430  12.370  0.1925  0.1072  0.1345
  548MPD2    C5 8185   3.240   1.529  12.433  0.3645  0.5490 -0.2310
  548MPD2     H 8186   3.156   1.169  12.504  0.6856 -0.1539 -0.0987
  548MPD2    H1 8187   3.400   1.456  12.298  0.7313  0.5110  0.8631
  548MPD2    H2 8188   3.112   1.578  12.592 -0.1353  0.5602 -0.8012
  548MPD2    H3 8189   3.254   1.634  12.408 -1.0623  0.6970 -0.3749
  548MPD2     N 8190   3.393   1.194  12.378  0.5952  0.3558 -0.2441
  548MPD2    H5 8191   3.372   1.106  12.424 -0.7993  0.9480  0.2629
  548MPD2    N1 8192   3.006   1.346  12.633 -0.0459 -0.1070 -0.5079
  548MPD2    H7 8193   2.953   1.429  12.661  0.7464  0.5049 -0.8309
  549TMC3    C1 8194   2.855   1.246  12.786 -0.0749 -0.3358  0.8679
  549TMC3    C2 8195   2.799   1.370  12.815 -0.1983  0.1102 -0.7935
  549TMC3    C3 8196   2.689   1.370  12.896  0.1535 -0.2369 -0.1586
  549TMC3    C4 8197   2.809   1.135  12.852 -0.3166  0.1786 -0.1993
  549TMC3    C5 8198   2.702   1.145  12.942  0.3036 -0.7481  0.5158
  549TMC3    C6 8199   2.644   1.266  12.960 -0.0266 -0.4090  0.1571
  549TMC3     C 8200   2.967   1.230  12.696 -0.6010  0.1368  0.4799
  549TMC3     O 8201   3.006   1.117  12.676  0.1246 -0.5088 -0.0076
  549TMC3     H 8202   2.823   1.467  12.773 -1.0139  0.4931 -0.3977
  549TMC3    H1 8203   2.853   1.038  12.831 -0.1908 -0.1163  1.4580
  549TMC3    H2 8204   2.570   1.276  13.038  0.0502 -0.4093  0.2306
  549TMC3    C7 8205   2.624   1.027  12.973  0.2716 -0.2823 -0.2992
  549TMC3    C8 8206   2.588   1.455  12.854 -0.0277 -0.2649  0.4372
  549TMC3    O1 8207   2.509   1.040  12.996 -0.0423 -0.1877 -0.0686
  549TMC3    O2 8208   2.481   1.398  12.835 -0.3456  0.8820 -0.1326
  550TMC3    C1 8209   2.168   4.016  11.994 -0.2545 -1.0952 -0.2229
  550TMC3    C2 8210   2.175   4.060  12.123 -0.4492 -0.2787  0.1470
  550TMC3    C3 8211   2.133   4.192  12.143 -0.3041  0.5081  0.2907
  550TMC3    C4 8212   2.128   4.093  11.889 -0.3437  0.0450  0.8956
  550TMC3    C5 8213   2.075   4.216  11.916 -1.0039 -0.2883  0.0836
  550TMC3    C6 8214   2.083   4.272  12.038 -0.3319 -0.0959 -0.2342
  550TMC3     C 8215   2.234   3.889  11.965  0.7811  0.2281 -0.2210
  550TMC3     O 8216   2.311   3.850  12.052 -0.1622  0.0031  0.2644
  550TMC3     H 8217   2.220   3.991  12.193  0.0552  0.3654  0.4611
  550TMC3    H1 8218   2.113   4.061  11.786 -1.2637  0.3261  0.9384
  550TMC3    H2 8219   2.027   4.361  12.060  1.8565  1.2648 -0.1343
  550TMC3    C7 8220   1.955   4.254  11.842  0.0467 -0.3421  0.2549
  550TMC3    C8 8221   2.106   4.242  12.275 -0.4525  0.1368 -0.3918
  550TMC3    O1 8222   1.851   4.256  11.908 -0.3521 -0.0439  0.3901
  550TMC3    O2 8223   2.060   4.355  12.284  0.0325 -0.3027  0.3631
  551TMC3    C1 8224   4.697   2.398  13.063 -0.2734  0.4857 -0.3374
  551TMC3    C2 8225   0.056   2.475  13.007 -0.0324 -0.0316 -0.0644
  551TMC3    C3 8226   0.160   2.519  13.092  0.3272 -0.5425 -1.4627
  551TMC3    C4 8227   4.691   2.378  13.201 -0.2025 -0.0782 -0.3498
  551TMC3    C5 8228   0.041   2.438  13.287  1.3206 -0.3219 -1.2012
  551TMC3    C6 8229   0.148   2.501  13.231  0.5329 -0.2708  0.0280
  551TMC3     C 8230   4.591   2.336  12.981 -0.3818  0.3673 -0.0905
  551TMC3     O 8231   4.533   2.242  13.031 -0.0686  0.5144 -0.0262
  551TMC3     H 8232   0.062   2.485  12.899 -2.9476  1.7300 -0.0465
  551TMC3    H1 8233   4.595   2.344  13.238 -0.2832  2.4373  1.7219
  551TMC3    H2 8234   0.226   2.541  13.294  1.5665 -0.1483 -1.3444
  551TMC3    C7 8235   4.726   2.479  13.414  1.0195  0.7880 -0.1054
  551TMC3    C8 8236   0.223   2.645  13.054  0.5962 -0.1857  0.7698
  551TMC3    O1 8237   4.644   2.408  13.468  0.4646  0.2899 -0.0908
  551TMC3    O2 8238   0.328   2.676  13.104 -0.0206  0.9150  0.3151
  552MPD2     C 8239   0.995   4.214  14.139  0.3649 -0.9953  0.7892
  552MPD2    C1 8240   1.072   4.104  14.098  0.3362  0.1841 -0.3511
  552MPD2    C2 8241   1.176   4.071  14.180 -0.3925 -0.4492 -0.3951
  552MPD2    C3 8242   1.187   4.138  14.306  0.5554  0.3854  0.8278
  552MPD2    C4 8243   1.091   4.224  14.358 -0.4067 -0.3934  0.1944
  552MPD2    C5 8244   0.993   4.257  14.272 -0.4390  0.1497  0.2040
  552MPD2     H 8245   1.245   3.990  14.157 -0.1882 -0.6934  1.0288
  552MPD2    H1 8246   1.089   4.267  14.458  0.0911 -0.7921  0.3762
  552MPD2    H2 8247   0.915   4.253  14.077  2.1008 -1.0560 -1.4798
  552MPD2    H3 8248   0.907   4.312  14.307 -1.7024 -1.3537 -0.5346
  552MPD2     N 8249   1.294   4.111  14.395  0.4168  0.1374 -0.0398
  552MPD2    H5 8250   1.287   4.152  14.487 -1.2262 -1.2747  0.4812
  552MPD2    N1 8251   1.050   4.039  13.981  0.3596  0.2334  0.1490
  552MPD2    H7 8252   1.103   3.957  13.953  2.3108  1.4361  0.3345
  553TMC3    C1 8253   0.936   3.991  13.781  0.7216  0.7045 -0.2165
  553TMC3    C2 8254   0.931   4.040  13.651  0.4711  0.9142 -0.4231
  553TMC3    C3 8255   0.913   3.950  13.549 -1.0351 -0.7488 -0.1845
  553TMC3    C4 8256   0.930   3.858  13.807  0.4257 -0.6106 -0.2730
  553TMC3    C5 8257   0.914   3.779  13.701  0.2776  0.1196 -0.3026
  553TMC3    C6 8258   0.896   3.814  13.575 -0.0363  0.4569  0.0498
  553TMC3     C 8259   0.969   4.084  13.881  0.7011 -0.0498  0.1523
  553TMC3     O 8260   0.931   4.194  13.847 -0.4382  0.5382 -0.5927
  553TMC3     H 8261   0.946   4.146  13.632 -1.4920  0.9269 -1.8995
  553TMC3    H1 8262   0.936   3.816  13.907 -1.0237 -0.7278 -0.2366
  553TMC3    H2 8263   0.903   3.732  13.505 -0.3399  1.6474 -1.3710
  553TMC3    C7 8264   0.941   3.638  13.720  0.4828 -0.3937  0.3011
  553TMC3    C8 8265   1.020   3.982  13.456  0.3774 -0.1800  0.1433
  553TMC3    O1 8266   0.846   3.565  13.686  0.1337 -0.2730 -0.4223
  553TMC3    O2 8267   1.092   4.078  13.476  0.0374  0.0046  0.2834
  554TMC3    C1 8268   3.099   3.029  11.437 -0.6395 -0.2289 -0.2080
  554TMC3    C2 8269   2.970   3.070  11.403  0.6881 -0.1706 -1.2735
  554TMC3    C3 8270   2.963   3.171  11.308  0.1574 -0.3049 -0.0417
  554TMC3    C4 8271   3.214   3.085  11.385  0.3879 -0.2897 -0.1170
  554TMC3    C5 8272   3.201   3.185  11.295  1.0336  0.3132 -0.2541
  554TMC3    C6 8273   3.076   3.223  11.251 -0.2442  0.0520  0.5587
  554TMC3     C 8274   3.104   2.949  11.559 -0.3612  0.0697 -0.0310
  554TMC3     O 8275   3.001   2.932  11.626 -0.3454 -0.1103 -0.7544
  554TMC3     H 8276   2.885   3.021  11.448 -0.1784  2.0613 -0.4603
  554TMC3    H1 8277   3.306   3.028  11.396 -1.0376 -3.0512 -2.8048
  554TMC3    H2 8278   3.077   3.295  11.170  1.4824  0.7718  1.2179
  554TMC3    C7 8279   3.315   3.243  11.226  0.2331  0.0513  0.0257
  554TMC3    C8 8280   2.861   3.155  11.210 -0.3823  0.1321  0.7251
  554TMC3    O1 8281   3.278   3.290  11.118 -0.4663  0.0517  0.8360
  554TMC3    O2 8282   2.891   3.195  11.098 -0.8805  0.3703  0.1467
  555TMC3    C1 8283   2.310   2.716  15.360  0.2202 -0.0691 -0.2618
  555TMC3    C2 8284   2.343   2.701  15.497 -0.5321  0.5309  0.1066
  555TMC3    C3 8285   2.380   2.572  15.536 -0.2705 -0.3774  1.2248
  555TMC3    C4 8286   2.314   2.606  15.273 -0.0777 -0.0079 -0.4733
  555TMC3    C5 8287   2.316   2.481  15.329 -0.4294 -1.2180  0.1417
  555TMC3    C6 8288   2.364   2.460  15.454 -0.8540  0.2315 -0.9709
  555TMC3     C 8289   2.262   2.840  15.322  0.0855 -0.7125 -0.1091
  555TMC3     O 8290   2.271   2.930  15.404  0.0726  0.1995  0.3889
  555TMC3     H 8291   2.330   2.777  15.573 -1.8364 -0.5048  0.9172
  555TMC3    H1 8292   2.278   2.624  15.172  0.3604  1.1298 -0.4237
  555TMC3    H2 8293   2.370   2.361  15.498  0.9336  0.6939 -0.1738
  555TMC3    C7 8294   2.253   2.370  15.258  0.7160  0.2684  0.2038
  555TMC3    C8 8295   2.462   2.553  15.658  0.0477 -0.4109 -0.0600
  555TMC3    O1 8296   2.217   2.268  15.318 -0.0340 -0.4300 -0.3796
  555TMC3    O2 8297   2.501   2.441  15.694  1.0258 -0.4712  0.3602
  556MPD2     C 8298   4.680   4.192  10.169 -0.6658 -0.5791  0.2902
  556MPD2    C1 8299   0.011   4.114  10.255  0.0512  0.9234 -0.5774
  556MPD2    C2 8300   0.108   4.031  10.203 -0.6207 -0.2222  0.0009
  556MPD2    C3 8301   0.121   4.004  10.071  0.0372 -0.4796  0.4590
  556MPD2    C4 8302   0.047   4.074   9.985 -0.3382  0.3919  0.1561
  556MPD2    C5 8303   4.692   4.161  10.038 -0.2812 -0.1637 -0.2549
  556MPD2     H 8304   0.160   3.966  10.272 -2.0703 -0.0244  1.3069
  556MPD2    H1 8305   0.052   4.068   9.877 -2.3233  0.5769  0.0679
  556MPD2    H2 8306   4.605   4.263  10.200  0.5290  0.2479  1.2561
  556MPD2    H3 8307   4.626   4.214   9.970 -0.7025 -1.9176 -1.2154
  556MPD2     N 8308   0.205   3.895  10.034 -0.4850  0.1075 -0.5364
  556MPD2    H5 8309   0.259   3.866  10.116 -4.1311 -0.1544  1.7689
  556MPD2    N1 8310   0.001   4.100  10.392 -0.4818 -0.2070  0.1564
  556MPD2    H7 8311   0.072   4.056  10.450  0.8977  0.7851 -0.7716
  557TMC3    C1 8312   0.316   3.716   9.908 -0.1037  0.0158  0.4889
  557TMC3    C2 8313   0.381   3.687   9.789  0.4734  0.8749 -0.5728
  557TMC3    C3 8314   0.464   3.570   9.787 -0.2191 -0.5952 -0.9504
  557TMC3    C4 8315   0.321   3.637  10.018  0.4649 -0.5546 -0.1256
  557TMC3    C5 8316   0.389   3.516  10.009  0.0528 -0.1331  1.0555
  557TMC3    C6 8317   0.452   3.479   9.891 -0.4629  0.6194 -0.7073
  557TMC3     C 8318   0.246   3.844   9.912  0.2316  0.0521 -0.3974
  557TMC3     O 8319   0.221   3.899   9.804 -0.6777  0.2599 -0.0020
  557TMC3     H 8320   0.374   3.758   9.707  0.8738  1.0745 -0.4313
  557TMC3    H1 8321   0.261   3.666  10.104 -1.9699  2.6466 -2.8718
  557TMC3    H2 8322   0.498   3.381   9.883  1.8546  1.5306  1.6182
  557TMC3    C7 8323   0.345   3.416  10.106  0.8324  0.3026  0.5554
  557TMC3    C8 8324   0.518   3.528   9.657  0.1257  0.5168  0.0812
  557TMC3    O1 8325   0.258   3.453  10.182  0.0111 -0.2690 -0.3324
  557TMC3    O2 8326   0.537   3.617   9.578  0.2290  0.2845 -0.2306
  558TMC3    C1 8327   2.404   1.915  10.224  0.0420 -0.1157 -0.3726
  558TMC3    C2 8328   2.308   1.882  10.320 -0.2310  0.1515  0.7132
  558TMC3    C3 8329   2.233   1.777  10.288  0.1373  0.0951 -0.0523
  558TMC3    C4 8330   2.409   1.862  10.102 -1.1270 -0.5425  0.5102
  558TMC3    C5 8331   2.325   1.760  10.078 -0.1295  0.7443  0.0443
  558TMC3    C6 8332   2.235   1.715  10.168  0.2699  0.3829 -0.4678
  558TMC3     C 8333   2.510   2.009  10.256 -0.6754 -0.1801  0.2275
  558TMC3     O 8334   2.608   2.002  10.187 -0.3400 -0.2109 -0.3369
  558TMC3     H 8335   2.300   1.929  10.417  1.4277  2.0980 -0.1029
  558TMC3    H1 8336   2.478   1.904  10.030 -0.2210 -2.3603  0.3219
  558TMC3    H2 8337   2.181   1.624  10.143  0.0104  0.1026  1.1713
  558TMC3    C7 8338   2.324   1.707   9.943 -0.6528 -0.1504 -0.0583
  558TMC3    C8 8339   2.132   1.744  10.384  0.1859 -0.8458 -0.0977
  558TMC3    O1 8340   2.429   1.714   9.881 -0.4834  0.4301 -0.0434
  558TMC3    O2 8341   2.019   1.704  10.364 -0.1464 -0.0114 -0.2898
  559MPD2     C 8342   2.864   2.605  10.671  0.0752  0.5316 -0.5388
  559MPD2    C1 8343   2.795   2.520  10.753  0.2078  0.5683 -0.2311
  559MPD2    C2 8344   2.859   2.463  10.859  0.6362 -0.4977 -0.3597
  559MPD2    C3 8345   2.989   2.498  10.890 -0.3979  0.7117  0.1269
  559MPD2    C4 8346   3.057   2.581  10.806 -0.1726 -0.0247  0.8350
  559MPD2    C5 8347   2.997   2.638  10.701  0.7628 -0.9539  0.1602
  559MPD2     H 8348   2.802   2.398  10.924  0.9938  1.4427  1.8640
  559MPD2    H1 8349   3.160   2.613  10.823  0.0833 -0.2325 -0.3354
  559MPD2    H2 8350   2.819   2.658  10.589  0.3326  1.2243 -0.2328
  559MPD2    H3 8351   3.045   2.716  10.644 -0.1000 -0.2411  0.4021
  559MPD2     N 8352   3.040   2.446  11.007  0.6769  0.5861  0.5158
  559MPD2    H5 8353   2.974   2.393  11.063  2.8175 -2.0812  0.5801
  559MPD2    N1 8354   2.658   2.496  10.716 -0.0334  0.1416 -0.1544
  559MPD2    H7 8355   2.612   2.556  10.650 -0.4970 -0.3453 -0.2741
  560TMC3    C1 8356   3.198   2.381  11.170  0.0740  0.3776  0.4382
  560TMC3    C2 8357   3.088   2.343  11.246  0.2436  0.1036  0.4738
  560TMC3    C3 8358   3.104   2.260  11.359 -0.1307 -0.8491  0.9256
  560TMC3    C4 8359   3.322   2.328  11.193 -0.0321  0.7747 -0.2074
  560TMC3    C5 8360   3.337   2.250  11.307 -0.4484  0.0575 -0.1095
  560TMC3    C6 8361   3.229   2.205  11.381  0.0765  0.0503  0.1818
  560TMC3     C 8362   3.175   2.447  11.043  0.3894  0.8278 -0.2501
  560TMC3     O 8363   3.272   2.484  10.978 -0.1106 -0.0308 -0.1995
  560TMC3     H 8364   2.986   2.366  11.215  1.2915  1.0028 -2.2991
  560TMC3    H1 8365   3.403   2.349  11.125  0.0907 -0.0368 -0.3098
  560TMC3    H2 8366   3.244   2.131  11.458  2.0327 -0.9810 -1.1978
  560TMC3    C7 8367   3.466   2.188  11.333  0.5504  0.8795  0.3334
  560TMC3    C8 8368   2.981   2.187  11.407  0.1838 -0.5717 -0.0535
  560TMC3    O1 8369   3.454   2.096  11.409 -0.1437 -0.1937 -0.2390
  560TMC3    O2 8370   2.890   2.177  11.327  0.5612  0.2815 -0.0398
  561TMC3    C1 8371   1.487   1.045  11.103 -0.6590 -0.7366  0.4470
  561TMC3    C2 8372   1.466   0.930  11.173 -0.8285 -0.4324  0.0460
  561TMC3    C3 8373   1.337   0.879  11.184  0.4329  0.5630  0.1378
  561TMC3    C4 8374   1.379   1.115  11.061 -0.5382  0.3923 -0.3591
  561TMC3    C5 8375   1.251   1.059  11.071 -0.1370 -0.7577 -0.5757
  561TMC3    C6 8376   1.226   0.937  11.131 -0.3459  0.0626  0.3638
  561TMC3     C 8377   1.618   1.101  11.084 -0.4020  0.8106  0.8998
  561TMC3     O 8378   1.707   1.019  11.049 -0.3505  0.2347  0.0672
  561TMC3     H 8379   1.557   0.885  11.208 -0.9145 -0.3577  0.3641
  561TMC3    H1 8380   1.391   1.214  11.019 -0.1269  0.7967  0.7037
  561TMC3    H2 8381   1.131   0.885  11.118 -0.2708  0.0810 -0.2197
  561TMC3    C7 8382   1.141   1.136  11.009  0.6299  0.1880 -1.1076
  561TMC3    C8 8383   1.308   0.827  11.312 -1.1579 -0.3019 -0.3475
  561TMC3    O1 8384   1.027   1.106  11.047 -0.1206 -0.7609  0.2838
  561TMC3    O2 8385   1.404   0.760  11.352  0.4102  0.5572 -0.7826
  562TMC3    C1 8386   2.323   3.055  16.177 -0.1865 -0.4144 -0.2999
  562TMC3    C2 8387   2.277   3.187  16.163 -0.0197  0.1247 -0.2996
  562TMC3    C3 8388   2.216   3.221  16.046 -0.4726 -0.5585  0.2413
  562TMC3    C4 8389   2.298   2.966  16.078  0.0954  0.0823 -0.2211
  562TMC3    C5 8390   2.220   3.008  15.966 -0.8598 -0.4580 -0.5868
  562TMC3    C6 8391   2.184   3.137  15.943 -0.6195 -0.6363  0.4165
  562TMC3     C 8392   2.378   3.013  16.303  0.6073  0.3581  0.2506
  562TMC3     O 8393   2.454   2.915  16.303 -0.1810  0.2153  0.5103
  562TMC3     H 8394   2.295   3.262  16.238  1.8463  1.6328 -2.2482
  562TMC3    H1 8395   2.329   2.864  16.100  0.1182 -0.0814 -1.0054
  562TMC3    H2 8396   2.144   3.172  15.849  1.7932  2.5587  0.5868
  562TMC3    C7 8397   2.165   2.910  15.875  0.1287  0.1683  0.0759
  562TMC3    C8 8398   2.151   3.346  16.056  0.0430  0.1459 -0.4535
  562TMC3    O1 8399   2.119   2.955  15.773  0.1566  0.2260 -0.0444
  562TMC3    O2 8400   2.196   3.435  16.120  0.3540  0.2126  0.2209
  563MPD2     C 8401   4.232   4.245  15.412  1.4401  0.0152 -0.2608
  563MPD2    C1 8402   4.267   4.321  15.519  1.1485  0.1047 -0.2834
  563MPD2    C2 8403   4.374   4.285  15.594 -0.4308 -0.1312 -0.5386
  563MPD2    C3 8404   4.455   4.185  15.550 -0.2149 -0.2015  0.2348
  563MPD2    C4 8405   4.425   4.109  15.439 -0.3196  0.3814  0.4923
  563MPD2    C5 8406   4.310   4.138  15.368  0.4292  0.8328  0.0376
  563MPD2     H 8407   4.406   4.339  15.682 -0.9074 -2.0494  0.7967
  563MPD2    H1 8408   4.488   4.036  15.390 -1.7124 -0.8849  0.5828
  563MPD2    H2 8409   4.152   4.279  15.348 -0.6860 -2.5774  1.0317
  563MPD2    H3 8410   4.278   4.092  15.275  0.0698 -1.1411  1.1381
  563MPD2     N 8411   4.576   4.158  15.622  0.6257 -0.3617  1.2525
  563MPD2    H5 8412   4.588   4.214  15.706  0.5436  0.5874  0.6349
  563MPD2    N1 8413   4.179   4.425  15.559  0.5970  0.0416  0.7461
  563MPD2    H7 8414   4.082   4.408  15.537  0.7642 -0.3197  0.2876
  564TMC3    C1 8415   4.108   4.516  15.766 -0.3453  0.4134  0.9185
  564TMC3    C2 8416   3.984   4.454  15.725 -0.1467  0.5660 -0.2019
  564TMC3    C3 8417   3.915   4.397  15.827 -0.2005 -0.2730  0.6724
  564TMC3    C4 8418   4.169   4.483  15.892  0.1555 -0.5776 -0.0999
  564TMC3    C5 8419   4.101   4.406  15.977 -0.0070 -0.2015 -0.4312
  564TMC3    C6 8420   3.966   4.364  15.948  0.4350  0.2459 -0.7370
  564TMC3     C 8421   4.209   4.519  15.658  0.5603  0.0670 -0.4061
  564TMC3     O 8422   4.325   4.550  15.693 -0.4382  0.4309 -0.1478
  564TMC3     H 8423   3.942   4.488  15.631 -1.5173 -0.2704  0.1026
  564TMC3    H1 8424   4.269   4.515  15.918 -0.2874  0.4633  0.2903
  564TMC3    H2 8425   3.907   4.311  16.023  2.4952  0.2975  0.9142
  564TMC3    C7 8426   4.167   4.287  16.016 -0.5177 -0.1046 -0.0096
  564TMC3    C8 8427   3.839   4.284  15.781 -0.0148 -0.7688  0.0596
  564TMC3    O1 8428   4.119   4.239  16.119  0.0183 -0.1124 -0.2664
  564TMC3    O2 8429   3.793   4.212  15.869  0.0767  0.3777 -0.1201
  565TMC3    C1 8430   0.396   0.755  10.096 -0.9558  0.2253 -0.1563
  565TMC3    C2 8431   0.430   0.659  10.190  0.5658  0.4895  0.2068
  565TMC3    C3 8432   0.327   0.589  10.249  0.3178 -0.1438  0.5466
  565TMC3    C4 8433   0.267   0.787  10.054 -0.0033  0.2362  0.4984
  565TMC3    C5 8434   0.170   0.711  10.115 -0.4404  0.0854  1.0847
  565TMC3    C6 8435   0.199   0.617  10.206  0.0961 -0.2663 -0.5668
  565TMC3     C 8436   0.509   0.839  10.055 -0.5696  0.1486 -0.1586
  565TMC3     O 8437   0.510   0.869   9.937 -0.2984 -0.0130 -0.1222
  565TMC3     H 8438   0.535   0.636  10.194  0.1826 -1.1161  0.8057
  565TMC3    H1 8439   0.250   0.881  10.005 -1.1318  2.2991  4.8867
  565TMC3    H2 8440   0.126   0.576  10.274  2.2748 -1.1224  1.2646
  565TMC3    C7 8441   0.030   0.707  10.073 -1.0763 -0.1192 -0.7314
  565TMC3    C8 8442   0.341   0.525  10.375 -0.2948 -0.0657 -0.1253
  565TMC3    O1 8443   4.698   0.627  10.134  0.3683  0.3472  0.2290
  565TMC3    O2 8444   0.409   0.576  10.461  0.1483 -0.5874  0.6654
  566MPD2     C 8445   1.777   2.232  14.146  0.0696  0.7255 -0.0446
  566MPD2    C1 8446   1.843   2.275  14.031 -0.3377 -0.6519  0.0894
  566MPD2    C2 8447   1.765   2.347  13.942  0.6862 -0.3748  0.1661
  566MPD2    C3 8448   1.635   2.372  13.972 -0.7113  0.2911 -0.2882
  566MPD2    C4 8449   1.569   2.325  14.083  0.5708  0.0249  0.1865
  566MPD2    C5 8450   1.645   2.245  14.159  0.1822  0.2490  0.6267
  566MPD2     H 8451   1.803   2.393  13.851 -0.5040 -0.0385 -0.1629
  566MPD2    H1 8452   1.462   2.336  14.095  0.2245 -0.1659 -2.8418
  566MPD2    H2 8453   1.831   2.172  14.219  1.0564 -1.6449 -2.6978
  566MPD2    H3 8454   1.596   2.196  14.243 -0.2805  0.5465  0.5332
  566MPD2     N 8455   1.575   2.446  13.870  0.3006 -0.3592  0.2766
  566MPD2    H5 8456   1.630   2.481  13.792  2.1262 -2.5777  0.5709
  566MPD2    N1 8457   1.977   2.255  14.020 -0.1034  0.1753  0.2753
  566MPD2    H7 8458   2.025   2.218  14.102 -2.3999  0.8249  1.8950
  567TMC3    C1 8459   2.193   2.267  13.905 -0.1910 -0.4679 -0.1624
  567TMC3    C2 8460   2.258   2.247  13.787 -0.7985 -0.1006 -0.4239
  567TMC3    C3 8461   2.381   2.307  13.784  0.3528 -0.5864 -0.7823
  567TMC3    C4 8462   2.251   2.318  14.016  0.9056  0.2197  0.0761
  567TMC3    C5 8463   2.380   2.366  14.006 -0.8778  0.2380 -0.4400
  567TMC3    C6 8464   2.450   2.365  13.886 -0.5990 -1.0978 -0.3361
  567TMC3     C 8465   2.045   2.271  13.896  0.9860  0.5432 -0.5539
  567TMC3     O 8466   2.000   2.280  13.785 -0.0990 -0.5383 -0.8076
  567TMC3     H 8467   2.206   2.218  13.696  1.8442 -0.1733 -1.9023
  567TMC3    H1 8468   2.212   2.309  14.117  2.9440 -0.5794  0.8035
  567TMC3    H2 8469   2.553   2.398  13.885 -0.1163 -2.6035 -2.3860
  567TMC3    C7 8470   2.449   2.424  14.122  0.6751  0.7083  0.9688
  567TMC3    C8 8471   2.411   2.351  13.649 -0.9427 -0.4784 -0.5391
  567TMC3    O1 8472   2.572   2.413  14.123 -0.0600  0.7978 -0.1744
  567TMC3    O2 8473   2.310   2.366  13.580 -0.0368 -0.7274  0.3431
  568MPD2     C 8474   4.118   2.758  16.162 -0.1199  0.3844 -0.6541
  568MPD2    C1 8475   4.093   2.853  16.256 -0.0359 -0.3335  0.2691
  568MPD2    C2 8476   4.074   2.986  16.222 -0.6298 -0.6795 -0.2088
  568MPD2    C3 8477   4.091   3.021  16.089 -0.3127 -0.3872  0.2923
  568MPD2    C4 8478   4.107   2.926  15.991  0.7805 -0.1515  0.2318
  568MPD2    C5 8479   4.115   2.791  16.025 -0.1577  0.0878  0.2160
  568MPD2     H 8480   4.063   3.065  16.296 -1.2217 -0.7253 -0.2451
  568MPD2    H1 8481   4.101   2.950  15.885  0.0954  2.3058  0.8464
  568MPD2    H2 8482   4.136   2.656  16.193  1.4655  1.3933  1.6695
  568MPD2    H3 8483   4.146   2.714  15.955 -1.1673 -0.0663 -0.0556
  568MPD2     N 8484   4.074   3.159  16.062 -0.1703 -0.2124  0.1122
  568MPD2    H5 8485   4.034   3.220  16.132 -1.5970  0.7799 -1.5422
  568MPD2    N1 8486   4.099   2.811  16.386  0.7765 -0.6731  0.3118
  568MPD2    H7 8487   4.102   2.711  16.402 -0.4752 -0.7538  0.0822
  569TMC3    C1 8488   4.074   3.369  15.962  0.2227  0.1121 -0.3141
  569TMC3    C2 8489   4.056   3.416  16.090  0.0813 -0.2406  0.1245
  569TMC3    C3 8490   4.051   3.555  16.102  0.2336 -0.5601 -0.3074
  569TMC3    C4 8491   4.094   3.449  15.854 -0.4821 -0.2108 -0.3477
  569TMC3    C5 8492   4.076   3.583  15.876 -0.2901 -0.1038  0.2748
  569TMC3    C6 8493   4.055   3.639  15.998  0.0516 -0.0367  0.1973
  569TMC3     C 8494   4.087   3.223  15.943  0.4455 -0.0064 -1.0913
  569TMC3     O 8495   4.125   3.174  15.836  0.0104 -0.3122  0.1046
  569TMC3     H 8496   4.044   3.350  16.175  0.6668 -0.8018 -0.2301
  569TMC3    H1 8497   4.097   3.406  15.755  2.4213 -0.5687 -0.0920
  569TMC3    H2 8498   4.034   3.743  16.016 -1.5890 -0.9230  3.3431
  569TMC3    C7 8499   4.046   3.658  15.758 -0.0715 -0.2587  0.1022
  569TMC3    C8 8500   4.073   3.605  16.245  0.4279 -0.6880  0.4903
  569TMC3    O1 8501   4.087   3.604  15.653  0.0403  0.5063  0.1494
  569TMC3    O2 8502   4.056   3.521  16.329  0.1941 -0.4294 -0.2431
  570TMC3    C1 8503   3.325   1.756  16.026  0.1412 -0.3033 -0.2068
  570TMC3    C2 8504   3.404   1.768  15.919 -0.6844  0.7448  1.0414
  570TMC3    C3 8505   3.463   1.889  15.905 -0.4143 -1.0783  0.2610
  570TMC3    C4 8506   3.273   1.864  16.094  0.0593 -0.3879 -0.5036
  570TMC3    C5 8507   3.322   1.985  16.064 -0.1205  0.5507  0.1116
  570TMC3    C6 8508   3.418   2.001  15.970  0.4026 -0.4985 -0.5044
  570TMC3     C 8509   3.286   1.618  16.064  0.7241 -0.2663  0.3073
  570TMC3     O 8510   3.288   1.531  15.977  0.0881 -0.0588  0.2014
  570TMC3     H 8511   3.459   1.678  15.894 -0.2931  1.0105  0.9437
  570TMC3    H1 8512   3.198   1.848  16.170 -0.4384  1.4749 -0.5997
  570TMC3    H2 8513   3.479   2.090  15.962 -0.8894  0.3952 -0.5297
  570TMC3    C7 8514   3.292   2.095  16.158 -0.2053 -0.5307  0.2345
  570TMC3    C8 8515   3.575   1.909  15.809  0.3072  0.5300  0.9244
  570TMC3    O1 8516   3.264   2.068  16.276  0.2540  0.2973 -0.3503
  570TMC3    O2 8517   3.652   2.004  15.822 -0.1825 -0.3295 -0.1054
  571MPD2     C 8518   1.024   3.725   0.374 -1.1357 -0.0836  0.2574
  571MPD2    C1 8519   1.136   3.693   0.448  0.2030 -1.3993 -0.3853
  571MPD2    C2 8520   1.238   3.783   0.455  0.3444  0.2961  0.1984
  571MPD2    C3 8521   1.225   3.916   0.406  0.2544  0.4354 -0.1091
  571MPD2    C4 8522   1.113   3.942   0.329 -0.7767  0.0788 -0.1912
  571MPD2    C5 8523   1.011   3.851   0.311  0.3497  0.0298  0.2015
  571MPD2     H 8524   1.339   3.754   0.482 -0.0204  0.2197  1.4754
  571MPD2    H1 8525   1.113   4.043   0.287  0.1296 -0.1533 -0.7342
  571MPD2    H2 8526   0.960   3.642   0.346 -1.5256  0.5202 -0.6284
  571MPD2    H3 8527   0.933   3.870   0.238  0.0847 -1.2689  0.1520
  571MPD2     N 8528   1.318   4.015   0.432  0.3132 -0.2990  0.0034
  571MPD2    H5 8529   1.299   4.107   0.392 -0.4862 -0.8542 -0.9039
  571MPD2    N1 8530   1.145   3.559   0.489 -0.0652  0.0574 -0.1307
  571MPD2    H7 8531   1.068   3.497   0.467 -0.7670  0.1070  2.1419
  572TMC3    C1 8532   1.531   4.121   0.484  0.5508  0.0474 -0.0057
  572TMC3    C2 8533   1.620   4.135   0.580  0.5869  0.4519  0.9412
  572TMC3    C3 8534   1.695   4.254   0.575 -0.5504 -0.3603  0.1781
  572TMC3    C4 8535   1.525   4.204   0.377 -0.1861  0.9797  0.2412
  572TMC3    C5 8536   1.610   4.306   0.364  0.0384 -0.4212  0.2382
  572TMC3    C6 8537   1.692   4.336   0.468  0.2991  0.3429 -0.0456
  572TMC3     C 8538   1.441   4.004   0.500  0.0343 -0.1521 -0.4812
  572TMC3     O 8539   1.471   3.931   0.594 -0.1466 -0.1408  0.4188
  572TMC3     H 8540   1.606   4.103   0.683  2.9978 -1.5173  0.6317
  572TMC3    H1 8541   1.462   4.175   0.295  0.3971  0.9859 -0.2116
  572TMC3    H2 8542   1.759   4.421   0.473  2.5745 -1.4784  0.7713
  572TMC3    C7 8543   1.581   4.403   0.261  0.0008 -0.2736  0.2671
  572TMC3    C8 8544   1.797   4.280   0.682 -0.4222 -0.0270 -0.0441
  572TMC3    O1 8545   1.479   4.399   0.196  0.2337  0.0955  0.2460
  572TMC3    O2 8546   1.814   4.399   0.709 -0.0320 -0.1748  0.4152
  573MPD2     C 8547   2.021   3.929   0.539  0.2666  0.3399 -0.1584
  573MPD2    C1 8548   2.001   4.020   0.442 -0.1413  0.3608  0.0582
  573MPD2    C2 8549   1.886   4.012   0.355 -0.3176 -0.3447  0.4829
  573MPD2    C3 8550   1.792   3.915   0.371  0.5196 -0.7748 -0.1030
  573MPD2    C4 8551   1.823   3.822   0.468 -1.1218  0.0392 -1.1273
  573MPD2    C5 8552   1.926   3.833   0.563  0.1374  0.5161 -0.3552
  573MPD2     H 8553   1.849   4.097   0.298  0.8423 -0.5449 -0.5694
  573MPD2    H1 8554   1.753   3.742   0.485  0.1996 -0.6363  1.0392
  573MPD2    H2 8555   2.114   3.932   0.593 -1.3588  0.5758  2.6556
  573MPD2    H3 8556   1.945   3.752   0.632  1.1320  1.0980  0.0513
  573MPD2     N 8557   1.679   3.907   0.285 -0.3759 -0.7369 -0.1807
  573MPD2    H5 8558   1.611   3.834   0.306  0.0772 -0.2292  3.0038
  573MPD2    N1 8559   2.090   4.133   0.426 -0.0036  0.3987 -0.1182
  573MPD2    H7 8560   2.180   4.133   0.474  0.9903 -0.6657 -1.9356
  574TMC3    C1 8561   1.523   3.954   0.118 -0.7882  0.4009 -0.7434
  574TMC3    C2 8562   1.471   4.055   0.045 -0.4769 -0.0830 -0.1355
  574TMC3    C3 8563   1.348   4.041  17.742  0.4014 -0.2276  0.3840
  574TMC3    C4 8564   1.465   3.828   0.131  0.6804  0.7481  0.8096
  574TMC3    C5 8565   1.341   3.818   0.065 -0.0971 -0.6766 -0.9373
  574TMC3    C6 8566   1.287   3.924  17.752 -0.2614 -0.2326 -0.1207
  574TMC3     C 8567   1.658   3.978   0.169  0.3097 -0.5294  0.3500
  574TMC3     O 8568   1.727   4.062   0.119  0.0271 -0.3012  0.0593
  574TMC3     H 8569   1.530   4.145   0.048 -1.1489  0.4140 -1.7664
  574TMC3    H1 8570   1.521   3.747   0.175  1.1174  1.2107  1.1084
  574TMC3    H2 8571   1.197   3.911  17.693  0.8691  0.6521 -2.0220
  574TMC3    C7 8572   1.266   3.697   0.079 -1.2673 -0.6066  0.1588
  574TMC3    C8 8573   1.292   4.144  17.659 -0.2109  0.1298  0.2021
  574TMC3    O1 8574   1.168   3.694   0.005  0.1336 -0.8817  0.1463
  574TMC3    O2 8575   1.176   4.146  17.615 -0.2243 -0.1619  0.3127
  575TMC3    C1 8576   0.722   0.242  11.120 -0.3333 -0.3270 -0.3227
  575TMC3    C2 8577   0.649   0.188  11.223  1.3002  0.1944  0.8894
  575TMC3    C3 8578   0.516   0.192  11.212 -0.1492 -0.3101  0.1839
  575TMC3    C4 8579   0.674   0.298  11.004 -0.3189 -0.1622 -0.3684
  575TMC3    C5 8580   0.545   0.291  10.994 -0.4725  0.0674 -1.0832
  575TMC3    C6 8581   0.465   0.237  11.098 -0.4003  0.5481 -0.5684
  575TMC3     C 8582   0.860   0.253  11.128 -1.0729 -0.3470  0.6518
  575TMC3     O 8583   0.936   0.276  11.032 -0.1234  0.0703  0.4712
  575TMC3     H 8584   0.702   0.150  11.310 -1.8439 -0.4759  2.5230
  575TMC3    H1 8585   0.742   0.317  10.922  0.3385  0.7753  0.3964
  575TMC3    H2 8586   0.358   0.245  11.083 -0.7659 -1.9470  0.7097
  575TMC3    C7 8587   0.494   0.316  10.857 -0.0457  0.1161  0.0238
  575TMC3    C8 8588   0.430   0.151  11.323  0.6120  0.1810 -0.2652
  575TMC3    O1 8589   0.571   0.369  10.778  0.1991 -0.4955 -0.1387
  575TMC3    O2 8590   0.313   0.176  11.311 -0.2399  0.7172 -0.1997
  576MPD2     C 8591   0.299   1.243  12.320  0.2098 -0.9234  0.2217
  576MPD2    C1 8592   0.313   1.338  12.215 -0.3088  0.5629 -0.2971
  576MPD2    C2 8593   0.237   1.453  12.213  0.1195  0.1971 -0.0168
  576MPD2    C3 8594   0.147   1.471  12.315  0.2171 -0.0040 -0.8699
  576MPD2    C4 8595   0.123   1.380  12.415 -0.4574 -0.2343  0.4554
  576MPD2    C5 8596   0.200   1.268  12.410  0.1254  0.4398  0.0320
  576MPD2     H 8597   0.255   1.532  12.142 -1.1751  0.5647  0.0586
  576MPD2    H1 8598   0.056   1.393  12.499 -1.8560  0.1211 -0.7073
  576MPD2    H2 8599   0.359   1.153  12.331  0.4624 -0.5926  1.4734
  576MPD2    H3 8600   0.182   1.196  12.489  2.4201  2.1547  2.1374
  576MPD2     N 8601   0.095   1.600  12.315 -0.0280  0.2075  0.2905
  576MPD2    H5 8602   0.125   1.653  12.234 -1.1517 -0.7720 -0.7707
  576MPD2    N1 8603   0.418   1.326  12.121 -0.6667  0.2361 -0.2599
  576MPD2    H7 8604   0.429   1.397  12.050  0.6230 -0.7912 -1.0916
  577TMC3    C1 8605   0.587   1.228  11.991  0.4663  0.5844  0.2557
  577TMC3    C2 8606   0.690   1.143  11.981  0.4545  0.0202 -0.0919
  577TMC3    C3 8607   0.762   1.145  11.867 -0.2538 -0.0623 -0.2524
  577TMC3    C4 8608   0.551   1.306  11.886 -0.4136 -0.6676  0.5870
  577TMC3    C5 8609   0.632   1.312  11.779 -0.0032 -0.9114 -0.7998
  577TMC3    C6 8610   0.738   1.232  11.770 -0.6165  0.2685 -0.6087
  577TMC3     C 8611   0.504   1.217  12.111 -0.3811  0.1283 -0.4121
  577TMC3     O 8612   0.536   1.131  12.196 -0.4235  0.3415  0.0224
  577TMC3     H 8613   0.710   1.072  12.061 -1.0221 -0.6603 -0.3232
  577TMC3    H1 8614   0.473   1.381  11.887  0.8776  0.7083 -2.1695
  577TMC3    H2 8615   0.803   1.234  11.683  1.8464  2.0733  1.2889
  577TMC3    C7 8616   0.589   1.372  11.654  0.4556  0.0593  0.0334
  577TMC3    C8 8617   0.861   1.043  11.844 -0.3154  0.1742 -0.0942
  577TMC3    O1 8618   0.675   1.373  11.570  0.0900  0.2409  0.3508
  577TMC3    O2 8619   0.886   0.977  11.947  0.3790  0.2681 -0.3217
  578MPD2     C 8620   2.712   2.502   0.760 -0.2491  0.2645  0.0914
  578MPD2    C1 8621   2.747   2.417   0.659  0.4406 -0.3594 -0.3765
  578MPD2    C2 8622   2.835   2.313   0.689 -0.0490 -0.4967 -0.2331
  578MPD2    C3 8623   2.866   2.284   0.817 -0.1800  1.0019 -0.0398
  578MPD2    C4 8624   2.821   2.366   0.922 -0.1621 -0.5380  0.0992
  578MPD2    C5 8625   2.744   2.475   0.895 -0.1126 -0.8380  0.1371
  578MPD2     H 8626   2.870   2.254   0.606  0.0921  0.3309 -0.7620
  578MPD2    H1 8627   2.844   2.344   1.025 -0.3459 -0.0451  0.2454
  578MPD2    H2 8628   2.644   2.583   0.739  0.0847  0.0684 -1.7263
  578MPD2    H3 8629   2.714   2.533   0.981 -0.4838 -0.3562 -0.3192
  578MPD2     N 8630   2.964   2.191   0.839  0.1289 -0.6764 -0.2374
  578MPD2    H5 8631   2.998   2.145   0.755  0.4949 -0.8286 -0.0060
  578MPD2    N1 8632   2.696   2.444   0.526 -0.0231  0.8340  0.3521
  578MPD2    H7 8633   2.640   2.529   0.518 -0.4915  0.3328 -1.6709
  579TMC3    C1 8634   3.138   2.068   0.944 -0.1451 -0.1034 -0.9840
  579TMC3    C2 8635   3.240   2.091   1.033  0.2338 -0.1643 -0.8848
  579TMC3    C3 8636   3.364   2.038   1.011  0.5794 -0.5075  0.0624
  579TMC3    C4 8637   3.160   1.994   0.824 -0.5107  0.4593  0.9866
  579TMC3    C5 8638   3.284   1.932   0.823  0.2333 -0.6138 -0.3340
  579TMC3    C6 8639   3.389   1.959   0.905  0.5735  0.0775  0.4497
  579TMC3     C 8640   3.034   2.168   0.955 -0.1982 -0.5896 -0.4102
  579TMC3     O 8641   3.028   2.230   1.061  0.3773  0.0304  0.7141
  579TMC3     H 8642   3.229   2.150   1.123  2.5310 -1.7933  0.4639
  579TMC3    H1 8643   3.073   1.979   0.761 -0.4584  1.0041  0.7858
  579TMC3    H2 8644   3.483   1.905   0.906  0.4441 -0.1543 -0.2762
  579TMC3    C7 8645   3.295   1.816   0.734  0.5848  0.2700 -0.0570
  579TMC3    C8 8646   3.462   2.043   1.126  0.0288  0.0381  0.4648
  579TMC3    O1 8647   3.378   1.726   0.764  0.2182  0.5219 -0.1625
  579TMC3    O2 8648   3.409   2.076   1.231  0.3057 -0.3889  0.1471
  580TMC3    C1 8649   2.499   0.706  12.225  0.9149 -0.3918  0.1282
  580TMC3    C2 8650   2.464   0.682  12.102  0.1250 -0.0509 -0.1061
  580TMC3    C3 8651   2.449   0.547  12.059  0.0414 -0.0720  0.1104
  580TMC3    C4 8652   2.515   0.606  12.311 -0.4179  0.0050 -0.3536
  580TMC3    C5 8653   2.501   0.478  12.277  0.0335 -0.5228  0.2177
  580TMC3    C6 8654   2.469   0.444  12.148 -0.0749  0.1994 -0.6271
  580TMC3     C 8655   2.556   0.836  12.252  0.0324 -0.1876 -0.1460
  580TMC3     O 8656   2.606   0.892  12.154 -0.5411  0.0610  0.3038
  580TMC3     H 8657   2.446   0.767  12.037  0.8483  0.1399 -0.0544
  580TMC3    H1 8658   2.546   0.636  12.410 -1.4177 -1.8119  0.5075
  580TMC3    H2 8659   2.447   0.345  12.109 -1.1625 -0.7063  2.2823
  580TMC3    C7 8660   2.529   0.378  12.380 -0.5983  0.4928 -0.1428
  580TMC3    C8 8661   2.463   0.521  11.918  0.4598  0.2853  0.7242
  580TMC3    O1 8662   2.562   0.424  12.490 -0.7530 -0.0060 -0.4902
  580TMC3    O2 8663   2.426   0.416  11.872  0.7742  0.3593  0.3643
  581MPD2     C 8664   0.224   0.439  14.481  0.2963 -1.3173 -0.5124
  581MPD2    C1 8665   0.135   0.509  14.562 -0.0180  0.1812  0.1785
  581MPD2    C2 8666   0.038   0.591  14.501 -0.1613 -0.0902  0.2248
  581MPD2    C3 8667   0.027   0.606  14.362 -0.0729  0.3641  0.4877
  581MPD2    C4 8668   0.112   0.533  14.279 -0.3843 -0.3734 -0.7623
  581MPD2    C5 8669   0.209   0.452  14.348  0.8753  0.1836 -0.3674
  581MPD2     H 8670   4.712   0.649  14.564  1.4826 -0.4798  2.2972
  581MPD2    H1 8671   0.124   0.544  14.172  0.7161  0.3508 -0.5690
  581MPD2    H2 8672   0.295   0.366  14.519  0.2026 -2.0850 -1.8456
  581MPD2    H3 8673   0.268   0.383  14.288  0.7885  1.0700 -1.4777
  581MPD2     N 8674   4.666   0.701  14.315 -0.4495  0.3784 -0.5081
  581MPD2    H5 8675   4.621   0.755  14.388  1.8338 -1.3570  2.1880
  581MPD2    N1 8676   0.152   0.485  14.699  0.1443  0.1512  0.0741
  581MPD2    H7 8677   0.223   0.424  14.739 -0.6448  0.0044  1.2840
  582TMC3    C1 8678   0.080   0.504  14.932 -0.4332 -0.2543 -0.2259
  582TMC3    C2 8679   0.193   0.572  14.981  0.1588  0.2012 -0.6078
  582TMC3    C3 8680   0.186   0.606  15.110  0.6089  0.5193  0.4188
  582TMC3    C4 8681   4.714   0.471  15.012  0.5360  0.3916  1.1653
  582TMC3    C5 8682   4.712   0.515  15.137  0.0012  0.4578  0.5272
  582TMC3    C6 8683   0.075   0.584  15.189  0.0405 -0.4577  0.2351
  582TMC3     C 8684   0.055   0.517  14.785  1.2900  0.1983 -0.2715
  582TMC3     O 8685   4.679   0.540  14.767 -0.0063 -0.3034 -0.0410
  582TMC3     H 8686   0.276   0.601  14.916 -0.6319 -0.4825 -1.9171
  582TMC3    H1 8687   4.625   0.428  14.969  2.8823 -3.3078  0.0327
  582TMC3    H2 8688   0.070   0.608  15.294  0.7141  0.4548  0.0621
  582TMC3    C7 8689   4.594   0.598  15.154  0.0594  0.0864 -0.4730
  582TMC3    C8 8690   0.267   0.707  15.176 -0.3306 -0.0623 -0.0647
  582TMC3    O1 8691   4.491   0.562  15.105 -0.5850 -0.0506 -0.6101
  582TMC3    O2 8692   0.199   0.773  15.257  0.1539 -0.3067 -0.4435
  583MPD2     C 8693   0.618   2.454  16.543 -0.3312 -0.0861  0.5321
  583MPD2    C1 8694   0.628   2.585  16.496 -0.1203 -0.1715 -0.1141
  583MPD2    C2 8695   0.582   2.685  16.579  1.3208 -0.3724 -0.0462
  583MPD2    C3 8696   0.520   2.653  16.702 -0.7210  0.2357 -1.1426
  583MPD2    C4 8697   0.520   2.526  16.748 -0.5381  0.4618  0.0082
  583MPD2    C5 8698   0.574   2.421  16.669  0.2238  0.5524 -0.1814
  583MPD2     H 8699   0.560   2.783  16.539 -0.1442  0.1334  1.9846
  583MPD2    H1 8700   0.490   2.501  16.849 -1.5538 -0.5232 -0.5345
  583MPD2    H2 8701   0.650   2.370  16.483  0.4033 -0.0698  0.8950
  583MPD2    H3 8702   0.581   2.322  16.713 -0.5322  0.7166  0.3134
  583MPD2     N 8703   0.460   2.765  16.762  0.4603 -0.8809  0.3063
  583MPD2    H5 8704   0.462   2.850  16.706  0.0351  0.4040  2.2542
  583MPD2    N1 8705   0.699   2.631  16.384 -0.3866  0.5455 -0.0696
  583MPD2    H7 8706   0.688   2.731  16.372  2.3565  0.8317 -0.2918
  584TMC3    C1 8707   0.330   2.894  16.896 -0.3393 -0.4026 -0.3968
  584TMC3    C2 8708   0.330   2.985  16.799  0.4331  0.5207  0.4922
  584TMC3    C3 8709   0.287   3.109  16.835  0.4866 -0.8905 -0.1399
  584TMC3    C4 8710   0.298   2.932  17.021  0.8779  0.2272 -0.8285
  584TMC3    C5 8711   0.242   3.053  17.053 -0.3914  0.3375 -0.6743
  584TMC3    C6 8712   0.239   3.149  16.955 -0.0481  0.0208  0.5452
  584TMC3     C 8713   0.381   2.760  16.871  0.0612  0.0716  0.3911
  584TMC3     O 8714   0.382   2.675  16.960 -0.2303  0.0935 -0.1591
  584TMC3     H 8715   0.333   2.958  16.694  1.5825  0.9361  0.4174
  584TMC3    H1 8716   0.316   2.858  17.098 -2.3937 -1.5014 -1.7093
  584TMC3    H2 8717   0.205   3.252  16.964  0.7664  0.3011  0.4714
  584TMC3    C7 8718   0.206   3.077  17.191  0.0458  0.1369 -0.5100
  584TMC3    C8 8719   0.323   3.210  16.735 -0.1035 -0.6364 -0.4623
  584TMC3    O1 8720   0.243   2.995  17.272 -0.0515  0.5405 -0.1857
  584TMC3    O2 8721   0.354   3.169  16.623 -0.0680 -0.0444 -0.0909
  585MPD2     C 8722   4.181   2.185   0.240  0.6176  0.4214 -0.2808
  585MPD2    C1 8723   4.236   2.203   0.116  0.0033 -0.0587 -0.5588
  585MPD2    C2 8724   4.298   2.098   0.051  0.1646 -0.2637  0.1239
  585MPD2    C3 8725   4.305   1.970   0.111 -1.3372 -0.4827  0.6547
  585MPD2    C4 8726   4.237   1.950   0.228  0.4762  0.3041  0.5882
  585MPD2    C5 8727   4.178   2.059   0.285 -0.8593 -0.1877  0.1281
  585MPD2     H 8728   4.356   2.126  17.722 -0.6774 -0.3980 -0.4829
  585MPD2    H1 8729   4.234   1.850   0.270 -0.2126 -1.2518 -3.0861
  585MPD2    H2 8730   4.133   2.267   0.292 -1.1653 -0.4099 -0.6292
  585MPD2    H3 8731   4.127   2.039   0.378 -2.0780  0.3675 -0.4216
  585MPD2     N 8732   4.369   1.856   0.047  0.2640  0.6043  0.0829
  585MPD2    H5 8733   4.364   1.765   0.090  0.4120 -1.2476 -3.8183
  585MPD2    N1 8734   4.236   2.333   0.065  0.4087 -0.5446  1.3494
  585MPD2    H7 8735   4.192   2.407   0.118 -0.0037 -0.2276  0.5696
  586TMC3    C1 8736   4.505   1.744  17.658 -0.4420  0.0409  0.1531
  586TMC3    C2 8737   4.636   1.727  17.608  0.2393 -0.7267 -0.2220
  586TMC3    C3 8738   4.670   1.604  17.555 -0.2312  0.0088 -0.0019
  586TMC3    C4 8739   4.418   1.636  17.659  0.4480 -0.1955 -0.0626
  586TMC3    C5 8740   4.456   1.515  17.596 -0.8001 -0.9608  0.1188
  586TMC3    C6 8741   4.580   1.505  17.547 -0.0896  0.8049 -0.5276
  586TMC3     C 8742   4.461   1.871  17.708 -0.7242  0.0520 -0.3288
  586TMC3     O 8743   4.508   1.968  17.653  0.4102 -0.2721 -0.0346
  586TMC3     H 8744   4.700   1.814  17.601  0.7776 -0.9803  1.5094
  586TMC3    H1 8745   4.320   1.643  17.703 -0.2984  0.6095 -1.8614
  586TMC3    H2 8746   4.609   1.407  17.512 -1.0854 -0.2667  1.6593
  586TMC3    C7 8747   4.360   1.458  17.502  0.3818  0.0734 -0.6321
  586TMC3    C8 8748   0.031   1.596  17.457  0.9520  0.2682 -0.5234
  586TMC3    O1 8749   4.253   1.428  17.552  0.0374  0.4222  0.2676
  586TMC3    O2 8750   0.073   1.480  17.446  0.6374 -0.0354 -0.3936
  587TMC3    C1 8751   1.723   0.267  15.846 -0.0566  0.6621  0.4529
  587TMC3    C2 8752   1.754   0.358  15.947  0.2872 -0.6070 -0.4401
  587TMC3    C3 8753   1.885   0.379  15.980 -1.1979  0.6481  0.3558
  587TMC3    C4 8754   1.821   0.193  15.787  0.0593 -0.9256 -0.3531
  587TMC3    C5 8755   1.951   0.218  15.820  0.8412 -0.1823  0.6030
  587TMC3    C6 8756   1.987   0.307  15.920 -0.0474  0.0366  0.1691
  587TMC3     C 8757   1.591   0.239  15.813  0.2516  0.4868  0.5066
  587TMC3     O 8758   1.575   0.196  15.701  0.2281 -0.5595  0.0685
  587TMC3     H 8759   1.670   0.410  15.993  2.3395  3.4182 -1.3035
  587TMC3    H1 8760   1.797   0.136  15.698 -1.0745 -0.3984 -0.3912
  587TMC3    H2 8761   2.090   0.330  15.944 -0.0188  1.3679 -1.2339
  587TMC3    C7 8762   2.053   0.125  15.771 -0.0564  0.1631 -0.1037
  587TMC3    C8 8763   1.914   0.491  16.068  0.6132  0.4579  0.0632
  587TMC3    O1 8764   2.033   0.008  15.749  0.1057 -0.1979 -0.0586
  587TMC3    O2 8765   1.834   0.584  16.052  0.0993 -0.9424 -0.4828
  588TMC3    C1 8766   4.411   2.519   9.758  0.1859  0.0482 -0.2041
  588TMC3    C2 8767   4.380   2.391   9.728 -0.2385  0.5977  0.6237
  588TMC3    C3 8768   4.476   2.298   9.730 -0.1841  0.4501 -0.2927
  588TMC3    C4 8769   4.542   2.549   9.787 -0.6661 -0.1425 -0.6789
  588TMC3    C5 8770   4.638   2.451   9.777 -0.4617  0.4214 -0.5394
  588TMC3    C6 8771   4.610   2.325   9.744 -0.1158 -0.5584 -0.0889
  588TMC3     C 8772   4.316   2.628   9.717 -0.2975  0.6010  0.1717
  588TMC3     O 8773   4.218   2.616   9.650  0.1185 -0.2451 -0.0083
  588TMC3     H 8774   4.285   2.363   9.684 -0.2614  0.4825  0.7440
  588TMC3    H1 8775   4.572   2.647   9.822 -1.3596 -0.0319 -0.3807
  588TMC3    H2 8776   4.689   2.258   9.710  1.2462 -0.8371  3.5513
  588TMC3    C7 8777   0.038   2.492   9.773 -0.3191  0.3757  0.2337
  588TMC3    C8 8778   4.440   2.156   9.703 -0.2966  0.4298 -0.3567
  588TMC3    O1 8779   0.127   2.423   9.826  0.1407 -0.3462  0.1385
  588TMC3    O2 8780   4.333   2.133   9.647  0.5920  0.5719 -0.3409
  589TMC3    C1 8781   3.320   0.420   0.792  0.0333  0.4607  0.1999
  589TMC3    C2 8782   3.438   0.371   0.841  0.4006 -0.2726 -0.1813
  589TMC3    C3 8783   3.519   0.288   0.766 -0.6607 -0.1492 -0.4840
  589TMC3    C4 8784   3.286   0.398   0.663  0.1647  0.0215  0.4776
  589TMC3    C5 8785   3.365   0.311   0.594  0.0451  0.0577 -0.0547
  589TMC3    C6 8786   3.478   0.250   0.644  0.3057 -0.2583  0.4402
  589TMC3     C 8787   3.284   0.549   0.837  0.4726  0.0633  0.1191
  589TMC3     O 8788   3.166   0.582   0.816  0.4539  0.4901 -0.1711
  589TMC3     H 8789   3.462   0.395   0.944 -0.2430  2.7067 -0.7268
  589TMC3    H1 8790   3.190   0.437   0.631  0.3918 -1.0752 -1.5120
  589TMC3    H2 8791   3.541   0.184   0.585 -0.7852 -0.3875 -0.5750
  589TMC3    C7 8792   3.343   0.294   0.458 -0.1656 -0.0909  0.4900
  589TMC3    C8 8793   3.619   0.208   0.832  0.4201 -0.0560 -0.0494
  589TMC3    O1 8794   3.424   0.222   0.391  0.0351 -0.1853 -0.1742
  589TMC3    O2 8795   3.597   0.168   0.950 -0.1780 -0.7735  0.4177
  590MPD2     C 8796   3.048   3.055  16.675  0.1477 -0.2987 -0.5938
  590MPD2    C1 8797   3.014   3.192  16.690  0.6562  0.5737  0.6894
  590MPD2    C2 8798   3.096   3.288  16.640  0.1962  0.1204 -0.4416
  590MPD2    C3 8799   3.210   3.261  16.571 -0.3489  0.3955  0.9803
  590MPD2    C4 8800   3.250   3.133  16.567 -0.0297  0.0383 -0.2947
  590MPD2    C5 8801   3.173   3.032  16.628  0.3810  0.6042  0.3051
  590MPD2     H 8802   3.057   3.388  16.621 -0.4673 -0.4719 -2.2256
  590MPD2    H1 8803   3.337   3.097  16.513  0.6249 -1.2566  1.6088
  590MPD2    H2 8804   2.992   2.974  16.721 -0.0838 -0.7569 -1.6733
  590MPD2    H3 8805   3.197   2.928  16.613  0.5062  0.5518  0.8743
  590MPD2     N 8806   3.279   3.363  16.498  0.0560 -0.7748  0.3529
  590MPD2    H5 8807   3.258   3.460  16.520  1.5911 -0.6146  1.1808
  590MPD2    N1 8808   2.880   3.221  16.724 -0.4836 -0.1178 -0.0958
  590MPD2    H7 8809   2.815   3.144  16.716  0.3072 -0.6357 -1.6242
  591TMC3    C1 8810   3.399   3.461  16.321 -0.1089 -0.0339 -0.1293
  591TMC3    C2 8811   3.481   3.437  16.212  0.7516  0.0946 -0.2033
  591TMC3    C3 8812   3.480   3.518  16.100 -0.2831 -0.3531  0.0271
  591TMC3    C4 8813   3.303   3.560  16.313 -0.9369  0.0809 -0.4448
  591TMC3    C5 8814   3.301   3.633  16.191  0.4680  0.4092 -0.6643
  591TMC3    C6 8815   3.391   3.620  16.087  0.8605  0.4121  0.3471
  591TMC3     C 8816   3.366   3.343  16.394  0.3570  0.1991 -1.0734
  591TMC3     O 8817   3.393   3.239  16.333 -0.0366 -0.0802  0.4660
  591TMC3     H 8818   3.554   3.357  16.219  0.1802 -0.5244 -1.2935
  591TMC3    H1 8819   3.217   3.571  16.378  1.6399 -0.8233  3.0821
  591TMC3    H2 8820   3.374   3.675  15.996  0.9354 -0.0168  0.0731
  591TMC3    C7 8821   3.209   3.750  16.193 -0.0538 -0.3048  0.4035
  591TMC3    C8 8822   3.570   3.474  15.994  0.0035  0.3164 -1.1275
  591TMC3    O1 8823   3.130   3.754  16.283 -0.4310  0.5966  0.5110
  591TMC3    O2 8824   3.601   3.356  15.997 -0.4911 -0.5559  0.3289
  592MPD2     C 8825   3.366   0.709  11.154 -0.1932  0.3366 -0.0973
  592MPD2    C1 8826   3.402   0.727  11.288 -0.2715  0.3066 -0.5749
  592MPD2    C2 8827   3.341   0.644  11.384 -0.0339 -0.2910  0.0494
  592MPD2    C3 8828   3.249   0.540  11.346 -0.3513 -0.0070 -0.0761
  592MPD2    C4 8829   3.222   0.528  11.207 -0.8525 -0.6558  0.8046
  592MPD2    C5 8830   3.281   0.609  11.112  0.6365 -0.6737  0.1633
  592MPD2     H 8831   3.378   0.645  11.486 -0.0758  0.8174  0.0466
  592MPD2    H1 8832   3.157   0.450  11.167 -0.5982 -0.2883 -0.3144
  592MPD2    H2 8833   3.402   0.772  11.074  1.5257 -0.4582  0.0559
  592MPD2    H3 8834   3.256   0.594  11.008 -2.1467  3.8841  0.1737
  592MPD2     N 8835   3.204   0.450  11.443  0.7440  0.3083  0.3649
  592MPD2    H5 8836   3.237   0.464  11.538  0.5118 -2.4104  0.8503
  592MPD2    N1 8837   3.512   0.820  11.321  0.3075  0.3509 -0.1673
  592MPD2    H7 8838   3.555   0.871  11.244 -0.8244  1.3098 -0.1687
  593TMC3    C1 8839   3.641   0.966  11.456  0.1378  0.2799 -0.2845
  593TMC3    C2 8840   3.645   1.025  11.578 -0.8253 -0.8441 -0.1656
  593TMC3    C3 8841   3.737   1.121  11.596  0.0650  0.1651  0.0568
  593TMC3    C4 8842   3.721   1.003  11.347 -0.2288  0.3566 -0.0854
  593TMC3    C5 8843   3.798   1.114  11.365  0.2148  0.5171 -0.1774
  593TMC3    C6 8844   3.813   1.168  11.492 -0.3868  0.2470 -0.0271
  593TMC3     C 8845   3.544   0.863  11.449 -0.1041 -0.0682  0.3154
  593TMC3     O 8846   3.487   0.838  11.555 -0.3981  0.2308 -0.2887
  593TMC3     H 8847   3.592   0.992  11.667  0.4591  0.1507  0.9765
  593TMC3    H1 8848   3.708   0.955  11.250  1.7892 -1.0462  0.3433
  593TMC3    H2 8849   3.872   1.256  11.515  0.4297 -0.8524  2.0942
  593TMC3    C7 8850   3.866   1.187  11.259  0.1974  0.1734  0.5090
  593TMC3    C8 8851   3.723   1.208  11.707  0.0415 -0.1171 -0.4431
  593TMC3    O1 8852   3.913   1.295  11.292  1.2005 -0.4718 -0.0614
  593TMC3    O2 8853   3.613   1.207  11.758  0.2914 -0.4588 -0.0556
  594MPD2     C 8854   1.950   4.032  14.042  0.4179 -0.3664  0.6186
  594MPD2    C1 8855   1.959   4.077  14.175  0.5688 -0.0080  0.8850
  594MPD2    C2 8856   2.064   4.156  14.212  0.0670 -0.0585  0.5748
  594MPD2    C3 8857   2.162   4.189  14.117  0.0927  0.0630  0.3641
  594MPD2    C4 8858   2.155   4.129  13.989  1.0516 -0.5389 -0.1355
  594MPD2    C5 8859   2.048   4.053  13.954 -0.2641  0.3610 -0.2197
  594MPD2     H 8860   2.058   4.185  14.316  0.2447 -0.2047  0.6256
  594MPD2    H1 8861   2.225   4.142  13.907 -0.2771  3.1781 -0.6641
  594MPD2    H2 8862   1.860   3.987  14.000  0.2532  1.7298 -1.2483
  594MPD2    H3 8863   2.026   4.018  13.853  0.0020  1.3859 -0.6331
  594MPD2     N 8864   2.280   4.259  14.146  0.4476  0.2538  0.3178
  594MPD2    H5 8865   2.349   4.277  14.074 -1.6392  0.6984 -1.5558
  594MPD2    N1 8866   1.863   4.037  14.267  0.0931 -0.0256  0.2388
  594MPD2    H7 8867   1.777   4.002  14.226 -0.8620  0.9180  1.4361
  595TMC3    C1 8868   2.596   4.467  14.356  0.0173 -1.1006  0.6669
  595TMC3    C2 8869   2.509   4.385  14.292  0.1780 -0.0364  0.4992
  595TMC3    C3 8870   2.387   4.443  14.261 -0.1526 -0.1473  0.1015
  595TMC3    C4 8871   2.569   4.594  14.394  0.6072 -0.5053 -0.4401
  595TMC3    C5 8872   2.448   4.643  14.364  0.9319  0.8282 -0.3875
  595TMC3    C6 8873   2.356   4.572  14.290 -0.5085 -0.0082  0.4836
  595TMC3     C 8874   2.714   4.413  14.413  0.4871 -0.3155 -0.3023
  595TMC3     O 8875   2.769   4.486  14.492  0.4939  0.0534  0.5779
  595TMC3     H 8876   2.525   4.278  14.282  0.3641 -0.0387  0.8063
  595TMC3    H1 8877   2.633   4.662  14.450 -0.6811  1.1193 -0.9661
  595TMC3    H2 8878   2.256   4.611  14.276 -0.4520 -0.6522 -1.6399
  595TMC3    C7 8879   2.377   4.706  14.472 -0.6481  0.4852  0.2758
  595TMC3    C8 8880   2.271   4.359  14.243  0.2268  0.1159 -0.6222
  595TMC3    O1 8881   2.279   0.032  14.444 -0.0161  0.2357 -0.0638
  595TMC3    O2 8882   2.178   4.398  14.311  0.1955  0.7209  0.0624
  596MPD2     C 8883   1.408   2.546  16.711 -0.3653  0.2764 -0.7477
  596MPD2    C1 8884   1.425   2.658  16.637 -0.0945  0.0998  0.5588
  596MPD2    C2 8885   1.468   2.647  16.504 -0.5742  0.3122 -0.1551
  596MPD2    C3 8886   1.459   2.524  16.436  0.0387 -0.3605 -0.4237
  596MPD2    C4 8887   1.449   2.411  16.520  0.3882 -0.0697  0.3528
  596MPD2    C5 8888   1.430   2.420  16.657  0.0352 -0.3030  0.8610
  596MPD2     H 8889   1.489   2.740  16.452 -0.9560 -0.0880 -1.0320
  596MPD2    H1 8890   1.447   2.310  16.480 -0.8848  1.0823 -2.5237
  596MPD2    H2 8891   1.376   2.547  16.815  1.6349  1.8697 -0.1493
  596MPD2    H3 8892   1.418   2.332  16.720 -0.4022 -1.4078 -0.7659
  596MPD2     N 8893   1.477   2.512  16.294  0.4473  0.0843 -0.1130
  596MPD2    H5 8894   1.495   2.419  16.257  0.6925  0.0836  0.0054
  596MPD2    N1 8895   1.395   2.788  16.693  0.3123  0.4682  0.1940
  596MPD2    H7 8896   1.403   2.863  16.626 -1.1944  0.2702 -0.2010
  597TMC3    C1 8897   1.328   2.958  16.840  0.3572 -0.1270  0.1840
  597TMC3    C2 8898   1.423   3.039  16.790  0.1649  0.5717  0.1530
  597TMC3    C3 8899   1.389   3.173  16.791  0.4535  0.9097  0.0755
  597TMC3    C4 8900   1.215   3.002  16.891  0.4643  0.2021 -0.1832
  597TMC3    C5 8901   1.194   3.134  16.897  0.1847 -0.3685  1.0783
  597TMC3    C6 8902   1.268   3.226  16.817 -0.0909  0.4495 -0.2743
  597TMC3     C 8903   1.351   2.815  16.816  0.6969  0.2400  0.5785
  597TMC3     O 8904   1.298   2.737  16.897  0.0228  0.0722  0.6732
  597TMC3     H 8905   1.522   2.999  16.770 -0.5355 -0.7394 -0.6486
  597TMC3    H1 8906   1.142   2.929  16.923 -0.0369  0.8784  0.2242
  597TMC3    H2 8907   1.268   3.334  16.818  2.1225  0.4330  3.2846
  597TMC3    C7 8908   1.078   3.180  16.971 -0.1131 -0.0193  1.1272
  597TMC3    C8 8909   1.498   3.260  16.757  0.2933  0.7303  0.4248
  597TMC3    O1 8910   1.041   3.111  17.065  0.4230 -0.1257  0.5901
  597TMC3    O2 8911   1.460   3.378  16.732  0.1026  0.3960  0.5065
  598TMC3    C1 8912   4.190   3.633  15.272 -0.6584  0.3789  0.1588
  598TMC3    C2 8913   4.137   3.528  15.209 -0.1684 -0.5193 -0.3121
  598TMC3    C3 8914   4.054   3.549  15.099  0.8478  0.2359 -1.5382
  598TMC3    C4 8915   4.161   3.763  15.232  0.2262 -0.5195 -0.5177
  598TMC3    C5 8916   4.077   3.779  15.123 -0.5814 -0.1821  0.2954
  598TMC3    C6 8917   4.022   3.678  15.053 -0.3171  0.5684  0.1238
  598TMC3     C 8918   4.309   3.603  15.350  0.3451 -0.1187  0.6226
  598TMC3     O 8919   4.404   3.669  15.328  0.2599  0.3376  0.7693
  598TMC3     H 8920   4.161   3.426  15.237 -0.6196 -0.8525 -1.1199
  598TMC3    H1 8921   4.202   3.845  15.289 -0.1458 -0.1137 -0.8387
  598TMC3    H2 8922   3.949   3.686  14.974  1.2664  0.2209 -1.3714
  598TMC3    C7 8923   4.079   3.916  15.077 -0.9929  0.6002 -0.0630
  598TMC3    C8 8924   3.983   3.445  15.025 -0.3797 -1.0722 -0.3340
  598TMC3    O1 8925   4.108   4.007  15.150  0.0137 -0.3015 -0.0408
  598TMC3    O2 8926   3.962   3.469  14.909 -0.7087 -0.0770 -0.1534
  599MPD2     C 8927   4.361   1.711  15.647 -0.2924  0.2754  0.0656
  599MPD2    C1 8928   4.300   1.585  15.652  0.4966  0.3993 -0.2071
  599MPD2    C2 8929   4.177   1.583  15.722  0.4808  0.2331 -0.1781
  599MPD2    C3 8930   4.117   1.702  15.770 -0.0960  0.9134  0.4372
  599MPD2    C4 8931   4.184   1.825  15.751 -0.3962 -0.2327  0.2158
  599MPD2    C5 8932   4.299   1.823  15.686  0.2129  0.0810  0.1817
  599MPD2     H 8933   4.129   1.487  15.733 -0.6144  0.7353 -0.5518
  599MPD2    H1 8934   4.141   1.914  15.795 -0.9366 -0.3984  0.0253
  599MPD2    H2 8935   4.457   1.720  15.598  0.2059 -2.5682  0.5181
  599MPD2    H3 8936   4.353   1.915  15.671 -1.0028  0.7926  0.1839
  599MPD2     N 8937   3.990   1.709  15.836  0.2775 -0.6623  0.6827
  599MPD2    H5 8938   3.965   1.796  15.882  1.2134  0.7960 -1.6119
  599MPD2    N1 8939   4.372   1.473  15.595  0.1210 -0.1276  0.2346
  599MPD2    H7 8940   4.465   1.488  15.558 -0.2275  0.3222 -0.4504
  600TMC3    C1 8941   3.807   1.636  15.959 -0.4845 -0.2154  0.4442
  600TMC3    C2 8942   3.731   1.528  15.974  0.3544  0.2698 -0.5917
  600TMC3    C3 8943   3.650   1.524  16.080 -0.5569 -0.0555  0.4111
  600TMC3    C4 8944   3.807   1.750  16.032 -0.0670 -0.2734 -0.1783
  600TMC3    C5 8945   3.722   1.743  16.136  0.1915 -0.7992 -0.1366
  600TMC3    C6 8946   3.652   1.631  16.165 -0.7359 -0.4116  0.1061
  600TMC3     C 8947   3.915   1.598  15.870 -0.7043  0.1322 -0.4907
  600TMC3     O 8948   3.942   1.481  15.853 -0.2544  0.2724 -0.6323
  600TMC3     H 8949   3.738   1.444  15.906 -0.8884  0.1610 -0.5874
  600TMC3    H1 8950   3.860   1.839  16.002  1.3387 -0.1711  2.6119
  600TMC3    H2 8951   3.600   1.624  16.259 -1.3632 -0.8450 -0.2778
  600TMC3    C7 8952   3.712   1.857  16.230 -0.4992  0.0262 -0.6038
  600TMC3    C8 8953   3.615   1.396  16.134  0.1730  1.0155  0.5712
  600TMC3    O1 8954   3.615   1.858  16.307  0.4199  0.0522  0.1778
  600TMC3    O2 8955   3.606   1.386  16.257 -0.1770  0.1630 -0.3696
  601MPD2     C 8956   1.714   0.131   0.068 -0.0342  0.4961 -0.2236
  601MPD2    C1 8957   1.596   0.064   0.055 -0.2625  0.5050 -0.1985
  601MPD2    C2 8958   1.580   4.679   0.116 -0.4061 -0.0433 -0.0431
  601MPD2    C3 8959   1.687   4.625   0.182  0.7897  0.0095  0.0751
  601MPD2    C4 8960   1.803   4.694   0.192 -0.1237  0.2731  0.0483
  601MPD2    C5 8961   1.825   0.072   0.126  0.0408 -0.2014 -0.2710
  601MPD2     H 8962   1.482   4.633   0.118 -0.3056 -0.1778  2.0131
  601MPD2    H1 8963   1.894   4.651   0.233 -0.2780 -1.1412 -1.0666
  601MPD2    H2 8964   1.732   0.228   0.024 -0.3375  1.0217  0.8101
  601MPD2    H3 8965   1.924   0.116   0.118  0.3118 -0.7580 -0.0056
  601MPD2     N 8966   1.683   4.500   0.253 -0.7415  0.2813  0.4072
  601MPD2    H5 8967   1.772   4.479   0.297  0.3663  1.2223 -1.3974
  601MPD2    N1 8968   1.481   0.118  17.751 -0.4863 -0.1804  0.1212
  601MPD2    H7 8969   1.393   0.066  17.751  0.8828 -2.4740 -1.9228
  602TMC3    C1 8970   1.345   0.280  17.651 -0.1151  0.5401  0.3870
  602TMC3    C2 8971   1.302   0.414  17.660  0.0720  0.2916 -0.1602
  602TMC3    C3 8972   1.184   0.442  17.605  1.1990 -0.5733 -0.4306
  602TMC3    C4 8973   1.268   0.186  17.579  0.1292 -0.5493 -0.0722
  602TMC3    C5 8974   1.147   0.221  17.530  0.6670  0.2375  0.8069
  602TMC3    C6 8975   1.107   0.355  17.541  0.1316 -0.4404  0.2630
  602TMC3     C 8976   1.473   0.253  17.705 -0.3199  0.4875 -0.7243
  602TMC3     O 8977   1.548   0.347  17.718 -0.2292 -0.2930  0.3783
  602TMC3     H 8978   1.358   0.493  17.710 -2.0740  0.2656  2.2606
  602TMC3    H1 8979   1.300   0.084  17.558 -3.2982 -1.6622  0.1703
  602TMC3    H2 8980   1.005   0.376  17.511  0.7047  0.3906 -1.0857
  602TMC3    C7 8981   1.090   0.132  17.434  0.1593  0.0862 -0.9637
  602TMC3    C8 8982   1.148   0.583  17.577  0.4128 -0.0279  0.3413
  602TMC3    O1 8983   1.117   0.010  17.423 -0.0652 -0.0666 -0.0250
  602TMC3    O2 8984   1.170   0.670  17.661 -0.3865 -0.1992 -0.1749
  603TMC3    C1 8985   4.086   0.520  11.026  0.5113 -0.2360 -1.0854
  603TMC3    C2 8986   4.106   0.461  11.146  0.4804  0.7314  0.1748
  603TMC3    C3 8987   4.234   0.430  11.172 -0.9636  0.4107  0.7230
  603TMC3    C4 8988   4.184   0.546  10.926  0.3915 -0.1952 -0.1907
  603TMC3    C5 8989   4.316   0.517  10.965 -0.2206  0.3811  0.2221
  603TMC3    C6 8990   4.338   0.463  11.087  0.0339 -0.3641  0.1553
  603TMC3     C 8991   3.951   0.530  10.983  0.1333 -0.6638  0.6550
  603TMC3     O 8992   3.871   0.448  11.034  0.7311  0.2190 -0.2100
  603TMC3     H 8993   4.029   0.442  11.220  0.1400 -0.2604 -0.4327
  603TMC3    H1 8994   4.155   0.575  10.826  1.0834 -1.3704 -0.7299
  603TMC3    H2 8995   4.438   0.423  11.096 -0.3759 -1.2711  0.6270
  603TMC3    C7 8996   4.394   0.472  10.848  0.3847 -0.2005  0.3798
  603TMC3    C8 8997   4.265   0.341  11.287  0.1898 -0.4800  0.5173
  603TMC3    O1 8998   4.513   0.492  10.852 -0.2124  0.1816 -0.3117
  603TMC3    O2 8999   4.177   0.269  11.326 -0.1003 -0.0759  0.4165
  604MPD2     C 9000   0.510   3.822  16.279  0.0631  0.7978 -0.4010
  604MPD2    C1 9001   0.418   3.761  16.196 -0.1553 -0.1060 -0.3346
  604MPD2    C2 9002   0.462   3.713  16.076 -0.8097 -0.2412  0.1069
  604MPD2    C3 9003   0.595   3.720  16.033 -0.4417  0.1125  0.4732
  604MPD2    C4 9004   0.682   3.783  16.119 -0.0050  0.3565  0.2030
  604MPD2    C5 9005   0.639   3.834  16.236  0.1499  0.1690  0.2986
  604MPD2     H 9006   0.390   3.663  16.012 -0.8038 -0.6376  0.4134
  604MPD2    H1 9007   0.785   3.803  16.090  0.3715  0.3309  1.5053
  604MPD2    H2 9008   0.482   3.870  16.373 -0.7012 -3.7284  1.6639
  604MPD2    H3 9009   0.707   3.880  16.307  0.3508  0.1877  0.0938
  604MPD2     N 9010   0.631   3.673  15.902 -0.6832 -0.5128 -0.4513
  604MPD2    H5 9011   0.561   3.638  15.838  0.0229 -3.2491  0.2730
  604MPD2    N1 9012   0.281   3.757  16.236 -0.2132  0.1001  0.1367
  604MPD2    H7 9013   0.259   3.816  16.315 -3.6687 -0.8292 -0.1395
  605TMC3    C1 9014   0.066   3.704  16.267 -0.5279  0.4580 -0.2749
  605TMC3    C2 9015   0.100   3.733  16.399 -0.0255 -0.3336 -0.3511
  605TMC3    C3 9016   0.028   3.832  16.463  0.0462  0.2441 -0.2899
  605TMC3    C4 9017   4.694   3.754  16.203  0.1277  0.5549 -0.3638
  605TMC3    C5 9018   4.625   3.853  16.276  1.0078 -0.5495  0.5983
  605TMC3    C6 9019   4.664   3.893  16.397  0.7446 -0.0833 -0.1292
  605TMC3     C 9020   0.173   3.694  16.179  0.3202  0.1597  0.1413
  605TMC3     O 9021   0.159   3.653  16.062  0.0392 -0.2249 -0.2448
  605TMC3     H 9022   0.190   3.693  16.443  0.0281 -0.1936 -0.3327
  605TMC3    H1 9023   4.671   3.730  16.100  3.4540  1.7229 -1.3984
  605TMC3    H2 9024   4.618   3.983  16.435  3.0971  1.2871 -0.5017
  605TMC3    C7 9025   4.527   3.932  16.206  0.5652  0.0984  0.0307
  605TMC3    C8 9026   0.127   3.926  16.514  0.3222  0.0456 -0.1621
  605TMC3    O1 9027   4.505   4.048  16.244  0.4122 -0.1759 -0.2402
  605TMC3    O2 9028   0.211   3.959  16.429  0.3754 -0.5098  0.0422
  606TMC3    C1 9029   1.040   2.425  17.403  0.5784 -0.2031 -0.2344
  606TMC3    C2 9030   1.133   2.510  17.457 -0.2272  0.8170  0.1883
  606TMC3    C3 9031   1.232   2.561  17.375 -0.2196 -0.3507 -0.4465
  606TMC3    C4 9032   1.041   2.377  17.279 -0.0299 -0.4286 -0.4716
  606TMC3    C5 9033   1.149   2.416  17.205 -0.2339  0.2310  0.1951
  606TMC3    C6 9034   1.244   2.507  17.246  0.0026  0.8927 -0.1369
  606TMC3     C 9035   0.940   2.359  17.484  0.2732  0.5587  0.1116
  606TMC3     O 9036   0.879   2.268  17.434  0.4820  0.3839 -0.3645
  606TMC3     H 9037   1.122   2.549  17.558  1.7712 -0.3737  0.8565
  606TMC3    H1 9038   0.975   2.296  17.250 -0.1713 -0.2179 -0.7420
  606TMC3    H2 9039   1.338   2.521  17.193  1.1691  2.5067  2.3180
  606TMC3    C7 9040   1.181   2.341  17.086  0.0997  0.6421  0.5387
  606TMC3    C8 9041   1.355   2.615  17.425 -0.1238 -0.8901 -0.7100
  606TMC3    O1 9042   1.259   2.393  17.006 -0.3917 -0.2897 -0.3224
  606TMC3    O2 9043   1.455   2.603  17.351  0.4483  0.2936 -0.7431
  607MPD2     C 9044   3.483   0.234  11.462 -0.2439  0.6299  0.9830
  607MPD2    C1 9045   3.525   0.327  11.561 -0.1664  0.2560  0.5670
  607MPD2    C2 9046   3.500   0.298  11.694 -0.6947 -0.3250 -0.8036
  607MPD2    C3 9047   3.450   0.176  11.736  0.2660  0.1408 -0.7142
  607MPD2    C4 9048   3.427   0.079  11.642 -0.1930 -0.1628 -0.0503
  607MPD2    C5 9049   3.435   0.116  11.510  0.4761 -0.4625  0.0682
  607MPD2     H 9050   3.519   0.378  11.765 -3.0407 -2.7972  2.5943
  607MPD2    H1 9051   3.405   4.715  11.658  1.8045 -0.6148 -0.1540
  607MPD2    H2 9052   3.493   0.256  11.356  0.7944 -2.5045  0.4229
  607MPD2    H3 9053   3.399   0.044  11.438 -4.3992  1.5517  0.4678
  607MPD2     N 9054   3.452   0.147  11.872 -0.4860  0.3666 -0.2506
  607MPD2    H5 9055   3.469   0.227  11.933 -1.2085  1.2108 -1.1520
  607MPD2    N1 9056   3.597   0.451  11.540  0.1380  0.5684 -0.2695
  607MPD2    H7 9057   3.635   0.503  11.618  0.6363  0.4922 -0.4648
  608TMC3    C1 9058   3.766   0.583  11.450 -0.0729  0.3637 -0.5945
  608TMC3    C2 9059   3.823   0.584  11.576 -0.1707  0.8996  0.4667
  608TMC3    C3 9060   3.926   0.672  11.595  0.2645  0.0752  0.3495
  608TMC3    C4 9061   3.824   0.656  11.350 -0.2940 -0.4131  0.2674
  608TMC3    C5 9062   3.928   0.739  11.374  1.0407 -0.6143 -0.3578
  608TMC3    C6 9063   3.984   0.757  11.496  0.5370  0.3488 -0.7348
  608TMC3     C 9064   3.644   0.500  11.422 -0.6821 -0.0200 -0.0621
  608TMC3     O 9065   3.609   0.475  11.306 -0.0716  0.2299  0.0712
  608TMC3     H 9066   3.799   0.514  11.655  0.1539  0.4279  0.1479
  608TMC3    H1 9067   3.788   0.650  11.248 -0.3588 -1.0044  0.3263
  608TMC3    H2 9068   4.051   0.838  11.524 -0.6408  0.1447  2.6224
  608TMC3    C7 9069   3.997   0.795  11.265 -0.0366  0.4249  0.0421
  608TMC3    C8 9070   3.981   0.691  11.731 -0.0212  0.3806  0.4610
  608TMC3    O1 9071   3.938   0.831  11.167  0.5784  0.3244 -0.2898
  608TMC3    O2 9072   4.103   0.710  11.739 -0.5365 -0.5286 -0.2879
  609TMC3    C1 9073   2.455   3.383   9.386 -0.0855 -0.2708 -0.5218
  609TMC3    C2 9074   2.503   3.457   9.289  0.1327 -0.4662  0.8117
  609TMC3    C3 9075   2.637   3.450   9.257 -0.2505 -0.1213  0.3800
  609TMC3    C4 9076   2.533   3.305   9.459 -0.3935 -0.0317  0.2814
  609TMC3    C5 9077   2.669   3.294   9.433  0.0931  0.4793 -0.0439
  609TMC3    C6 9078   2.722   3.364   9.328  0.4712  0.7420 -0.0517
  609TMC3     C 9079   2.312   3.364   9.402 -0.6826  0.1412  0.0221
  609TMC3     O 9080   2.279   3.268   9.467 -0.3340  0.5222  0.3809
  609TMC3     H 9081   2.437   3.503   9.216 -0.2452 -1.3214  0.6165
  609TMC3    H1 9082   2.508   3.256   9.552 -3.6815 -0.7080 -0.9725
  609TMC3    H2 9083   2.823   3.344   9.294 -0.0841 -1.5443 -0.3709
  609TMC3    C7 9084   2.763   3.205   9.507 -0.5925 -0.1557  0.5472
  609TMC3    C8 9085   2.695   3.512   9.141  0.3503 -0.1113 -0.1088
  609TMC3    O1 9086   2.878   3.240   9.508 -0.3145 -0.1777  0.0225
  609TMC3    O2 9087   2.807   3.487   9.108 -0.3127 -0.0867  0.2403
  610TMC3    C1 9088   4.482   0.594  12.034 -0.0241  0.0077  0.0388
  610TMC3    C2 9089   4.384   0.561  11.947  0.3858  0.7719  0.1178
  610TMC3    C3 9090   4.302   0.456  11.978 -0.5920  0.8483 -0.7623
  610TMC3    C4 9091   4.492   0.534  12.159 -0.1076  0.0082 -0.0321
  610TMC3    C5 9092   4.409   0.432  12.185 -0.3167  0.5930 -0.2332
  610TMC3    C6 9093   4.307   0.390  12.098 -0.0738 -0.3924 -0.3381
  610TMC3     C 9094   4.563   0.705  11.994 -0.2700 -0.5083 -0.2248
  610TMC3     O 9095   4.524   0.772  11.903  0.0670 -0.1663 -0.2206
  610TMC3     H 9096   4.394   0.590  11.843 -0.4994  1.0240  0.1025
  610TMC3    H1 9097   4.574   0.553  12.228 -1.9011  2.1587  1.5213
  610TMC3    H2 9098   4.240   0.308  12.122 -1.6033  0.8502 -0.3927
  610TMC3    C7 9099   4.440   0.349  12.292 -0.1458  0.4380 -0.1014
  610TMC3    C8 9100   4.215   0.409  11.874 -0.1130  0.6062 -0.1704
  610TMC3    O1 9101   4.448   0.228  12.285  0.1498  0.2665 -0.6384
  610TMC3    O2 9102   4.236   0.454  11.763 -0.0209 -0.2976 -0.0228
  611MPD2     C 9103   3.498   0.443  10.116  0.1343  0.3395  0.5104
  611MPD2    C1 9104   3.457   0.314  10.118  0.1021 -0.0301  0.3450
  611MPD2    C2 9105   3.548   0.213  10.133  0.1128  0.2119 -0.1078
  611MPD2    C3 9106   3.683   0.249  10.144 -0.2077  0.4313 -0.1880
  611MPD2    C4 9107   3.722   0.383  10.130  0.3294  0.6531 -0.5596
  611MPD2    C5 9108   3.632   0.484  10.118  0.8767 -0.0681 -0.4715
  611MPD2     H 9109   3.528   0.108  10.150  1.6033  0.3437  2.3394
  611MPD2    H1 9110   3.827   0.407  10.135  0.8720 -1.7979 -0.4046
  611MPD2    H2 9111   3.420   0.518  10.108  1.1776  1.3620  0.0338
  611MPD2    H3 9112   3.662   0.588  10.112  1.1464 -0.2942 -3.1991
  611MPD2     N 9113   3.786   0.157  10.159 -0.8738  0.0982  0.1491
  611MPD2    H5 9114   3.883   0.185  10.150 -1.2106  0.8708 -1.1438
  611MPD2    N1 9115   3.319   0.285  10.149 -0.0279  0.1225 -0.5101
  611MPD2    H7 9116   3.273   0.372  10.175 -1.2612  0.2990 -3.2020
  612TMC3    C1 9117   3.894   4.700  10.190  0.3220 -0.0310  0.0420
  612TMC3    C2 9118   4.008   0.022  10.235  0.7564  0.1293  0.0657
  612TMC3    C3 9119   4.128   4.690  10.233  0.5156  0.4341 -0.3171
  612TMC3    C4 9120   3.898   4.567  10.150  0.4241  0.1925  0.6996
  612TMC3    C5 9121   4.014   4.501  10.146 -0.4829  0.9373 -0.3636
  612TMC3    C6 9122   4.126   4.561  10.184 -0.2584 -0.3152 -0.3440
  612TMC3     C 9123   3.762   0.029  10.188 -0.6515 -0.0816  0.9356
  612TMC3     O 9124   3.671   4.695  10.168 -0.7303 -0.3694 -0.7152
  612TMC3     H 9125   4.009   0.122  10.276 -2.4274 -0.4929  1.5949
  612TMC3    H1 9126   3.805   4.521  10.117  0.5053  0.6916 -0.2117
  612TMC3    H2 9127   4.220   4.511  10.163 -1.4551 -2.4696 -0.6046
  612TMC3    C7 9128   4.009   4.358  10.101 -0.0646 -0.1683  0.3983
  612TMC3    C8 9129   4.253   0.003  10.296 -0.1148  0.2973 -0.3675
  612TMC3    O1 9130   3.899   4.318  10.072 -0.5350  0.2083 -0.3002
  612TMC3    O2 9131   4.355   4.691  10.256  0.1075 -0.6878  0.0081
  613MPD2     C 9132   2.766   2.017  16.789 -0.5824 -0.5628 -0.1493
  613MPD2    C1 9133   2.783   2.108  16.684  0.2870 -0.1976  0.4578
  613MPD2    C2 9134   2.678   2.134  16.596 -0.3545 -0.3829 -0.2525
  613MPD2    C3 9135   2.565   2.053  16.602 -0.4466 -0.3696 -0.4929
  613MPD2    C4 9136   2.550   1.961  16.703  0.0775 -1.0731 -0.4692
  613MPD2    C5 9137   2.650   1.949  16.799  0.1953  0.3710  0.1207
  613MPD2     H 9138   2.688   2.210  16.519  0.1900 -0.0077  0.1917
  613MPD2    H1 9139   2.468   1.891  16.698  0.0089 -1.0300  0.1255
  613MPD2    H2 9140   2.840   2.000  16.867 -0.2573 -0.3528 -0.4158
  613MPD2    H3 9141   2.639   1.879  16.881 -1.9764  0.4457 -0.1093
  613MPD2     N 9142   2.474   2.048  16.494  0.2331 -0.3212  0.0675
  613MPD2    H5 9143   2.395   1.984  16.496  0.2542 -0.4152 -2.8536
  613MPD2    N1 9144   2.917   2.168  16.675 -0.0714 -0.3634 -0.1334
  613MPD2    H7 9145   2.985   2.142  16.746  0.4987 -1.0056 -0.9188
  614TMC3    C1 9146   2.906   2.258  16.459 -0.1059 -0.2440 -0.5644
  614TMC3    C2 9147   2.902   2.147  16.382 -0.6015  0.0306  0.4374
  614TMC3    C3 9148   2.865   2.156  16.255 -0.2274  0.4088 -0.5836
  614TMC3    C4 9149   2.873   2.372  16.407  0.1419 -0.5368 -0.0407
  614TMC3    C5 9150   2.845   2.384  16.272 -1.0386  0.1033  0.4018
  614TMC3    C6 9151   2.845   2.273  16.194 -0.3587  0.0107  0.2944
  614TMC3     C 9152   2.966   2.260  16.586  0.4285  0.4232  0.1554
  614TMC3     O 9153   3.051   2.348  16.601 -0.0279 -0.2620 -0.2611
  614TMC3     H 9154   2.938   2.054  16.424 -1.3836 -1.6541 -2.5969
  614TMC3    H1 9155   2.884   2.462  16.466  0.8152  0.4172 -1.6420
  614TMC3    H2 9156   2.831   2.291  16.088  2.8616 -0.1173 -0.1409
  614TMC3    C7 9157   2.799   2.509  16.222 -0.8805 -0.0764 -0.4866
  614TMC3    C8 9158   2.815   2.037  16.189  0.3789 -0.5286  0.1965
  614TMC3    O1 9159   2.793   2.601  16.304  0.3455  0.2030 -0.4820
  614TMC3    O2 9160   2.766   1.948  16.262 -0.3483  0.0529 -0.0946
  615MPD2     C 9161   1.959   3.815  15.574  0.8731  0.0644  0.0604
  615MPD2    C1 9162   1.927   3.899  15.675 -0.4219 -0.1004  0.4055
  615MPD2    C2 9163   1.816   3.979  15.663 -0.7754 -0.6502 -0.5290
  615MPD2    C3 9164   1.746   3.984  15.542  0.5681 -0.3597  1.1075
  615MPD2    C4 9165   1.780   3.903  15.441 -0.2358  0.4593  0.5344
  615MPD2    C5 9166   1.890   3.822  15.459  0.0830 -0.2479 -0.4754
  615MPD2     H 9167   1.797   4.050  15.743  0.2453 -1.7892  0.7233
  615MPD2    H1 9168   1.726   3.899  15.347  0.8785  1.2856 -0.1335
  615MPD2    H2 9169   2.050   3.755  15.570 -1.4445 -3.6413  2.9591
  615MPD2    H3 9170   1.924   3.762  15.376  0.2509 -0.3431 -0.3378
  615MPD2     N 9171   1.628   4.071  15.518 -0.0782  0.7672  0.3803
  615MPD2    H5 9172   1.607   4.079  15.419 -0.4465 -0.1411  0.3811
  615MPD2    N1 9173   2.002   3.925  15.792 -0.1828  0.4559 -0.0903
  615MPD2    H7 9174   1.976   3.998  15.858 -1.2273 -1.0947  1.1995
  616TMC3    C1 9175   2.179   3.902  15.938 -0.2883 -0.4846  0.2068
  616TMC3    C2 9176   2.209   4.035  15.941 -0.2746  0.9951  0.9131
  616TMC3    C3 9177   2.303   4.076  16.028 -0.0885  0.1157  0.2983
  616TMC3    C4 9178   2.258   3.806  16.001 -0.1710 -0.4875  0.6863
  616TMC3    C5 9179   2.361   3.855  16.078  0.3181  0.4611 -0.5833
  616TMC3    C6 9180   2.375   3.988  16.103 -0.0505 -0.0358 -0.2546
  616TMC3     C 9181   2.120   3.857  15.819 -1.0410 -0.3467 -0.3512
  616TMC3     O 9182   2.167   3.753  15.776 -0.8334 -0.1675  0.1596
  616TMC3     H 9183   2.144   4.106  15.892 -1.8455 -1.1882 -0.1679
  616TMC3    H1 9184   2.248   3.698  15.991  3.0956 -0.5504 -2.0759
  616TMC3    H2 9185   2.455   4.018  16.169 -0.3943  0.6901 -0.1633
  616TMC3    C7 9186   2.450   3.770  16.153 -0.1902 -0.1383  0.1114
  616TMC3    C8 9187   2.340   4.212  16.019  0.6425  0.3528  0.1637
  616TMC3    O1 9188   2.517   3.688  16.089 -0.0950  0.1988  0.3446
  616TMC3    O2 9189   2.270   4.287  15.951 -0.2363  0.2756  0.1111
  617MPD2     C 9190   0.301   2.034  13.033 -0.4043  1.0608  0.0715
  617MPD2    C1 9191   0.306   2.005  13.169  0.4127 -0.7164 -0.2415
  617MPD2    C2 9192   0.189   1.979  13.237  0.8664 -0.3132  0.6397
  617MPD2    C3 9193   0.066   1.972  13.172  0.1488  0.2550  0.4455
  617MPD2    C4 9194   0.060   2.016  13.039  0.3500 -0.0798 -0.2414
  617MPD2    C5 9195   0.173   2.044  12.970  0.4613 -0.6578 -0.2099
  617MPD2     H 9196   0.193   1.946  13.340  1.2509 -0.4224  0.5893
  617MPD2    H1 9197   4.703   2.025  12.993 -0.4438 -0.8279  1.2653
  617MPD2    H2 9198   0.386   2.073  12.977  0.5757  0.4633  1.1306
  617MPD2    H3 9199   0.160   2.074  12.867 -0.9052 -0.1660  0.1125
  617MPD2     N 9200   4.683   1.946  13.244 -0.4470  0.0398  0.2719
  617MPD2    H5 9201   4.592   1.969  13.207  0.7373  0.4932 -2.3691
  617MPD2    N1 9202   0.438   2.015  13.225  0.0290 -0.1540  0.5606
  617MPD2    H7 9203   0.509   1.998  13.155 -0.1754  2.1092 -0.1709
  618TMC3    C1 9204   0.626   1.985  13.377  0.3294 -0.0969 -0.5018
  618TMC3    C2 9205   0.682   2.041  13.489 -0.6222  0.2232 -0.5378
  618TMC3    C3 9206   0.806   1.987  13.526  0.3164 -0.5136  0.0065
  618TMC3    C4 9207   0.693   1.905  13.288  0.1251 -0.0106 -0.5274
  618TMC3    C5 9208   0.823   1.871  13.325 -0.9214 -0.1403 -0.2825
  618TMC3    C6 9209   0.878   1.904  13.449  0.6769  0.3936 -0.3042
  618TMC3     C 9210   0.480   2.000  13.361  0.1157  0.4273  0.4754
  618TMC3     O 9211   0.411   2.029  13.454 -0.1543 -0.3446  0.2014
  618TMC3     H 9212   0.630   2.091  13.570  1.6089 -0.4890  1.3351
  618TMC3    H1 9213   0.644   1.853  13.206 -0.3264 -0.6596  0.1462
  618TMC3    H2 9214   0.983   1.883  13.462 -0.1337 -2.7902  1.0282
  618TMC3    C7 9215   0.894   1.792  13.227  0.4903  0.1378  0.3864
  618TMC3    C8 9216   0.852   1.999  13.661 -0.2586  0.4138  0.1636
  618TMC3    O1 9217   0.818   1.730  13.153 -0.9658  0.0145  0.0772
  618TMC3    O2 9218   0.859   2.111  13.706  0.1198 -0.0471  0.6516
  619MPD2     C 9219   1.634   3.513  13.836  0.0873 -0.6474 -0.4633
  619MPD2    C1 9220   1.615   3.548  13.708 -0.4518 -1.0636  0.7967
  619MPD2    C2 9221   1.498   3.509  13.639  0.1422 -0.4855  0.3314
  619MPD2    C3 9222   1.399   3.430  13.693 -0.3349 -0.0070  0.3000
  619MPD2    C4 9223   1.428   3.389  13.825 -0.0150  0.1042  0.0598
  619MPD2    C5 9224   1.533   3.428  13.889  0.2059 -0.1863 -0.4212
  619MPD2     H 9225   1.491   3.547  13.538 -0.0534 -0.4459  0.3601
  619MPD2    H1 9226   1.349   3.340  13.882 -0.3685  1.5167  0.7772
  619MPD2    H2 9227   1.724   3.529  13.895 -0.1974  1.1437 -0.5173
  619MPD2    H3 9228   1.552   3.389  13.989  3.0699 -0.4556 -1.0567
  619MPD2     N 9229   1.270   3.415  13.633  0.3435 -0.4823 -0.0355
  619MPD2    H5 9230   1.208   3.356  13.688  0.0306 -0.9142 -0.8408
  619MPD2    N1 9231   1.700   3.642  13.639 -0.1904  0.0043  0.0455
  619MPD2    H7 9232   1.678   3.656  13.541  1.7733  0.7892 -0.2884
  620TMC3    C1 9233   1.804   3.850  13.606  0.1835 -0.5817 -0.1965
  620TMC3    C2 9234   1.776   3.818  13.472 -0.4046  0.3587  0.2658
  620TMC3    C3 9235   1.724   3.911  13.394 -0.2218  0.6489  0.0183
  620TMC3    C4 9236   1.756   3.969  13.659  0.3130 -0.2944 -0.7031
  620TMC3    C5 9237   1.700   4.063  13.578 -0.1778  0.0980  0.0549
  620TMC3    C6 9238   1.690   4.036  13.441 -0.8141  0.2925 -0.4061
  620TMC3     C 9239   1.795   3.728  13.699 -0.3073 -0.4304  0.2974
  620TMC3     O 9240   1.833   3.737  13.814 -0.0683  0.4154  0.3467
  620TMC3     H 9241   1.794   3.717  13.436 -1.7267 -0.2287  1.2905
  620TMC3    H1 9242   1.775   3.987  13.765 -0.1265  0.8202 -0.8088
  620TMC3    H2 9243   1.659   4.112  13.370 -2.8879 -0.3396 -0.1783
  620TMC3    C7 9244   1.610   4.170  13.631 -0.1109  0.5320 -0.1447
  620TMC3    C8 9245   1.637   3.863  13.283 -0.2583 -0.2571  0.0629
  620TMC3    O1 9246   1.561   4.241  13.547 -0.4554  0.2748  0.7883
  620TMC3    O2 9247   1.666   3.768  13.216  0.0275 -0.0615 -0.4670
  621MPD2     C 9248   1.889   3.308  10.419  0.0202 -0.1181 -0.1310
  621MPD2    C1 9249   1.973   3.207  10.406  0.2718  0.3467  0.7401
  621MPD2    C2 9250   2.087   3.213  10.328 -0.1420 -0.3135  0.1081
  621MPD2    C3 9251   2.127   3.334  10.282 -0.4293 -0.0790 -0.0550
  621MPD2    C4 9252   2.048   3.445  10.311  0.0796  0.7592 -0.1267
  621MPD2    C5 9253   1.931   3.431  10.371 -0.2225 -0.0514  0.0155
  621MPD2     H 9254   2.141   3.120  10.315  3.2956  1.7462 -0.4632
  621MPD2    H1 9255   2.080   3.540  10.270 -1.2561  2.0704  1.8726
  621MPD2    H2 9256   1.795   3.314  10.473  0.0159  0.9633 -0.2443
  621MPD2    H3 9257   1.868   3.519  10.372 -1.3169 -0.8368 -0.1272
  621MPD2     N 9258   2.239   3.331  10.196  0.3599 -0.5260 -0.4622
  621MPD2    H5 9259   2.291   3.243  10.198 -0.5251 -1.0487 -0.5260
  621MPD2    N1 9260   1.934   3.078  10.441 -0.2043 -0.4385 -0.2178
  621MPD2    H7 9261   1.989   3.001  10.405 -0.4013 -0.8206  0.2948
  622TMC3    C1 9262   1.767   2.916  10.499 -0.1987 -0.2831 -0.2974
  622TMC3    C2 9263   1.678   2.880  10.599  0.9290  1.0643  0.2720
  622TMC3    C3 9264   1.628   2.755  10.594 -0.1054 -0.3417  0.5370
  622TMC3    C4 9265   1.794   2.836  10.389 -0.0268  0.1217 -0.1603
  622TMC3    C5 9266   1.726   2.711  10.385  0.0657  0.1553 -0.5722
  622TMC3    C6 9267   1.643   2.674  10.491 -0.2230 -0.4003 -0.2205
  622TMC3     C 9268   1.826   3.048  10.522 -0.3624 -0.2742  0.1504
  622TMC3     O 9269   1.775   3.121  10.604 -0.3821  0.0828  0.1870
  622TMC3     H 9270   1.672   2.941  10.689 -1.9465 -1.6948  1.9122
  622TMC3    H1 9271   1.860   2.869  10.310  0.9014 -1.5448 -0.0885
  622TMC3    H2 9272   1.593   2.578  10.484 -3.5121  1.3758 -0.9745
  622TMC3    C7 9273   1.682   2.647  10.262 -0.2618 -0.5618 -0.2272
  622TMC3    C8 9274   1.508   2.745  10.669 -0.2432  0.4751  0.4781
  622TMC3    O1 9275   1.634   2.536  10.274 -0.1025  0.0651  0.1933
  622TMC3    O2 9276   1.474   2.635  10.712  0.5174 -0.0873 -0.2457
  623MPD2     C 9277   0.628   4.021  15.750 -0.4305 -0.0823 -0.5070
  623MPD2    C1 9278   0.538   4.015  15.854 -0.0403 -0.6162  0.3284
  623MPD2    C2 9279   0.571   4.074  15.973  0.4154 -0.1807  0.0741
  623MPD2    C3 9280   0.691   4.133  16.004 -0.2957  0.2070  0.5592
  623MPD2    C4 9281   0.780   4.125  15.905  0.3213 -0.0698 -0.6776
  623MPD2    C5 9282   0.748   4.076  15.778  0.5154  0.2398  0.2051
  623MPD2     H 9283   0.496   4.076  16.051  1.5651 -1.2421  1.2087
  623MPD2    H1 9284   0.882   4.160  15.913  0.3142 -0.5816  1.8038
  623MPD2    H2 9285   0.601   4.000  15.647 -0.0382 -0.0785 -0.6115
  623MPD2    H3 9286   0.833   4.084  15.711  0.5184  1.9757  0.4219
  623MPD2     N 9287   0.713   4.176  16.139 -0.5874  0.1725  0.4644
  623MPD2    H5 9288   0.633   4.161  16.200  0.0030  0.0008  1.1912
  623MPD2    N1 9289   0.404   3.966  15.847 -0.2548 -0.2814 -0.1632
  623MPD2    H7 9290   0.354   3.971  15.935 -4.2652 -0.6506 -2.4467
  624TMC3    C1 9291   0.930   4.159  16.519  0.2845  0.6319 -0.0731
  624TMC3    C2 9292   0.810   4.164  16.586  0.6215  0.4224  0.5054
  624TMC3    C3 9293   0.706   4.229  16.524  0.2858 -0.8278 -0.9147
  624TMC3    C4 9294   0.944   4.184  16.388 -0.1638  0.8451  0.1255
  624TMC3    C5 9295   0.839   4.246  16.330 -0.0002  0.1368  0.1772
  624TMC3    C6 9296   0.723   4.273  16.396  0.4008  0.0904 -0.5459
  624TMC3     C 9297   1.047   4.119  16.594 -0.7346  0.5981  0.6726
  624TMC3     O 9298   1.024   4.054  16.697 -0.4735  0.0477 -0.4272
  624TMC3     H 9299   0.795   4.138  16.690 -1.6334 -0.7065 -0.0985
  624TMC3    H1 9300   1.035   4.178  16.329  0.5702 -0.5711  1.3940
  624TMC3    H2 9301   0.640   4.323  16.346  0.7445  1.7036  0.4990
  624TMC3    C7 9302   0.829   4.235  16.178 -0.0848  0.1375 -0.4800
  624TMC3    C8 9303   0.563   4.201  16.554  0.9172 -0.1430  0.3441
  624TMC3    O1 9304   0.926   4.277  16.113 -0.0496 -0.8239  0.0907
  624TMC3    O2 9305   0.508   4.154  16.458 -0.5648 -0.6960 -0.0156
  625MPD2     C 9306   1.035   0.996   0.637  0.0131 -0.0011  0.1004
  625MPD2    C1 9307   1.083   1.126   0.644 -0.1850  0.1733  0.2249
  625MPD2    C2 9308   1.213   1.145   0.694  0.2988  0.1995  0.5237
  625MPD2    C3 9309   1.273   1.043   0.772 -0.5223 -0.3205 -0.6244
  625MPD2    C4 9310   1.212   0.921   0.775  0.0635  0.7878 -0.3060
  625MPD2    C5 9311   1.102   0.895   0.704  0.5098 -0.7517  0.0695
  625MPD2     H 9312   1.258   1.243   0.690 -2.5851  1.5612  1.6593
  625MPD2    H1 9313   1.266   0.833   0.809  2.0507  1.9278 -0.4928
  625MPD2    H2 9314   0.940   0.964   0.594  0.3583  0.7897 -1.2561
  625MPD2    H3 9315   1.071   0.791   0.695  0.3506 -1.0057  3.7511
  625MPD2     N 9316   1.404   1.062   0.828  0.2673  0.2386 -0.9284
  625MPD2    H5 9317   1.439   1.156   0.813  0.7930  0.4617  1.5918
  625MPD2    N1 9318   1.020   1.237   0.583  0.0049 -0.5542 -0.6218
  625MPD2    H7 9319   1.060   1.329   0.598 -2.0216  0.3539 -0.8180
  626TMC3    C1 9320   0.872   1.356   0.455  0.0184  0.4918 -0.0874
  626TMC3    C2 9321   0.831   1.357   0.324  0.9947 -0.1547  0.2356
  626TMC3    C3 9322   0.782   1.471   0.274 -0.0388  0.3326 -0.2148
  626TMC3    C4 9323   0.861   1.464   0.542  0.9330  0.3022 -0.2018
  626TMC3    C5 9324   0.801   1.574   0.492 -0.8093 -0.2977 -0.4070
  626TMC3    C6 9325   0.768   1.582   0.362 -0.7127 -0.0332  0.8898
  626TMC3     C 9326   0.909   1.230   0.513 -0.2756 -0.4264 -0.2841
  626TMC3     O 9327   0.871   1.134   0.449  0.5589  0.1930  0.1510
  626TMC3     H 9328   0.838   1.266   0.266 -2.1436 -0.3666  0.2049
  626TMC3    H1 9329   0.874   1.456   0.649 -1.1406  2.0789  0.1653
  626TMC3    H2 9330   0.731   1.679   0.330 -0.8648  0.0755  1.4010
  626TMC3    C7 9331   0.704   1.634   0.584  0.0128  0.5055 -0.8262
  626TMC3    C8 9332   0.746   1.483   0.138 -0.1547  0.5866  0.1573
  626TMC3    O1 9333   0.752   1.673   0.689  0.0234  0.2701 -0.1746
  626TMC3    O2 9334   0.745   1.378   0.077  0.1543 -0.1988  0.1734
  627MPD2     C 9335   3.925   0.703  13.949 -0.2839  0.3179 -0.2606
  627MPD2    C1 9336   4.005   0.653  14.046 -0.8508  0.0054 -0.8915
  627MPD2    C2 9337   3.970   0.544  14.129  0.1965 -0.5722  0.0530
  627MPD2    C3 9338   3.848   0.485  14.103 -0.4181  0.0652 -0.0594
  627MPD2    C4 9339   3.767   0.521  13.999  0.1020  0.6220  0.3920
  627MPD2    C5 9340   3.811   0.632  13.927 -0.0158  0.4760  0.1258
  627MPD2     H 9341   4.029   0.514  14.215  0.5549  1.6845  0.6023
  627MPD2    H1 9342   3.666   0.483  13.989  0.2045  0.8918 -1.6859
  627MPD2    H2 9343   3.955   0.786  13.887  0.8880  0.8293  0.9852
  627MPD2    H3 9344   3.747   0.670  13.849 -0.4565 -0.6588 -0.0645
  627MPD2     N 9345   3.808   0.384  14.199  1.0188 -0.1980 -0.8182
  627MPD2    H5 9346   3.867   0.365  14.280  0.7730 -0.6815 -0.7508
  627MPD2    N1 9347   4.126   0.710  14.070  0.0737 -0.1942 -0.4321
  627MPD2    H7 9348   4.191   0.659  14.130 -1.8495  0.0697  1.8770
  628TMC3    C1 9349   4.302   0.864  14.087 -0.1955  0.1300  0.5112
  628TMC3    C2 9350   4.394   0.764  14.108  0.8579 -0.4581  0.5105
  628TMC3    C3 9351   4.503   0.803  14.175  0.9186  0.0521  0.6310
  628TMC3    C4 9352   4.322   0.997  14.135  0.2096  0.8756  0.5163
  628TMC3    C5 9353   4.424   1.033  14.208 -0.4953 -0.2259  0.5921
  628TMC3    C6 9354   4.512   0.927  14.237 -0.7169  0.6630 -0.4257
  628TMC3     C 9355   4.173   0.831  14.028  0.5681  0.7085 -0.1104
  628TMC3     O 9356   4.105   0.921  13.990  0.1516  0.3329  0.7153
  628TMC3     H 9357   4.398   0.664  14.068  0.1162  0.4094 -1.7169
  628TMC3    H1 9358   4.245   1.071  14.115 -2.8298 -2.0482  1.3482
  628TMC3    H2 9359   4.604   0.963  14.282  0.3810  0.3936 -2.4588
  628TMC3    C7 9360   4.479   1.167  14.192 -0.2604 -0.0206  0.2526
  628TMC3    C8 9361   4.610   0.704  14.187  0.1432  0.4222  0.2136
  628TMC3    O1 9362   4.565   1.192  14.276 -0.3300  0.7282 -0.1789
  628TMC3    O2 9363   4.627   0.631  14.090  0.4258  0.1848  0.2711
  629MPD2     C 9364   2.691   4.594  16.059 -0.2480  1.1398 -0.5251
  629MPD2    C1 9365   2.746   4.486  16.129  0.2985  0.4841 -0.5752
  629MPD2    C2 9366   2.668   4.368  16.127 -0.3901 -0.0136 -0.9098
  629MPD2    C3 9367   2.533   4.366  16.078  0.0213  0.5344  0.1682
  629MPD2    C4 9368   2.490   4.484  16.019 -0.2062 -0.3215 -0.2206
  629MPD2    C5 9369   2.567   4.599  16.004 -0.1824  0.2640 -0.1648
  629MPD2     H 9370   2.699   4.278  16.180  2.6542  1.0731 -0.8228
  629MPD2    H1 9371   2.395   4.490  15.968  0.7633  0.3750 -1.9347
  629MPD2    H2 9372   2.746   4.687  16.052 -1.3887  1.8673  0.2604
  629MPD2    H3 9373   2.530   4.689  15.957 -1.6037 -0.7473 -0.9684
  629MPD2     N 9374   2.464   4.242  16.080 -0.6305 -0.7232  0.0459
  629MPD2    H5 9375   2.519   4.170  16.124  1.1886  0.2238 -0.7001
  629MPD2    N1 9376   2.880   4.500  16.183  0.1726 -0.0573 -0.2181
  629MPD2    H7 9377   2.924   4.592  16.188  2.1103 -1.0025  0.3179
  630TMC3    C1 9378   3.087   4.413  16.237 -0.8320 -0.0800  0.3176
  630TMC3    C2 9379   3.132   4.510  16.153 -0.0297  0.5057 -0.4755
  630TMC3    C3 9380   3.258   4.566  16.175 -0.3416  0.0725 -0.0310
  630TMC3    C4 9381   3.171   4.364  16.336  0.2608  0.5403 -0.5782
  630TMC3    C5 9382   3.296   4.421  16.345  0.3031 -0.3621 -0.3104
  630TMC3    C6 9383   3.346   4.517  16.268 -0.3045  0.0099 -0.7099
  630TMC3     C 9384   2.946   4.398  16.244 -0.3024 -0.2513 -0.1686
  630TMC3     O 9385   2.895   4.320  16.321 -0.5450  0.1294  0.0592
  630TMC3     H 9386   3.079   4.538  16.063  0.6609 -1.8538 -1.6150
  630TMC3    H1 9387   3.114   4.314  16.414 -0.0210 -1.0846 -1.8226
  630TMC3    H2 9388   3.451   4.540  16.254 -0.1688 -0.8446 -1.1172
  630TMC3    C7 9389   3.394   4.360  16.439 -0.0596 -0.5272 -0.0177
  630TMC3    C8 9390   3.303   4.686  16.109 -0.2964 -0.4695 -0.8732
  630TMC3    O1 9391   3.346   4.265  16.498 -0.1818 -0.3558  0.2461
  630TMC3    O2 9392   3.410   4.733  16.149  0.0346 -0.3780 -0.0972
  631MPD2     C 9393   0.741   4.665  15.799 -0.1548 -0.2556  0.1074
  631MPD2    C1 9394   0.828   4.716  15.713 -0.2848 -0.1599 -0.1468
  631MPD2    C2 9395   0.933   4.640  15.668  0.4371  0.6694 -0.5972
  631MPD2    C3 9396   0.958   4.512  15.709  0.1077 -0.7099 -0.3981
  631MPD2    C4 9397   0.863   4.456  15.790 -0.1290 -0.3534  0.6517
  631MPD2    C5 9398   0.750   4.530  15.831 -0.3760  0.2288 -0.2724
  631MPD2     H 9399   1.013   4.687  15.612  2.5006 -2.0297  0.0834
  631MPD2    H1 9400   0.875   4.357  15.833 -1.4785 -1.3070 -1.1331
  631MPD2    H2 9401   0.658   4.717  15.845 -0.8659  0.2348 -1.7388
  631MPD2    H3 9402   0.677   4.495  15.903  1.4760 -1.3931  0.8186
  631MPD2     N 9403   1.068   4.444  15.653  0.5036  0.1945 -0.2181
  631MPD2    H5 9404   1.132   4.496  15.595 -1.9499  3.4496  0.0230
  631MPD2    N1 9405   0.800   0.111  15.677 -0.6240 -0.7603  0.1608
  631MPD2    H7 9406   0.721   0.161  15.717  1.7769  2.4334  0.9579
  632TMC3    C1 9407   0.789   0.282  15.497 -0.1818 -0.6658  0.4418
  632TMC3    C2 9408   0.652   0.260  15.491 -0.5230  0.5356 -0.3619
  632TMC3    C3 9409   0.576   0.291  15.383 -0.2584 -0.4742  0.6318
  632TMC3    C4 9410   0.855   0.320  15.382  0.0066 -0.3819  0.2774
  632TMC3    C5 9411   0.783   0.332  15.265  0.7641  0.1673 -0.4604
  632TMC3    C6 9412   0.644   0.318  15.265 -0.2458 -0.0770 -0.7893
  632TMC3     C 9413   0.859   0.173  15.564 -0.4908 -0.1706  0.4499
  632TMC3     O 9414   0.953   0.135  15.497 -0.5591 -0.5931 -0.5859
  632TMC3     H 9415   0.595   0.229  15.578  0.4281  0.9802  0.4201
  632TMC3    H1 9416   0.963   0.331  15.384 -0.1376  1.1039 -0.1191
  632TMC3    H2 9417   0.592   0.347  15.174 -0.7198  4.0448  0.8311
  632TMC3    C7 9418   0.843   0.273  15.140  0.3244 -0.3525  0.2283
  632TMC3    C8 9419   0.440   0.242  15.386  0.1395 -0.1880  0.5489
  632TMC3    O1 9420   0.807   0.316  15.033 -0.6491  0.0534 -0.2718
  632TMC3    O2 9421   0.399   0.189  15.485  0.1350  0.3229  0.5986
  633MPD2     C 9422   0.738   2.256  17.085 -0.3595 -0.1544 -0.5181
  633MPD2    C1 9423   0.789   2.216  16.963 -0.0179 -0.6922 -0.6166
  633MPD2    C2 9424   0.796   2.079  16.931  0.2650 -0.4724 -0.5280
  633MPD2    C3 9425   0.773   1.985  17.029  0.0564 -0.0942  0.3281
  633MPD2    C4 9426   0.728   2.019  17.155  0.1922 -0.3597  0.4374
  633MPD2    C5 9427   0.721   2.158  17.183  0.6828  1.0021  0.3285
  633MPD2     H 9428   0.823   2.045  16.831  3.4187 -0.6445  0.3943
  633MPD2    H1 9429   0.699   1.948  17.232  0.1344 -0.0946  0.6592
  633MPD2    H2 9430   0.727   2.360  17.115 -3.1693 -1.1709  2.0608
  633MPD2    H3 9431   0.702   2.193  17.283  2.2184 -1.4505  1.4710
  633MPD2     N 9432   0.787   1.844  17.012 -0.0835  0.2158 -0.6865
  633MPD2    H5 9433   0.777   1.788  17.095  0.8279  1.4560  0.2577
  633MPD2    N1 9434   0.833   2.302  16.861  0.4183 -0.0829  0.0745
  633MPD2    H7 9435   0.863   2.270  16.769 -0.1644  0.5487 -0.3351
  634TMC3    C1 9436   0.921   2.488  16.754 -0.1455  0.2220 -0.2495
  634TMC3    C2 9437   1.014   2.418  16.686  0.0762  0.9003  0.3717
  634TMC3    C3 9438   1.095   2.487  16.599  0.2339 -0.2864  0.2301
  634TMC3    C4 9439   0.901   2.625  16.730  0.5002 -0.0771 -0.7261
  634TMC3    C5 9440   0.975   2.690  16.632 -0.0238 -0.2657  0.3884
  634TMC3    C6 9441   1.076   2.627  16.573  0.7794 -0.5747 -0.6669
  634TMC3     C 9442   0.846   2.439  16.874 -0.2144  0.1807 -0.6486
  634TMC3     O 9443   0.825   2.511  16.971  0.5128 -0.1279 -0.2370
  634TMC3     H 9444   1.043   2.319  16.719  1.1674  0.6593 -1.3188
  634TMC3    H1 9445   0.829   2.678  16.791  0.4684 -0.3574 -0.5226
  634TMC3    H2 9446   1.154   2.679  16.518  0.0418 -0.4576 -1.5939
  634TMC3    C7 9447   0.940   2.816  16.572 -0.2139  0.2445 -0.0379
  634TMC3    C8 9448   1.138   2.404  16.485  0.9385 -0.0974 -0.2126
  634TMC3    O1 9449   0.991   2.853  16.467  0.0057  0.0682 -0.0062
  634TMC3    O2 9450   1.132   2.285  16.504 -0.2761 -0.0052  0.5734
  635TMC3    C1 9451   1.245   3.361   0.595  1.4811 -0.3140 -0.3109
  635TMC3    C2 9452   1.367   3.299   0.614  0.1214  0.2654  0.1168
  635TMC3    C3 9453   1.365   3.163   0.632 -0.6299  0.0433  0.7204
  635TMC3    C4 9454   1.127   3.296   0.593  0.5812  0.2203 -0.2861
  635TMC3    C5 9455   1.125   3.163   0.608 -0.2417 -0.0124 -0.5639
  635TMC3    C6 9456   1.243   3.092   0.631 -0.1888 -0.0572  0.4548
  635TMC3     C 9457   1.255   3.501   0.553 -0.6676 -0.5166  0.0386
  635TMC3     O 9458   1.361   3.554   0.576 -0.2611  0.1658  0.1013
  635TMC3     H 9459   1.463   3.349   0.611  0.1216  0.1957 -1.3477
  635TMC3    H1 9460   1.035   3.346   0.563  0.9244  0.0333 -1.6359
  635TMC3    H2 9461   1.240   2.984   0.638  0.0709 -0.2110 -1.8588
  635TMC3    C7 9462   0.996   3.094   0.581 -0.0757 -0.3164  0.4662
  635TMC3    C8 9463   1.494   3.095   0.620  0.8123 -0.3566 -0.5671
  635TMC3    O1 9464   0.898   3.162   0.570 -0.3313 -0.1640  0.1300
  635TMC3    O2 9465   1.595   3.166   0.633 -0.0341 -0.0492 -0.1277
  636MPD2     C 9466   2.116   2.644  15.743 -0.0052 -0.4879 -0.0535
  636MPD2    C1 9467   2.155   2.661  15.873 -0.0405  0.4950  0.5254
  636MPD2    C2 9468   2.191   2.556  15.958  0.5499  0.0825  0.0185
  636MPD2    C3 9469   2.194   2.433  15.903  0.1632  1.2070  0.5022
  636MPD2    C4 9470   2.145   2.414  15.777  0.1073  0.2368  0.4205
  636MPD2    C5 9471   2.106   2.511  15.698 -0.6067 -0.9499  0.9198
  636MPD2     H 9472   2.218   2.573  16.062 -0.2483 -3.0375  0.7312
  636MPD2    H1 9473   2.132   2.313  15.739 -0.4959  1.3163 -2.2693
  636MPD2    H2 9474   2.083   2.723  15.676 -0.8403 -0.8340 -0.0527
  636MPD2    H3 9475   2.073   2.477  15.600 -0.1483 -0.3648  0.5582
  636MPD2     N 9476   2.240   2.327  15.988  0.5914  0.3677  0.6204
  636MPD2    H5 9477   2.273   2.348  16.081  0.0221 -0.3239  0.9885
  636MPD2    N1 9478   2.169   2.788  15.935  0.3418 -0.2548 -0.2681
  636MPD2    H7 9479   2.191   2.780  16.034 -0.3718  0.3199 -0.0673
  637TMC3    C1 9480   2.321   2.109  16.048 -0.3208 -0.2125  0.1794
  637TMC3    C2 9481   2.376   2.163  16.165 -0.2236  0.6858  0.2582
  637TMC3    C3 9482   2.408   2.076  16.261 -0.4323  0.4824 -0.2233
  637TMC3    C4 9483   2.317   1.973  16.023  0.2282  0.1002 -0.5658
  637TMC3    C5 9484   2.372   1.893  16.115 -0.5515 -0.5023  0.0195
  637TMC3    C6 9485   2.411   1.941  16.244  0.0707  0.6388  0.4286
  637TMC3     C 9486   2.248   2.190  15.956  0.3245  0.1821 -0.4451
  637TMC3     O 9487   2.235   2.147  15.842  0.2755 -0.2527  0.0834
  637TMC3     H 9488   2.376   2.267  16.195  0.2243  0.4748  0.9898
  637TMC3    H1 9489   2.280   1.919  15.937 -1.1359  1.1059 -0.6247
  637TMC3    H2 9490   2.439   1.870  16.321 -1.0549  1.0783  1.2480
  637TMC3    C7 9491   2.396   1.756  16.059 -0.1029  0.3109  0.8433
  637TMC3    C8 9492   2.477   2.124  16.381  0.2143 -0.0665 -0.1696
  637TMC3    O1 9493   2.360   1.668  16.136 -0.1071  0.1155 -0.0073
  637TMC3    O2 9494   2.539   2.225  16.352  0.1016 -0.6124 -0.0454
  638MPD2     C 9495   1.767   1.522  14.493 -0.1227  0.2541 -0.1565
  638MPD2    C1 9496   1.800   1.393  14.474  0.1891 -0.1722 -0.0432
  638MPD2    C2 9497   1.784   1.304  14.579  0.3334 -0.3498  0.0620
  638MPD2    C3 9498   1.750   1.347  14.705 -0.3478  0.2227 -0.5429
  638MPD2    C4 9499   1.718   1.483  14.714 -0.2951  0.5023 -0.2470
  638MPD2    C5 9500   1.717   1.571  14.610 -0.3379  0.0276  0.2643
  638MPD2     H 9501   1.791   1.198  14.557 -0.1118 -0.2082 -0.7711
  638MPD2    H1 9502   1.694   1.526  14.810 -0.7469  1.3540 -0.7375
  638MPD2    H2 9503   1.783   1.589  14.410 -2.0632 -0.8941 -1.4711
  638MPD2    H3 9504   1.701   1.677  14.621  0.1399  0.2324 -0.9816
  638MPD2     N 9505   1.733   1.260  14.815 -0.2630  0.2776 -0.4413
  638MPD2    H5 9506   1.665   1.280  14.888  0.3232  0.0168  0.1788
  638MPD2    N1 9507   1.861   1.358  14.351  0.1555  0.0706 -0.2851
  638MPD2    H7 9508   1.906   1.434  14.301  1.1288 -0.1057  0.3176
  639TMC3    C1 9509   1.741   1.063  14.938  0.1248 -0.5573 -0.3852
  639TMC3    C2 9510   1.608   1.046  14.956 -0.3385 -0.3077 -0.0774
  639TMC3    C3 9511   1.564   0.923  15.009  0.2755  0.1942 -0.4924
  639TMC3    C4 9512   1.830   0.963  14.979  0.6625  0.5167  0.4616
  639TMC3    C5 9513   1.778   0.856  15.040 -0.5560  1.0097 -0.2256
  639TMC3    C6 9514   1.648   0.829  15.055 -0.1440  0.0945 -0.2934
  639TMC3     C 9515   1.794   1.143  14.826  1.0144  0.8652  0.2403
  639TMC3     O 9516   1.906   1.114  14.783 -0.2720 -0.0917 -0.7052
  639TMC3     H 9517   1.541   1.107  14.895  0.2258 -0.7370 -1.1257
  639TMC3    H1 9518   1.938   0.976  14.974  0.8824 -1.3401  0.6122
  639TMC3    H2 9519   1.617   0.732  15.091  0.5253  0.1149  0.3258
  639TMC3    C7 9520   1.858   0.746  15.079  0.4544 -0.4123 -0.2893
  639TMC3    C8 9521   1.439   0.867  14.955 -0.1369 -0.0839 -0.0816
  639TMC3    O1 9522   1.810   0.687  15.176  0.0232  0.4855  0.2021
  639TMC3    O2 9523   1.410   0.901  14.840  0.2384  0.0055  0.0722
  640MPD2     C 9524   3.134   4.273   9.529 -0.2704  1.1343 -0.6280
  640MPD2    C1 9525   3.017   4.245   9.586 -0.5491  0.6996  0.4386
  640MPD2    C2 9526   2.944   4.344   9.651 -0.0407 -0.4235  0.0111
  640MPD2    C3 9527   2.997   4.472   9.653 -0.0805  0.0551 -0.5486
  640MPD2    C4 9528   3.121   4.497   9.602  0.6561  0.2266  0.2361
  640MPD2    C5 9529   3.180   4.396   9.535  0.3740  0.2915  0.2937
  640MPD2     H 9530   2.858   4.316   9.710  0.1115 -0.7174  0.0948
  640MPD2    H1 9531   3.165   4.596   9.592  1.1956 -0.2810 -2.4324
  640MPD2    H2 9532   3.193   4.196   9.481  0.5408  0.7965  0.9100
  640MPD2    H3 9533   3.275   4.420   9.490  0.7462 -0.0230  0.9090
  640MPD2     N 9534   2.932   4.581   9.715 -0.2660  0.6152  0.7979
  640MPD2    H5 9535   2.993   4.660   9.734 -0.1109  0.7055 -0.0711
  640MPD2    N1 9536   2.974   4.112   9.585 -0.2615 -0.2984 -0.7558
  640MPD2    H7 9537   3.043   4.043   9.558 -0.4547 -0.5379 -0.6372
  641TMC3    C1 9538   2.869   3.912   9.638 -0.1300 -0.0239  0.2432
  641TMC3    C2 9539   2.987   3.846   9.616 -0.0564 -0.1892 -0.4293
  641TMC3    C3 9540   2.979   3.707   9.600  0.2530 -0.4896  0.3704
  641TMC3    C4 9541   2.749   3.858   9.613  0.1258 -0.1554 -0.6212
  641TMC3    C5 9542   2.741   3.722   9.590  0.1105  0.7170 -0.2423
  641TMC3    C6 9543   2.861   3.644   9.581 -0.4568  0.3431 -0.2238
  641TMC3     C 9544   2.857   4.054   9.620  0.2485  0.3778 -0.3537
  641TMC3     O 9545   2.748   4.109   9.650 -0.3261 -0.1037 -0.2791
  641TMC3     H 9546   3.081   3.890   9.647 -0.5898 -0.3054  1.3931
  641TMC3    H1 9547   2.657   3.911   9.637 -1.2140 -2.7090 -0.0803
  641TMC3    H2 9548   2.844   3.537   9.573 -0.5228  0.2552  1.1214
  641TMC3    C7 9549   2.619   3.658   9.636  0.1371  0.1074 -0.3544
  641TMC3    C8 9550   3.096   3.620   9.607 -0.1965  0.1588 -0.2409
  641TMC3    O1 9551   2.641   3.548   9.679 -0.2089 -0.9128  0.2611
  641TMC3    O2 9552   3.080   3.506   9.583 -0.3757  0.0075 -0.4498
  642TMC3    C1 9553   3.562   1.105  12.233  0.1294  0.5499 -0.0271
  642TMC3    C2 9554   3.677   1.126  12.160 -0.3753 -0.0473 -0.8694
  642TMC3    C3 9555   3.707   1.047  12.051 -0.6148  1.3795  0.7385
  642TMC3    C4 9556   3.476   1.002  12.200 -0.5147  0.3698  0.2372
  642TMC3    C5 9557   3.511   0.924  12.094  0.5218 -0.2383 -0.4723
  642TMC3    C6 9558   3.624   0.945  12.023 -0.1893 -0.0275 -0.7215
  642TMC3     C 9559   3.511   1.219  12.311  0.0958  1.0722 -0.0804
  642TMC3     O 9560   3.575   1.322  12.305  1.0361  1.3050 -0.4897
  642TMC3     H 9561   3.734   1.214  12.187 -0.6935  0.0934 -0.6709
  642TMC3    H1 9562   3.385   0.984  12.256  0.4394  0.4246  1.7903
  642TMC3    H2 9563   3.653   0.867  11.953 -1.9328  0.0949 -1.5716
  642TMC3    C7 9564   3.437   0.813  12.055  0.4833 -0.4019  0.2701
  642TMC3    C8 9565   3.835   1.036  12.002 -0.3840 -0.6156  0.2603
  642TMC3    O1 9566   3.449   0.767  11.941  0.5242  0.4881  0.5593
  642TMC3    O2 9567   3.853   0.990  11.888  0.3175  0.3176  0.3684
  643TMC3    C1 9568   2.677   0.530   0.405  0.5033 -0.2402  0.4832
  643TMC3    C2 9569   2.544   0.524   0.408  0.1135  0.4230  0.6353
  643TMC3    C3 9570   2.474   0.451   0.320  0.2082  0.2999 -0.3948
  643TMC3    C4 9571   2.740   0.469   0.297  0.5839  0.1391  0.0652
  643TMC3    C5 9572   2.672   0.379   0.216  0.0530  0.2306  0.3976
  643TMC3    C6 9573   2.532   0.365   0.235  0.1910 -0.1625 -0.9071
  643TMC3     C 9574   2.729   0.662   0.445  0.1523  0.0202 -0.1299
  643TMC3     O 9575   2.643   0.751   0.433  0.4244 -0.0081 -0.1765
  643TMC3     H 9576   2.496   0.579   0.488  0.9225  0.6735  0.9537
  643TMC3    H1 9577   2.844   0.499   0.283 -0.3340  2.6743 -1.2433
  643TMC3    H2 9578   2.467   0.309   0.168  1.1458 -1.5559 -0.6904
  643TMC3    C7 9579   2.711   0.397   0.073  0.2418 -0.4575  0.4377
  643TMC3    C8 9580   2.382   0.530   0.250  0.5575 -0.4508  0.3563
  643TMC3    O1 9581   2.795   0.483   0.040  0.2336 -0.2546  0.0494
  643TMC3    O2 9582   2.288   0.481   0.192  0.0737  0.2780 -0.2960
  644MPD2     C 9583   3.627   0.656   9.753 -0.2281 -0.0164  0.9467
  644MPD2    C1 9584   3.533   0.561   9.756 -0.8488 -0.5308  0.3349
  644MPD2    C2 9585   3.399   0.600   9.753 -0.1670 -1.1744 -0.1307
  644MPD2    C3 9586   3.366   0.737   9.741 -0.2687  0.2237 -0.3672
  644MPD2    C4 9587   3.465   0.837   9.735  0.3487  0.1124  0.4813
  644MPD2    C5 9588   3.596   0.789   9.743 -0.0665 -0.0061  0.3092
  644MPD2     H 9589   3.321   0.526   9.767 -0.3061 -1.2726 -1.4554
  644MPD2    H1 9590   3.442   0.942   9.721  1.5390  0.2478 -0.4085
  644MPD2    H2 9591   3.732   0.633   9.749 -0.9599 -3.2911  0.4320
  644MPD2    H3 9592   3.676   0.861   9.734  2.2438 -2.7140 -0.7341
  644MPD2     N 9593   3.226   0.763   9.720 -0.3618 -0.3091  0.3369
  644MPD2    H5 9594   3.169   0.681   9.702  2.0950 -2.1141  0.6893
  644MPD2    N1 9595   3.575   0.426   9.746 -0.2853  0.0679 -0.2897
  644MPD2    H7 9596   3.675   0.410   9.744 -0.1251  1.2737 -2.1855
  645TMC3    C1 9597   3.021   0.883   9.701 -0.8223 -0.2843 -0.0540
  645TMC3    C2 9598   2.954   1.002   9.707  0.4610  0.6056 -0.4728
  645TMC3    C3 9599   2.813   0.989   9.699  0.1526 -0.6486 -0.2336
  645TMC3    C4 9600   2.960   0.760   9.700  0.5163  0.0224 -0.8404
  645TMC3    C5 9601   2.824   0.760   9.700 -1.1113  0.0529 -0.3062
  645TMC3    C6 9602   2.751   0.877   9.688  0.2105 -0.3022 -0.1379
  645TMC3     C 9603   3.164   0.884   9.731  0.6577  0.2822 -0.4723
  645TMC3     O 9604   3.216   0.993   9.743 -0.5385 -0.1261 -0.2314
  645TMC3     H 9605   3.001   1.096   9.733 -0.8857  1.2854 -0.4753
  645TMC3    H1 9606   3.012   0.671   9.734  1.2366  0.6378 -0.3244
  645TMC3    H2 9607   2.644   0.872   9.669  0.1444 -1.3952  0.5562
  645TMC3    C7 9608   2.750   0.639   9.687  0.1883 -0.2217 -0.4611
  645TMC3    C8 9609   2.732   1.112   9.696 -0.2348  0.0993 -0.0906
  645TMC3    O1 9610   2.630   0.655   9.707  0.0185 -0.6091 -0.2539
  645TMC3    O2 9611   2.769   1.206   9.622 -0.4178 -0.1540  0.0771
  646MPD2     C 9612   2.017   4.651  14.591 -0.5500  1.0452 -0.4240
  646MPD2    C1 9613   1.928   4.640  14.692  0.1151 -0.2107  0.2435
  646MPD2    C2 9614   1.803   4.698  14.678  0.3572  0.4876  0.4504
  646MPD2    C3 9615   1.768   0.021  14.560 -0.4127  0.0920  0.1464
  646MPD2    C4 9616   1.862   0.027  14.461 -0.1973  0.2540  0.4477
  646MPD2    C5 9617   1.986   4.712  14.475  0.1239  0.4660  0.0161
  646MPD2     H 9618   1.728   4.688  14.755  1.2259  0.2519  1.2638
  646MPD2    H1 9619   1.855   0.074  14.364  0.7301 -1.9700 -0.6903
  646MPD2    H2 9620   2.112   4.598  14.587 -1.6713 -0.8343 -1.8341
  646MPD2    H3 9621   2.057   4.722  14.393 -0.2641  1.2081 -0.2302
  646MPD2     N 9622   1.637   0.065  14.538  0.1422 -0.6855 -0.1080
  646MPD2    H5 9623   1.572   0.041  14.611 -0.5043  0.6065 -0.2553
  646MPD2    N1 9624   1.970   4.571  14.807  0.0551  0.2039  0.2197
  646MPD2    H7 9625   2.066   4.537  14.804 -0.2148 -0.5475  0.2588
  647TMC3    C1 9626   1.969   4.458  15.011  0.2658  0.1020  0.7886
  647TMC3    C2 9627   1.900   4.377  15.094 -0.4947  0.4553 -0.2196
  647TMC3    C3 9628   1.948   4.344  15.216  0.3342  0.1786 -1.2020
  647TMC3    C4 9629   2.087   4.498  15.049 -0.9269  0.0102  0.0558
  647TMC3    C5 9630   2.135   4.480  15.175  0.6093 -0.0924 -0.2635
  647TMC3    C6 9631   2.063   4.408  15.269  0.0285 -0.0689  0.6356
  647TMC3     C 9632   1.894   4.526  14.905  0.1111 -0.6242 -0.5753
  647TMC3     O 9633   1.770   4.528  14.912  0.4321  0.2979 -0.0456
  647TMC3     H 9634   1.800   4.346  15.063 -1.5221  0.9347  2.6374
  647TMC3    H1 9635   2.139   4.576  14.995 -0.9384 -1.1853 -1.7147
  647TMC3    H2 9636   2.111   4.370  15.359 -2.2824  0.3797  2.0536
  647TMC3    C7 9637   2.268   4.433  15.180  0.0849 -0.6009 -0.3408
  647TMC3    C8 9638   1.943   4.210  15.268  0.1459 -0.0983 -0.1405
  647TMC3    O1 9639   2.318   4.436  15.290 -0.5368  0.2233  0.3688
  647TMC3    O2 9640   1.969   4.205  15.385  0.0180  0.2018  0.2106
  648TMC3    C1 9641   1.480   2.581  16.070  0.1522  0.0991 -0.4940
  648TMC3    C2 9642   1.540   2.466  16.039  0.4598  0.1171 -1.1715
  648TMC3    C3 9643   1.559   2.437  15.908 -0.2088 -0.0585  0.7360
  648TMC3    C4 9644   1.428   2.670  15.976  0.9340  0.1956  0.1508
  648TMC3    C5 9645   1.441   2.635  15.845  0.3018  0.4602 -0.7144
  648TMC3    C6 9646   1.503   2.516  15.810  0.3713  0.4092  0.3050
  648TMC3     C 9647   1.477   2.617  16.213  0.3355 -0.1824  0.4165
  648TMC3     O 9648   1.465   2.734  16.245  0.4012 -0.9928  0.1249
  648TMC3     H 9649   1.608   2.426  16.114 -2.0953 -2.2284 -0.1403
  648TMC3    H1 9650   1.391   2.766  16.009 -1.2954 -0.1599 -1.3315
  648TMC3    H2 9651   1.511   2.490  15.705 -0.3929  0.6162  0.2001
  648TMC3    C7 9652   1.406   2.732  15.749  0.9036 -0.1719 -0.2843
  648TMC3    C8 9653   1.647   2.328  15.881 -0.1654 -0.4590  0.0398
  648TMC3    O1 9654   1.459   2.724  15.640 -0.5424 -0.3936 -0.2756
  648TMC3    O2 9655   1.733   2.296  15.964 -0.4670 -0.0819 -0.3648
  649TMC3    C1 9656   0.129   3.825  12.534 -0.0544 -0.1228 -0.2716
  649TMC3    C2 9657   0.224   3.795  12.440  0.3217 -0.6691  0.9374
  649TMC3    C3 9658   0.318   3.695  12.468 -0.3498 -0.4720 -0.3680
  649TMC3    C4 9659   0.121   3.741  12.645 -0.7691 -1.2283  0.3922
  649TMC3    C5 9660   0.210   3.645  12.673 -0.8922 -0.2449 -0.4829
  649TMC3    C6 9661   0.310   3.615  12.582  0.4930 -0.6245 -0.0096
  649TMC3     C 9662   0.032   3.931  12.516  0.4453 -0.8085  0.2533
  649TMC3     O 9663   4.716   3.978  12.617  0.8223 -0.2254 -0.1432
  649TMC3     H 9664   0.229   3.865  12.357 -1.5033 -0.5227  0.9506
  649TMC3    H1 9665   0.039   3.762  12.712 -2.3885 -0.6745 -1.7563
  649TMC3    H2 9666   0.391   3.544  12.595  0.3165 -0.5162  1.7076
  649TMC3    C7 9667   0.180   3.546  12.777 -1.3806  0.0393 -0.1425
  649TMC3    C8 9668   0.399   3.638  12.361  0.2324  0.0300 -0.1459
  649TMC3    O1 9669   0.061   3.530  12.798  0.1429  0.2854 -0.3776
  649TMC3    O2 9670   0.492   3.566  12.390 -0.1991  0.5645 -0.3094
  650TMC3    C1 9671   3.157   0.155  12.984 -0.4227  0.2284 -0.3238
  650TMC3    C2 9672   3.105   0.269  13.029  0.1792  0.0209  0.4038
  650TMC3    C3 9673   2.991   0.315  12.970 -0.0676  0.9749  0.1342
  650TMC3    C4 9674   3.098   0.078  12.887 -0.4378 -0.5382 -0.0213
  650TMC3    C5 9675   2.985   0.127  12.829 -0.0794 -0.6351  0.3622
  650TMC3    C6 9676   2.931   0.247  12.870 -0.5679  0.9887 -0.5655
  650TMC3     C 9677   3.266   0.106  13.068  0.4210 -0.2785 -0.0577
  650TMC3     O 9678   3.345   0.189  13.106 -0.2982 -0.1359 -0.2363
  650TMC3     H 9679   3.129   0.314  13.124  1.3555 -1.1047  0.6409
  650TMC3    H1 9680   3.145   4.725  12.855 -0.7265 -0.5898 -0.2923
  650TMC3    H2 9681   2.838   0.281  12.826 -1.2183  1.4840  1.1852
  650TMC3    C7 9682   2.911   0.042  12.734  0.1057 -0.3607 -0.4397
  650TMC3    C8 9683   2.931   0.439  13.018 -0.5070 -0.0087  0.2798
  650TMC3    O1 9684   2.950   4.668  12.722  0.2603  0.0909  0.3696
  650TMC3    O2 9685   3.006   0.531  13.047  0.7989  0.6414  0.7797
  651MPD2     C 9686   1.771   1.986  10.329 -0.4388 -0.5031 -0.4916
  651MPD2    C1 9687   1.736   2.015  10.453 -0.0017  0.4511 -1.1134
  651MPD2    C2 9688   1.834   2.065  10.542 -0.2330 -0.2321  0.0138
  651MPD2    C3 9689   1.969   2.090  10.509  0.6627 -0.6106  0.0037
  651MPD2    C4 9690   2.001   2.067  10.379  0.1165  0.1435  0.0553
  651MPD2    C5 9691   1.901   2.020  10.291 -0.0843  0.2931 -0.0851
  651MPD2     H 9692   1.811   2.092  10.645  1.1451 -0.2060  0.3162
  651MPD2    H1 9693   2.092   2.108  10.336 -0.1145  1.4046  0.7575
  651MPD2    H2 9694   1.703   1.943  10.257  0.0140 -0.5599 -0.8798
  651MPD2    H3 9695   1.943   1.992  10.195  0.3829 -0.5778  0.3668
  651MPD2     N 9696   2.050   2.161  10.596  0.4371 -0.0128  0.1956
  651MPD2    H5 9697   1.999   2.187  10.680  1.4104 -1.7151  1.3218
  651MPD2    N1 9698   1.604   1.996  10.496  0.0031 -0.0819  0.1736
  651MPD2    H7 9699   1.576   2.022  10.590 -1.8310  1.8785 -0.9226
  652TMC3    C1 9700   2.445   2.386  10.715 -0.2273  0.2882  0.2340
  652TMC3    C2 9701   2.373   2.270  10.689 -0.1118  0.4526 -0.0353
  652TMC3    C3 9702   2.237   2.281  10.669 -0.3144 -0.3508  0.3444
  652TMC3    C4 9703   2.377   2.506  10.730  0.1520 -0.1950  0.2917
  652TMC3    C5 9704   2.241   2.514  10.711  0.3103 -0.5478 -0.8924
  652TMC3    C6 9705   2.167   2.395  10.696  0.1536 -0.3982 -0.0078
  652TMC3     C 9706   2.589   2.385  10.747  0.1774  0.5645  0.2103
  652TMC3     O 9707   2.628   2.287  10.808  0.1149 -0.0907 -0.3915
  652TMC3     H 9708   2.433   2.180  10.691  0.9248  1.1229 -1.4986
  652TMC3    H1 9709   2.435   2.596  10.744 -2.7778  1.6189  0.7239
  652TMC3    H2 9710   2.060   2.387  10.678 -0.1536 -0.2121  1.7440
  652TMC3    C7 9711   2.166   2.637  10.720 -0.0167 -0.4600 -0.1668
  652TMC3    C8 9712   2.184   2.181  10.577 -0.5822  0.2802  0.3193
  652TMC3    O1 9713   2.047   2.626  10.695 -0.1848  0.7801 -0.3780
  652TMC3    O2 9714   2.267   2.131  10.506  0.3611  0.2273  0.3488
  653MPD2     C 9715   0.540   2.638  17.521  1.1564  0.5440  0.5524
  653MPD2    C1 9716   0.499   2.719  17.419  0.4890  0.1842  0.2874
  653MPD2    C2 9717   0.468   2.664  17.300  0.1573  0.0730  0.8561
  653MPD2    C3 9718   0.461   2.522  17.282 -0.0727 -0.4096  0.4981
  653MPD2    C4 9719   0.507   2.441  17.393 -0.0801  0.2134 -0.3260
  653MPD2    C5 9720   0.541   2.504  17.510 -0.9153  0.7970  0.1278
  653MPD2     H 9721   0.416   2.727  17.228 -0.6367 -0.6042  0.8451
  653MPD2    H1 9722   0.491   2.334  17.403  1.3410 -0.0052 -0.3975
  653MPD2    H2 9723   0.576   2.665  17.619  2.2727 -0.6371  0.4583
  653MPD2    H3 9724   0.570   2.441  17.593  1.4859 -1.2894 -2.3232
  653MPD2     N 9725   0.415   2.467  17.159 -0.0038  0.1149  0.2565
  653MPD2    H5 9726   0.403   2.531  17.081  0.8603  1.3814  1.1744
  653MPD2    N1 9727   0.489   2.856  17.431 -0.5746  0.0927  0.2081
  653MPD2    H7 9728   0.441   2.904  17.355  1.4829 -1.4010 -2.0248
  654TMC3    C1 9729   0.362   2.314  17.004  0.7363 -0.3514 -0.0223
  654TMC3    C2 9730   0.257   2.383  16.949 -0.0424 -0.7609 -0.6321
  654TMC3    C3 9731   0.197   2.335  16.839 -0.1752  0.6984  0.0543
  654TMC3    C4 9732   0.405   2.197  16.952 -0.0624  0.2327 -0.5020
  654TMC3    C5 9733   0.337   2.153  16.840 -0.2119  1.1036  0.1020
  654TMC3    C6 9734   0.237   2.217  16.784  0.2154 -0.1497  0.2593
  654TMC3     C 9735   0.391   2.336  17.136  0.9070 -0.7265 -0.0391
  654TMC3     O 9736   0.420   2.236  17.203  0.4358  0.2897  0.2084
  654TMC3     H 9737   0.206   2.467  16.995  1.1630  0.0664 -0.7889
  654TMC3    H1 9738   0.488   2.149  17.002 -0.6786 -0.4667 -0.1574
  654TMC3    H2 9739   0.201   2.169  16.694 -1.8576  0.1858  0.8981
  654TMC3    C7 9740   0.387   2.041  16.764  0.2063 -0.4333  0.0065
  654TMC3    C8 9741   0.063   2.376  16.816  0.2826 -0.6049 -0.4428
  654TMC3    O1 9742   0.390   2.061  16.642  0.3776  0.3510 -0.3721
  654TMC3    O2 9743   0.007   2.451  16.894 -0.4357  0.0795  0.3679
  655MPD2     C 9744   1.796   2.491  15.575  0.0683  0.5343  0.3637
  655MPD2    C1 9745   1.826   2.603  15.499 -0.4446  0.0334  0.2402
  655MPD2    C2 9746   1.867   2.586  15.374  0.4628 -0.1131 -0.2604
  655MPD2    C3 9747   1.865   2.459  15.313  0.6734  0.4475 -0.9110
  655MPD2    C4 9748   1.821   2.351  15.386 -0.2189 -0.3580  0.0859
  655MPD2    C5 9749   1.803   2.367  15.519  0.3394  0.4745  0.4234
  655MPD2     H 9750   1.893   2.674  15.316  2.6348  1.2165  2.7326
  655MPD2    H1 9751   1.809   2.256  15.335  1.1596 -0.0985 -0.7093
  655MPD2    H2 9752   1.771   2.513  15.678 -1.3242  3.5997 -0.6142
  655MPD2    H3 9753   1.794   2.280  15.582  3.3114 -0.0843  0.0475
  655MPD2     N 9754   1.909   2.425  15.182 -0.3241 -0.1328 -0.3385
  655MPD2    H5 9755   1.886   2.331  15.151 -0.8071  0.6276 -2.2668
  655MPD2    N1 9756   1.826   2.732  15.554 -0.7185  0.2017  0.1479
  655MPD2    H7 9757   1.840   2.806  15.486 -3.7353 -1.2571 -2.0988
  656TMC3    C1 9758   1.734   2.900  15.701  0.3836  0.3390  0.3078
  656TMC3    C2 9759   1.705   2.934  15.835 -0.2208  0.9050  0.6319
  656TMC3    C3 9760   1.627   3.048  15.859 -0.2847 -0.0826 -0.5267
  656TMC3    C4 9761   1.688   2.978  15.597  0.8348 -0.0330 -0.1406
  656TMC3    C5 9762   1.600   3.086  15.628  0.4874 -0.1844 -1.1009
  656TMC3    C6 9763   1.570   3.126  15.761 -0.3548 -0.6941  0.4045
  656TMC3     C 9764   1.781   2.764  15.678 -0.2742  0.4627  0.1403
  656TMC3     O 9765   1.789   2.701  15.781 -0.4191  0.0950 -0.4845
  656TMC3     H 9766   1.748   2.876  15.916  0.0966 -0.6858 -0.6545
  656TMC3    H1 9767   1.711   2.953  15.494  0.6398  1.5222 -0.5528
  656TMC3    H2 9768   1.501   3.206  15.784  0.6408 -0.3542  2.2033
  656TMC3    C7 9769   1.552   3.172  15.516  0.2097  0.2633  0.0999
  656TMC3    C8 9770   1.545   3.038  15.982 -0.0493 -0.3650 -0.1962
  656TMC3    O1 9771   1.611   3.156  15.409 -0.1314 -0.3174 -0.5598
  656TMC3    O2 9772   1.561   2.945  16.058  0.0106  0.1503 -0.4712
  657TMC3    C1 9773   0.656   1.720  14.661  0.4713  0.5701  0.3322
  657TMC3    C2 9774   0.719   1.754  14.784 -0.4994 -0.2266  0.1457
  657TMC3    C3 9775   0.764   1.885  14.811  0.5993  0.2771 -0.7194
  657TMC3    C4 9776   0.646   1.815  14.571 -0.7893 -0.0518 -0.4400
  657TMC3    C5 9777   0.696   1.941  14.596  0.7447 -0.0375 -0.4697
  657TMC3    C6 9778   0.752   1.979  14.713 -0.2569 -0.0564 -0.2212
  657TMC3     C 9779   0.638   1.583  14.620 -0.4935  0.3325  0.1199
  657TMC3     O 9780   0.573   1.553  14.525  0.6665  0.9997  0.5430
  657TMC3     H 9781   0.711   1.692  14.872  1.1479 -0.3471  0.2175
  657TMC3    H1 9782   0.575   1.793  14.492  0.1682 -1.9645 -0.7660
  657TMC3    H2 9783   0.788   2.080  14.731  0.0355 -0.2312  0.1717
  657TMC3    C7 9784   0.629   2.052  14.537  0.2747 -0.3526  0.2987
  657TMC3    C8 9785   0.809   1.937  14.942  0.1060 -0.1960  0.4010
  657TMC3    O1 9786   0.624   2.155  14.602 -0.1083 -0.2349  0.0550
  657TMC3    O2 9787   0.789   2.052  14.966  0.0196 -0.3315  0.4911
  658MPD2     C 9788   2.437   2.595  14.613 -0.4456  0.0252  0.2343
  658MPD2    C1 9789   2.312   2.578  14.566 -0.4166 -0.1930 -0.2845
  658MPD2    C2 9790   2.293   2.546  14.432  0.5284  0.1904 -0.2944
  658MPD2    C3 9791   2.397   2.533  14.345 -0.7589  0.4714  0.0703
  658MPD2    C4 9792   2.522   2.556  14.390  0.5046  0.6197 -0.0597
  658MPD2    C5 9793   2.545   2.586  14.526 -0.3721 -0.5333 -0.4771
  658MPD2     H 9794   2.197   2.520  14.386  0.8914 -1.6266 -0.0518
  658MPD2    H1 9795   2.608   2.554  14.324 -0.5492  1.2419 -1.4546
  658MPD2    H2 9796   2.459   2.620  14.716  0.0820  1.3484 -0.2022
  658MPD2    H3 9797   2.638   2.628  14.563 -0.7308 -3.1828  3.4114
  658MPD2     N 9798   2.364   2.479  14.212 -0.2599  0.0364  0.0054
  658MPD2    H5 9799   2.265   2.483  14.192 -0.8648 -1.3518  2.5864
  658MPD2    N1 9800   2.209   2.578  14.661  0.2609 -0.0630  0.1536
  658MPD2    H7 9801   2.225   2.585  14.761 -0.3828  0.4340  0.2177
  659TMC3    C1 9802   1.989   2.530  14.744 -0.6679 -0.2460 -0.3132
  659TMC3    C2 9803   2.019   2.541  14.872  0.4000  0.5456  0.3464
  659TMC3    C3 9804   1.950   2.462  14.965  0.3653 -0.0665  0.1332
  659TMC3    C4 9805   1.893   2.441  14.703 -0.9145  0.6566  0.0917
  659TMC3    C5 9806   1.826   2.366  14.792 -0.0016  0.1286  0.1159
  659TMC3    C6 9807   1.854   2.371  14.921  0.6896 -0.4400  0.1404
  659TMC3     C 9808   2.073   2.583  14.636  0.7575 -0.4733 -0.1130
  659TMC3     O 9809   2.016   2.587  14.527 -0.4901  0.3903 -0.4816
  659TMC3     H 9810   2.098   2.605  14.910 -0.1408  1.3604  0.1073
  659TMC3    H1 9811   1.872   2.431  14.597  0.1506 -2.9544  0.2266
  659TMC3    H2 9812   1.795   2.314  14.992 -0.1030 -1.0790 -1.0232
  659TMC3    C7 9813   1.711   2.295  14.748  0.4609  0.3769  0.8200
  659TMC3    C8 9814   1.970   2.515  15.102 -0.2961 -0.4143 -0.2943
  659TMC3    O1 9815   1.631   2.276  14.839 -0.0330  0.8325 -0.2494
  659TMC3    O2 9816   2.037   2.613  15.133 -0.2333 -0.0749 -0.2226
  660MPD2     C 9817   4.684   1.003  12.406  0.8368 -1.3232  0.5660
  660MPD2    C1 9818   4.571   1.084  12.408  0.3693  0.0608 -0.1073
  660MPD2    C2 9819   4.455   1.057  12.483 -0.5133  0.2261 -0.2109
  660MPD2    C3 9820   4.453   0.942  12.558 -0.2991 -0.6822 -0.3672
  660MPD2    C4 9821   4.564   0.855  12.552 -0.2562 -0.1523 -0.8555
  660MPD2    C5 9822   4.671   0.888  12.485  0.0083 -0.1791  0.0496
  660MPD2     H 9823   4.374   1.129  12.491 -0.6431 -0.0810  1.3058
  660MPD2    H1 9824   4.577   0.763  12.608  1.3735  1.7914  1.9510
  660MPD2    H2 9825   0.035   1.015  12.349  1.2391 -0.4512  1.3840
  660MPD2    H3 9826   0.001   0.807  12.466  0.7081  0.1580  1.1878
  660MPD2     N 9827   4.340   0.899  12.639  0.1107  0.0035  0.7587
  660MPD2    H5 9828   4.349   0.805  12.679  0.8020 -0.3248 -0.1816
  660MPD2    N1 9829   4.585   1.199  12.329 -0.2200 -0.6317  0.5923
  660MPD2    H7 9830   4.675   1.224  12.290 -0.8361  0.0509 -0.3811
  661TMC3    C1 9831   4.519   1.400  12.219  0.1188  0.2265  0.4344
  661TMC3    C2 9832   4.579   1.348  12.109 -0.1310  0.2583  0.3982
  661TMC3    C3 9833   4.525   1.386  11.990  0.6706  0.3639  0.0144
  661TMC3    C4 9834   4.419   1.492  12.213  0.2314 -0.0997 -0.5096
  661TMC3    C5 9835   4.372   1.529  12.093 -0.1089 -0.4405  0.6975
  661TMC3    C6 9836   4.421   1.469  11.974  0.8568  0.5735 -0.6181
  661TMC3     C 9837   4.503   1.311  12.334 -0.1200 -0.1413 -0.7674
  661TMC3     O 9838   4.418   1.338  12.419 -0.0834 -0.0882 -0.0885
  661TMC3     H 9839   4.654   1.271  12.108  0.0394  0.4425 -0.8024
  661TMC3    H1 9840   4.377   1.532  12.305 -0.2239  0.2192 -0.8550
  661TMC3    H2 9841   4.398   1.516  11.880  1.0848  1.5924 -0.1658
  661TMC3    C7 9842   4.234   1.562  12.091  0.4326 -0.0722  0.3343
  661TMC3    C8 9843   4.602   1.353  11.871 -0.3358 -0.0888  0.6435
  661TMC3    O1 9844   4.182   1.601  12.198  0.0015  0.0416  0.8342
  661TMC3    O2 9845   4.719   1.328  11.895  0.4182 -0.2441 -0.0087
  662MPD2     C 9846   0.132   1.658  16.960 -0.1595 -0.1764  0.0709
  662MPD2    C1 9847   0.077   1.546  17.024  0.3925  0.3118  0.3317
  662MPD2    C2 9848   0.043   1.555  17.159  0.1093  0.5366 -0.1260
  662MPD2    C3 9849   0.044   1.680  17.225 -0.4423  0.0385 -0.3786
  662MPD2    C4 9850   0.084   1.790  17.156 -0.3823 -0.3610  0.3123
  662MPD2    C5 9851   0.137   1.779  17.028 -0.2236 -0.4332 -0.9100
  662MPD2     H 9852   0.003   1.470  17.213  2.6431 -1.5105 -1.4955
  662MPD2    H1 9853   0.090   1.885  17.206  0.7736  0.3249 -1.1072
  662MPD2    H2 9854   0.170   1.642  16.860 -0.3442  1.2226 -0.2191
  662MPD2    H3 9855   0.173   1.862  16.968  1.1588  0.6601  1.4016
  662MPD2     N 9856   0.014   1.700  17.360 -0.1816  0.5745 -0.0254
  662MPD2    H5 9857   4.710   1.787  17.387 -1.2625  0.3099 -0.9223
  662MPD2    N1 9858   0.038   1.425  16.961 -1.1121 -0.6383 -0.5106
  662MPD2    H7 9859   4.739   1.358  17.026  0.6869 -1.6972 -0.5171
  663TMC3    C1 9860   0.005   1.248  16.814  0.2811  0.0083  0.2722
  663TMC3    C2 9861   4.615   1.234  16.855 -0.3787 -0.1109  0.9259
  663TMC3    C3 9862   4.530   1.150  16.786 -0.8673  0.3380  0.1327
  663TMC3    C4 9863   0.063   1.157  16.728 -0.3058 -0.5291 -0.1266
  663TMC3    C5 9864   4.716   1.065  16.679  0.4682  0.4283  0.7106
  663TMC3    C6 9865   4.585   1.058  16.708 -0.4205 -0.2913 -0.0450
  663TMC3     C 9866   0.053   1.388  16.826 -0.3844 -0.1658  0.5533
  663TMC3     O 9867   0.108   1.446  16.733  0.6158 -0.1136  0.1428
  663TMC3     H 9868   4.573   1.314  16.915 -1.7920 -0.3454  0.2633
  663TMC3    H1 9869   0.169   1.163  16.710 -0.3387  0.9947  0.1540
  663TMC3    H2 9870   4.516   1.009  16.640 -0.6163  0.4594 -0.4005
  663TMC3    C7 9871   0.028   0.950  16.619  0.5678  0.0892 -0.0335
  663TMC3    C8 9872   4.423   1.080  16.863 -0.0744  0.4462  0.1944
  663TMC3    O1 9873   0.130   0.981  16.556  0.3622  0.1622 -0.5384
  663TMC3    O2 9874   4.347   1.004  16.804  0.6604  0.1916  0.1797
  664MPD2     C 9875   2.852   3.873  16.949 -0.4613  0.8135  0.0909
  664MPD2    C1 9876   2.893   3.986  17.010 -0.2413 -0.2543 -0.4370
  664MPD2    C2 9877   2.822   4.038  17.111 -0.5636 -0.1523 -0.2088
  664MPD2    C3 9878   2.707   3.982  17.159  0.3494 -0.2881  0.3989
  664MPD2    C4 9879   2.672   3.856  17.102 -0.2080  0.1844 -0.5984
  664MPD2    C5 9880   2.747   3.807  16.999  1.0153 -0.0248 -0.7409
  664MPD2     H 9881   2.857   4.129  17.159 -2.0255  0.4777 -0.3357
  664MPD2    H1 9882   2.587   3.798  17.137  0.3224  0.2953  0.8828
  664MPD2    H2 9883   2.908   3.825  16.870 -2.7147 -1.6549 -0.0066
  664MPD2    H3 9884   2.725   3.713  16.951  1.6110 -1.0968  1.0932
  664MPD2     N 9885   2.649   4.048  17.268 -0.3904 -0.0560  1.0919
  664MPD2    H5 9886   2.687   4.136  17.302 -1.2175  0.8291 -0.2658
  664MPD2    N1 9887   3.006   4.059  16.964  0.3648 -0.4071 -0.1088
  664MPD2    H7 9888   3.012   4.153  17.002  2.3210  0.1582 -1.8294
  665TMC3    C1 9889   2.505   4.093  17.448  0.2417  0.1816  1.1463
  665TMC3    C2 9890   2.460   4.032  17.564 -0.3181 -0.1212 -0.0047
  665TMC3    C3 9891   2.474   4.115  17.676  0.2068  0.1550  0.2978
  665TMC3    C4 9892   2.553   4.215  17.433 -0.4585 -0.2493  0.2318
  665TMC3    C5 9893   2.566   4.289  17.548  0.0852  0.3418 -0.5053
  665TMC3    C6 9894   2.530   4.238  17.674 -0.0417  0.1733 -0.4851
  665TMC3     C 9895   2.535   4.002  17.337 -0.5507 -0.0898  0.5818
  665TMC3     O 9896   2.466   3.904  17.324  0.7183  0.2315 -0.3614
  665TMC3     H 9897   2.443   3.925  17.568  0.3711 -0.1663  1.6170
  665TMC3    H1 9898   2.552   4.257  17.333 -0.4134 -0.9891 -0.0814
  665TMC3    H2 9899   2.555   4.294   0.004 -1.1327  0.5114 -0.3860
  665TMC3    C7 9900   2.614   4.421  17.530  0.5122 -0.2751  0.2106
  665TMC3    C8 9901   2.422   4.071   0.043 -1.0096  1.0034 -0.3867
  665TMC3    O1 9902   2.570   4.473  17.423  0.1284 -0.0524  0.4051
  665TMC3    O2 9903   2.451   4.142   0.136  0.5352  0.0407  0.2087
  666TMC3    C1 9904   2.421   3.419  10.067 -0.1887 -0.4882  0.4567
  666TMC3    C2 9905   2.514   3.342  10.139  0.1868  0.5049 -0.0420
  666TMC3    C3 9906   2.645   3.389  10.150  0.0052  0.4230 -0.0368
  666TMC3    C4 9907   2.470   3.528  10.009 -0.0606  0.8618  0.3379
  666TMC3    C5 9908   2.591   3.578  10.036  0.3692  0.3650  0.1539
  666TMC3    C6 9909   2.678   3.511  10.106  0.6238 -0.8574  0.0493
  666TMC3     C 9910   2.282   3.435  10.111  0.1418 -0.6732  0.1522
  666TMC3     O 9911   2.239   3.549  10.105 -0.0439  0.2194 -0.5406
  666TMC3     H 9912   2.484   3.248  10.182  1.0557  1.2778  2.2840
  666TMC3    H1 9913   2.399   3.584   9.949 -1.5927 -0.2397  1.1221
  666TMC3    H2 9914   2.782   3.541  10.101  0.4413  0.0837  1.6268
  666TMC3    C7 9915   2.609   3.714   9.989  0.7540 -0.3781  0.0599
  666TMC3    C8 9916   2.714   3.344  10.269  0.4560  0.4155  0.5882
  666TMC3    O1 9917   2.508   3.786   9.979 -0.4430  0.2512  0.4255
  666TMC3    O2 9918   2.647   3.288  10.353  0.8544  0.2444  0.2833
  667MPD2     C 9919   3.660   3.535  14.857  0.0446 -0.4069 -0.4440
  667MPD2    C1 9920   3.553   3.610  14.902 -0.5020 -0.4816  0.1965
  667MPD2    C2 9921   3.426   3.549  14.909  0.4593 -0.5607  0.3587
  667MPD2    C3 9922   3.405   3.420  14.864  0.1659 -0.3233  0.2975
  667MPD2    C4 9923   3.510   3.355  14.806  0.0689 -0.5864  0.3499
  667MPD2    C5 9924   3.634   3.408  14.810 -0.5802 -0.3895  0.4923
  667MPD2     H 9925   3.352   3.606  14.964  0.3884  0.3332 -0.6707
  667MPD2    H1 9926   3.498   3.255  14.766 -0.0426 -0.7640  0.8274
  667MPD2    H2 9927   3.759   3.579  14.858 -1.6288  3.2794  1.4842
  667MPD2    H3 9928   3.720   3.361  14.763  1.0227  1.9670  1.0223
  667MPD2     N 9929   3.281   3.359  14.876  0.4978  0.3478  0.1871
  667MPD2    H5 9930   3.281   3.259  14.860 -0.2870  0.1948  1.1661
  667MPD2    N1 9931   3.571   3.735  14.955  0.5569  0.0835  0.1539
  667MPD2    H7 9932   3.495   3.778  15.006  0.0420  0.7088 -1.1378
  668TMC3    C1 9933   3.674   3.936  15.024 -0.1316 -0.6510  0.1467
  668TMC3    C2 9934   3.739   4.053  14.994  0.0071 -0.0179  0.3217
  668TMC3    C3 9935   3.754   4.141  15.090  0.2762 -0.6847 -0.3730
  668TMC3    C4 9936   3.628   3.915  15.152 -0.0582  0.0129  0.3636
  668TMC3    C5 9937   3.631   4.010  15.243  0.2734  0.5213  0.0020
  668TMC3    C6 9938   3.701   4.124  15.210  0.3558  0.3258  0.0929
  668TMC3     C 9939   3.675   3.821  14.932  0.1528 -0.5241  0.3420
  668TMC3     O 9940   3.777   3.810  14.862  0.4322  0.1954  0.2307
  668TMC3     H 9941   3.779   4.066  14.895 -2.9960  0.8812 -0.7630
  668TMC3    H1 9942   3.585   3.817  15.167 -1.1855  0.7670  2.0355
  668TMC3    H2 9943   3.719   4.197  15.288 -0.5206 -0.1074  0.7032
  668TMC3    C7 9944   3.564   3.994  15.376 -0.1852  0.5142 -0.0254
  668TMC3    C8 9945   3.836   4.258  15.076  0.2506 -0.5878 -0.3084
  668TMC3    O1 9946   3.599   4.065  15.466 -0.1001  0.1445  0.2209
  668TMC3    O2 9947   3.870   4.310  15.176 -0.5146 -0.2793 -0.1270
  669TMC3    C1 9948   1.597   3.938  14.629  0.6848 -0.5415  0.6601
  669TMC3    C2 9949   1.487   3.985  14.564 -0.0185 -0.6450 -0.6890
  669TMC3    C3 9950   1.518   4.052  14.447  0.2485 -0.3134 -0.8931
  669TMC3    C4 9951   1.724   3.967  14.595  0.8643  0.2434 -0.1063
  669TMC3    C5 9952   1.743   4.031  14.470  0.1932  0.0740 -0.4669
  669TMC3    C6 9953   1.640   4.076  14.400  0.5484 -0.5449  0.5164
  669TMC3     C 9954   1.576   3.886  14.762 -0.0015 -0.4167 -0.1578
  669TMC3     O 9955   1.465   3.914  14.812 -0.7826 -0.0760  0.1945
  669TMC3     H 9956   1.386   3.961  14.597 -0.6580  1.3501 -1.2000
  669TMC3    H1 9957   1.808   3.930  14.652  0.2074 -0.9437  0.1052
  669TMC3    H2 9958   1.662   4.137  14.313  0.9205 -2.3174 -0.6344
  669TMC3    C7 9959   1.870   4.040  14.403  0.4976  0.1977 -0.2572
  669TMC3    C8 9960   1.412   4.068  14.347  0.3696  0.7534  0.1551
  669TMC3    O1 9961   1.971   4.034  14.471  0.5101 -0.7964  0.0910
  669TMC3    O2 9962   1.458   4.075  14.234 -0.3753 -0.1038  0.4048
  670MPD2     C 9963   0.483   0.855  12.821  0.0436  0.2873  0.9624
  670MPD2    C1 9964   0.535   0.965  12.894 -0.3228 -0.1847  0.0765
  670MPD2    C2 9965   0.453   1.029  12.988 -0.1806  0.7242  0.5693
  670MPD2    C3 9966   0.325   0.991  13.009 -0.2891  0.4057  0.3128
  670MPD2    C4 9967   0.275   0.888  12.935  0.4819 -0.1039 -0.4104
  670MPD2    C5 9968   0.354   0.824  12.844  0.1828  0.6049 -1.0375
  670MPD2     H 9969   0.493   1.106  13.053 -0.2837  1.6871 -0.5078
  670MPD2    H1 9970   0.170   0.862  12.939  0.2263  1.1718  1.3284
  670MPD2    H2 9971   0.537   0.804  12.742 -0.9198  2.0706 -0.8676
  670MPD2    H3 9972   0.303   0.745  12.790 -1.2538  1.0442 -0.3212
  670MPD2     N 9973   0.241   1.066  13.099 -0.0158 -0.3308  0.1569
  670MPD2    H5 9974   0.288   1.146  13.138 -0.5802  0.1886 -0.2209
  670MPD2    N1 9975   0.663   1.016  12.868  0.0351  0.1414  0.3483
  670MPD2    H7 9976   0.698   1.084  12.935 -0.9246 -1.9497  2.9581
  671TMC3    C1 9977   0.058   1.138  13.227  0.2271 -0.9681 -0.0582
  671TMC3    C2 9978   0.136   1.193  13.326 -0.3868 -0.4419  0.5692
  671TMC3    C3 9979   0.065   1.229  13.438  0.3876 -0.8197  0.1131
  671TMC3    C4 9980   4.657   1.125  13.246  0.2545 -0.0363  0.7443
  671TMC3    C5 9981   4.599   1.173  13.358  0.1063 -0.3079  0.3371
  671TMC3    C6 9982   4.669   1.239  13.452  0.8056  0.4223 -0.1808
  671TMC3     C 9983   0.116   1.034  13.139 -0.4148 -0.3393  0.0423
  671TMC3     O 9984   0.050   0.934  13.120 -0.0676  0.1594 -0.0429
  671TMC3     H 9985   0.243   1.178  13.337 -0.6877 -2.9484  0.0673
  671TMC3    H1 9986   4.605   1.053  13.184  1.2493  1.2720 -1.6018
  671TMC3    H2 9987   4.621   1.264  13.546  1.9792 -0.6494  0.7084
  671TMC3    C7 9988   4.495   1.095  13.408  0.0468  0.2192  0.8590
  671TMC3    C8 9989   0.130   1.184  13.559 -0.3789  1.0098  0.4439
  671TMC3    O1 9990   4.499   0.974  13.374 -0.0340 -0.2395 -0.1655
  671TMC3    O2 9991   0.210   1.097  13.536 -0.2246  0.2746 -0.2477
  672MPD2     C 9992   0.156   2.482   0.756 -0.6052  0.4687 -0.1880
  672MPD2    C1 9993   0.286   2.426   0.714  0.2967  0.0018 -0.0830
  672MPD2    C2 9994   0.403   2.490   0.754  0.2126 -0.6074 -0.8989
  672MPD2    C3 9995   0.398   2.609   0.823  0.4769  0.0655  0.6259
  672MPD2    C4 9996   0.273   2.652   0.867 -0.0776  0.9023 -0.4257
  672MPD2    C5 9997   0.155   2.597   0.826  0.2508  0.0040  0.0624
  672MPD2     H 9998   0.497   2.446   0.721 -0.3263 -1.5944 -1.1405
  672MPD2    H1 9999   0.266   2.739   0.931  0.1117  0.2714  0.4363
  672MPD2    H210000   0.057   2.440   0.743 -0.0741 -1.5485  2.1302
  672MPD2    H310001   0.060   2.638   0.860 -1.0031 -0.8980 -2.3154
  672MPD2     N10002   0.509   2.680   0.866  0.6244  0.1159  0.6414
  672MPD2    H510003   0.486   2.759   0.927 -2.2750 -1.8893  2.1503
  672MPD2    N110004   0.286   2.308   0.637 -0.2034 -0.6594 -0.3070
  672MPD2    H710005   0.371   2.264   0.603  1.3275  2.4899 -0.5155
  673TMC3    C110006   0.207   2.129   0.506  0.3546 -0.6004  0.2461
  673TMC3    C210007   0.335   2.093   0.485  0.5526 -0.5649 -0.1914
  673TMC3    C310008   0.358   2.020   0.368  0.1354  0.4642 -0.3055
  673TMC3    C410009   0.103   2.093   0.422 -0.0514  0.2304 -0.3911
  673TMC3    C510010   0.132   2.022   0.306 -0.1164  0.3706 -0.2061
  673TMC3    C610011   0.259   1.990   0.276 -0.0868 -0.1692  0.0731
  673TMC3     C10012   0.173   2.254   0.576 -0.0627  0.1112 -0.4628
  673TMC3     O10013   0.060   2.299   0.553  0.7762  0.0545  0.2125
  673TMC3     H10014   0.412   2.114   0.559 -2.1574  2.2713  1.8239
  673TMC3    H110015   4.738   2.103   0.448 -0.4319  1.5804 -2.4076
  673TMC3    H210016   0.278   1.932   0.186  0.6946 -0.0981  0.1937
  673TMC3    C710017   0.064   2.077   0.192  0.0930  0.7922 -0.2095
  673TMC3    C810018   0.487   1.982   0.324 -0.7524 -0.4617  0.2703
  673TMC3    O110019   0.077   2.017   0.086  0.2191  0.4021 -0.5452
  673TMC3    O210020   0.506   1.928   0.214 -0.3931  0.1491  0.0279
  674MPD2     C10021   0.054   2.710  17.254 -0.3630 -0.2195  0.5846
  674MPD2    C110022   0.017   2.593  17.308  0.4078  0.5979  0.0905
  674MPD2    C210023   4.625   2.567  17.337  0.5474 -0.5226  0.0153
  674MPD2    C310024   4.530   2.666  17.326  0.5773  0.0385 -0.1315
  674MPD2    C410025   4.569   2.789  17.277 -0.5771  0.6345  0.4819
  674MPD2    C510026   4.701   2.808  17.238 -0.4561  0.7124 -0.1845
  674MPD2     H10027   4.593   2.470  17.375  2.0685 -1.0027  0.0528
  674MPD2    H110028   4.501   2.873  17.267 -2.8410 -1.2824 -0.2172
  674MPD2    H210029   0.153   2.730  17.215 -0.2755  0.5699  1.2115
  674MPD2    H310030   4.727   2.898  17.184 -0.5787  1.6456  1.2888
  674MPD2     N10031   4.403   2.635  17.386  1.0674  0.3717  0.3003
  674MPD2    H510032   4.392   2.540  17.420 -0.5779  1.6309  3.3361
  674MPD2    N110033   0.114   2.492  17.329 -0.7806  0.2738  0.4153
  674MPD2    H710034   0.200   2.536  17.360 -0.7785 -0.2741  1.1946
  675TMC3    C110035   0.197   2.303  17.445 -0.6379 -0.3613 -0.5037
  675TMC3    C210036   0.202   2.169  17.434 -0.2265  0.8456 -0.5510
  675TMC3    C310037   0.252   2.100  17.538  0.1611 -0.3019 -0.7034
  675TMC3    C410038   0.208   2.367  17.564  0.0302  0.3139 -0.6975
  675TMC3    C510039   0.246   2.291  17.670 -0.3220 -0.1473 -0.8016
  675TMC3    C610040   0.264   2.155  17.663 -0.1012 -0.0756  0.1448
  675TMC3     C10041   0.097   2.360  17.354 -1.1402 -0.2050 -0.5563
  675TMC3     O10042   0.007   2.280  17.319 -0.0667  0.0716  0.2936
  675TMC3     H10043   0.195   2.133  17.332  2.5777  1.5497 -0.9951
  675TMC3    H110044   0.181   2.471  17.575 -0.4514  0.1428 -0.2706
  675TMC3    H210045   0.298   2.103  17.752 -0.7083  0.0280  0.4313
  675TMC3    C710046   0.264   2.353   0.035  0.4224  0.3167  0.9165
  675TMC3    C810047   0.268   1.960  17.525 -0.2897 -0.4688 -0.2866
  675TMC3    O110048   0.291   2.271   0.120 -0.0963  0.2697 -0.2113
  675TMC3    O210049   0.301   1.922  17.413 -0.2167  0.0197 -0.0641
  676MPD2     C10050   2.766   0.188  11.191 -0.1184  0.3407  0.0117
  676MPD2    C110051   2.720   0.099  11.280 -0.9192  0.5586 -0.2625
  676MPD2    C210052   2.723   4.701  11.240  0.1188  0.4345  0.2766
  676MPD2    C310053   2.783   4.668  11.120 -0.2245  0.1340  0.3738
  676MPD2    C410054   2.823   0.025  11.030 -0.0334 -0.1260  0.8502
  676MPD2    C510055   2.810   0.161  11.061  0.4325 -1.0619 -0.4646
  676MPD2     H10056   2.694   4.623  11.310  0.6854  0.7424  0.8555
  676MPD2    H110057   2.854   0.001  10.929  0.4521  2.9120  0.2767
  676MPD2    H210058   2.761   0.295  11.204  2.6052  0.7362 -2.2023
  676MPD2    H310059   2.844   0.249  11.007 -1.7783 -0.1480 -0.3499
  676MPD2     N10060   2.796   4.533  11.074 -0.4043  0.1984 -0.2755
  676MPD2    H510061   2.863   4.519  10.999 -0.7415  0.3448 -0.6044
  676MPD2    N110062   2.675   0.135  11.413 -0.1683 -0.0661  0.1296
  676MPD2    H710063   2.642   0.055  11.466 -0.7850 -1.5205 -2.5019
  677TMC3    C110064   2.660   0.235  11.605  0.3441  0.1103  0.3423
  677TMC3    C210065   2.574   0.140  11.647  0.2095 -0.4099 -0.3998
  677TMC3    C310066   2.575   0.108  11.778  0.2171  0.4202 -0.5465
  677TMC3    C410067   2.739   0.302  11.691 -0.0310  0.5507 -0.1061
  677TMC3    C510068   2.739   0.266  11.822 -0.1054  0.0181  0.4428
  677TMC3    C610069   2.656   0.167  11.865 -0.4406 -0.2396 -0.2335
  677TMC3     C10070   2.679   0.260  11.465  0.8984  1.0681 -0.5500
  677TMC3     O10071   2.746   0.358  11.433 -0.6664 -0.2293  0.2751
  677TMC3     H10072   2.497   0.089  11.590 -0.5623 -0.3673  0.6075
  677TMC3    H110073   2.808   0.379  11.657  2.4368 -1.3429  0.6623
  677TMC3    H210074   2.666   0.145  11.970  3.0392 -1.3215 -0.7696
  677TMC3    C710075   2.762   0.366  11.926  0.0086 -0.6036 -0.9166
  677TMC3    C810076   2.477   0.013  11.823  0.1040 -0.0170  0.4166
  677TMC3    O110077   2.734   0.334  12.043  0.4976 -0.2534 -0.5492
  677TMC3    O210078   2.360   0.037  11.799  0.1248  0.2627  0.1299
  678MPD2     C10079   4.082   0.022   0.895 -0.1844  0.6024 -0.6169
  678MPD2    C110080   4.090   0.120   0.792 -0.5768 -0.1739  0.3347
  678MPD2    C210081   3.973   0.180   0.746  0.0563 -0.0481  0.3277
  678MPD2    C310082   3.851   0.142   0.801  0.2387 -0.2710  0.3531
  678MPD2    C410083   3.845   0.041   0.892  0.0783  0.2393  0.1087
  678MPD2    C510084   3.962   4.734   0.948 -0.2097 -0.0766 -0.0820
  678MPD2     H10085   3.986   0.269   0.685 -1.9587  0.4480  0.6481
  678MPD2    H110086   3.756   4.735   0.932  0.0589 -0.5853 -0.8774
  678MPD2    H210087   4.166   4.707   0.934  0.0284  0.5579 -1.1334
  678MPD2    H310088   3.941   4.658   1.022  0.0950 -0.7799 -0.7219
  678MPD2     N10089   3.733   0.213   0.766  0.2463 -0.0424 -0.1784
  678MPD2    H510090   3.741   0.281   0.691 -1.0793  0.3793  0.0695
  678MPD2    N110091   4.216   0.157   0.730 -0.3930 -0.4701  0.1662
  678MPD2    H710092   4.204   0.228   0.659 -2.3873  1.2394  2.2286
  679TMC3    C110093   4.685   0.105   0.659 -0.1891 -0.5002  0.0921
  679TMC3    C210094   4.571   0.067   0.727  0.2279  0.0158 -1.0471
  679TMC3    C310095   4.462   0.145   0.709  0.1961  0.1325  0.8509
  679TMC3    C410096   4.697   0.212   0.574  0.0944 -0.0730  0.1206
  679TMC3    C510097   4.584   0.289   0.563  0.3595 -0.2923  0.2481
  679TMC3    C610098   4.466   0.254   0.632  0.4297 -0.1382  0.0401
  679TMC3     C10099   0.048   0.004   0.670  0.4318 -0.1508 -0.2978
  679TMC3     O10100   0.111   4.735   0.570 -0.2562 -0.0859 -0.6839
  679TMC3     H10101   4.569   4.722   0.794 -0.7592  1.4005  0.7047
  679TMC3    H110102   0.054   0.227   0.528  0.2275 -0.2514  0.3450
  679TMC3    H210103   4.386   0.326   0.623  0.6878 -0.0079 -1.1924
  679TMC3    C710104   4.572   0.381   0.452 -0.0442 -0.2677  0.2035
  679TMC3    C810105   4.342   0.109   0.774 -0.4801 -0.2790  0.0343
  679TMC3    O110106   4.485   0.463   0.469  0.6046 -0.2182  0.2482
  679TMC3    O210107   4.366   0.032   0.864  0.3506  0.2190 -0.0312
  680MPD2     C10108   4.191   3.450  13.388  0.3489 -0.1396  0.4644
  680MPD2    C110109   4.317   3.420  13.426 -0.0366 -0.4330 -0.2396
  680MPD2    C210110   4.391   3.511  13.494  0.4907 -0.0470 -0.4670
  680MPD2    C310111   4.340   3.634  13.529 -0.7742 -0.3943  0.4139
  680MPD2    C410112   4.211   3.660  13.501  0.2740  0.0441  0.3569
  680MPD2    C510113   4.140   3.568  13.428 -0.1192 -0.0881  0.0715
  680MPD2     H10114   4.497   3.494  13.512  0.6707  0.3478 -1.1520
  680MPD2    H110115   4.158   3.749  13.536 -1.2530 -0.0307 -1.7487
  680MPD2    H210116   4.124   3.383  13.335  1.8095 -2.2918  1.3571
  680MPD2    H310117   4.035   3.585  13.410  0.4352  1.1096 -1.9723
  680MPD2     N10118   4.419   3.745  13.583 -0.1662 -0.0154  0.4902
  680MPD2    H510119   4.378   3.835  13.610  0.3654  0.6416 -0.9190
  680MPD2    N110120   4.378   3.300  13.375  0.4392  0.3267 -0.6919
  680MPD2    H710121   4.474   3.283  13.403 -0.9212 -1.8208  2.5918
  681TMC3    C110122   4.428   3.106  13.254  0.3485  0.8970  0.2560
  681TMC3    C210123   4.390   2.976  13.264 -0.0397  0.6402 -0.4714
  681TMC3    C310124   4.489   2.884  13.277  0.4059  0.3151 -0.2425
  681TMC3    C410125   4.552   3.147  13.218  0.1992  0.5940 -1.0104
  681TMC3    C510126   4.649   3.047  13.229  0.2229  0.6311  0.4146
  681TMC3    C610127   4.622   2.916  13.262 -0.1298  1.0606  0.0796
  681TMC3     C10128   4.322   3.205  13.289  0.7428  0.1917 -0.8751
  681TMC3     O10129   4.203   3.176  13.289  0.3640  0.1198 -0.5439
  681TMC3     H10130   4.285   2.953  13.278 -0.3961  3.3241  1.1572
  681TMC3    H110131   4.579   3.252  13.213  1.0986  0.3497 -1.4008
  681TMC3    H210132   4.706   2.851  13.239  0.0236  0.9805  0.8646
  681TMC3    C710133   0.048   3.089  13.214  0.1936  0.8188 -0.0468
  681TMC3    C810134   4.464   2.744  13.267  0.3182 -0.3086  0.1710
  681TMC3    O110135   0.131   3.022  13.275 -0.6785 -0.7001  0.3041
  681TMC3    O210136   4.532   2.683  13.189  0.4358 -0.1631 -0.0846
  682MPD2     C10137   2.487   4.648  10.795 -0.2588 -0.5691  0.2355
  682MPD2    C110138   2.392   4.600  10.705  0.2262  0.1419  0.4895
  682MPD2    C210139   2.262   4.573  10.754 -1.1303 -0.0533  0.4767
  682MPD2    C310140   2.236   4.602  10.883  0.2889  1.4117  0.0725
  682MPD2    C410141   2.331   4.651  10.972 -0.0109  0.2057 -0.6361
  682MPD2    C510142   2.455   4.684  10.925  0.5911 -0.1041  0.8971
  682MPD2     H10143   2.185   4.544  10.683 -1.3916  1.4733  0.1462
  682MPD2    H110144   2.307   4.676  11.075  1.7017  0.4607 -0.2931
  682MPD2    H210145   2.586   4.679  10.765  0.1074 -1.2641  0.7512
  682MPD2    H310146   2.530   4.718  10.997  0.4482 -0.3371  1.1588
  682MPD2     N10147   2.108   4.581  10.948 -0.0072 -0.2294 -0.4067
  682MPD2    H510148   2.101   4.623  11.040 -0.5669  1.2052 -1.1041
  682MPD2    N110149   2.419   4.567  10.571  0.6219  0.5436  0.0807
  682MPD2    H710150   2.333   4.539  10.524  1.5210  4.3881 -3.9026
  683TMC3    C110151   1.735   4.615  11.128 -0.0559 -0.4688  0.8135
  683TMC3    C210152   1.642   4.518  11.098  0.4391  0.0461  0.4154
  683TMC3    C310153   1.683   4.428  11.007  0.1092  0.1155 -0.8802
  683TMC3    C410154   1.857   4.618  11.063 -0.1575 -0.1429 -0.4445
  683TMC3    C510155   1.889   4.524  10.971 -0.3776  0.5775  0.3361
  683TMC3    C610156   1.803   4.422  10.944 -0.5774 -0.4266 -0.4664
  683TMC3     C10157   1.692   4.728  11.218  0.4647  0.2204  0.3527
  683TMC3     O10158   1.746   0.095  11.193 -0.0615  0.6642  0.0505
  683TMC3     H10159   1.545   4.509  11.145  1.6995 -2.4263  2.5770
  683TMC3    H110160   1.921   4.702  11.087 -0.0873 -0.6965  1.3013
  683TMC3    H210161   1.821   4.350  10.865 -0.4076 -1.9336  0.9478
  683TMC3    C710162   1.996   4.533  10.883  0.5290 -0.4996  0.0032
  683TMC3    C810163   1.597   4.304  10.999  0.1805  0.1953  0.6466
  683TMC3    O110164   1.983   4.490  10.774  0.0312 -0.3075  0.1285
  683TMC3    O210165   1.481   4.309  11.038 -0.5951  0.1346  0.0629
  684MPD2     C10166   0.061   4.257  16.270  0.5462  1.1254  0.7400
  684MPD2    C110167   0.031   4.287  16.140 -0.1728  0.4079  0.0693
  684MPD2    C210168   0.015   4.418  16.113 -0.3381  0.0333  0.1228
  684MPD2    C310169   0.018   4.514  16.211  0.6156  0.4492  0.0321
  684MPD2    C410170   0.056   4.482  16.341  0.6445 -0.0287  0.2079
  684MPD2    C510171   0.073   4.350  16.368 -0.0089  0.2889  0.0709
  684MPD2     H10172   0.007   4.454  16.011 -2.2710 -0.3751  0.1287
  684MPD2    H110173   0.099   4.548  16.417 -0.3978 -0.7048  1.3904
  684MPD2    H210174   0.070   4.153  16.299  1.3119  1.2661  1.0049
  684MPD2    H310175   0.117   4.324  16.464 -1.6487  1.0170  1.0102
  684MPD2     N10176   0.021   4.648  16.184  0.1730 -0.4551  0.5496
  684MPD2    H510177   0.045   4.710  16.260 -0.2070 -0.0907  0.3720
  684MPD2    N110178   0.011   4.185  16.041 -0.4889  0.1079  0.5035
  684MPD2    H710179   4.715   4.221  15.953  0.2471  3.3773  1.5517
  685TMC3    C110180   0.048   3.975  15.928 -0.5255 -0.4289 -0.2036
  685TMC3    C210181   4.707   4.026  15.829 -0.2561 -0.7894  0.1438
  685TMC3    C310182   0.012   4.023  15.701 -0.5780 -0.8941 -0.0100
  685TMC3    C410183   0.162   3.904  15.895 -0.2037  0.1774 -0.0408
  685TMC3    C510184   0.195   3.896  15.764  0.1320 -0.5870  0.2125
  685TMC3    C610185   0.126   3.961  15.666 -0.2847 -0.4258  0.7853
  685TMC3     C10186   0.060   4.052  16.048 -0.2574  0.0840  0.9352
  685TMC3     O10187   0.134   4.002  16.131  0.3139  0.2485 -0.0752
  685TMC3     H10188   4.607   4.055  15.861 -0.0187  0.0254  0.1461
  685TMC3    H110189   0.227   3.865  15.971  2.5261 -0.6048 -2.7664
  685TMC3    H210190   0.166   3.958  15.566 -2.8130 -0.9034 -0.2286
  685TMC3    C710191   0.339   3.910  15.741 -0.3113 -0.3872  0.3686
  685TMC3    C810192   4.658   4.045  15.598 -0.6081  0.1122  0.6571
  685TMC3    O110193   0.383   3.881  15.629 -0.0441  0.3975 -0.2118
  685TMC3    O210194   4.686   3.992  15.491  0.2592 -0.4340  0.2956
  686MPD2     C10195   1.678   4.611  15.562  0.1028  0.5649  0.4517
  686MPD2    C110196   1.541   4.608  15.582  0.3904  0.1618 -0.5692
  686MPD2    C210197   1.469   4.561  15.476 -0.1916  0.6280 -0.1296
  686MPD2    C310198   1.524   4.522  15.351 -0.9660  0.3880 -1.1019
  686MPD2    C410199   1.657   4.551  15.332  0.1716  0.4636  0.0637
  686MPD2    C510200   1.733   4.593  15.437  0.2279 -0.2450  0.1739
  686MPD2     H10201   1.362   4.548  15.479 -0.0013 -0.8748  0.2181
  686MPD2    H110202   1.709   4.526  15.240  0.5679 -0.1087  0.4408
  686MPD2    H210203   1.744   4.653  15.638  0.9450  0.1534 -0.0492
  686MPD2    H310204   1.841   4.590  15.437  0.2226 -0.5187 -1.4430
  686MPD2     N10205   1.443   4.468  15.245 -0.2390  0.6086  0.3980
  686MPD2    H510206   1.467   4.500  15.151  1.0951  2.5898  1.4095
  686MPD2    N110207   1.485   4.620  15.716  0.2324  0.6074 -0.2277
  686MPD2    H710208   1.550   4.622  15.794  0.1016 -0.7336 -0.0880
  687TMC3    C110209   1.338   4.318  15.396 -0.2660 -0.2546 -0.8258
  687TMC3    C210210   1.221   4.319  15.468 -0.4544 -0.5053  0.3925
  687TMC3    C310211   1.214   4.266  15.601  0.1456 -0.0884  0.8954
  687TMC3    C410212   1.444   4.250  15.441 -0.1428  0.0725  0.9793
  687TMC3    C510213   1.439   4.200  15.567  0.1082 -0.2634  0.3706
  687TMC3    C610214   1.332   4.209  15.652 -0.3049 -0.5311 -0.7609
  687TMC3     C10215   1.332   4.395  15.273  1.0495  0.6442 -0.7035
  687TMC3     O10216   1.231   4.383  15.207  0.1094  0.3769 -0.7878
  687TMC3     H10217   1.133   4.355  15.416  2.0896  1.2893 -2.6712
  687TMC3    H110218   1.531   4.248  15.376  0.4650  0.3682  1.7766
  687TMC3    H210219   1.341   4.174  15.754  1.3070  0.0468 -0.7124
  687TMC3    C710220   1.552   4.131  15.618  0.4845  0.7031  0.8096
  687TMC3    C810221   1.110   4.316  15.686 -0.3644  0.0801  0.4316
  687TMC3    O110222   1.561   4.111  15.736  0.0968 -0.2284  0.0908
  687TMC3    O210223   1.074   4.238  15.776 -0.1675  0.6636  0.0804
  688MPD2     C10224   0.646   3.462  17.023  0.1732  0.0705 -0.5276
  688MPD2    C110225   0.687   3.339  17.081  0.4831 -0.2580  0.0251
  688MPD2    C210226   0.807   3.287  17.046  0.1888 -0.2755 -0.1015
  688MPD2    C310227   0.894   3.346  16.959 -1.1568  0.4131 -0.3603
  688MPD2    C410228   0.855   3.467  16.905 -1.0825  0.5023  0.5848
  688MPD2    C510229   0.731   3.522  16.930 -0.4985 -0.4912 -0.6103
  688MPD2     H10230   0.828   3.196  17.101 -0.1602 -0.5895 -0.4847
  688MPD2    H110231   0.919   3.519  16.833  0.3219 -0.4311  1.1571
  688MPD2    H210232   0.552   3.513  17.036 -0.7004 -1.5613 -0.3511
  688MPD2    H310233   0.702   3.618  16.889  0.1979  0.6090  1.5092
  688MPD2     N10234   1.020   3.294  16.921  0.3135 -0.3220  0.3921
  688MPD2    H510235   1.075   3.355  16.862  1.0272 -3.0209 -1.7072
  688MPD2    N110236   0.617   3.277  17.194 -0.4101 -0.5044  0.1401
  688MPD2    H710237   0.658   3.190  17.227  0.7368  0.4902  1.3262
  689TMC3    C110238   0.463   3.257  17.383  0.2979  0.3649  0.1253
  689TMC3    C210239   0.421   3.338  17.491 -0.0815 -0.3569  0.7157
  689TMC3    C310240   0.421   3.282  17.614  0.6075  0.1029 -0.4209
  689TMC3    C410241   0.488   3.120  17.401  0.4557 -0.4711 -0.1433
  689TMC3    C510242   0.455   3.065  17.522 -0.0959  0.3482  0.5227
  689TMC3    C610243   0.434   3.141  17.633  0.1375  0.5716  0.7500
  689TMC3     C10244   0.509   3.327  17.266  0.9726 -0.3668  0.3468
  689TMC3     O10245   0.459   3.437  17.254 -0.5278  0.3167 -0.0959
  689TMC3     H10246   0.412   3.445  17.472  0.6215 -0.7414 -1.8567
  689TMC3    H110247   0.523   3.058  17.320  2.2906  1.6756 -1.0088
  689TMC3    H210248   0.405   3.092  17.725 -1.3997  1.6361  0.8294
  689TMC3    C710249   0.499   2.930  17.547 -0.4679 -0.4003 -0.8081
  689TMC3    C810250   0.331   3.337  17.717 -1.1930 -0.1100  0.2146
  689TMC3    O110251   0.510   2.884  17.661 -0.3086  0.3671 -0.0065
  689TMC3    O210252   0.318   3.282   0.067  0.4264 -0.1172 -0.2798
  690MPD2     C10253   2.822   0.360  15.389 -0.3135 -0.2580  0.0486
  690MPD2    C110254   2.811   0.318  15.259  0.0889  0.0142  0.7174
  690MPD2    C210255   2.926   0.294  15.189  0.0035  0.0641  0.4212
  690MPD2    C310256   3.051   0.309  15.247 -0.9358 -0.3643  0.1653
  690MPD2    C410257   3.065   0.337  15.376 -0.1652 -0.4516  0.3687
  690MPD2    C510258   2.949   0.367  15.447  0.1640 -0.8184  0.3631
  690MPD2     H10259   2.923   0.259  15.086  1.6445 -0.6477  0.6152
  690MPD2    H110260   3.158   0.354  15.429  0.6010 -2.5193 -0.3092
  690MPD2    H210261   2.739   0.365  15.459 -1.3734  3.4637 -1.4886
  690MPD2    H310262   2.947   0.392  15.552 -1.1773 -0.8764  0.3514
  690MPD2     N10263   3.166   0.303  15.165  0.0165 -0.2404  0.2653
  690MPD2    H510264   3.145   0.310  15.066 -0.0725 -1.7418  0.1882
  690MPD2    N110265   2.691   0.295  15.199 -0.4688 -0.3084  0.0694
  690MPD2    H710266   2.693   0.247  15.110 -0.4148 -0.6947  0.2766
  691TMC3    C110267   2.492   0.192  15.229  0.6784  0.5848 -0.2064
  691TMC3    C210268   2.372   0.197  15.287 -0.9163 -0.8295  0.6413
  691TMC3    C310269   2.323   0.088  15.354 -0.0509  0.0476  0.5163
  691TMC3    C410270   2.567   0.078  15.251 -0.1350 -0.0975 -0.2468
  691TMC3    C510271   2.517   4.710  15.317 -0.7391  0.6876  0.5273
  691TMC3    C610272   2.382   4.710  15.362  0.0332  0.7058 -0.6514
  691TMC3     C10273   2.572   0.310  15.261 -0.3780 -0.1478 -0.3847
  691TMC3     O10274   2.534   0.386  15.353  0.0769  0.3541  0.7127
  691TMC3     H10275   2.318   0.292  15.284  0.1397 -0.2904 -1.1243
  691TMC3    H110276   2.666   0.066  15.208 -0.1513  1.0294 -0.6118
  691TMC3    H210277   2.330   4.635  15.418 -0.5966  1.1197 -0.6821
  691TMC3    C710278   2.620   4.626  15.377  0.9262 -0.7000  0.4352
  691TMC3    C810279   2.178   0.072  15.381 -0.3798 -1.0282 -0.5653
  691TMC3    O110280   2.740   4.661  15.376 -0.2865  0.4603 -0.8524
  691TMC3    O210281   2.129   4.700  15.378 -0.4419  0.1174  0.1000
  692TMC3    C110282   4.412   1.245  15.550 -0.2386  0.3602  0.5441
  692TMC3    C210283   4.542   1.273  15.565 -0.4408  0.2645 -0.3428
  692TMC3    C310284   4.630   1.166  15.578  0.3370 -0.1080 -0.2487
  692TMC3    C410285   4.363   1.118  15.563  0.3070  0.0866  0.6258
  692TMC3    C510286   4.453   1.015  15.568  0.0211 -0.7244  0.1256
  692TMC3    C610287   4.586   1.037  15.574 -0.6372  0.2768  0.2773
  692TMC3     C10288   4.313   1.353  15.564 -0.1698 -0.2813  0.0697
  692TMC3     O10289   4.198   1.325  15.594  0.0469  0.2404 -0.0237
  692TMC3     H10290   4.576   1.373  15.540 -0.1399  1.0257  3.0315
  692TMC3    H110291   4.255   1.107  15.566  0.5406 -1.9702  1.0430
  692TMC3    H210292   4.658   0.960  15.600 -1.2423 -0.4085 -0.0497
  692TMC3    C710293   4.396   0.887  15.548 -0.3665 -0.2524 -1.2990
  692TMC3    C810294   4.711   1.175  15.698 -0.3684 -0.5301 -0.1083
  692TMC3    O110295   4.298   0.870  15.479 -0.3114 -0.8186 -0.2316
  692TMC3    O210296   0.033   1.081  15.746  0.3936 -0.1144  0.4643
  693MPD2     C10297   4.224   3.586  10.313 -0.3455 -0.1181  0.2588
  693MPD2    C110298   4.156   3.484  10.375  0.2258 -0.2191  0.1026
  693MPD2    C210299   4.229   3.376  10.422  0.1615  0.3435 -0.0732
  693MPD2    C310300   4.367   3.379  10.424 -0.2216 -0.2875 -0.0149
  693MPD2    C410301   4.423   3.497  10.379 -0.1181  0.8271  0.8650
  693MPD2    C510302   4.354   3.609  10.332  0.0130  0.5378 -0.0715
  693MPD2     H10303   4.173   3.292  10.461 -0.6742  1.4703  1.1497
  693MPD2    H110304   4.531   3.500  10.384 -0.0782 -0.1746  0.6949
  693MPD2    H210305   4.163   3.663  10.269  0.1290  1.0714  1.6798
  693MPD2    H310306   4.402   3.698  10.293  0.7806  0.8920  1.6554
  693MPD2     N10307   4.454   3.282  10.482 -0.7304  0.1994 -0.8907
  693MPD2    H510308   4.553   3.299  10.464 -0.5472  0.0169 -0.0460
  693MPD2    N110309   4.017   3.480  10.352 -0.4410 -0.2053 -0.3057
  693MPD2    H710310   3.970   3.564  10.320  0.5907  0.2180 -0.6903
  694TMC3    C110311   3.817   3.414  10.427 -0.0119 -0.8449 -0.5845
  694TMC3    C210312   3.703   3.357  10.375  0.7960  0.1815  0.3146
  694TMC3    C310313   3.604   3.317  10.459  0.1024  0.6843  0.2468
  694TMC3    C410314   3.839   3.410  10.560  0.5170 -0.5433 -0.1718
  694TMC3    C510315   3.745   3.351  10.644 -0.7716  0.4327 -0.2391
  694TMC3    C610316   3.628   3.313  10.594  0.2255 -0.2854 -0.2555
  694TMC3     C10317   3.930   3.372  10.356  0.4339  0.3991  0.9753
  694TMC3     O10318   3.951   3.252  10.344  0.1493 -0.1269  0.3257
  694TMC3     H10319   3.682   3.350  10.269 -3.8528 -3.2887  1.4481
  694TMC3    H110320   3.927   3.454  10.606  1.2440 -2.8149  0.5807
  694TMC3    H210321   3.554   3.260  10.653  0.2442  0.1518  0.1598
  694TMC3    C710322   3.794   3.291  10.774 -0.3427  0.2760  0.3912
  694TMC3    C810323   3.472   3.263  10.417 -0.1537 -1.0673  0.2398
  694TMC3    O110324   3.916   3.272  10.784  0.0594 -0.0183 -0.3092
  694TMC3    O210325   3.406   3.214  10.504  0.0682 -0.3309  0.4147
  695MPD2     C10326   0.226   0.359  13.484 -0.2504  1.3412  0.6941
  695MPD2    C110327   0.142   0.428  13.572 -0.1154 -0.4920 -1.1426
  695MPD2    C210328   0.030   0.490  13.524  0.7574  0.0798  0.3067
  695MPD2    C310329   4.734   0.475  13.391  0.5555 -0.5120 -0.4071
  695MPD2    C410330   0.074   0.407  13.307  0.0731  0.7261  0.5126
  695MPD2    C510331   0.186   0.343  13.356 -0.6835 -0.0602 -0.2227
  695MPD2     H10332   4.703   0.548  13.586  1.3315  1.8202 -0.6943
  695MPD2    H110333   0.050   0.385  13.203  1.5177  0.4538  0.2349
  695MPD2    H210334   0.318   0.308  13.513  0.2973  3.3360  2.4912
  695MPD2    H310335   0.243   0.280  13.288  0.3534  0.2204  0.3938
  695MPD2     N10336   4.619   0.550  13.348  0.6161  0.1696 -0.1811
  695MPD2    H510337   4.566   0.598  13.420  0.3895 -1.5380  0.7809
  695MPD2    N110338   0.167   0.444  13.709  0.0041  0.4959  0.1862
  695MPD2    H710339   0.100   0.495  13.766 -0.1636  1.2606 -0.6981
  696TMC3    C110340   4.445   0.644  13.224 -0.2136  0.0468  0.1392
  696TMC3    C210341   4.361   0.641  13.332 -0.1258 -0.1899  0.0767
  696TMC3    C310342   4.260   0.729  13.342 -0.2052  0.3869  0.2412
  696TMC3    C410343   4.427   0.733  13.124 -0.3663  0.3230 -0.4169
  696TMC3    C510344   4.314   0.811  13.129 -0.7169 -0.6956  0.0255
  696TMC3    C610345   4.226   0.807  13.233  0.1362  0.6653  0.5678
  696TMC3     C10346   4.571   0.574  13.221  0.3588  1.2499  0.7288
  696TMC3     O10347   4.631   0.562  13.114  0.0700 -0.0852 -0.3144
  696TMC3     H10348   4.387   0.578  13.416 -1.4175 -0.1892  0.4786
  696TMC3    H110349   4.498   0.732  13.042  0.4113 -0.3683  0.2700
  696TMC3    H210350   4.138   0.871  13.227 -0.6622 -0.2064  2.9718
  696TMC3    C710351   4.324   0.923  13.045 -1.0986  0.5090 -0.6835
  696TMC3    C810352   4.161   0.698  13.444 -0.3242 -0.4754 -0.0629
  696TMC3    O110353   4.383   0.903  12.939 -0.9446  0.6315 -0.9146
  696TMC3    O210354   4.139   0.576  13.458 -0.1854  0.2789 -0.0619
  697MPD2     C10355   4.317   2.784  15.660 -0.7475 -0.0108  0.1379
  697MPD2    C110356   4.327   2.720  15.538 -0.0347 -0.1491  0.2045
  697MPD2    C210357   4.366   2.798  15.425  0.2162 -0.4580 -0.5605
  697MPD2    C310358   4.395   2.933  15.435  0.6935 -0.3274  0.4078
  697MPD2    C410359   4.393   2.985  15.559  0.3136 -0.3641  0.1439
  697MPD2    C510360   4.367   2.908  15.668 -0.1886  0.2178  0.7506
  697MPD2     H10361   4.364   2.741  15.333 -0.7052 -0.4873 -0.5249
  697MPD2    H110362   4.412   3.091  15.568  2.1218 -0.6173 -0.6913
  697MPD2    H210363   4.280   2.728  15.745  0.1228  0.3519  0.7543
  697MPD2    H310364   4.377   2.966  15.759  1.4079  0.4392  0.4481
  697MPD2     N10365   4.456   3.003  15.329 -0.1254  0.0950 -0.4548
  697MPD2    H510366   4.493   3.094  15.353 -1.6116  0.1845  1.4975
  697MPD2    N110367   4.276   2.591  15.505  0.0903 -0.3379 -0.6008
  697MPD2    H710368   4.292   2.554  15.412  1.3786  0.1131 -0.5713
  698TMC3    C110369   4.536   3.041  15.111 -0.7463  0.2696 -0.2738
  698TMC3    C210370   4.656   3.100  15.146  0.2926  0.2797  0.4879
  698TMC3    C310371   4.727   3.147  15.040 -1.0025 -0.4204  0.0236
  698TMC3    C410372   4.488   3.034  14.979  0.0540  0.0762 -0.3672
  698TMC3    C510373   4.566   3.085  14.883 -0.0861 -0.0174 -0.4110
  698TMC3    C610374   4.682   3.148  14.918  0.7554 -0.4169  0.3657
  698TMC3     C10375   4.465   2.953  15.204 -0.2895  0.2925  0.1870
  698TMC3     O10376   4.400   2.864  15.149  0.0594 -0.1109  0.1391
  698TMC3     H10377   4.683   3.122  15.248 -0.9883 -0.5334  1.0042
  698TMC3    H110378   4.394   2.987  14.955 -0.3041  0.4262  0.3695
  698TMC3    H210379   0.001   3.188  14.837  1.8065 -0.9813  0.8537
  698TMC3    C710380   4.532   3.053  14.744  0.2918  0.5169 -0.8374
  698TMC3    C810381   0.124   3.195  15.070 -0.7121  0.5732  0.0154
  698TMC3    O110382   4.416   3.028  14.725  0.2426  0.2923  0.3456
  698TMC3    O210383   0.165   3.170  15.184  0.0657 -0.0481 -0.2995
  699TMC3    C110384   4.119   0.905  12.725 -0.5558 -0.4578 -0.0903
  699TMC3    C210385   4.135   0.788  12.792  0.3159  0.0586  0.3421
  699TMC3    C310386   4.031   0.731  12.856  0.2097  1.0163 -0.1475
  699TMC3    C410387   3.992   0.954  12.710 -0.5989  0.3923  0.5516
  699TMC3    C510388   3.890   0.903  12.787 -1.3512 -0.5514  0.4086
  699TMC3    C610389   3.909   0.790  12.857 -0.2282  0.9434  0.2572
  699TMC3     C10390   4.221   0.970  12.641  0.5393 -0.2124 -0.3120
  699TMC3     O10391   4.191   1.074  12.587  0.0168  0.5516  0.3863
  699TMC3     H10392   4.232   0.739  12.790 -0.3302 -1.2582  0.6898
  699TMC3    H110393   3.980   1.052  12.663  0.9192  0.2140 -0.2100
  699TMC3    H210394   3.831   0.731  12.904 -2.0891  0.2593 -3.7050
  699TMC3    C710395   3.798   1.000  12.851  0.5720  0.1422  0.1728
  699TMC3    C810396   4.057   0.639  12.964  0.4871 -0.1927  1.1295
  699TMC3    O110397   3.757   0.975  12.963  0.0799  0.0127  0.1859
  699TMC3    O210398   4.000   0.669  13.066  0.7497  0.0027  1.1904
  700TMC3    C110399   3.285   3.583  16.860  0.2582 -0.3652 -0.3113
  700TMC3    C210400   3.320   3.449  16.875  0.2069 -0.0902 -0.2139
  700TMC3    C310401   3.397   3.416  16.989  0.6853 -0.2713 -0.3800
  700TMC3    C410402   3.314   3.674  16.956  0.3761  0.1980  0.2532
  700TMC3    C510403   3.380   3.633  17.068 -0.2054  0.4182 -0.0996
  700TMC3    C610404   3.437   3.509  17.079 -0.2396  0.3871  0.0586
  700TMC3     C10405   3.320   3.621  16.726  0.1686  0.0053  0.1657
  700TMC3     O10406   3.238   3.581  16.638 -0.1500  0.0288  0.0801
  700TMC3     H10407   3.294   3.376  16.798  0.5848  0.9761 -1.3609
  700TMC3    H110408   3.285   3.776  16.935  2.2632  1.0546  1.7910
  700TMC3    H210409   3.500   3.482  17.163 -0.7095 -2.0184 -0.3640
  700TMC3    C710410   3.429   3.742  17.149 -0.0346 -0.7288 -0.2795
  700TMC3    C810411   3.467   3.288  16.984  0.1144  0.2205 -0.0485
  700TMC3    O110412   3.549   3.747  17.166 -0.0791 -0.3563  0.4204
  700TMC3    O210413   3.577   3.274  17.042 -0.2877  0.4266 -0.4373
  701TMC3    C110414   3.472   2.015  15.436  0.1517  0.4977  0.2037
  701TMC3    C210415   3.485   1.966  15.309 -0.9352 -0.0451  0.0636
  701TMC3    C310416   3.591   2.013  15.239 -0.3329 -0.6837 -0.6994
  701TMC3    C410417   3.565   2.078  15.512  0.2334  0.2571 -0.1043
  701TMC3    C510418   3.670   2.127  15.439 -0.1516 -0.2905  0.4198
  701TMC3    C610419   3.682   2.095  15.303  0.3668 -0.1565  0.3042
  701TMC3     C10420   3.331   2.027  15.484  0.0967  0.2528  1.1385
  701TMC3     O10421   3.308   2.107  15.574  0.4109  0.3449 -0.4444
  701TMC3     H10422   3.404   1.911  15.262  0.6802 -2.1443 -0.2557
  701TMC3    H110423   3.529   2.101  15.612  3.0907  0.0675  0.9527
  701TMC3    H210424   3.744   2.155  15.238 -1.0494  2.7785  1.6756
  701TMC3    C710425   3.748   2.241  15.486 -0.0023  0.0324  0.2705
  701TMC3    C810426   3.586   2.023  15.092  0.2333  0.0905 -0.5870
  701TMC3    O110427   3.823   2.295  15.407 -0.2973 -0.7246  0.2734
  701TMC3    O210428   3.630   2.124  15.038 -0.6182  0.4315  0.1760
  702MPD2     C10429   3.117   4.172  10.546  0.1889  0.5198  0.4986
  702MPD2    C110430   3.060   4.279  10.610 -0.9043 -0.5058  0.1644
  702MPD2    C210431   3.028   4.391  10.534  0.0527 -0.4868 -0.8768
  702MPD2    C310432   3.068   4.402  10.405 -0.1580  0.1030  0.1087
  702MPD2    C410433   3.136   4.301  10.343 -0.2511  0.1477  0.5432
  702MPD2    C510434   3.159   4.188  10.416  0.5468  0.6209  0.1408
  702MPD2     H10435   2.963   4.456  10.591 -1.1671 -2.5377  0.0608
  702MPD2    H110436   3.185   4.310  10.247 -0.9631  0.4597  0.2114
  702MPD2    H210437   3.138   4.078  10.598  1.7860  0.6776  0.1332
  702MPD2    H310438   3.221   4.115  10.366 -1.0876 -0.9657  0.3870
  702MPD2     N10439   3.035   4.509  10.327 -0.2310  0.4092  0.1497
  702MPD2    H510440   3.053   4.500  10.227  0.6874  0.1538  0.3475
  702MPD2    N110441   3.005   4.271  10.740 -0.0268 -0.0955 -0.0746
  702MPD2    H710442   2.933   4.337  10.767  0.3469  0.5664 -0.7047
  703TMC3    C110443   2.978   0.002  10.283  0.4561  1.1010  0.1662
  703TMC3    C210444   2.914   0.107  10.332  0.1091 -0.3244  0.0059
  703TMC3    C310445   2.950   0.237  10.300  0.3922  0.1720 -0.7084
  703TMC3    C410446   3.085   0.021  10.195  1.0565  0.3939  0.9313
  703TMC3    C510447   3.120   0.151  10.163 -0.5973  0.3771 -0.0284
  703TMC3    C610448   3.049   0.260  10.214 -0.5458  0.0226 -0.8874
  703TMC3     C10449   2.978   4.624  10.370  0.2787  0.3850 -0.6974
  703TMC3     O10450   2.947   4.654  10.490  0.4773  0.4602 -0.3787
  703TMC3     H10451   2.843   0.096  10.413  1.7553  3.6639  2.0591
  703TMC3    H110452   3.148   4.678  10.165  0.4976  0.3024  0.0136
  703TMC3    H210453   3.080   0.361  10.189  1.7151 -0.7879 -1.3610
  703TMC3    C710454   3.254   0.163  10.128 -0.6022 -0.3377 -0.9714
  703TMC3    C810455   2.931   0.345  10.396 -0.4240  0.1828  0.2945
  703TMC3    O110456   3.300   0.064  10.068  0.3409 -0.5125  0.2661
  703TMC3    O210457   2.979   0.454  10.372  0.3384 -0.0523 -0.2743
  704TMC3    C110458   1.044   2.950  12.476 -0.4462 -0.1937 -0.0169
  704TMC3    C210459   1.140   2.883  12.395  0.6633  0.0988  0.3413
  704TMC3    C310460   1.267   2.881  12.452 -0.5530 -0.2290 -0.2767
  704TMC3    C410461   1.072   3.005  12.590  0.3418  0.1482  0.0615
  704TMC3    C510462   1.199   3.003  12.636  0.2889 -0.1494  0.1479
  704TMC3    C610463   1.297   2.935  12.570 -0.3371  0.3231 -0.7396
  704TMC3     C10464   0.901   2.964  12.426 -0.0634  1.2807 -0.0716
  704TMC3     O10465   0.836   3.063  12.467  0.3634 -0.2094 -0.7435
  704TMC3     H10466   1.119   2.852  12.294  2.0676  1.7322 -0.4488
  704TMC3    H110467   0.994   3.055  12.647 -0.4759 -1.0037 -0.0516
  704TMC3    H210468   1.400   2.933  12.604 -1.0909  0.3280  1.5157
  704TMC3    C710469   1.196   2.982  12.773 -0.7143  0.8392 -0.8993
  704TMC3    C810470   1.376   2.810  12.385  0.8000  0.0151  0.4943
  704TMC3    O110471   1.119   3.040  12.842  0.1652 -0.2994  0.5547
  704TMC3    O210472   1.491   2.829  12.427 -0.4187  0.4449 -0.1555
  705MPD2     C10473   4.700   0.700  16.126 -0.0963  0.2520 -0.9537
  705MPD2    C110474   4.734   0.828  16.169 -0.2605  0.0597  0.6011
  705MPD2    C210475   4.634   0.900  16.222 -0.7776 -0.4100  0.2251
  705MPD2    C310476   4.505   0.851  16.233  0.4993 -0.5106  0.4338
  705MPD2    C410477   4.472   0.726  16.186  0.7532 -0.2786  0.4235
  705MPD2    C510478   4.574   0.650  16.130  0.1582  0.1546 -0.1249
  705MPD2     H10479   4.655   1.003  16.250 -1.4058 -0.0672 -0.5384
  705MPD2    H110480   4.375   0.677  16.185  1.2590 -1.3150  2.0275
  705MPD2    H210481   0.035   0.634  16.083  0.5002  0.8170 -0.7720
  705MPD2    H310482   4.550   0.561  16.073  1.0470  1.2473 -2.2212
  705MPD2     N10483   4.398   0.931  16.277  0.4051 -0.0835  0.2470
  705MPD2    H510484   4.307   0.900  16.245  0.8114 -1.2819  0.2625
  705MPD2    N110485   0.127   0.883  16.147  0.0154 -0.1169  0.6998
  705MPD2    H710486   0.142   0.981  16.166  1.4916 -0.4030  1.0285
  706TMC3    C110487   0.473   0.865  15.845  0.2134 -0.6461 -0.1788
  706TMC3    C210488   0.432   0.990  15.806  0.8376  0.0010  1.0376
  706TMC3    C310489   0.355   1.061  15.891  0.4942  0.4009 -0.1510
  706TMC3    C410490   0.430   0.811  15.966  0.8613 -0.1725 -0.0680
  706TMC3    C510491   0.339   0.891  16.041 -0.4872 -0.6365 -0.5069
  706TMC3    C610492   0.301   1.020  16.009  0.1892  0.2496 -0.7270
  706TMC3     C10493   0.535   0.780  15.749  0.5061  0.2151 -0.3156
  706TMC3     O10494   0.606   0.684  15.788 -0.2997  0.3411 -0.2187
  706TMC3     H10495   0.475   1.039  15.719 -0.3566  1.4799  1.2839
  706TMC3    H110496   0.445   0.706  15.991 -1.5652 -0.6379 -0.5361
  706TMC3    H210497   0.228   1.075  16.066 -0.3797 -2.3221  1.0334
  706TMC3    C710498   0.238   0.809  16.101  0.2103  0.3652  0.2383
  706TMC3    C810499   0.355   1.209  15.861 -0.0513 -0.8187 -0.1518
  706TMC3    O110500   0.253   0.688  16.085 -0.2354  0.2746 -0.2322
  706TMC3    O210501   0.355   1.226  15.740  0.1374 -0.1405 -0.3612
  707TMC3    C110502   2.227   0.256   1.068 -0.5971  0.5394  0.5842
  707TMC3    C210503   2.284   0.141   1.133  0.2660  0.4292 -0.8171
  707TMC3    C310504   2.389   0.174   1.212  0.5183 -0.4031 -0.1901
  707TMC3    C410505   2.282   0.383   1.078 -1.1098  0.3982  0.1217
  707TMC3    C510506   2.397   0.407   1.158 -0.1989  0.8587  0.5529
  707TMC3    C610507   2.448   0.297   1.229  0.5153  0.1466 -0.3422
  707TMC3     C10508   2.189   0.221   0.936  0.0110 -0.2185  0.1634
  707TMC3     O10509   2.217   0.106   0.909  0.1614  0.2109  0.4683
  707TMC3     H10510   2.241   0.041   1.132  0.4236  0.3575 -0.4312
  707TMC3    H110511   2.237   0.469   1.029  0.8521 -0.0359 -2.4396
  707TMC3    H210512   2.529   0.315   1.299 -0.8697  0.6119  1.1744
  707TMC3    C710513   2.446   0.538   1.191 -0.0292 -0.4707  0.1839
  707TMC3    C810514   2.458   0.065   1.273 -0.1497  0.5733 -0.6829
  707TMC3    O110515   2.539   0.546   1.269 -0.4268  0.1151  0.2719
  707TMC3    O210516   2.509   0.095   1.380  0.0545 -0.2005 -0.3196
  708MPD2     C10517   2.933   3.477  14.070 -0.2530 -0.4937  0.2738
  708MPD2    C110518   2.810   3.484  14.142  0.2964 -0.5599 -0.4329
  708MPD2    C210519   2.819   3.491  14.282 -0.1111  0.7073  0.0858
  708MPD2    C310520   2.942   3.493  14.344 -0.3065 -0.0799 -0.0001
  708MPD2    C410521   3.061   3.497  14.270  0.0920 -0.0838 -0.4557
  708MPD2    C510522   3.055   3.488  14.133 -0.6288  0.2383  0.0378
  708MPD2     H10523   2.726   3.496  14.338 -0.4061  3.3227 -0.6239
  708MPD2    H110524   3.157   3.504  14.320  0.2012  0.2946 -0.7263
  708MPD2    H210525   2.932   3.462  13.963 -0.6648 -0.2236  0.2377
  708MPD2    H310526   3.150   3.491  14.080 -0.3315  4.0497  0.7667
  708MPD2     N10527   2.952   3.496  14.487 -0.7480  0.2593 -0.1409
  708MPD2    H510528   3.040   3.524  14.529 -1.5987 -0.9437  2.4571
  708MPD2    N110529   2.686   3.499  14.073  0.4342  0.4996  0.3734
  708MPD2    H710530   2.681   3.495  13.971 -0.1421 -2.0256  0.4995
  709TMC3    C110531   2.460   3.570  14.048 -0.6512 -0.3396  0.0520
  709TMC3    C210532   2.497   3.654  13.937 -0.0369 -0.4174  0.9850
  709TMC3    C310533   2.427   3.770  13.921  0.1072  1.0069  0.3405
  709TMC3    C410534   2.349   3.607  14.122 -0.1743  0.6121  0.1276
  709TMC3    C510535   2.299   3.735  14.109  0.0870 -0.0421  0.4274
  709TMC3    C610536   2.335   3.821  14.009  0.5293  0.3510 -0.0596
  709TMC3     C10537   2.565   3.521  14.132  0.4377 -0.4304  0.3384
  709TMC3     O10538   2.535   3.516  14.251 -0.1254 -0.4621 -0.1129
  709TMC3     H10539   2.588   3.640  13.879 -0.2063  2.3867  0.0280
  709TMC3    H110540   2.323   3.543  14.205  1.6972 -0.5904 -0.2125
  709TMC3    H210541   2.277   3.912  14.002  0.8846  0.4820 -1.1910
  709TMC3    C710542   2.287   3.803  14.238 -0.1649 -0.4544 -0.3597
  709TMC3    C810543   2.454   3.852  13.811  0.8304 -1.0251 -0.1721
  709TMC3    O110544   2.352   3.907  14.245  0.2002  0.1035  0.0901
  709TMC3    O210545   2.356   3.913  13.774  0.7856  0.1130  0.0896
  710TMC3    C110546   4.366   1.171   0.128 -0.4227 -0.5805  0.3518
  710TMC3    C210547   4.371   1.193  17.751  0.3230 -0.5063  0.5846
  710TMC3    C310548   4.416   1.083  17.680 -0.0901 -0.4794 -0.4005
  710TMC3    C410549   4.404   1.056   0.197  0.4459 -0.0468  0.2097
  710TMC3    C510550   4.458   0.959   0.117  0.2302 -0.1231 -0.3953
  710TMC3    C610551   4.454   0.966  17.739 -0.3131  0.4503 -0.1194
  710TMC3     C10552   4.308   1.283   0.200  0.0993 -0.4163 -0.5612
  710TMC3     O10553   4.357   1.320   0.303  0.2199 -0.2275  0.5075
  710TMC3     H10554   4.361   1.289  17.702 -0.4945 -0.8267  0.1286
  710TMC3    H110555   4.374   1.040   0.300 -1.3315  1.1008 -0.1286
  710TMC3    H210556   4.505   0.896  17.674 -0.1911  0.8721 -0.4838
  710TMC3    C710557   4.497   0.835   0.173  0.1310 -0.3230 -0.9167
  710TMC3    C810558   4.431   1.093  17.534 -0.1252  0.5535  0.1662
  710TMC3    O110559   4.426   0.796   0.265 -0.3911  1.0599  0.5883
  710TMC3    O210560   4.523   1.163  17.494 -0.5749  0.1716  0.3896
  711TMC3    C110561   4.106   1.772  14.535  0.0569 -0.3433 -0.1026
  711TMC3    C210562   4.034   1.810  14.650  0.7839 -0.5025  0.5737
  711TMC3    C310563   4.092   1.896  14.735 -0.0684  0.1843 -0.0360
  711TMC3    C410564   4.227   1.832  14.502  0.3876  0.5236 -0.0007
  711TMC3    C510565   4.275   1.923  14.591  0.5583 -0.5468  0.2008
  711TMC3    C610566   4.211   1.959  14.700 -0.2196 -0.0731  0.3545
  711TMC3     C10567   4.088   1.644  14.469 -0.3239 -0.7883  0.7443
  711TMC3     O10568   3.971   1.621  14.431  0.1491  0.0984 -0.2801
  711TMC3     H10569   3.956   1.742  14.682 -0.2341 -0.0917 -1.0515
  711TMC3    H110570   4.272   1.804  14.408 -0.1397 -1.7186  0.4281
  711TMC3    H210571   4.254   2.038  14.760 -0.1942  0.7786 -0.7834
  711TMC3    C710572   4.410   1.886  14.640 -0.6876  0.0673  0.0357
  711TMC3    C810573   4.090   1.860  14.871 -0.5974 -0.6001 -0.4445
  711TMC3    O110574   4.421   1.897  14.759 -0.1727 -0.0624 -0.0424
  711TMC3    O210575   3.979   1.826  14.912 -0.2123 -0.4269 -0.2728
  712MPD2     C10576   0.886   2.736  13.807 -0.3826  0.1531 -0.3658
  712MPD2    C110577   0.864   2.757  13.679  0.9808  0.3898  0.6386
  712MPD2    C210578   0.867   2.884  13.619  0.0108  0.3142 -0.0918
  712MPD2    C310579   0.900   2.987  13.702 -0.5487 -0.3353  0.5226
  712MPD2    C410580   0.943   2.966  13.829 -0.5699  0.7186  0.1344
  712MPD2    C510581   0.929   2.843  13.880 -0.1866  0.4178 -0.6717
  712MPD2     H10582   0.855   2.893  13.512 -0.0560 -0.0770 -0.1185
  712MPD2    H110583   0.990   3.052  13.875 -1.4217  0.0079  2.3471
  712MPD2    H210584   0.896   2.635  13.845  2.5830  0.8332  0.6636
  712MPD2    H310585   0.954   2.822  13.983  1.3894  0.1948 -1.1075
  712MPD2     N10586   0.912   3.114  13.651 -0.1235 -0.3983  0.5550
  712MPD2    H510587   0.961   3.177  13.714 -0.5634  1.5184 -1.0240
  712MPD2    N110588   0.846   2.640  13.598  0.3102 -0.3641  0.2449
  712MPD2    H710589   0.822   2.560  13.656 -0.2053 -0.4520 -0.0954
  713TMC3    C110590   0.909   3.278  13.496  0.0979 -0.0221 -0.3329
  713TMC3    C210591   1.039   3.309  13.534  0.4555 -0.5203  0.5315
  713TMC3    C310592   1.091   3.421  13.485  0.4382 -0.1462 -0.2654
  713TMC3    C410593   0.831   3.360  13.412  0.3861 -0.5402 -0.0332
  713TMC3    C510594   0.888   3.482  13.380 -0.7026 -0.6492 -0.3455
  713TMC3    C610595   1.025   3.502  13.407 -0.1426 -0.6285 -0.3305
  713TMC3     C10596   0.857   3.151  13.531 -0.2142 -0.5222 -0.5110
  713TMC3     O10597   0.788   3.100  13.443 -0.6641 -0.2777 -0.4978
  713TMC3     H10598   1.103   3.233  13.576 -0.6625 -0.8628  1.6356
  713TMC3    H110599   0.733   3.327  13.377  0.3198  0.7152 -1.0427
  713TMC3    H210600   1.073   3.585  13.356  0.0110 -0.2592  0.4185
  713TMC3    C710601   0.826   3.569  13.281  0.3928 -1.1214  0.5471
  713TMC3    C810602   1.223   3.472  13.520  0.2304  0.5142 -0.6411
  713TMC3    O110603   0.893   3.662  13.235  0.9503  0.0072  0.8861
  713TMC3    O210604   1.279   3.552  13.445  0.3186 -0.4950 -0.4434
  714MPD2     C10605   2.957   1.881   1.386 -0.0224 -0.0109 -0.0134
  714MPD2    C110606   2.993   1.850   1.258  0.0167 -0.3931 -0.4600
  714MPD2    C210607   2.915   1.891   1.156 -0.0617 -0.1764  0.1427
  714MPD2    C310608   2.801   1.960   1.181 -0.3799  0.1225 -0.1044
  714MPD2    C410609   2.754   1.981   1.311  0.2226  0.2581 -0.2421
  714MPD2    C510610   2.836   1.944   1.416  0.0180 -0.3050 -0.0199
  714MPD2     H10611   2.940   1.865   1.054  1.5843 -3.3529  1.3345
  714MPD2    H110612   2.656   2.022   1.334 -0.3965 -0.3049 -1.9415
  714MPD2    H210613   3.018   1.855   1.472  0.5303 -2.7352 -1.2198
  714MPD2    H310614   2.819   1.974   1.519 -1.9853 -0.1498 -0.3962
  714MPD2     N10615   2.707   1.992   1.072 -0.5512 -0.0262 -0.6838
  714MPD2    H510616   2.744   1.977   0.979  1.8989 -0.2504  0.3400
  714MPD2    N110617   3.111   1.782   1.247  0.2730 -0.0444 -0.3847
  714MPD2    H710618   3.152   1.757   1.336  0.9071  1.5550 -0.2338
  715TMC3    C110619   3.299   1.692   1.156  0.4150  0.4474  0.4900
  715TMC3    C210620   3.364   1.610   1.066  0.0638 -0.1363 -0.4500
  715TMC3    C310621   3.497   1.583   1.072 -0.6659  0.8751  0.1110
  715TMC3    C410622   3.380   1.745   1.250  0.1493 -0.2712  0.2031
  715TMC3    C510623   3.513   1.724   1.252 -0.1848 -0.5822 -0.7998
  715TMC3    C610624   3.581   1.646   1.162 -0.5152 -0.2499  0.4183
  715TMC3     C10625   3.167   1.738   1.128  0.3982  0.0837 -0.2687
  715TMC3     O10626   3.115   1.718   1.019  1.1294 -0.0980  0.4207
  715TMC3     H10627   3.299   1.571   0.989  0.5849 -0.1640 -0.8688
  715TMC3    H110628   3.347   1.829   1.311 -1.7546 -0.7930 -0.1130
  715TMC3    H210629   3.688   1.628   1.167 -0.3195  1.2669  1.4995
  715TMC3    C710630   3.591   1.788   1.354 -0.1262 -0.9245 -0.2756
  715TMC3    C810631   3.536   1.478   0.979 -0.4697  0.3515  0.8569
  715TMC3    O110632   3.709   1.781   1.339 -0.3062 -0.0863  0.3581
  715TMC3    O210633   3.440   1.407   0.936  0.3918 -0.0572  0.7600
  716MPD2     C10634   3.451   3.648   9.636  0.6174  0.3478  0.0438
  716MPD2    C110635   3.326   3.603   9.664  0.1290  0.2458  0.2327
  716MPD2    C210636   3.315   3.478   9.731 -0.1217 -0.2800  0.8533
  716MPD2    C310637   3.434   3.407   9.759 -0.4159  0.7508 -0.5606
  716MPD2    C410638   3.557   3.462   9.735 -0.0970  0.7639  0.4087
  716MPD2    C510639   3.566   3.579   9.670 -0.3885 -0.1148 -0.0566
  716MPD2     H10640   3.217   3.434   9.746 -0.5310  1.3055  2.7095
  716MPD2    H110641   3.646   3.408   9.767  1.3352  2.9200  0.0992
  716MPD2    H210642   3.462   3.740   9.579 -2.0433  0.7679  0.2039
  716MPD2    H310643   3.666   3.613   9.645 -0.5970  2.0148  1.9574
  716MPD2     N10644   3.412   3.279   9.814  0.3005  0.1968 -0.4955
  716MPD2    H510645   3.316   3.249   9.809  0.6982 -1.5416  2.5330
  716MPD2    N110646   3.217   3.681   9.621 -0.1741  0.1143  0.4569
  716MPD2    H710647   3.242   3.773   9.588  2.9291 -0.2392  1.7303
  717TMC3    C110648   3.455   3.080   9.932  0.2411  0.4330  0.0890
  717TMC3    C210649   3.348   3.019   9.876 -0.0874 -0.4330 -0.5168
  717TMC3    C310650   3.290   2.912   9.942 -0.1473 -0.5012 -0.0199
  717TMC3    C410651   3.512   3.038  10.051  0.3267 -0.5501 -0.2602
  717TMC3    C510652   3.450   2.929  10.112  0.5694  0.2476  0.7920
  717TMC3    C610653   3.330   2.876  10.070 -0.5787  0.1805  0.5554
  717TMC3     C10654   3.507   3.199   9.881  0.2243  0.6870  0.1957
  717TMC3     O10655   3.626   3.219   9.907 -0.2792  0.1107  0.1240
  717TMC3     H10656   3.322   3.051   9.776 -0.9955 -1.7258 -0.6999
  717TMC3    H110657   3.597   3.090  10.096 -0.9801 -0.6135  2.2950
  717TMC3    H210658   3.291   2.786  10.116  0.0462 -0.5791 -0.4049
  717TMC3    C710659   3.496   2.898  10.243  0.5515  0.0881 -0.3617
  717TMC3    C810660   3.166   2.854   9.900 -0.4246 -0.0777 -0.1110
  717TMC3    O110661   3.425   2.819  10.306 -0.0089  0.2795  0.3207
  717TMC3    O210662   3.143   2.741   9.939 -0.2429 -0.0363  0.8797
  718MPD2     C10663   2.260   3.348  12.467  0.5424 -0.8300  0.6967
  718MPD2    C110664   2.183   3.239  12.422  0.1033  0.0956  0.0479
  718MPD2    C210665   2.064   3.217  12.496 -0.7581 -0.0962  0.2466
  718MPD2    C310666   2.025   3.298  12.603 -0.5232 -0.4274  0.3232
  718MPD2    C410667   2.111   3.394  12.644 -0.3691 -0.2988  0.3038
  718MPD2    C510668   2.231   3.425  12.575 -0.2606 -0.1957 -0.4545
  718MPD2     H10669   2.002   3.132  12.471 -1.0816  0.4657 -0.8807
  718MPD2    H110670   2.098   3.455  12.732 -0.3225  1.4213 -0.9002
  718MPD2    H210671   2.354   3.363  12.414 -0.2437  0.3356 -0.3541
  718MPD2    H310672   2.298   3.502  12.612  1.3690 -1.3611 -1.0025
  718MPD2     N10673   1.925   3.248  12.684 -0.0580  0.5486  0.9290
  718MPD2    H510674   1.883   3.158  12.663  1.8923 -0.1645  0.1401
  718MPD2    N110675   2.248   3.145  12.332  0.0725 -0.6613 -0.0861
  718MPD2    H710676   2.335   3.175  12.288 -0.6183  1.0133 -0.3127
  719TMC3    C110677   2.302   2.930  12.237 -0.6512 -0.0661  0.4593
  719TMC3    C210678   2.258   2.805  12.224  0.2797  0.2700 -0.3636
  719TMC3    C310679   2.338   2.703  12.261  0.4337 -0.1808 -0.0428
  719TMC3    C410680   2.433   2.950  12.266 -0.0257 -0.4089 -0.4087
  719TMC3    C510681   2.523   2.851  12.278  0.8023  0.1187 -0.0866
  719TMC3    C610682   2.473   2.720  12.277  0.4774 -0.0855 -0.3376
  719TMC3     C10683   2.208   3.015  12.310  0.0346  0.0541 -0.0356
  719TMC3     O10684   2.106   2.957  12.347 -0.0351  0.1371 -0.0131
  719TMC3     H10685   2.155   2.790  12.194 -0.2244 -2.2368  2.6912
  719TMC3    H110686   2.466   3.050  12.293 -0.6059 -0.7984  1.7887
  719TMC3    H210687   2.532   2.630  12.288  0.5630  0.1796  1.3790
  719TMC3    C710688   2.661   2.871  12.282  0.6016 -0.1284 -0.1127
  719TMC3    C810689   2.285   2.618  12.372  0.0909  0.3251 -0.0454
  719TMC3    O110690   2.699   2.985  12.271  0.0616  0.6128  0.5350
  719TMC3    O210691   2.356   2.527  12.420  0.2012 -0.0747 -0.1666
  720MPD2     C10692   0.465   4.506  13.969  0.0192 -0.0328 -0.3876
  720MPD2    C110693   0.554   4.582  13.904 -0.2188  0.0480 -0.0386
  720MPD2    C210694   0.675   4.615  13.967 -0.2204  0.0903  0.4020
  720MPD2    C310695   0.704   4.573  14.095  0.0663  0.5828  0.3833
  720MPD2    C410696   0.602   4.502  14.165 -0.6674 -0.4936 -0.8556
  720MPD2    C510697   0.484   4.472  14.097 -0.7486 -0.0044 -0.3004
  720MPD2     H10698   0.752   4.665  13.910 -0.7826  0.8482  0.3062
  720MPD2    H110699   0.629   4.450  14.256 -1.4290 -0.8153 -0.8168
  720MPD2    H210700   0.370   4.478  13.923  0.1281  1.8720 -1.7817
  720MPD2    H310701   0.411   4.406  14.142  0.4921 -1.0026  0.2418
  720MPD2     N10702   0.835   4.594  14.147  0.7640  0.4015  1.0694
  720MPD2    H510703   0.900   4.610  14.070  2.8947  0.4300  2.8696
  720MPD2    N110704   0.523   4.627  13.771  0.5162  0.0137  0.3490
  720MPD2    H710705   0.435   4.594  13.731  0.6074  1.2309 -0.8467
  721TMC3    C110706   0.994   4.621  14.333 -0.0853  0.2191  0.2391
  721TMC3    C210707   1.003   4.673  14.464 -0.1919 -0.2072  0.5208
  721TMC3    C310708   1.128   4.690  14.507  0.0183  0.0406  0.2939
  721TMC3    C410709   1.102   4.598  14.248 -0.4234 -0.1082 -0.3220
  721TMC3    C510710   1.228   4.623  14.303 -0.0381 -0.0193 -0.3086
  721TMC3    C610711   1.239   4.662  14.434  0.2442 -0.0627  0.0490
  721TMC3     C10712   0.857   4.594  14.288  0.1625  0.8681 -0.0218
  721TMC3     O10713   0.776   4.581  14.380  0.3051 -0.1345 -0.1668
  721TMC3     H10714   0.915   4.661  14.526  0.3143  1.7187  1.6240
  721TMC3    H110715   1.089   4.571  14.144 -1.5874  0.0297 -0.2108
  721TMC3    H210716   1.336   4.657  14.481  0.7968  0.5211 -1.0271
  721TMC3    C710717   1.348   4.581  14.242 -0.8723 -0.4000 -0.1596
  721TMC3    C810718   1.150   4.678  14.649  0.0040  1.0951 -0.7416
  721TMC3    O110719   1.373   4.644  14.143  0.0160 -0.5326 -0.2979
  721TMC3    O210720   1.260   4.634  14.675  0.0004  0.0393 -0.1953
  722MPD2     C10721   4.296   3.312  12.964  0.1122  0.7379 -0.5618
  722MPD2    C110722   4.266   3.436  13.022 -0.9502  0.2998  0.3156
  722MPD2    C210723   4.133   3.486  13.010  0.2722 -0.4022  0.1383
  722MPD2    C310724   4.032   3.414  12.939  0.3672  0.3598  0.7143
  722MPD2    C410725   4.074   3.293  12.874 -0.6140  0.2763  0.0286
  722MPD2    C510726   4.202   3.238  12.895  0.3776  0.6248  0.0114
  722MPD2     H10727   4.103   3.579  13.057  0.1871 -0.0211 -0.6657
  722MPD2    H110728   4.004   3.227  12.825  0.4681 -0.6135 -0.3217
  722MPD2    H210729   4.391   3.262  12.975 -0.2323  0.4683  1.1478
  722MPD2    H310730   4.212   3.137  12.855  0.4657  0.6338  0.0121
  722MPD2     N10731   3.898   3.467  12.932  0.4656 -0.0676 -0.3598
  722MPD2    H510732   3.871   3.531  13.005  0.3918 -1.2078  0.6219
  722MPD2    N110733   4.367   3.522  13.078 -0.0022  0.0039 -0.3650
  722MPD2    H710734   4.344   3.618  13.099  0.3692  0.1794 -0.7625
  723TMC3    C110735   3.659   3.474  12.869 -0.6248 -0.3816  0.3766
  723TMC3    C210736   3.573   3.379  12.817  0.3681 -0.4042  0.7413
  723TMC3    C310737   3.453   3.361  12.889  0.4943  0.2461 -1.1221
  723TMC3    C410738   3.631   3.561  12.973  0.0653  0.5501  0.4749
  723TMC3    C510739   3.512   3.539  13.037 -0.8026  0.0917 -0.4444
  723TMC3    C610740   3.426   3.441  12.999 -0.3687 -0.4958  0.3193
  723TMC3     C10741   3.798   3.425  12.846 -0.1568 -0.6058 -0.0321
  723TMC3     O10742   3.813   3.351  12.750 -0.1717 -0.0712  0.2558
  723TMC3     H10743   3.602   3.335  12.722  0.5539  2.4901 -0.5573
  723TMC3    H110744   3.691   3.644  13.010  0.7406 -0.2404  1.1395
  723TMC3    H210745   3.334   3.423  13.053  0.3134  1.1590  2.0353
  723TMC3    C710746   3.504   3.601  13.163 -0.8497  0.3120  0.1054
  723TMC3    C810747   3.423   3.219  12.924  0.6734  0.2188  0.1832
  723TMC3    O110748   3.472   3.721  13.160  0.5092 -0.3220 -0.0678
  723TMC3    O210749   3.338   3.202  13.011  0.1983  0.4074  0.0655
  724TMC3    C110750   0.697   1.271  10.516 -0.6314 -0.2117  0.4867
  724TMC3    C210751   0.639   1.226  10.402  0.6709 -0.0716  0.2781
  724TMC3    C310752   0.649   1.303  10.294 -0.2012  0.8701 -0.8945
  724TMC3    C410753   0.739   1.398  10.528 -0.4995 -0.6710  0.6972
  724TMC3    C510754   0.732   1.482  10.420 -0.6386  0.4780 -0.0183
  724TMC3    C610755   0.698   1.430  10.303  0.3614 -0.3297 -0.2967
  724TMC3     C10756   0.768   1.163  10.591 -0.0890 -0.9763  0.0489
  724TMC3     O10757   0.703   1.068  10.636 -0.1975 -0.8453  0.0669
  724TMC3     H10758   0.625   1.122  10.375  2.7159 -0.8501  2.2077
  724TMC3    H110759   0.793   1.430  10.616 -3.9925 -0.5998  2.7998
  724TMC3    H210760   0.682   1.497  10.220 -2.6090 -0.7614 -0.0945
  724TMC3    C710761   0.774   1.626  10.430 -0.4227 -1.5185 -1.1086
  724TMC3    C810762   0.589   1.255  10.172 -0.0865  0.0559 -0.2392
  724TMC3    O110763   0.807   1.680  10.324  0.2714 -0.0116 -0.8281
  724TMC3    O210764   0.491   1.177  10.175 -0.7070  0.2547 -0.4800
  725TMC3    C110765   1.753   4.739  12.785  0.0403 -0.7162 -0.0492
  725TMC3    C210766   1.632   0.010  12.720  0.1777  0.1857 -0.5385
  725TMC3    C310767   1.579   4.639  12.675  0.0340 -0.9240 -0.7151
  725TMC3    C410768   1.815   4.614  12.798  0.3556  0.5546 -0.8086
  725TMC3    C510769   1.742   4.501  12.769 -0.1577 -0.2196 -0.1227
  725TMC3    C610770   1.617   4.512  12.715 -0.2092  0.4541  0.4272
  725TMC3     C10771   1.817   0.121  12.837  0.5983 -0.3516 -0.3901
  725TMC3     O10772   1.750   0.222  12.847 -0.2750 -0.0491 -0.6422
  725TMC3     H10773   1.585   0.107  12.706 -0.9220 -0.6597 -2.6871
  725TMC3    H110774   1.921   4.599  12.815  0.4146 -1.4344 -2.9322
  725TMC3    H210775   1.558   4.423  12.697  1.2448 -0.4000 -0.1193
  725TMC3    C710776   1.824   4.392  12.707  0.7625 -1.1471  0.1558
  725TMC3    C810777   1.504   4.636  12.553 -0.7670  0.1043  0.1889
  725TMC3    O110778   1.772   4.348  12.603  0.1816  0.4242 -0.1786
  725TMC3    O210779   1.490   4.521  12.514 -0.2287 -0.3009 -0.3647
  726MPD2     C10780   4.176   1.320  10.202  0.7825 -0.3514 -0.0892
  726MPD2    C110781   4.163   1.448  10.249 -0.6159  0.6296  0.4308
  726MPD2    C210782   4.090   1.470  10.362  0.4400 -0.3025  0.4370
  726MPD2    C310783   4.012   1.373  10.421 -0.1511  0.1325 -0.2326
  726MPD2    C410784   4.010   1.255  10.365 -0.0768 -0.9232  1.2122
  726MPD2    C510785   4.094   1.227  10.253  0.7662 -0.0418  0.2890
  726MPD2     H10786   4.075   1.574  10.391 -0.8874 -0.3365 -0.1210
  726MPD2    H110787   3.950   1.176  10.410  0.5777 -2.4434 -0.5869
  726MPD2    H210788   4.227   1.290  10.111  1.1269  1.0234 -0.3470
  726MPD2    H310789   4.107   1.125  10.218 -1.7681 -0.0286 -0.6912
  726MPD2     N10790   3.922   1.422  10.519  0.5005 -0.9935 -0.2452
  726MPD2    H510791   3.917   1.521  10.540  2.0535 -1.1437  0.7743
  726MPD2    N110792   4.200   1.562  10.178  0.2897  0.3812  0.4506
  726MPD2    H710793   4.193   1.650  10.228 -1.2236  0.5596 -0.0596
  727TMC3    C110794   4.271   1.687  10.000  0.3990 -0.1550  0.3571
  727TMC3    C210795   4.342   1.758  10.083  0.4881  0.3083  0.1348
  727TMC3    C310796   4.345   1.898  10.064 -0.4038 -0.2019 -0.6939
  727TMC3    C410797   4.197   1.736   9.894 -0.0638  0.4697  0.6271
  727TMC3    C510798   4.188   1.876   9.888 -0.2327 -0.6259 -0.4404
  727TMC3    C610799   4.261   1.956   9.971  0.5235 -0.7913 -0.6739
  727TMC3     C10800   4.220   1.558  10.046  0.3612  0.1055  0.0838
  727TMC3     O10801   4.166   1.490   9.960 -0.4822 -0.3680  0.0998
  727TMC3     H10802   4.394   1.705  10.161 -0.8207  0.0171  0.7970
  727TMC3    H110803   4.143   1.678   9.820 -0.4757  0.0016  1.2965
  727TMC3    H210804   4.270   2.061   9.946 -0.5879 -0.1983  1.4685
  727TMC3    C710805   4.090   1.941   9.795  0.5055 -0.2533 -0.3269
  727TMC3    C810806   4.441   1.967  10.135 -0.3733  0.4016 -0.1849
  727TMC3    O110807   4.067   1.877   9.697 -0.5415 -0.2785 -0.3201
  727TMC3    O210808   4.519   1.897  10.200  0.4203 -0.0836 -0.7274
  728TMC3    C110809   3.391   0.271  15.096 -0.3766 -0.2422 -0.3406
  728TMC3    C210810   3.525   0.299  15.122  0.6576  0.1408 -0.6201
  728TMC3    C310811   3.611   0.306  15.022 -0.0408 -0.2761 -0.0380
  728TMC3    C410812   3.347   0.271  14.966  0.2764  0.4326 -0.1082
  728TMC3    C510813   3.439   0.299  14.865 -0.1513 -0.4141  0.2232
  728TMC3    C610814   3.577   0.308  14.892  0.3760 -0.0741 -0.2324
  728TMC3     C10815   3.301   0.282  15.208  0.5688  0.1727  0.3510
  728TMC3     O10816   3.346   0.292  15.317 -0.3111  0.1012 -0.5418
  728TMC3     H10817   3.561   0.319  15.221  2.0940 -0.3070 -1.0547
  728TMC3    H110818   3.245   0.251  14.937 -0.0895  0.2607  1.2613
  728TMC3    H210819   3.643   0.343  14.814 -1.9484  2.1390 -1.2012
  728TMC3    C710820   3.377   0.302  14.733  0.3835  0.1664 -0.6721
  728TMC3    C810821   3.754   0.340  15.055 -0.2452  0.1412  0.3121
  728TMC3    O110822   3.270   0.246  14.708 -0.0962 -0.1197 -0.3695
  728TMC3    O210823   3.768   0.378  15.172  0.0766 -0.4859  0.4130
  729MPD2     C10824   0.843   1.739  16.132 -0.5657 -0.5503  0.5264
  729MPD2    C110825   0.964   1.700  16.185 -0.5348 -0.5678 -0.0602
  729MPD2    C210826   0.955   1.635  16.309  0.2316  0.0179 -0.2868
  729MPD2    C310827   0.838   1.626  16.381 -0.5893  0.1686  0.2130
  729MPD2    C410828   0.721   1.683  16.328  0.4124  0.0288 -0.3772
  729MPD2    C510829   0.724   1.734  16.202  0.2308  0.3438 -0.3779
  729MPD2     H10830   1.043   1.594  16.358 -0.2730 -0.8192 -0.0838
  729MPD2    H110831   0.628   1.675  16.383 -0.2386 -0.1664 -1.5321
  729MPD2    H210832   0.844   1.780  16.032 -2.1207  3.4953  2.1628
  729MPD2    H310833   0.635   1.763  16.146  0.3598  2.8001  0.6982
  729MPD2     N10834   0.832   1.576  16.512  0.2034  0.1936  0.2090
  729MPD2    H510835   0.747   1.605  16.560 -0.6569 -0.2967 -1.0194
  729MPD2    N110836   1.084   1.717  16.105 -0.7414  0.0273 -0.8715
  729MPD2    H710837   1.073   1.773  16.021  1.8587  0.7612 -0.7359
  730TMC3    C110838   0.906   1.510  16.725 -0.0090 -0.7637  0.0494
  730TMC3    C210839   1.022   1.495  16.796  0.3859  0.1996 -0.0295
  730TMC3    C310840   1.039   1.558  16.916  0.6468 -0.7401 -0.0824
  730TMC3    C410841   0.807   1.594  16.768 -0.5320 -0.8307  0.1381
  730TMC3    C510842   0.822   1.649  16.897 -1.1220 -0.1596  0.1287
  730TMC3    C610843   0.928   1.619  16.975 -0.0905  0.1809 -0.7126
  730TMC3     C10844   0.934   1.526  16.587  0.1188  0.2249  0.2033
  730TMC3     O10845   1.037   1.476  16.549  0.5221 -0.1058  0.0241
  730TMC3     H10846   1.105   1.438  16.755  0.2215 -0.2212  0.2285
  730TMC3    H110847   0.725   1.623  16.704 -1.3193  0.2109  1.5985
  730TMC3    H210848   0.929   1.643  17.080  0.9080  3.1492 -1.3967
  730TMC3    C710849   0.782   1.786  16.891  0.4309  0.2285 -0.2982
  730TMC3    C810850   1.165   1.634  16.919  1.0411 -0.2552 -0.3603
  730TMC3    O110851   0.765   1.829  16.777 -0.1986 -0.3287  0.1808
  730TMC3    O210852   1.242   1.603  16.829  0.7040 -0.8152 -0.2858
  731MPD2     C10853   0.716   4.250  12.031  0.3288  0.4715  0.0450
  731MPD2    C110854   0.855   4.227  12.039 -0.4032  0.8459  0.4983
  731MPD2    C210855   0.915   4.196  12.156  0.3707  0.2563 -0.7452
  731MPD2    C310856   0.844   4.195  12.279 -0.1461  0.0483  0.2135
  731MPD2    C410857   0.711   4.232  12.271  0.1271 -0.4969  0.3802
  731MPD2    C510858   0.650   4.250  12.150 -0.0088  0.2976 -0.4290
  731MPD2     H10859   1.021   4.178  12.145  0.1771 -2.2622  1.5109
  731MPD2    H110860   0.639   4.248  12.350  1.3289 -1.0426  1.6028
  731MPD2    H210861   0.660   4.257  11.938  0.5508  2.1492  0.0313
  731MPD2    H310862   0.543   4.260  12.143 -0.0345  0.6377  0.3733
  731MPD2     N10863   0.917   4.186  12.397  0.3923 -0.0032 -0.2273
  731MPD2    H510864   1.016   4.164  12.395  0.6171  1.2183 -2.1540
  731MPD2    N110865   0.918   4.226  11.917  0.0413  0.1965  0.2380
  731MPD2    H710866   0.857   4.235  11.836  1.6049 -1.7752 -1.1460
  732TMC3    C110867   1.090   4.204  11.744  0.3221 -0.0475 -0.1647
  732TMC3    C210868   0.997   4.155  11.658 -0.1270  0.0835 -0.8049
  732TMC3    C310869   1.043   4.112  11.535 -0.3138 -0.2229 -0.0366
  732TMC3    C410870   1.226   4.210  11.717  0.3193  0.4774 -0.3427
  732TMC3    C510871   1.267   4.158  11.595  0.7881 -1.0034  0.0580
  732TMC3    C610872   1.172   4.106  11.508 -0.1713  0.2515 -0.2727
  732TMC3     C10873   1.057   4.226  11.892  0.7048  0.0888 -0.1674
  732TMC3     O10874   1.146   4.254  11.971  0.5534  0.6868  0.1684
  732TMC3     H10875   0.894   4.138  11.686  0.2564  0.7955  1.0083
  732TMC3    H110876   1.296   4.263  11.780 -0.0689  0.3394  0.2069
  732TMC3    H210877   1.201   4.066  11.412  0.8572  0.6006 -0.1083
  732TMC3    C710878   1.389   4.203  11.531 -0.4439 -0.2268  0.4972
  732TMC3    C810879   0.946   4.082  11.429  0.0074 -0.3175  0.2388
  732TMC3    O110880   1.388   4.188  11.411  0.5773  0.3852 -0.4261
  732TMC3    O210881   0.982   4.004  11.347  0.2475 -0.6856  0.4533
  733TMC3    C110882   1.668   3.126  13.040 -0.6878  1.0979 -0.0798
  733TMC3    C210883   1.748   3.229  12.986  0.0953  0.1578  0.4286
  733TMC3    C310884   1.837   3.193  12.892 -0.1601 -0.3083 -0.9555
  733TMC3    C410885   1.695   2.989  13.017  0.3065 -0.0662 -1.4543
  733TMC3    C510886   1.793   2.962  12.923  0.3204 -0.7547  0.6765
  733TMC3    C610887   1.866   3.064  12.860  0.4788  0.4404 -0.5915
  733TMC3     C10888   1.544   3.165  13.102 -0.0700 -0.6607 -0.0330
  733TMC3     O10889   1.495   3.274  13.067  0.1665  0.1125  0.0014
  733TMC3     H10890   1.712   3.331  12.991 -0.1944  0.0189  1.1343
  733TMC3    H110891   1.619   2.918  13.047  2.1257 -1.4545 -0.1484
  733TMC3    H210892   1.961   3.046  12.811 -0.1534 -2.2257 -0.8398
  733TMC3    C710893   1.828   2.827  12.895 -0.6597  0.7631 -0.1341
  733TMC3    C810894   1.899   3.290  12.808  0.2375 -0.3572  0.2647
  733TMC3    O110895   1.764   2.736  12.950 -0.5749  0.4198 -0.4210
  733TMC3    O210896   1.905   3.407  12.845 -0.3938 -0.1123 -0.4197
  734MPD2     C10897   3.931   0.502  12.214  0.3043  1.3940 -0.0389
  734MPD2    C110898   3.822   0.480  12.136  0.3112  0.1320  0.1122
  734MPD2    C210899   3.814   0.539  12.012  0.0462  0.2996  0.0748
  734MPD2    C310900   3.915   0.620  11.961  0.0209  0.2797  0.0365
  734MPD2    C410901   4.031   0.637  12.029 -0.1155  0.3618 -0.1104
  734MPD2    C510902   4.030   0.588  12.157  0.5829 -0.6304  0.3649
  734MPD2     H10903   3.735   0.523  11.939 -1.1121 -0.9739  1.5954
  734MPD2    H110904   4.107   0.704  11.989  1.0724 -1.1432 -0.3386
  734MPD2    H210905   3.927   0.467  12.316  2.1115  1.7236  0.1281
  734MPD2    H310906   4.117   0.613  12.217  0.6820 -0.7566  0.2731
  734MPD2     N10907   3.888   0.666  11.829  0.3996  0.0228  0.4742
  734MPD2    H510908   3.791   0.656  11.799  0.0239 -0.2613  1.8052
  734MPD2    N110909   3.727   0.390  12.186 -0.0819 -0.6684  0.2952
  734MPD2    H710910   3.746   0.340  12.272 -0.6894 -2.6988 -0.7537
  735TMC3    C110911   3.560   0.221  12.161 -0.6468  0.3891  0.5552
  735TMC3    C210912   3.448   0.175  12.099 -0.3940  0.1465  0.2561
  735TMC3    C310913   3.432   0.044  12.071  0.5490 -0.3456 -0.5186
  735TMC3    C410914   3.650   0.132  12.212  0.3181 -0.4155 -0.8113
  735TMC3    C510915   3.628   0.001  12.202  0.2283 -0.2212 -0.4432
  735TMC3    C610916   3.518   4.695  12.129  0.0775  0.0194 -0.3452
  735TMC3     C10917   3.620   0.345  12.115  0.7398  0.1716 -0.2905
  735TMC3     O10918   3.569   0.379  12.009 -0.0735 -0.5719 -0.0034
  735TMC3     H10919   3.376   0.248  12.063  0.4399  0.4717 -0.7506
  735TMC3    H110920   3.742   0.168  12.256  1.1753 -2.1213 -1.1737
  735TMC3    H210921   3.504   4.593  12.097  0.8735  0.2268 -1.3419
  735TMC3    C710922   3.743   4.655  12.207 -0.1801  0.2078 -0.0954
  735TMC3    C810923   3.430   0.025  11.931  0.9100 -0.4266  0.4324
  735TMC3    O110924   3.852   4.712  12.190  0.2540  0.0642  0.5706
  735TMC3    O210925   3.459   4.654  11.888 -1.0223  0.0951  0.0697
  736MPD2     C10926   3.733   4.283  12.263 -0.1965  0.3037  0.4331
  736MPD2    C110927   3.786   4.406  12.217 -0.1619  0.3094 -0.2857
  736MPD2    C210928   3.910   4.402  12.144  0.0040 -0.0715 -0.8128
  736MPD2    C310929   3.976   4.285  12.126  0.1061  0.0341  0.1656
  736MPD2    C410930   3.926   4.166  12.176  0.0899 -0.2686  0.0480
  736MPD2    C510931   3.805   4.168  12.242  0.3045 -0.4480  0.3531
  736MPD2     H10932   3.941   4.494  12.097 -0.9914  0.7583  0.1501
  736MPD2    H110933   3.969   4.073  12.143  0.3073 -0.0586 -0.2683
  736MPD2    H210934   3.635   4.275  12.309 -0.6540  2.2941 -0.1572
  736MPD2    H310935   3.765   4.073  12.277 -0.3096 -0.7296 -1.1555
  736MPD2     N10936   4.097   4.276  12.047 -0.5224  0.6617  0.3127
  736MPD2    H510937   4.132   4.182  12.031 -1.4789  0.4120 -0.3705
  736MPD2    N110938   3.705   4.521  12.235  0.5016  0.0669 -0.2235
  736MPD2    H710939   3.614   4.502  12.275 -0.3844  1.6150 -1.4824
  737TMC3    C110940   4.262   4.343  11.901 -0.6549  0.2271 -0.7762
  737TMC3    C210941   4.343   4.447  11.866  0.4846 -0.3932 -0.1690
  737TMC3    C310942   4.340   4.483  11.739 -0.0382 -1.3282  0.2383
  737TMC3    C410943   4.205   4.266  11.797  0.1129 -0.3423  0.5146
  737TMC3    C510944   4.198   4.311  11.670  0.2109  0.5542  0.1790
  737TMC3    C610945   4.259   4.426  11.643  0.0532  0.1627  0.3521
  737TMC3     C10946   4.173   4.380  12.010 -0.6429 -1.2037 -0.6197
  737TMC3     O10947   4.150   4.502  12.024 -0.0526 -0.7592 -0.3075
  737TMC3     H10948   4.375   4.511  11.947  0.8368 -0.1755 -0.4790
  737TMC3    H110949   4.157   4.173  11.826 -0.3944  0.0974  1.0915
  737TMC3    H210950   4.245   4.477  11.548  2.1649  3.7784  1.9944
  737TMC3    C710951   4.164   4.220  11.565  0.0203 -0.9029  0.4412
  737TMC3    C810952   4.437   4.580  11.692  0.3743 -0.9632 -0.0255
  737TMC3    O110953   4.075   4.136  11.581  0.0799  0.0645  0.4168
  737TMC3    O210954   4.541   4.575  11.758  0.9066  0.9454 -0.0694
  738MPD2     C10955   0.412   3.245  15.047 -0.5011  0.6635 -0.0715
  738MPD2    C110956   0.322   3.287  14.958 -0.4000 -0.6495  0.3617
  738MPD2    C210957   0.361   3.381  14.865 -0.1197  0.0480  0.2180
  738MPD2    C310958   0.494   3.421  14.849 -0.1598  0.5623 -0.0664
  738MPD2    C410959   0.586   3.363  14.935  0.2292  0.7297 -0.7402
  738MPD2    C510960   0.550   3.269  15.032  0.1142  0.0133  0.3282
  738MPD2     H10961   0.283   3.410  14.796  2.8911  0.0042 -3.1752
  738MPD2    H110962   0.691   3.389  14.932  0.3331  0.7172  3.5225
  738MPD2    H210963   0.382   3.189  15.135 -1.9371  0.0315 -0.9640
  738MPD2    H310964   0.616   3.234  15.111 -0.7637  1.1155  1.5576
  738MPD2     N10965   0.532   3.518  14.752 -0.2071 -0.0334 -0.2093
  738MPD2    H510966   0.630   3.541  14.747 -0.4277  0.7877 -0.7310
  738MPD2    N110967   0.185   3.263  14.966 -1.0653 -0.8501 -0.2367
  738MPD2    H710968   0.129   3.304  14.892  0.5205  0.4901 -0.6847
  739TMC3    C110969   0.524   3.655  14.561  0.4050 -0.5082 -0.6839
  739TMC3    C210970   0.457   3.690  14.445  0.1209  0.3178 -0.1805
  739TMC3    C310971   0.487   3.822  14.404 -0.2782  0.4160 -0.8178
  739TMC3    C410972   0.613   3.743  14.624  0.4414  0.6804  0.2673
  739TMC3    C510973   0.608   3.872  14.591  0.4552  0.1882 -0.3288
  739TMC3    C610974   0.553   3.920  14.475 -0.4951 -0.8999 -0.0818
  739TMC3     C10975   0.453   3.564  14.648  0.0580  0.1402  0.3334
  739TMC3     O10976   0.348   3.518  14.603 -0.3740 -0.3741 -0.3695
  739TMC3     H10977   0.404   3.611  14.392 -1.7846  0.8360  0.9305
  739TMC3    H110978   0.645   3.724  14.725  0.5941  0.6113  0.2060
  739TMC3    H210979   0.556   4.025  14.451  0.0535 -1.7667 -3.7784
  739TMC3    C710980   0.645   3.967  14.693  0.0251  0.4795 -0.4810
  739TMC3    C810981   0.437   3.858  14.274  0.6211 -0.4249  0.4849
  739TMC3    O110982   0.619   3.942  14.810 -0.0328 -0.1852 -0.1268
  739TMC3    O210983   0.337   3.796  14.233 -0.1675  0.0087  0.6907
  740TMC3    C110984   0.478   0.105  14.317  0.2654  0.8563  0.3063
  740TMC3    C210985   0.491   0.071  14.448 -0.3879 -0.7575  0.4547
  740TMC3    C310986   0.616   0.092  14.499 -0.2621 -0.4689  0.1790
  740TMC3    C410987   0.578   0.153  14.240 -0.7031  0.5156 -0.5524
  740TMC3    C510988   0.695   0.186  14.302 -0.5041 -0.2176 -0.1547
  740TMC3    C610989   0.715   0.153  14.433  0.6533 -0.1026  0.0031
  740TMC3     C10990   0.348   0.109  14.256  0.4213  0.6168  0.4230
  740TMC3     O10991   0.350   0.126  14.132 -0.4320 -0.1294 -0.3862
  740TMC3     H10992   0.417   0.017  14.505 -0.8789 -1.0143 -0.4188
  740TMC3    H110993   0.562   0.185  14.137  0.5711  1.2898 -0.5017
  740TMC3    H210994   0.804   0.177  14.491  1.0700  1.2456 -1.1774
  740TMC3    C710995   0.827   0.188  14.229 -0.3921 -0.5804 -0.0557
  740TMC3    C810996   0.659   0.049  14.633  0.3985  0.6207  0.7239
  740TMC3    O110997   0.931   0.178  14.302 -0.1658  0.0933 -0.0337
  740TMC3    O210998   0.778   0.044  14.658 -0.1938  0.0573  0.1428
  741TMC3    C110999   0.008   4.225  14.010 -0.0349  0.1483 -0.3426
  741TMC3    C211000   4.629   4.170  14.043  0.0857  0.3218  0.6742
  741TMC3    C311001   4.628   4.105  14.168  0.0117  0.9266  0.4703
  741TMC3    C411002   0.125   4.217  14.077  0.6334 -0.4044  0.0837
  741TMC3    C511003   0.115   4.154  14.202  0.5562  0.4785  0.5356
  741TMC3    C611004   4.734   4.104  14.252  0.0117  0.6157  0.2245
  741TMC3     C11005   0.003   4.329  13.915  0.1493  0.2817 -0.3140
  741TMC3     O11006   4.647   4.340  13.836 -0.3529  0.3893 -0.3590
  741TMC3     H11007   4.539   4.181  13.984 -0.7759 -1.4523  1.6825
  741TMC3    H111008   0.220   4.261  14.049  0.7121 -0.3180  0.4855
  741TMC3    H211009   4.728   4.071  14.355  0.0531  1.0974  0.3834
  741TMC3    C711010   0.231   4.169  14.291  0.4961  0.0003 -0.3869
  741TMC3    C811011   4.502   4.065  14.219  0.3698  0.6798 -0.6692
  741TMC3    O111012   0.310   4.259  14.262  0.0312  0.1069 -0.7606
  741TMC3    O211013   4.394   4.101  14.166  0.4892 -0.0709  0.4405
  742TMC3    C111014   0.393   2.916  15.216  0.0058  0.1007 -0.0699
  742TMC3    C211015   0.305   2.907  15.110 -0.1531 -0.0851  0.5500
  742TMC3    C311016   0.357   2.865  14.992  0.5042 -0.3655 -0.3574
  742TMC3    C411017   0.530   2.890  15.203 -0.2438  0.1765  0.0209
  742TMC3    C511018   0.570   2.835  15.085  0.2445  0.1470  0.2135
  742TMC3    C611019   0.491   2.832  14.974 -1.2038 -0.1637  0.0004
  742TMC3     C11020   0.336   2.902  15.347  0.8914 -0.5686 -0.3347
  742TMC3     O11021   0.409   2.829  15.416 -0.4140  0.0426  0.1137
  742TMC3     H11022   0.200   2.899  15.136 -0.3488  0.5950 -0.0385
  742TMC3    H111023   0.592   2.894  15.292  0.8440 -0.3960 -0.7129
  742TMC3    H211024   0.530   2.786  14.884 -1.5935  0.3923 -0.4506
  742TMC3    C711025   0.693   2.755  15.089 -0.6717 -0.0276 -0.5336
  742TMC3    C811026   0.267   2.827  14.881  0.6449  0.0195  0.0440
  742TMC3    O111027   0.696   2.667  15.006 -0.2973 -0.7094 -0.1513
  742TMC3    O211028   0.317   2.801  14.773  0.2587 -0.0087 -0.1805
  743MPD2     C11029   2.951   3.788   1.139  0.4720  0.2672  0.1368
  743MPD2    C111030   2.917   3.830   1.012 -0.3749  0.7254 -0.6947
  743MPD2    C211031   3.019   3.886   0.927  0.3706 -0.5556  0.2966
  743MPD2    C311032   3.148   3.907   0.975  0.2190  1.1979 -0.2186
  743MPD2    C411033   3.176   3.875   1.108  0.3008 -0.1481 -0.4105
  743MPD2    C511034   3.076   3.808   1.184  0.3528 -0.7106  0.2773
  743MPD2     H11035   2.989   3.914   0.826  0.1189 -1.3577  0.1404
  743MPD2    H111036   3.279   3.854   1.133  0.3178  2.2505  1.5527
  743MPD2    H211037   2.885   3.736   1.207 -1.7279  0.3758 -1.9510
  743MPD2    H311038   3.096   3.770   1.283 -1.9530  0.3270  1.1620
  743MPD2     N11039   3.243   3.969   0.890  0.1194  0.3226 -0.9137
  743MPD2    H511040   3.217   3.987   0.793 -2.5893  1.0401 -0.0751
  743MPD2    N111041   2.781   3.811   0.977  0.4662 -0.0364 -0.6195
  743MPD2    H711042   2.707   3.802   1.046  0.8244 -1.0545 -0.3813
  744TMC3    C111043   2.590   3.881   0.865 -0.3142  0.2591  0.3375
  744TMC3    C211044   2.567   3.993   0.939 -0.9791 -0.4695 -0.3141
  744TMC3    C311045   2.465   4.081   0.915 -0.1583 -0.1156 -0.1612
  744TMC3    C411046   2.524   3.864   0.747 -0.0613 -0.2579  0.6723
  744TMC3    C511047   2.437   3.966   0.716 -0.1998  0.1153 -0.0161
  744TMC3    C611048   2.404   4.070   0.794  0.0079  0.2031  0.3045
  744TMC3     C11049   2.728   3.840   0.851 -0.8337 -0.5814  0.5202
  744TMC3     O11050   2.785   3.859   0.742  0.1829 -0.3419  1.2532
  744TMC3     H11051   2.648   4.020   1.005  0.0504 -1.0702 -1.3385
  744TMC3    H111052   2.562   3.791   0.676  0.1299 -1.5584  2.0990
  744TMC3    H211053   2.322   4.136   0.769  0.2670  1.0754  1.7502
  744TMC3    C711054   2.386   3.967   0.577 -0.3224 -0.9467  0.0631
  744TMC3    C811055   2.482   4.222   0.967 -0.5218 -0.5663  0.6535
  744TMC3    O111056   2.354   4.075   0.531  0.1596 -0.4832  0.6172
  744TMC3    O211057   2.453   4.315   0.891  0.1096 -0.5022 -0.5893
  745TMC3    C111058   0.750   2.518  13.432  0.4052 -0.2141  0.2897
  745TMC3    C211059   0.651   2.474  13.507 -0.3728  0.1854 -0.4040
  745TMC3    C311060   0.559   2.387  13.453  0.2748  0.3338 -0.5910
  745TMC3    C411061   0.759   2.490  13.301 -0.3630 -0.2275 -0.3144
  745TMC3    C511062   0.664   2.411  13.251 -1.2114  0.2651 -0.2889
  745TMC3    C611063   0.569   2.349  13.323 -0.8811  0.4751 -0.9305
  745TMC3     C11064   0.820   2.638  13.467  0.1631 -0.5361 -0.1220
  745TMC3     O11065   0.868   2.702  13.377 -0.4125  0.1013 -0.4066
  745TMC3     H11066   0.639   2.526  13.602  1.5791  1.8545 -1.0851
  745TMC3    H111067   0.846   2.517  13.241  0.1053  1.9872  1.3751
  745TMC3    H211068   0.487   2.292  13.281  0.8661 -0.5388 -2.9767
  745TMC3    C711069   0.647   2.429  13.105  0.1539 -0.5907 -0.2849
  745TMC3    C811070   0.441   2.365  13.529  0.4938  0.5270  0.4376
  745TMC3    O111071   0.573   2.357  13.042 -0.1821 -0.1231 -0.2398
  745TMC3    O211072   0.331   2.375  13.474 -0.0083  0.1317 -0.4749
  746TMC3    C111073   2.805   4.294  11.085 -1.0931  0.4393 -0.0654
  746TMC3    C211074   2.915   4.294  10.998  0.2308 -0.1155  0.1128
  746TMC3    C311075   2.952   4.172  10.950 -0.7638 -1.3591  0.0085
  746TMC3    C411076   2.757   4.180  11.137  1.0038  0.0905  0.4052
  746TMC3    C511077   2.808   4.059  11.103  0.1219 -1.0746 -0.0636
  746TMC3    C611078   2.913   4.048  11.005  0.3656  0.0791  0.4644
  746TMC3     C11079   2.745   4.419  11.129 -1.1537  0.7809  0.0295
  746TMC3     O11080   2.662   4.419  11.220  0.3291  0.3509 -0.1727
  746TMC3     H11081   2.965   4.380  10.954 -1.7033  1.1735  0.4642
  746TMC3    H111082   2.692   4.171  11.223  1.6001  2.8226  1.1371
  746TMC3    H211083   2.939   3.952  10.964 -1.9511  0.1740 -1.2218
  746TMC3    C711084   2.724   3.944  11.111 -0.1885  0.1917 -0.5948
  746TMC3    C811085   3.031   4.169  10.829  0.2053 -0.4488 -0.2826
  746TMC3    O111086   2.761   3.851  11.039 -0.1333 -0.0489  0.3625
  746TMC3    O211087   3.110   4.075  10.811 -0.8301  0.2338  1.1342
  747TMC3    C111088   4.626   4.140  10.604  0.2484 -0.1158 -0.6200
  747TMC3    C211089   4.496   4.139  10.662 -0.0900 -0.4184 -0.3656
  747TMC3    C311090   4.494   4.192  10.793  0.0739  0.1485  0.6950
  747TMC3    C411091   0.004   4.168  10.671  0.9054  0.8640  0.2108
  747TMC3    C511092   4.730   4.210  10.802  0.2780 -0.1389  0.0195
  747TMC3    C611093   4.604   4.230  10.858 -0.7275 -0.2158 -0.1678
  747TMC3     C11094   4.624   4.141  10.458 -0.8478 -0.0641 -0.0871
  747TMC3     O11095   4.521   4.182  10.407 -0.2422  0.5488  0.0927
  747TMC3     H11096   4.402   4.114  10.615  0.4834 -1.2864 -1.0450
  747TMC3    H111097   0.089   4.187  10.606  1.0135  0.1922  0.1583
  747TMC3    H211098   4.590   4.264  10.960  3.5454 -0.0257  0.3651
  747TMC3    C711099   0.101   4.221  10.890  0.0301 -0.6820 -0.0222
  747TMC3    C811100   4.374   4.155  10.871 -0.3133 -0.3375 -0.1193
  747TMC3    O111101   0.090   4.306  10.975  0.1489 -0.3114  0.2794
  747TMC3    O211102   4.291   4.077  10.817  0.2905  0.4154  0.7285
  748MPD2     C11103   3.267   0.876   1.247 -0.3492  0.0750  0.1229
  748MPD2    C111104   3.208   0.756   1.209  0.1882 -0.0896  0.4672
  748MPD2    C211105   3.091   0.760   1.131  0.2294  0.3341 -0.4480
  748MPD2    C311106   3.032   0.880   1.101 -0.5610 -0.1288 -0.1134
  748MPD2    C411107   3.091   0.998   1.149  0.0843  0.9459 -0.2607
  748MPD2    C511108   3.212   0.993   1.221  1.0220  0.4193  0.3626
  748MPD2     H11109   3.037   0.670   1.102 -1.3394  1.2576 -0.3734
  748MPD2    H111110   3.043   1.093   1.132 -0.9915  0.4523 -0.0150
  748MPD2    H211111   3.362   0.875   1.300 -1.4106 -1.4627  2.0131
  748MPD2    H311112   3.265   1.085   1.245 -1.2292  1.9724 -0.5868
  748MPD2     N11113   2.914   0.876   1.026  0.2421 -0.0457 -0.2187
  748MPD2    H511114   2.890   0.781   0.998 -0.8857 -0.3192  1.6728
  748MPD2    N111115   3.269   0.638   1.249 -0.2720 -0.3308  0.3168
  748MPD2    H711116   3.340   0.642   1.322  0.1211 -2.6720  0.0580
  749TMC3    C111117   2.743   0.952   0.887  0.3479 -0.4288  0.3780
  749TMC3    C211118   2.682   0.828   0.892  0.4648  0.1371  0.1428
  749TMC3    C311119   2.568   0.809   0.824 -0.4678  0.1456  0.8759
  749TMC3    C411120   2.699   1.048   0.806  0.3120  0.1348  0.2456
  749TMC3    C511121   2.600   1.015   0.723  0.2684  0.7832  0.3840
  749TMC3    C611122   2.529   0.902   0.735  0.1483 -0.0087 -0.0400
  749TMC3     C11123   2.854   0.986   0.973  0.0961 -0.2391  0.0233
  749TMC3     O11124   2.900   1.099   0.955 -0.2055  0.1655 -0.1332
  749TMC3     H11125   2.698   0.759   0.974 -2.6660  1.1574  1.5933
  749TMC3    H111126   2.755   1.140   0.792 -0.1232  0.5802  1.4341
  749TMC3    H211127   2.447   0.879   0.667  1.6315  0.3609 -1.9474
  749TMC3    C711128   2.563   1.110   0.615  0.6290  0.1693 -0.2935
  749TMC3    C811129   2.524   0.669   0.818 -0.4297 -0.9753 -0.9618
  749TMC3    O111130   2.602   1.225   0.623 -0.0681 -0.2565 -0.4135
  749TMC3    O211131   2.412   0.652   0.766 -0.3425  0.7787 -0.5719
  750MPD2     C11132   3.285   1.623  11.778  0.2528  0.6252 -0.0504
  750MPD2    C111133   3.187   1.546  11.836  1.0570 -0.1644  0.5803
  750MPD2    C211134   3.114   1.468  11.750  0.1692  0.5224  0.0404
  750MPD2    C311135   3.124   1.473  11.609 -0.3602  0.0763 -0.2250
  750MPD2    C411136   3.224   1.557  11.562  0.5071  0.0630  0.3714
  750MPD2    C511137   3.303   1.625  11.643 -0.2755  0.3185 -0.2645
  750MPD2     H11138   3.028   1.414  11.788  0.3898  0.6461  0.7127
  750MPD2    H111139   3.239   1.557  11.455  0.7511 -1.3884  0.4048
  750MPD2    H211140   3.348   1.687  11.838  1.9476  0.5662 -1.7591
  750MPD2    H311141   3.380   1.692  11.608 -0.2401  0.0452 -0.7066
  750MPD2     N11142   3.041   1.411  11.518 -0.1032  0.0218  0.4775
  750MPD2    H511143   3.061   1.427  11.419 -1.4266 -0.8389  0.0659
  750MPD2    N111144   3.167   1.545  11.972  0.0371 -0.2486 -0.1551
  750MPD2    H711145   3.212   1.618  12.025 -1.0214 -0.1052  0.5449
  751TMC3    C111146   2.845   1.302  11.419  0.1638 -0.1524 -0.2595
  751TMC3    C211147   2.710   1.276  11.437  0.2083 -0.0884  0.0983
  751TMC3    C311148   2.649   1.214  11.330 -0.3722  0.0198 -0.1051
  751TMC3    C411149   2.909   1.276  11.301  0.0605  0.1502 -0.6790
  751TMC3    C511150   2.833   1.227  11.196 -0.0404  0.0333  0.1421
  751TMC3    C611151   2.701   1.200  11.206 -0.4495  0.5558  0.1624
  751TMC3     C11152   2.918   1.346  11.541 -0.3459 -0.5539 -0.1299
  751TMC3     O11153   2.858   1.319  11.648 -0.2596  0.3057  0.3393
  751TMC3     H11154   2.650   1.293  11.526 -1.1535  1.9851 -1.2350
  751TMC3    H111155   3.016   1.285  11.294  0.0938  0.3680  0.1478
  751TMC3    H211156   2.642   1.171  11.120 -1.0384  1.8683  0.1151
  751TMC3    C711157   2.903   1.161  11.082  1.1998 -0.2696  0.2811
  751TMC3    C811158   2.520   1.156  11.346 -0.0009 -1.1481  0.1323
  751TMC3    O111159   3.013   1.204  11.045  0.3758 -0.0885 -0.2126
  751TMC3    O211160   2.448   1.152  11.247  0.2462  0.3190  0.1168
  752TMC3    C111161   1.516   1.577  17.048 -0.2102  1.0196 -0.5947
  752TMC3    C211162   1.529   1.448  17.016 -0.1573 -0.2359  0.1769
  752TMC3    C311163   1.453   1.364  17.090  0.6438 -0.9045 -0.0887
  752TMC3    C411164   1.458   1.628  17.160 -0.1566 -0.2533 -0.1725
  752TMC3    C511165   1.389   1.540  17.240 -0.1628 -0.4571 -0.3361
  752TMC3    C611166   1.381   1.415  17.193 -0.4548  0.3904 -0.5266
  752TMC3     C11167   1.599   1.659  16.965 -0.0298 -0.0278 -0.3651
  752TMC3     O11168   1.669   1.743  17.022 -0.8966 -0.4859 -0.0362
  752TMC3     H11169   1.594   1.410  16.938 -1.6953 -1.0435 -0.7318
  752TMC3    H111170   1.480   1.731  17.183  1.6083 -0.4287 -1.1204
  752TMC3    H211171   1.301   1.361  17.243  0.5840 -1.4214 -0.8117
  752TMC3    C711172   1.319   1.589  17.352  0.1463  0.5657 -0.0104
  752TMC3    C811173   1.490   1.222  17.104  0.1853  0.9280  0.3123
  752TMC3    O111174   1.258   1.507  17.422  0.0802 -0.2960  0.0460
  752TMC3    O211175   1.591   1.180  17.046  0.4357  0.1058  0.8838
  753TMC3    C111176   4.054   2.109  13.264 -0.1950 -0.2252 -0.0261
  753TMC3    C211177   4.030   2.108  13.400  0.4158  0.6034 -0.1815
  753TMC3    C311178   4.035   1.996  13.480  0.7150  0.0456  0.3439
  753TMC3    C411179   4.070   1.991  13.198 -0.5776 -0.1905  0.5736
  753TMC3    C511180   4.062   1.873  13.278 -0.6083  0.2978 -0.4222
  753TMC3    C611181   4.054   1.873  13.414  0.2399  0.1190  0.0716
  753TMC3     C11182   4.028   2.231  13.194  0.1160 -0.0753 -0.7394
  753TMC3     O11183   4.093   2.261  13.092  0.3372 -0.3410 -0.1510
  753TMC3     H11184   4.006   2.199  13.454 -0.4235 -1.4917  2.9464
  753TMC3    H111185   4.065   1.991  13.090 -1.4563  3.2249  0.6168
  753TMC3    H211186   4.065   1.777  13.464 -0.9026 -0.4226 -0.7227
  753TMC3    C711187   4.087   1.752  13.202 -0.3591  0.0948 -0.0919
  753TMC3    C811188   3.985   1.994  13.617  0.1318 -0.1525 -0.4228
  753TMC3    O111189   4.161   1.762  13.106  1.1468 -0.2353 -0.0036
  753TMC3    O211190   3.948   1.888  13.659  0.0128  0.2445  0.2532
  754MPD2     C11191   2.581   1.232  13.306  0.4211 -0.5426  0.4279
  754MPD2    C111192   2.577   1.096  13.324 -0.1992 -0.3071 -0.1018
  754MPD2    C211193   2.454   1.039  13.294 -0.3847  0.5302  0.2968
  754MPD2    C311194   2.337   1.113  13.263 -0.4274  0.4822  0.1675
  754MPD2    C411195   2.349   1.251  13.262  0.6291  0.3641  0.2024
  754MPD2    C511196   2.466   1.308  13.284 -0.4607  0.4100 -0.7742
  754MPD2     H11197   2.452   0.931  13.294 -0.6369  0.5280 -0.8829
  754MPD2    H111198   2.269   1.324  13.261  0.8662  0.6351  1.7637
  754MPD2    H211199   2.671   1.292  13.304 -0.9805  1.5305 -0.2646
  754MPD2    H311200   2.483   1.415  13.277  0.7678  0.4014  2.0883
  754MPD2     N11201   2.211   1.049  13.240  0.0596 -0.9844  0.4528
  754MPD2    H511202   2.134   1.101  13.199 -0.6081 -2.0934  0.3111
  754MPD2    N111203   2.697   1.028  13.339 -0.2632 -0.6201  0.4393
  754MPD2    H711204   2.779   1.085  13.321 -1.9795  0.8817 -2.6219
  755MPD2     C11205   1.273   0.907  13.538  0.0533  0.7901 -0.0646
  755MPD2    C111206   1.383   0.980  13.568 -0.5840 -0.8335 -0.3926
  755MPD2    C211207   1.496   0.976  13.485 -0.3052 -0.6291 -0.2909
  755MPD2    C311208   1.495   0.906  13.364  0.2638 -0.3773  0.0480
  755MPD2    C411209   1.374   0.858  13.320 -0.5640  0.0495 -0.5553
  755MPD2    C511210   1.270   0.845  13.410 -0.5176 -0.0600 -0.0899
  755MPD2     H11211   1.584   1.023  13.528 -0.9742 -0.2731  0.6959
  755MPD2    H111212   1.362   0.815  13.222 -0.3308 -1.2636 -0.0015
  755MPD2    H211213   1.177   0.919  13.588 -0.4023 -1.1769 -0.4785
  755MPD2    H311214   1.170   0.810  13.389 -1.1835  0.3560  2.4103
  755MPD2     N11215   1.606   0.907  13.280  0.3930  0.2041  0.4118
  755MPD2    H511216   1.591   0.851  13.196 -0.6068 -0.8498  1.2893
  755MPD2    N111217   1.390   1.045  13.693  0.2689 -1.0824  0.1613
  755MPD2    H711218   1.465   1.109  13.716 -1.3757  0.3135  1.6807
  756MPD2     C11219   2.225   1.715   9.665  0.2194 -0.2314 -0.1384
  756MPD2    C111220   2.145   1.678   9.768 -0.1450  0.0839  0.0342
  756MPD2    C211221   2.011   1.678   9.747 -0.0220 -0.2481  0.0577
  756MPD2    C311222   1.953   1.696   9.626  0.3385  0.1164  0.7652
  756MPD2    C411223   2.037   1.711   9.518  0.2049 -0.9687 -0.4248
  756MPD2    C511224   2.171   1.724   9.539  0.2924 -0.3656  0.2032
  756MPD2     H11225   1.954   1.647   9.834  0.6599  2.6406  1.5166
  756MPD2    H111226   1.991   1.736   9.423  1.7504 -0.0321 -0.9237
  756MPD2    H211227   2.331   1.736   9.671 -0.1400  2.0468 -1.9524
  756MPD2    H311228   2.236   1.749   9.456 -0.3750  0.2756 -0.1292
  756MPD2     N11229   1.812   1.689   9.628 -0.1107  0.5749  0.3789
  756MPD2    H511230   1.765   1.656   9.713  0.5130  1.5370  1.0907
  756MPD2    N111231   2.195   1.672   9.903 -0.6716  0.0331  0.0036
  756MPD2    H711232   2.128   1.687   9.979 -0.5691  1.1890 -0.1290
  757MPD2     C11233   1.413   1.139  10.134 -0.5307  0.2234 -0.6971
  757MPD2    C111234   1.531   1.218  10.123 -0.1148 -0.1495  0.2936
  757MPD2    C211235   1.548   1.317  10.032  0.1251 -1.1809 -0.3153
  757MPD2    C311236   1.441   1.331   9.943 -0.0496 -0.1063  0.4933
  757MPD2    C411237   1.317   1.272   9.970 -0.6872  0.0507 -0.0557
  757MPD2    C511238   1.303   1.169  10.055  0.6887 -0.1641 -1.0568
  757MPD2     H11239   1.640   1.374  10.028  0.3046 -1.4687 -0.2817
  757MPD2    H111240   1.228   1.293   9.912 -0.2865  2.8448  0.3278
  757MPD2    H211241   1.408   1.053  10.200  3.0206  2.5049  2.5901
  757MPD2    H311242   1.213   1.108  10.058  0.2885  0.4446 -0.7042
  757MPD2     N11243   1.461   1.412   9.835  0.0531  0.2141  0.0179
  757MPD2    H511244   1.556   1.438   9.813  0.3520  0.7467  1.9739
  757MPD2    N111245   1.633   1.176  10.211  0.0825  0.1816  0.4434
  757MPD2    H711246   1.615   1.094  10.267 -0.9962  0.0450 -0.1079
  758MPD2     C11247   2.239   0.918  15.536  0.3320  0.4628 -0.0708
  758MPD2    C111248   2.325   0.843  15.616 -0.3303  0.0241 -0.2262
  758MPD2    C211249   2.309   0.841  15.753  0.4940 -0.0326 -0.6515
  758MPD2    C311250   2.215   0.909  15.820 -0.9945  0.5392 -0.2982
  758MPD2    C411251   2.135   0.995  15.749 -0.2499 -0.2900 -0.6544
  758MPD2    C511252   2.144   0.990  15.607 -0.4747  0.0813  0.0198
  758MPD2     H11253   2.375   0.776  15.808 -1.1188  0.3140  1.6795
  758MPD2    H111254   2.056   1.055  15.793  1.7031  1.7631  0.0633
  758MPD2    H211255   2.249   0.934  15.430  2.7653 -0.3668  0.0482
  758MPD2    H311256   2.073   1.049  15.551 -0.4266 -2.9799 -3.2584
  758MPD2     N11257   2.207   0.913  15.962  0.3434 -0.2221  0.6943
  758MPD2    H511258   2.142   0.981  16.000  1.7573 -0.3243  3.2740
  758MPD2    N111259   2.428   0.771  15.545  0.2435  0.5669 -0.2556
  758MPD2    H711260   2.448   0.789  15.447 -1.1115  0.3283 -0.5841
  759MPD2     C11261   1.272   3.789  10.297  1.0337 -0.5033  0.1039
  759MPD2    C111262   1.253   3.658  10.327  0.1145 -0.0611 -0.0787
  759MPD2    C211263   1.329   3.568  10.259 -0.1113 -0.2923  0.6635
  759MPD2    C311264   1.427   3.602  10.175  0.1093 -0.1461 -0.1518
  759MPD2    C411265   1.449   3.736  10.160  0.0454  0.0989  0.2008
  759MPD2    C511266   1.381   3.829  10.228 -0.0901  0.2621  0.0768
  759MPD2     H11267   1.318   3.463  10.282 -1.5421 -0.2211  0.3198
  759MPD2    H111268   1.525   3.785  10.100  2.4007 -2.2736  1.2714
  759MPD2    H211269   1.219   3.872  10.342 -1.2319 -1.1587 -1.3708
  759MPD2    H311270   1.396   3.933  10.201 -0.4525  0.5879  1.1462
  759MPD2     N11271   1.496   3.507  10.106  0.4623 -0.1568 -0.6841
  759MPD2    H511272   1.484   3.411  10.137 -0.0613 -0.5210 -1.9996
  759MPD2    N111273   1.148   3.604  10.403 -0.3203  0.5654 -0.4817
  759MPD2    H711274   1.135   3.503  10.400 -0.3329  0.6546 -2.9643
  760MPD2     C11275   0.889   1.041  12.330  0.3113 -0.8070 -0.2685
  760MPD2    C111276   0.995   1.085  12.250  0.3871  0.1094  0.6976
  760MPD2    C211277   1.104   1.005  12.224 -0.4255  0.3629  0.4116
  760MPD2    C311278   1.115   0.885  12.293 -0.2917  0.3992  0.2640
  760MPD2    C411279   1.011   0.834  12.366  0.8180  0.6781 -0.0482
  760MPD2    C511280   0.895   0.913  12.381 -0.4976  0.4765 -0.4070
  760MPD2     H11281   1.188   1.053  12.175  0.0690 -1.8031 -0.8434
  760MPD2    H111282   1.006   0.734  12.409 -0.5614  0.0555 -1.6289
  760MPD2    H211283   0.804   1.101  12.361  1.2824 -0.3698  1.5218
  760MPD2    H311284   0.814   0.872  12.440 -0.2054 -1.4950 -1.4176
  760MPD2     N11285   1.228   0.797  12.274 -0.1028  0.4563  0.0487
  760MPD2    H511286   1.207   0.700  12.295  1.6422  0.2258  0.7372
  760MPD2    N111287   0.988   1.209  12.181  0.9761 -0.4599  0.3642
  760MPD2    H711288   1.059   1.226  12.110  1.0397 -0.8951  0.3200
  761MPD2     C11289   2.277   0.768  11.551 -0.1501 -0.0787 -0.1100
  761MPD2    C111290   2.300   0.798  11.420  0.2763 -0.4474  0.4577
  761MPD2    C211291   2.363   0.918  11.390  0.0597  0.0971 -0.1386
  761MPD2    C311292   2.401   0.998  11.494  0.7400  0.8097 -0.0426
  761MPD2    C411293   2.358   0.969  11.626 -0.3951  0.3450 -0.6470
  761MPD2    C511294   2.308   0.848  11.656  0.0040  0.0723  0.4151
  761MPD2     H11295   2.389   0.947  11.289 -1.7717 -2.1151 -1.2520
  761MPD2    H111296   2.387   1.028  11.712  0.6674  0.1685 -0.8843
  761MPD2    H211297   2.238   0.670  11.574  2.2334 -0.9290  0.3145
  761MPD2    H311298   2.290   0.831  11.762  2.4049 -1.6967  0.5554
  761MPD2     N11299   2.482   1.115  11.472  0.9126 -0.2069  0.1817
  761MPD2    H511300   2.541   1.142  11.550  0.1754 -0.1950  0.7350
  761MPD2    N111301   2.266   0.701  11.325 -0.7198 -0.0073 -0.2108
  761MPD2    H711302   2.242   0.604  11.347 -0.8488  0.0895  0.0829
  762MPD2     C11303   2.839   0.536  10.856 -0.0222 -0.8612  0.5413
  762MPD2    C111304   2.735   0.456  10.826 -0.6039  0.5275  0.0402
  762MPD2    C211305   2.740   0.370  10.718 -0.2427 -0.6310  0.7207
  762MPD2    C311306   2.841   0.396  10.623 -0.1093 -0.3318 -0.2317
  762MPD2    C411307   2.934   0.497  10.646  0.2570 -0.0508 -0.0064
  762MPD2    C511308   2.940   0.558  10.770 -0.3169  0.1509 -0.2545
  762MPD2     H11309   2.673   0.286  10.703  1.7422 -2.3493  1.5808
  762MPD2    H111310   3.023   0.514  10.586 -0.3439  0.4910 -0.7361
  762MPD2    H211311   2.843   0.585  10.952 -0.5822  2.5538 -1.1581
  762MPD2    H311312   3.020   0.623  10.803 -2.3600  1.7831  1.5020
  762MPD2     N11313   2.854   0.313  10.508  0.2250  0.4441  0.0961
  762MPD2    H511314   2.795   0.233  10.490 -0.7195  0.9734  0.8501
  762MPD2    N111315   2.626   0.465  10.911  0.5854 -0.2912  0.5662
  762MPD2    H711316   2.629   0.538  10.982  1.0956  2.5738 -2.3674
  763MPD2     C11317   4.345   0.969  15.911  0.9029  0.3539  0.3655
  763MPD2    C111318   4.224   1.012  15.868 -0.3338 -0.6033 -0.1120
  763MPD2    C211319   4.203   1.153  15.882 -0.0568 -0.8410  0.1396
  763MPD2    C311320   4.297   1.235  15.944  0.9716 -0.2364 -0.0777
  763MPD2    C411321   4.418   1.181  15.981  0.4824 -0.3739 -0.2185
  763MPD2    C511322   4.444   1.049  15.953  0.0804 -0.7916  0.2856
  763MPD2     H11323   4.103   1.182  15.851 -0.5873 -1.2479  1.5015
  763MPD2    H111324   4.490   1.243  16.032 -1.1668 -0.5399  2.2591
  763MPD2    H211325   4.377   0.866  15.905  3.0308  1.1317 -1.5711
  763MPD2    H311326   4.532   0.995  15.987  0.5170  1.5512  2.9032
  763MPD2     N11327   4.254   1.364  15.976 -0.3480 -0.3648  0.2780
  763MPD2    H511328   4.172   1.398  15.928 -0.9529  0.6878  2.0846
  763MPD2    N111329   4.134   0.929  15.804 -0.4799  0.2187  0.0278
  763MPD2    H711330   4.052   0.973  15.763  1.0755  1.8785 -1.3186
  764MPD2     C11331   2.446   2.714  16.972  0.1902 -0.4311  0.3603
  764MPD2    C111332   2.318   2.653  16.964  0.1887  0.9190  0.5692
  764MPD2    C211333   2.263   2.597  17.081 -0.3451  0.6582  0.0413
  764MPD2    C311334   2.331   2.607  17.204 -0.0612  0.1818  0.1544
  764MPD2    C411335   2.452   2.670  17.211  0.3702 -0.4608  0.8854
  764MPD2    C511336   2.506   2.720  17.094 -0.0157 -0.3791 -0.7035
  764MPD2     H11337   2.159   2.566  17.080  0.2332 -1.2302 -1.3269
  764MPD2    H111338   2.512   2.688  17.299  1.0548 -0.3137  0.3947
  764MPD2    H211339   2.516   2.741  16.893  1.1500  0.8647  1.6573
  764MPD2    H311340   2.595   2.782  17.103 -1.1888  1.1349  0.4383
  764MPD2     N11341   2.262   2.563  17.322 -0.1752  0.1194 -0.2807
  764MPD2    H511342   2.172   2.521  17.302 -0.3516  0.0298  0.6662
  764MPD2    N111343   2.235   2.648  16.850 -0.4949 -0.0103 -0.1207
  764MPD2    H711344   2.138   2.620  16.865 -0.7402  0.5558 -0.6372
  765MPD2     C11345   1.724   0.301  15.451  0.1655 -0.5725 -0.0338
  765MPD2    C111346   1.818   0.382  15.495  0.2544 -0.5006 -0.0763
  765MPD2    C211347   1.951   0.342  15.487  0.1594 -0.6357  0.0553
  765MPD2    C311348   1.987   0.222  15.435 -0.3977 -0.9035  0.1155
  765MPD2    C411349   1.891   0.141  15.387 -1.2816 -0.4042 -0.1393
  765MPD2    C511350   1.758   0.173  15.395 -0.6245 -0.3024 -0.4612
  765MPD2     H11351   2.025   0.411  15.527 -0.8704 -0.5675  1.8693
  765MPD2    H111352   1.919   0.055  15.326  0.9329  0.0237  0.2669
  765MPD2    H211353   1.620   0.332  15.445  0.2748  0.1398  1.8137
  765MPD2    H311354   1.684   0.099  15.367 -0.9456 -0.4138  0.6797
  765MPD2     N11355   2.123   0.190  15.419 -0.3646  0.0175 -0.3322
  765MPD2    H511356   2.191   0.261  15.447  0.3659 -0.3918 -1.0606
  765MPD2    N111357   1.768   0.504  15.544 -0.4163  0.1709  0.5592
  765MPD2    H711358   1.672   0.534  15.552 -0.8570 -1.9674  2.8482
  766MPD2     C11359   1.329   0.400  15.470 -0.1847  0.5501  0.0937
  766MPD2    C111360   1.381   0.499  15.401  0.0298 -0.3939  0.2741
  766MPD2    C211361   1.421   0.466  15.270 -0.0016  0.1484  0.0318
  766MPD2    C311362   1.421   0.341  15.220 -0.3285 -0.4698  0.7797
  766MPD2    C411363   1.348   0.244  15.286  0.7097  0.2941  0.4177
  766MPD2    C511364   1.302   0.274  15.415  0.5052  0.1385 -0.4732
  766MPD2     H11365   1.482   0.540  15.219  1.0123 -0.1965  0.7371
  766MPD2    H111366   1.340   0.141  15.255  0.1982  0.7788 -1.0575
  766MPD2    H211367   1.309   0.407  15.577 -1.2715  0.2451 -0.0825
  766MPD2    H311368   1.269   0.193  15.479  0.2092 -0.3983 -1.3061
  766MPD2     N11369   1.501   0.317  15.106  0.3660 -0.1281  0.2743
  766MPD2    H511370   1.549   0.396  15.065 -0.3782 -0.0419 -0.4235
  766MPD2    N111371   1.417   0.614  15.470 -0.0277 -0.7910 -0.6331
  766MPD2    H711372   1.429   0.598  15.569 -0.8705  2.0823 -0.0632
  767MPD2     C11373   1.200   0.617  15.102  0.1030  0.0717  0.0401
  767MPD2    C111374   1.283   0.684  15.006  0.5890 -0.2992 -0.4314
  767MPD2    C211375   1.301   0.633  14.881  0.5340  0.0492  0.1047
  767MPD2    C311376   1.242   0.509  14.847  0.3767 -0.5301 -0.5938
  767MPD2    C411377   1.159   0.443  14.936  0.5694 -0.6212  0.5719
  767MPD2    C511378   1.141   0.496  15.065 -0.3689 -0.3841  0.2096
  767MPD2     H11379   1.373   0.668  14.807  0.0617  0.7349 -0.0270
  767MPD2    H111380   1.124   0.342  14.921 -0.2253 -0.3148  0.3490
  767MPD2    H211381   1.196   0.650  15.205  0.6169  0.6456 -0.1233
  767MPD2    H311382   1.094   0.438  15.144  0.1281  0.4325  1.1081
  767MPD2     N11383   1.277   0.448  14.719 -0.0569 -0.4235 -0.6901
  767MPD2    H511384   1.340   0.491  14.652  2.1923  0.4122  1.9733
  767MPD2    N111385   1.371   0.785  15.045 -0.5496  0.5411  0.3650
  767MPD2    H711386   1.398   0.793  15.143  0.6501 -0.3827  0.1163
  768MPD2     C11387   2.903   3.785  10.448 -0.2287 -0.4801  0.3148
  768MPD2    C111388   2.834   3.735  10.554  0.4109 -0.8810  0.6648
  768MPD2    C211389   2.892   3.731  10.677 -0.7274 -1.0121  0.0210
  768MPD2    C311390   3.018   3.783  10.702 -0.5058  0.3953 -0.3936
  768MPD2    C411391   3.080   3.838  10.589 -0.0808 -0.2496  0.5094
  768MPD2    C511392   3.026   3.841  10.464  0.1372 -0.1319 -1.2472
  768MPD2     H11393   2.841   3.672  10.753  0.2080  0.6139  1.9178
  768MPD2    H111394   3.181   3.876  10.587  0.3807 -1.5864 -1.1867
  768MPD2    H211395   2.853   3.810  10.354 -0.8780  1.1411  1.0912
  768MPD2    H311396   3.080   3.872  10.375 -0.6902  0.4441 -1.5485
  768MPD2     N11397   3.094   3.771  10.820  0.4225  1.0361 -0.3557
  768MPD2    H511398   3.178   3.827  10.818  0.8166  0.4646  0.1095
  768MPD2    N111399   2.696   3.690  10.545 -0.2584 -0.2650 -0.3745
  768MPD2    H711400   2.655   3.658  10.633  1.1272 -2.0996 -0.3952
  769MPD2     C11401   3.310   1.886  14.684 -0.8024 -0.4233  0.0390
  769MPD2    C111402   3.318   1.781  14.772  0.2907 -0.0627 -0.4973
  769MPD2    C211403   3.387   1.795  14.890  1.1220  0.6530 -0.0283
  769MPD2    C311404   3.454   1.911  14.909 -0.3169  0.7140  0.3794
  769MPD2    C411405   3.458   2.010  14.819  0.2679  0.1144 -0.3922
  769MPD2    C511406   3.385   1.999  14.706 -0.1841  0.2449 -0.1565
  769MPD2     H11407   3.385   1.714  14.963 -1.3528 -0.9175 -1.8403
  769MPD2    H111408   3.504   2.108  14.831  2.4455 -1.2048  1.9129
  769MPD2    H211409   3.269   1.875  14.584  1.5964 -0.2683 -0.9502
  769MPD2    H311410   3.387   2.079  14.633  4.0834 -2.2052 -2.7203
  769MPD2     N11411   3.514   1.919  15.042  0.1221 -0.3831 -0.0566
  769MPD2    H511412   3.501   1.837  15.099  0.3962 -0.1247  0.3751
  769MPD2    N111413   3.247   1.671  14.732  0.1180 -0.2831 -0.6991
  769MPD2    H711414   3.200   1.675  14.643  3.1016  0.3209 -2.2384
  770MPD2     C11415   3.064   0.620  14.550  0.1167  0.5258 -0.2052
  770MPD2    C111416   2.936   0.681  14.549 -0.5876  0.4298  0.0160
  770MPD2    C211417   2.937   0.819  14.578  0.4211  0.8048 -0.2569
  770MPD2    C311418   3.056   0.883  14.605 -0.5318 -0.3191 -0.6422
  770MPD2    C411419   3.169   0.815  14.614  0.5686  0.3040 -0.1306
  770MPD2    C511420   3.179   0.681  14.594  0.3691 -0.5548 -0.5747
  770MPD2     H11421   2.849   0.881  14.578  0.9570  1.5662  2.1226
  770MPD2    H111422   3.263   0.866  14.629  0.8166 -0.2365  0.1424
  770MPD2    H211423   3.074   0.515  14.524 -0.1529  0.3259  0.4869
  770MPD2    H311424   3.277   0.636  14.601  0.3005 -0.5367  0.5312
  770MPD2     N11425   3.061   1.025  14.629  0.2199  0.1090  0.4443
  770MPD2    H511426   2.968   1.066  14.618  0.1235 -0.8553 -2.1223
  770MPD2    N111427   2.832   0.599  14.518  0.4749  0.2963 -0.2898
  770MPD2    H711428   2.854   0.501  14.504  0.5438  0.1850  0.5946
  771MPD2     C11429   4.070   4.462  13.985 -0.1102 -0.0488 -0.1812
  771MPD2    C111430   3.956   4.514  13.923 -0.9312  0.4603 -0.5956
  771MPD2    C211431   3.843   4.437  13.911 -1.0681  0.2933 -0.3159
  771MPD2    C311432   3.842   4.309  13.959  0.3605 -0.2586  0.5621
  771MPD2    C411433   3.955   4.254  14.019 -0.2114  0.0220  0.7354
  771MPD2    C511434   4.061   4.332  14.032 -0.0540  0.4137  0.1005
  771MPD2     H11435   3.757   4.477  13.857 -0.1586  0.9465 -1.2800
  771MPD2    H111436   3.960   4.153  14.058 -1.6528 -0.4215 -0.2404
  771MPD2    H211437   4.170   4.500  13.997 -0.3377 -0.0327  1.6569
  771MPD2    H311438   4.144   4.285  14.083  1.8378  1.4689 -2.0202
  771MPD2     N11439   3.717   4.248  13.937  0.2968 -0.3937 -0.7165
  771MPD2    H511440   3.641   4.301  13.896  0.0273  1.8187  2.7192
  771MPD2    N111441   3.955   4.639  13.857  0.3594 -0.0249  0.4343
  771MPD2    H711442   3.870   4.667  13.808  0.8551 -0.7244 -0.8203
  772MPD2     C11443   3.499   0.442  13.726 -0.0900  0.8458 -0.1317
  772MPD2    C111444   3.541   0.316  13.755 -0.8838 -0.8238  0.1255
  772MPD2    C211445   3.452   0.230  13.813 -0.3695 -0.4728 -0.5561
  772MPD2    C311446   3.325   0.266  13.851  0.8126  0.1180  0.3418
  772MPD2    C411447   3.284   0.396  13.832  0.1565  0.1232 -0.3170
  772MPD2    C511448   3.367   0.474  13.760 -0.0651 -0.4525  0.3393
  772MPD2     H11449   3.497   0.136  13.842 -1.9197 -1.3679 -1.0374
  772MPD2    H111450   3.181   0.425  13.851  0.4214  0.6390  0.3301
  772MPD2    H211451   3.566   0.517  13.687  0.6611 -0.0315 -0.5364
  772MPD2    H311452   3.339   0.575  13.732  2.3996  0.3472  0.7526
  772MPD2     N11453   3.235   0.175  13.909  0.1964  0.1463  0.4564
  772MPD2    H511454   3.155   0.222  13.952  0.7936  3.5055 -2.0225
  772MPD2    N111455   3.673   0.275  13.743 -0.6745 -0.7257  0.0529
  772MPD2    H711456   3.690   0.178  13.771 -2.2744 -0.6842  1.1632
  773MPD2     C11457   3.200   1.349   0.107 -0.5001  0.2217 -0.5119
  773MPD2    C111458   3.132   1.241   0.062 -0.7249 -0.4172  0.2445
  773MPD2    C211459   3.196   1.119   0.076 -0.2355  0.1026 -0.5278
  773MPD2    C311460   3.324   1.104   0.138 -0.1830  0.3790 -0.7452
  773MPD2    C411461   3.390   1.217   0.182  0.6600  0.2296  0.6685
  773MPD2    C511462   3.322   1.335   0.172 -0.5055 -0.3601 -0.7875
  773MPD2     H11463   3.146   1.025   0.056 -0.0592 -0.5123  1.9860
  773MPD2    H111464   3.487   1.220   0.232  0.5554 -0.3094  0.8999
  773MPD2    H211465   3.167   1.452   0.095 -2.7088 -0.3966  0.3794
  773MPD2    H311466   3.375   1.424   0.205 -1.6801  0.5611 -1.3478
  773MPD2     N11467   3.379   0.974   0.154 -0.0702  0.6584  0.3086
  773MPD2    H511468   3.322   0.893   0.129  1.5280  0.2266 -1.9187
  773MPD2    N111469   3.010   1.250  17.750 -0.1858 -0.2491  0.0027
  773MPD2    H711470   2.985   1.168  17.695 -1.6690  1.3302 -1.7050
  774MPD2     C11471   2.393   4.693  13.373  0.4219  0.0608 -0.3167
  774MPD2    C111472   2.299   0.026  13.443  0.1843 -0.3125 -0.0691
  774MPD2    C211473   2.319   0.158  13.455  1.3429  0.1104 -0.3222
  774MPD2    C311474   2.417   0.231  13.388  0.0377 -0.1508 -0.4564
  774MPD2    C411475   2.520   0.156  13.329 -0.2834 -0.7085 -0.1166
  774MPD2    C511476   2.507   0.015  13.322  0.4587 -0.0591 -0.7302
  774MPD2     H11477   2.254   0.224  13.512  0.0009 -0.5683 -1.0761
  774MPD2    H111478   2.615   0.193  13.292 -0.8109  0.7750  0.0374
  774MPD2    H211479   2.383   4.586  13.357  2.9404 -0.4592  1.5163
  774MPD2    H311480   2.590   4.706  13.273 -0.5722 -0.5989 -1.9387
  774MPD2     N11481   2.425   0.370  13.404  0.1781  0.4758  0.7231
  774MPD2    H511482   2.338   0.413  13.433 -1.0530 -3.1956  2.4244
  774MPD2    N111483   2.189   4.700  13.509  0.1287  0.2565 -0.1787
  774MPD2    H711484   2.171   4.603  13.482 -1.3207  0.9239 -1.6185
  775MPD2     C11485   3.664   1.701  15.506 -0.2413  0.5468 -0.5320
  775MPD2    C111486   3.682   1.798  15.611  0.2282 -0.5893  0.3390
  775MPD2    C211487   3.795   1.878  15.605 -0.2148  0.5152 -0.7146
  775MPD2    C311488   3.887   1.879  15.504  0.0109  0.1232 -0.3759
  775MPD2    C411489   3.856   1.793  15.401  0.1266 -0.1823  0.2205
  775MPD2    C511490   3.756   1.701  15.406 -0.6257  0.6510 -0.3473
  775MPD2     H11491   3.818   1.935  15.695  1.3735 -2.4604  0.7396
  775MPD2    H111492   3.919   1.795  15.313 -1.4901  0.6616 -0.9190
  775MPD2    H211493   3.589   1.623  15.506 -0.7427  1.0123  2.4545
  775MPD2    H311494   3.742   1.638  15.319  0.5701 -1.7014  1.1820
  775MPD2     N11495   3.995   1.969  15.489 -0.1639 -0.1614 -0.0802
  775MPD2    H511496   4.027   1.985  15.394  0.8395  0.6250  0.4041
  775MPD2    N111497   3.581   1.811  15.709  0.2662 -0.0088 -0.2914
  775MPD2    H711498   3.501   1.750  15.696 -2.3354  2.9083  2.0326
  776MPD2     C11499   2.477   1.850  12.004 -0.0035 -0.0688  0.3451
  776MPD2    C111500   2.611   1.886  12.015  0.4199  0.0500  0.7617
  776MPD2    C211501   2.651   2.000  11.944 -0.2196 -0.1029  0.0017
  776MPD2    C311502   2.561   2.075  11.869  0.2028 -0.2360 -0.4834
  776MPD2    C411503   2.424   2.036  11.860 -0.7750  0.7317  0.0652
  776MPD2    C511504   2.387   1.926  11.937  0.2567 -0.3177 -0.1822
  776MPD2     H11505   2.754   2.030  11.951  0.0927 -0.7663 -1.6670
  776MPD2    H111506   2.353   2.084  11.793 -0.2831  0.3155 -0.7480
  776MPD2    H211507   2.436   1.762  12.052  3.1163 -2.2386 -0.9705
  776MPD2    H311508   2.285   1.892  11.927  0.0588 -0.1641  1.2530
  776MPD2     N11509   2.592   2.192  11.802  0.1642 -0.4182  0.0431
  776MPD2    H511510   2.515   2.230  11.749 -0.3908 -2.8246 -0.8776
  776MPD2    N111511   2.691   1.805  12.097 -0.0763  0.4151 -0.9206
  776MPD2    H711512   2.645   1.718  12.119  1.1705 -0.5307 -2.0633
  777MPD2     C11513   2.864   0.098  17.689  0.1451  0.0964  0.9400
  777MPD2    C111514   2.888   4.740   0.018  0.3144  0.3345 -0.1527
  777MPD2    C211515   2.838   4.613  17.743  0.2350  0.6178  0.6906
  777MPD2    C311516   2.765   4.590  17.629 -0.0821  0.5816  0.0187
  777MPD2    C411517   2.740   4.693  17.540 -0.2419 -0.6522 -0.1901
  777MPD2    C511518   2.795   0.073  17.573  0.3489  0.4207  0.4089
  777MPD2     H11519   2.843   4.535   0.060 -1.8606  0.7426  0.9516
  777MPD2    H111520   2.675   4.679  17.454 -3.5674  0.0398  2.2147
  777MPD2    H211521   2.894   0.201  17.701 -0.4801 -0.0802  4.0023
  777MPD2    H311522   2.779   0.155  17.504 -0.5012  1.4709  1.8720
  777MPD2     N11523   2.711   4.461  17.618  0.4852  0.2777 -0.4523
  777MPD2    H511524   2.745   4.390  17.682 -0.9288  0.1829  0.1964
  777MPD2    N111525   2.954   0.028   0.139 -0.7752 -0.2014 -0.2992
  777MPD2    H711526   2.976   0.126   0.155 -0.3825 -0.3622  0.1411
  778MPD2     C11527   3.972   4.518  14.990  0.4398 -0.1498  0.1450
  778MPD2    C111528   3.909   4.427  14.906  0.4978 -0.1171 -0.2130
  778MPD2    C211529   3.911   4.454  14.771  0.3603  0.0682 -0.2441
  778MPD2    C311530   3.972   4.569  14.721 -0.5423  0.9401  0.2785
  778MPD2    C411531   4.024   4.661  14.812  0.5306  0.1314  0.5330
  778MPD2    C511532   4.020   4.634  14.943 -0.2459 -0.5530 -0.4717
  778MPD2     H11533   3.881   4.373  14.707 -1.6468  0.4883  0.1864
  778MPD2    H111534   4.086   0.002  14.774 -1.1776  1.0662 -0.2465
  778MPD2    H211535   3.975   4.508  15.098 -0.1250  0.8924  0.2667
  778MPD2    H311536   4.070   4.700  15.012 -1.4858  0.2252 -0.3124
  778MPD2     N11537   3.999   4.561  14.581  0.1015  0.3185  0.0030
  778MPD2    H511538   3.986   4.472  14.534 -0.1133  0.6013 -0.4643
  778MPD2    N111539   3.846   4.304  14.945  0.4649 -0.5596 -0.1370
  778MPD2    H711540   3.785   4.264  14.874  0.4077 -1.1477  0.2405
  779MPD2     C11541   3.743   3.017  14.427  0.2957  0.5650  0.3633
  779MPD2    C111542   3.845   3.076  14.361 -0.1504  0.5126  0.9119
  779MPD2    C211543   3.860   3.211  14.372  0.4178  0.2458 -0.6223
  779MPD2    C311544   3.758   3.295  14.426 -0.0272  0.5449 -0.0672
  779MPD2    C411545   3.651   3.229  14.483  0.3787 -0.1374 -0.6531
  779MPD2    C511546   3.645   3.094  14.482 -0.1970 -0.2076  0.4578
  779MPD2     H11547   3.942   3.257  14.318  0.7641  0.2808 -0.0762
  779MPD2    H111548   3.563   3.281  14.521  0.3997 -0.9700  0.5474
  779MPD2    H211549   3.734   2.909  14.424 -0.3520  0.6423 -0.5879
  779MPD2    H311550   3.557   3.054  14.531 -0.0405  0.8203  1.5740
  779MPD2     N11551   3.763   3.436  14.414 -0.3052 -0.1326 -0.7006
  779MPD2    H511552   3.850   3.470  14.374 -0.6877  0.4207 -1.0560
  779MPD2    N111553   3.931   2.997  14.281  0.6401  0.0006  0.2406
  779MPD2    H711554   4.018   3.041  14.252 -0.0470  2.2107  1.6260
  780MPD2     C11555   3.754   3.516   0.561 -0.1031  0.5394 -0.0633
  780MPD2    C111556   3.639   3.504   0.487 -0.2544  0.2116 -0.0539
  780MPD2    C211557   3.630   3.569   0.366  0.5702 -0.5354 -0.4961
  780MPD2    C311558   3.739   3.638   0.320 -0.4305  0.2665 -0.3256
  780MPD2    C411559   3.856   3.653   0.393  0.3104 -0.3339  0.2353
  780MPD2    C511560   3.864   3.583   0.514  0.5211  0.0441  0.0006
  780MPD2     H11561   3.547   3.548   0.299 -1.2829  0.9942  1.3281
  780MPD2    H111562   3.938   3.715   0.358  0.5537 -0.1358  1.1553
  780MPD2    H211563   3.752   3.474   0.661 -0.0629 -1.6331 -0.9701
  780MPD2    H311564   3.956   3.593   0.570  0.5095 -2.4180  0.4455
  780MPD2     N11565   3.721   3.692   0.190  0.1063 -0.1969 -0.0404
  780MPD2    H511566   3.625   3.684   0.159  0.5370 -0.7437 -1.2261
  780MPD2    N111567   3.537   3.425   0.541  0.0097 -0.0879 -0.0819
  780MPD2    H711568   3.579   3.365   0.613 -0.0491 -1.7930 -1.4723
  781MPD2     C11569   1.089   4.553  11.901  0.2736 -0.0754  0.0250
  781MPD2    C111570   0.950   4.581  11.884  0.4464 -0.2553  0.1118
  781MPD2    C211571   0.900   4.592  11.757 -0.2482 -0.1099 -0.0365
  781MPD2    C311572   0.979   4.574  11.648  0.3611 -0.4067  0.8642
  781MPD2    C411573   1.118   4.565  11.663  0.3915  0.2436 -0.7038
  781MPD2    C511574   1.176   4.553  11.786 -0.2276  0.4889  0.1871
  781MPD2     H11575   0.793   4.612  11.756 -0.4202 -1.0841 -0.5884
  781MPD2    H111576   1.185   4.550  11.579  0.3544  0.2513 -0.7347
  781MPD2    H211577   1.126   4.526  12.000  0.0193 -0.0966  0.1145
  781MPD2    H311578   1.282   4.534  11.799 -0.3366  0.7747  1.5156
  781MPD2     N11579   0.932   4.578  11.512  0.0632 -0.2155 -0.1312
  781MPD2    H511580   1.001   4.580  11.438  1.6075  0.0671  1.3071
  781MPD2    N111581   0.863   4.572  11.996 -0.1668  0.2784 -0.5491
  781MPD2    H711582   0.765   4.556  11.976  0.0645 -0.4659 -1.1202
  782MPD2     C11583   3.121   1.642  10.529  0.6010  0.0116 -0.2922
  782MPD2    C111584   3.232   1.564  10.515  0.0243  0.0797 -0.4223
  782MPD2    C211585   3.351   1.615  10.568  0.0799  0.7575  0.1226
  782MPD2    C311586   3.348   1.729  10.645 -0.3089 -0.1035  0.6057
  782MPD2    C411587   3.233   1.799  10.663 -0.8651 -0.2440 -0.2032
  782MPD2    C511588   3.124   1.757  10.601  0.0438  0.0492  0.4886
  782MPD2     H11589   3.444   1.559  10.564 -0.9189 -0.7845 -1.6784
  782MPD2    H111590   3.228   1.890  10.721 -0.1189 -0.0020 -0.5224
  782MPD2    H211591   3.023   1.621  10.488 -0.4905  1.8093  1.3708
  782MPD2    H311592   3.038   1.820  10.618  0.1860 -0.2211  2.2149
  782MPD2     N11593   3.467   1.786  10.699 -0.5380 -0.0156 -0.1501
  782MPD2    H511594   3.449   1.878  10.737  0.6993  0.9539 -1.9079
  782MPD2    N111595   3.218   1.440  10.447 -0.2092  0.4048  0.0921
  782MPD2    H711596   3.126   1.406  10.420 -1.7494  3.0819  2.0075
  783MPD2     C11597   2.767   0.891  10.882 -0.5143  0.2582  0.0335
  783MPD2    C111598   2.851   0.988  10.909 -0.4787  0.0257 -0.6520
  783MPD2    C211599   2.947   1.034  10.815  1.0168 -0.0108 -0.0430
  783MPD2    C311600   2.952   0.970  10.687  0.1734  0.5081  0.4751
  783MPD2    C411601   2.854   0.886  10.650 -0.0505 -0.4241 -0.2748
  783MPD2    C511602   2.766   0.845  10.749  0.4227  0.6132 -1.6443
  783MPD2     H11603   3.021   1.112  10.832  1.0433  0.1426 -0.8849
  783MPD2    H111604   2.838   0.853  10.548  1.0073  0.4598 -0.7142
  783MPD2    H211605   2.696   0.835  10.942 -2.4614  0.8506 -1.7145
  783MPD2    H311606   2.704   0.760  10.722  0.5262  0.0485 -0.0952
  783MPD2     N11607   3.049   1.018  10.593 -0.4760 -0.0473  0.4529
  783MPD2    H511608   3.114   1.086  10.630 -0.0761  0.3629 -0.9915
  783MPD2    N111609   2.840   1.046  11.036 -0.3677  0.0931  0.2091
  783MPD2    H711610   2.764   1.011  11.094  0.7649 -0.8495  1.1349
  784MPD2     C11611   0.990   1.923   0.377 -0.0454  0.2581 -0.1350
  784MPD2    C111612   0.939   1.949   0.505  0.1176  0.0309  0.1064
  784MPD2    C211613   0.805   1.982   0.509  0.2265 -0.2457  0.5483
  784MPD2    C311614   0.719   1.971   0.403 -0.7357 -0.1092  0.6495
  784MPD2    C411615   0.773   1.933   0.278 -0.4151 -0.7180 -0.2624
  784MPD2    C511616   0.915   1.914   0.263  0.4069  0.2539  0.7598
  784MPD2     H11617   0.764   1.987   0.609 -1.3044  0.8705 -0.1223
  784MPD2    H111618   0.715   1.920   0.188  1.6346 -1.1116 -1.5137
  784MPD2    H211619   1.097   1.917   0.360  0.0684 -0.9677  1.0233
  784MPD2    H311620   0.962   1.881   0.171  2.0618  2.2645  0.8738
  784MPD2     N11621   0.586   2.006   0.427 -0.2541  0.1586 -0.4988
  784MPD2    H511622   0.560   2.049   0.516 -1.0047 -0.3155 -0.4898
  784MPD2    N111623   1.024   1.941   0.618  0.3625  0.5352 -0.1126
  784MPD2    H711624   0.973   1.946   0.706 -1.1052 -1.5489 -0.8648
  785MPD2     C11625   0.888   4.008  10.155 -0.4700 -0.0691 -0.1474
  785MPD2    C111626   0.764   4.049  10.202 -0.3754 -0.8226  0.3270
  785MPD2    C211627   0.678   4.099  10.111 -0.4231  0.2304  0.1802
  785MPD2    C311628   0.718   4.104   9.976  0.0996 -0.6901 -0.1127
  785MPD2    C411629   0.838   4.054   9.930  0.2744 -0.4542  0.4577
  785MPD2    C511630   0.921   4.002  10.024  0.1280  0.0621 -0.3456
  785MPD2     H11631   0.583   4.140  10.143 -1.7208 -3.0945  0.6460
  785MPD2    H111632   0.873   4.061   9.828  1.7838 -1.2359  0.9370
  785MPD2    H211633   0.962   3.980  10.229  0.2391  0.6815 -0.5662
  785MPD2    H311634   1.020   3.983   9.984  0.5607  1.3847  0.1051
  785MPD2     N11635   0.628   4.162   9.886 -0.0963  0.2392  0.9996
  785MPD2    H511636   0.542   4.189   9.933 -1.2150  0.5084 -1.2058
  785MPD2    N111637   0.749   4.048  10.340 -0.3654  0.3907 -0.4503
  785MPD2    H711638   0.831   4.022  10.393  0.8233 -2.2869 -3.6233
  786MPD2     C11639   4.572   2.662  14.665 -0.1252 -0.0485  0.2090
  786MPD2    C111640   4.701   2.636  14.618  0.4175 -0.3618 -0.0226
  786MPD2    C211641   0.063   2.674  14.704 -0.5528 -0.2585 -0.2124
  786MPD2    C311642   0.045   2.725  14.829 -0.3627  0.8664 -0.0034
  786MPD2    C411643   4.655   2.732  14.877  0.2207 -0.3951 -0.3078
  786MPD2    C511644   4.550   2.699  14.795 -0.6560  0.3096  0.0219
  786MPD2     H11645   0.165   2.664  14.666  0.0355  3.0898  0.4625
  786MPD2    H111646   4.635   2.777  14.974 -0.1146 -0.2716 -0.4334
  786MPD2    H211647   4.492   2.650  14.593  0.7019 -0.2410 -0.6812
  786MPD2    H311648   4.446   2.710  14.822 -0.5117 -2.1221  1.5464
  786MPD2     N11649   0.139   2.793  14.915  0.2213 -0.3028  0.0506
  786MPD2    H511650   0.109   2.812  15.010 -0.6148 -1.3156 -0.0087
  786MPD2    N111651   4.732   2.582  14.491  0.2643  0.3382  0.0247
  786MPD2    H711652   0.085   2.563  14.458  0.0815  0.4659 -0.5723
  787MPD2     C11653   0.112   1.945  14.474 -0.1040  0.1570  0.4091
  787MPD2    C111654   0.086   1.992  14.345  0.9304 -0.4149 -0.1092
  787MPD2    C211655   0.127   1.914  14.237 -0.2862 -0.7492  0.1305
  787MPD2    C311656   0.185   1.789  14.252  0.1146  0.2754  0.2866
  787MPD2    C411657   0.209   1.745  14.378  0.2760  0.5096  0.6409
  787MPD2    C511658   0.171   1.822  14.484 -0.6886  0.1961  0.5149
  787MPD2     H11659   0.117   1.939  14.132 -0.3803  1.3399  0.6335
  787MPD2    H111660   0.255   1.650  14.402  0.3607  0.2424 -0.5734
  787MPD2    H211661   0.066   1.995  14.559 -1.7599 -2.4159  0.9993
  787MPD2    H311662   0.188   1.781  14.583 -1.0563  0.0612  0.5212
  787MPD2     N11663   0.220   1.727  14.133 -0.0822  0.5179 -0.4694
  787MPD2    H511664   0.208   1.786  14.051  1.0000  2.1390  0.5554
  787MPD2    N111665   0.004   2.109  14.327  0.2050  0.0831  0.4816
  787MPD2    H711666   4.713   2.151  14.414 -0.3162  1.0801 -0.1817
  788MPD2     C11667   1.890   1.594   0.772 -0.2931  0.0133 -0.6689
  788MPD2    C111668   1.902   1.499   0.673 -0.8102  0.1558  0.3347
  788MPD2    C211669   1.951   1.540   0.546 -0.1467  0.0629 -0.1295
  788MPD2    C311670   1.980   1.679   0.537 -0.0438  0.1999  0.3606
  788MPD2    C411671   1.955   1.773   0.636  0.3108  0.3560 -0.2524
  788MPD2    C511672   1.910   1.728   0.757  0.2817  0.3711  0.0369
  788MPD2     H11673   1.964   1.473   0.462 -1.4056 -1.6853  1.0703
  788MPD2    H111674   1.967   1.880   0.625 -0.2685  0.4411 -0.0948
  788MPD2    H211675   1.865   1.574   0.875  0.9917 -0.3763 -0.4376
  788MPD2    H311676   1.892   1.793   0.842  1.6892 -0.2691  0.8222
  788MPD2     N11677   2.024   1.738   0.421  0.2010  0.2851 -0.1839
  788MPD2    H511678   2.026   1.839   0.412 -2.8102  0.4151  0.7074
  788MPD2    N111679   1.855   1.365   0.693  0.0031 -0.5603 -0.0492
  788MPD2    H711680   1.873   1.300   0.617 -1.1483 -0.4272 -0.4257
  789MPD2     C11681   2.186   0.544  16.314 -1.2447  0.2896 -0.0651
  789MPD2    C111682   2.073   0.576  16.243  0.1795 -0.2324  0.2539
  789MPD2    C211683   2.003   0.684  16.277 -0.3558 -0.0061  0.6591
  789MPD2    C311684   2.026   0.760  16.392  0.2031  0.1648 -0.7937
  789MPD2    C411685   2.138   0.726  16.466 -0.2534  1.1288  0.6511
  789MPD2    C511686   2.221   0.619  16.420  0.0817 -0.4924 -0.8948
  789MPD2     H11687   1.915   0.710  16.219  0.6167  0.4937 -0.6184
  789MPD2    H111688   2.164   0.761  16.565  3.4963  1.0650 -0.2832
  789MPD2    H211689   2.246   0.459  16.283  0.1789  0.8099  1.2775
  789MPD2    H311690   2.303   0.577  16.478 -0.1240 -0.3178 -0.4753
  789MPD2     N11691   1.941   0.861  16.444 -0.6386  0.5917  0.0787
  789MPD2    H511692   1.968   0.897  16.535 -2.5030  1.0010  0.4784
  789MPD2    N111693   2.033   0.485  16.138  0.1971 -0.3079 -0.3848
  789MPD2    H711694   2.104   0.416  16.117  1.5117  0.5534  1.2120
  790MPD2     C11695   2.955   2.007  13.945  0.1859  0.2692  0.3267
  790MPD2    C111696   3.070   1.980  13.876  0.4920  0.0425 -0.7823
  790MPD2    C211697   3.077   1.992  13.741  0.3591 -0.1682 -0.3563
  790MPD2    C311698   2.965   2.044  13.675  0.3553 -0.6669 -0.2252
  790MPD2    C411699   2.845   2.068  13.736 -0.0262 -0.2592 -0.4960
  790MPD2    C511700   2.848   2.046  13.871  0.3263 -0.0254  0.1819
  790MPD2     H11701   3.167   1.967  13.686  0.5644  0.7875 -0.4592
  790MPD2    H111702   2.753   2.108  13.696  0.7234  2.0700  0.1147
  790MPD2    H211703   2.934   2.000  14.051 -0.9105  1.0497  0.1518
  790MPD2    H311704   2.753   2.062  13.920  0.1259 -0.9811  0.0874
  790MPD2     N11705   2.955   2.060  13.536  0.2675  0.3697  0.0697
  790MPD2    H511706   2.863   2.088  13.503  0.7780 -0.8691 -2.3991
  790MPD2    N111707   3.177   1.932  13.961  0.5709 -0.1412  0.0931
  790MPD2    H711708   3.146   1.917  14.056  1.3168  0.2168  0.3955
  791MPD2     C11709   2.522   2.278  12.850 -0.1782  0.7576 -0.3416
  791MPD2    C111710   2.537   2.198  12.958  1.2357 -0.1911 -0.2900
  791MPD2    C211711   2.426   2.131  13.001 -0.8931  0.3289 -0.0935
  791MPD2    C311712   2.302   2.138  12.943  0.6768  0.3028 -0.1524
  791MPD2    C411713   2.286   2.213  12.831  0.0634 -0.2471 -1.2534
  791MPD2    C511714   2.397   2.290  12.790 -0.3402 -0.8926 -0.3484
  791MPD2     H11715   2.437   2.056  13.078 -1.9788  1.4755  1.1623
  791MPD2    H111716   2.197   2.223  12.770  0.9518 -2.0852 -2.8496
  791MPD2    H211717   2.602   2.332  12.800  0.3483 -0.1528 -0.4993
  791MPD2    H311718   2.374   2.362  12.713  0.3981  0.6385  0.8624
  791MPD2     N11719   2.196   2.060  12.986  0.0857 -0.4359 -0.2438
  791MPD2    H511720   2.203   1.986  13.055 -0.5140 -0.9238 -0.7103
  791MPD2    N111721   2.668   2.166  13.006 -0.4202 -0.0653 -0.3891
  791MPD2    H711722   2.749   2.201  12.956  0.3021 -0.6841  0.3455
  792MPD2     C11723   2.973   1.975  11.703 -0.1065 -0.2575  0.0216
  792MPD2    C111724   2.920   2.031  11.588 -0.0663  0.7068  0.4356
  792MPD2    C211725   2.797   1.989  11.526 -0.4518 -0.2203 -0.2308
  792MPD2    C311726   2.741   1.873  11.584 -0.6877  0.5604  0.0415
  792MPD2    C411727   2.794   1.817  11.704  0.5449 -0.6241  0.3460
  792MPD2    C511728   2.902   1.873  11.769 -1.0979  0.0638 -0.7411
  792MPD2     H11729   2.749   2.030  11.438  0.0200  0.0971 -0.3375
  792MPD2    H111730   2.742   1.735  11.752 -0.9859 -0.8833 -1.7551
  792MPD2    H211731   3.069   2.008  11.741  0.1564  1.4464 -2.1163
  792MPD2    H311732   2.939   1.826  11.859  0.5940  0.9648 -0.9853
  792MPD2     N11733   2.630   1.803  11.537  0.4669 -0.1268 -0.1467
  792MPD2    H511734   2.599   1.726  11.595  0.4145 -1.1450 -1.5246
  792MPD2    N111735   3.005   2.128  11.526 -0.6591  0.0254 -0.5595
  792MPD2    H711736   3.092   2.150  11.573 -1.4705  0.4850  0.7291
  793MPD2     C11737   1.988   1.780  10.645  0.0484  0.2205  0.1048
  793MPD2    C111738   2.129   1.759  10.631  0.0947 -0.4959 -0.0066
  793MPD2    C211739   2.214   1.762  10.736  0.4175 -0.1695 -0.2495
  793MPD2    C311740   2.157   1.761  10.860 -0.1530 -0.3361  0.5463
  793MPD2    C411741   2.019   1.783  10.875  0.1482 -0.1486 -0.4315
  793MPD2    C511742   1.942   1.806  10.770  0.3443 -0.0645  0.1457
  793MPD2     H11743   2.321   1.775  10.724  0.4947  0.4777  1.1646
  793MPD2    H111744   1.990   1.789  10.979 -0.1460  5.1398 -0.8145
  793MPD2    H211745   1.920   1.802  10.565 -2.4131  3.1026  3.0062
  793MPD2    H311746   1.840   1.836  10.787 -0.7147 -0.8813 -4.7824
  793MPD2     N11747   2.249   1.752  10.968 -0.4042 -0.0586  0.2268
  793MPD2    H511748   2.344   1.737  10.936 -0.8153 -0.1808 -0.9487
  793MPD2    N111749   2.191   1.753  10.505 -0.7834  0.5924 -0.4761
  793MPD2    H711750   2.291   1.770  10.509 -0.8268  0.5661  0.5404
  794MPD2     C11751   2.479   1.769  17.275  0.1195  0.3210 -1.1599
  794MPD2    C111752   2.498   1.633  17.245  0.5139 -0.2459  0.0985
  794MPD2    C211753   2.464   1.588  17.117 -0.4660  0.6355 -0.1999
  794MPD2    C311754   2.411   1.678  17.024  0.7217  0.5950  0.2805
  794MPD2    C411755   2.396   1.809  17.064 -0.0928  0.1019 -0.0880
  794MPD2    C511756   2.412   1.851  17.190 -0.2695 -0.5695 -0.1022
  794MPD2     H11757   2.491   1.486  17.090  0.2454  1.1081 -1.2479
  794MPD2    H111758   2.348   1.881  16.998  0.2283 -0.8038 -1.3056
  794MPD2    H211759   2.512   1.815  17.368 -0.3219  1.2827 -1.4809
  794MPD2    H311760   2.387   1.954  17.210 -1.9535 -0.6916 -1.6889
  794MPD2     N11761   2.387   1.642  16.892 -0.0665 -0.3367 -0.3456
  794MPD2    H511762   2.343   1.716  16.839  0.0162  0.8865  1.3059
  794MPD2    N111763   2.546   1.537  17.342  0.1693  0.1007 -0.0033
  794MPD2    H711764   2.558   1.442  17.308 -0.5804 -1.3534  3.7275
  795MPD2     C11765   0.440   3.756  12.999  0.1770 -0.2635  0.5828
  795MPD2    C111766   0.387   3.688  13.107 -0.2240  0.0120  0.2826
  795MPD2    C211767   0.465   3.630  13.204 -0.2356 -0.4553  0.2657
  795MPD2    C311768   0.603   3.628  13.181  0.3961  0.1218 -0.3400
  795MPD2    C411769   0.650   3.685  13.066  0.5285  0.5413 -0.0052
  795MPD2    C511770   0.570   3.741  12.970  0.0707 -0.7706 -0.3810
  795MPD2     H11771   0.421   3.584  13.292  0.4383  0.3896  1.0543
  795MPD2    H111772   0.756   3.687  13.041  0.9481 -0.8772  1.6686
  795MPD2    H211773   0.379   3.811  12.928  1.7144  0.9304  0.1692
  795MPD2    H311774   0.604   3.794  12.882  0.2948  2.4089  1.6335
  795MPD2     N11775   0.689   3.555  13.267 -0.2202 -0.0277  0.2267
  795MPD2    H511776   0.628   3.501  13.328 -1.6522  1.0120 -0.2781
  795MPD2    N111777   0.247   3.676  13.123 -0.0035  0.5627 -0.0187
  795MPD2    H711778   0.212   3.615  13.197  0.4957  3.4927  2.6201
  796MPD2     C11779   4.466   0.380  15.586 -0.6972  1.4454 -0.1002
  796MPD2    C111780   4.560   0.441  15.675 -0.3563  0.4594 -0.1957
  796MPD2    C211781   4.555   0.580  15.676  0.0830 -0.2298  0.2102
  796MPD2    C311782   4.471   0.655  15.594 -0.3074  0.2098 -0.4310
  796MPD2    C411783   4.398   0.589  15.497 -0.0663  0.2310  0.0916
  796MPD2    C511784   4.393   0.453  15.500 -0.1352  0.1663  0.2182
  796MPD2     H11785   4.620   0.631  15.746  0.3708 -3.7709  2.5469
  796MPD2    H111786   4.334   0.633  15.421  1.2545  0.1977 -1.0274
  796MPD2    H211787   4.455   0.272  15.582 -2.2761  1.7106 -2.9362
  796MPD2    H311788   4.334   0.398  15.429 -0.6209  0.5159  0.3540
  796MPD2     N11789   4.480   0.794  15.603 -0.5053 -0.0700 -0.2740
  796MPD2    H511790   4.549   0.833  15.666  0.0161 -1.0051 -0.2778
  796MPD2    N111791   4.631   0.355  15.764 -0.3007  0.3119  0.0007
  796MPD2    H711792   4.608   0.256  15.757 -0.2354  0.2841  0.1977
  797MPD2     C11793   0.922   4.736  17.202  0.4084 -0.1400  0.5826
  797MPD2    C111794   0.919   0.127  17.249  0.6977  0.5004  0.1142
  797MPD2    C211795   0.843   0.213  17.183  0.0848 -0.2926  0.0370
  797MPD2    C311796   0.771   0.186  17.068  0.4777  0.3514  0.3043
  797MPD2    C411797   0.778   0.060  17.016 -0.0297  0.1564  0.2448
  797MPD2    C511798   0.848   4.703  17.091 -0.0684  0.2854 -0.4882
  797MPD2     H11799   0.843   0.314  17.223  0.4164  0.2672 -1.3784
  797MPD2    H111800   0.733   0.037  16.921  1.1414  1.7463 -0.7009
  797MPD2    H211801   0.993   4.661  17.234 -0.4156 -0.2462  2.1544
  797MPD2    H311802   0.862   4.602  17.054 -0.5662 -0.1382  0.4872
  797MPD2     N11803   0.694   0.285  16.996 -0.2397  0.2427 -0.2466
  797MPD2    H511804   0.648   0.255  16.911 -0.7355  0.6739 -0.1287
  797MPD2    N111805   0.999   0.192  17.353  0.0406 -0.1036 -0.7585
  797MPD2    H711806   0.982   0.291  17.368 -0.1549  0.0943 -2.2885
  798MPD2     C11807   0.905   0.915  17.267  0.6757 -0.4172 -0.3146
  798MPD2    C111808   0.871   0.783  17.231 -0.4749 -0.3863  0.4045
  798MPD2    C211809   0.944   0.681  17.293 -0.0339  0.4598 -0.2187
  798MPD2    C311810   1.022   0.705  17.404 -0.1415  0.9378  0.4349
  798MPD2    C411811   1.028   0.834  17.450  0.7890 -0.1050 -0.8915
  798MPD2    C511812   0.984   0.935  17.373 -0.2115  0.9214 -0.2612
  798MPD2     H11813   0.939   0.582  17.251  0.0000  0.7825 -0.9753
  798MPD2    H111814   1.088   0.853  17.539 -2.3021  1.1261  0.9285
  798MPD2    H211815   0.859   0.996  17.211  3.4453  1.7713  0.5840
  798MPD2    H311816   1.001   1.037  17.406  0.8641  0.2995  1.0848
  798MPD2     N11817   1.090   0.594  17.455  0.2107 -0.1674  0.0241
  798MPD2    H511818   1.087   0.515  17.391  0.1077  0.2488 -0.4871
  798MPD2    N111819   0.787   0.744  17.128 -0.0787 -0.0494  0.1447
  798MPD2    H711820   0.758   0.647  17.128 -0.1454 -0.0247  0.9371
  799MPD2     C11821   4.572   1.443  14.117  0.1546  0.3439  0.4387
  799MPD2    C111822   4.491   1.371  14.044  0.0020  0.8042 -0.4872
  799MPD2    C211823   4.437   1.430  13.927  0.0816 -0.0550 -0.1227
  799MPD2    C311824   4.475   1.559  13.885 -0.0511  0.9182 -0.6782
  799MPD2    C411825   4.567   1.624  13.964 -0.4821  0.6321 -0.3482
  799MPD2    C511826   4.616   1.566  14.081 -0.3009 -0.5533  0.2086
  799MPD2     H11827   4.359   1.378  13.873  0.9572 -0.0549 -1.3778
  799MPD2    H111828   4.610   1.717  13.929  1.0132  0.0667 -0.0219
  799MPD2    H211829   4.614   1.398  14.207  1.3350 -1.4031 -0.9828
  799MPD2    H311830   4.685   1.625  14.140 -0.2444 -2.7368  2.3316
  799MPD2     N11831   4.434   1.612  13.762 -0.2550 -0.3332  0.4041
  799MPD2    H511832   4.370   1.553  13.709  0.8408 -0.9180 -0.2665
  799MPD2    N111833   4.438   1.238  14.077 -0.1859  0.3165  0.5257
  799MPD2    H711834   4.384   1.190  14.006 -2.7536  1.8169  1.4418
  800MPD2     C11835   0.220   2.515  13.949 -0.0120  0.7886 -0.4059
  800MPD2    C111836   0.354   2.509  13.966 -0.4109 -0.1448  0.0184
  800MPD2    C211837   0.433   2.436  13.883  0.0797 -0.5626  0.6894
  800MPD2    C311838   0.382   2.387  13.766  0.0131 -0.8677 -0.5701
  800MPD2    C411839   0.248   2.391  13.743 -0.3774  0.0524  0.2020
  800MPD2    C511840   0.172   2.439  13.844  0.1545 -0.1564  0.6227
  800MPD2     H11841   0.540   2.454  13.883  0.2953 -1.7885 -0.3462
  800MPD2    H111842   0.200   2.338  13.663 -0.1124  0.8098 -0.4578
  800MPD2    H211843   0.160   2.566  14.023  1.8408 -0.6604  2.0661
  800MPD2    H311844   0.065   2.444  13.826  0.0967 -0.2583  0.9485
  800MPD2     N11845   0.472   2.373  13.664 -0.3890  0.2632 -0.6494
  800MPD2    H511846   0.571   2.377  13.684 -0.5414  1.3443 -0.1091
  800MPD2    N111847   0.402   2.593  14.063 -0.2231 -0.3627 -0.4939
  800MPD2    H711848   0.339   2.656  14.112  0.3501 -1.7866  2.0574
  801MPD2     C11849   0.419   3.330  14.162  0.0617  0.2058 -0.6384
  801MPD2    C111850   0.368   3.207  14.128  0.0635  0.1908  0.2731
  801MPD2    C211851   0.236   3.199  14.084 -0.3351 -0.2188 -0.6926
  801MPD2    C311852   0.148   3.307  14.095 -0.3769  0.7076  0.2145
  801MPD2    C411853   0.202   3.422  14.139  1.1419  0.3800  0.0799
  801MPD2    C511854   0.335   3.435  14.173 -0.9803 -0.0392  0.7247
  801MPD2     H11855   0.210   3.103  14.041  0.1320 -0.1780 -1.0573
  801MPD2    H111856   0.136   3.509  14.140  0.8460  0.1404  0.9548
  801MPD2    H211857   0.524   3.347  14.183  0.0091 -1.1509  0.7629
  801MPD2    H311858   0.372   3.534  14.198  0.9826 -0.4528 -0.6278
  801MPD2     N11859   0.009   3.293  14.072  0.2028  0.5056  0.6744
  801MPD2    H511860   4.693   3.374  14.097 -0.7529 -0.1272  0.5484
  801MPD2    N111861   0.430   3.083  14.129  0.2036 -0.0412  0.1572
  801MPD2    H711862   0.369   3.006  14.104 -1.2455  0.7515  1.2862
  802MPD2     C11863   4.362   4.157   0.280 -0.1505  0.2568  1.0971
  802MPD2    C111864   4.384   4.236   0.167 -0.6675 -0.2383 -0.0827
  802MPD2    C211865   4.388   4.180   0.044 -0.5927 -0.5417 -0.1148
  802MPD2    C311866   4.382   4.038   0.031  0.7366 -0.0920  0.8342
  802MPD2    C411867   4.350   3.972   0.144 -0.1533 -0.0496  0.0415
  802MPD2    C511868   4.329   4.028   0.262  0.1827 -0.9345 -0.7908
  802MPD2     H11869   4.411   4.239  17.715  2.9093 -0.0916  1.0920
  802MPD2    H111870   4.339   3.865   0.159 -1.8008 -0.0436 -1.1051
  802MPD2    H211871   4.331   4.205   0.372  0.1681  0.0581  1.3079
  802MPD2    H311872   4.292   3.970   0.346 -0.7576 -1.0907 -1.3030
  802MPD2     N11873   4.400   3.978  17.660 -0.4760 -0.4694  0.0223
  802MPD2    H511874   4.415   4.039  17.580 -1.7607  0.7245  0.6819
  802MPD2    N111875   4.375   4.370   0.184 -0.0085 -0.3984 -0.7558
  802MPD2    H711876   4.319   4.406   0.261 -0.4972  1.5461 -2.0048
  803MPD2     C11877   0.714   2.048  12.096  0.4180 -0.3983 -0.3223
  803MPD2    C111878   0.842   2.057  12.152  0.3320 -0.5940 -0.1952
  803MPD2    C211879   0.868   2.080  12.288 -0.1179  0.0034 -0.6218
  803MPD2    C311880   0.751   2.105  12.362 -0.3390  0.0201  0.3679
  803MPD2    C411881   0.619   2.106  12.310 -0.2272  0.2483 -0.8430
  803MPD2    C511882   0.605   2.067  12.183 -0.2482 -0.2703 -0.1376
  803MPD2     H11883   0.967   2.070  12.331 -1.2327  0.3194  2.0040
  803MPD2    H111884   0.529   2.134  12.364  0.1612 -0.4757  0.1716
  803MPD2    H211885   0.699   2.024  11.992  0.4473 -3.4442  0.3846
  803MPD2    H311886   0.508   2.071  12.135 -0.2462  0.6361 -0.0674
  803MPD2     N11887   0.766   2.136  12.499  0.8756  0.2141  0.8546
  803MPD2    H511888   0.689   2.127  12.564 -1.2232 -0.2043 -1.7085
  803MPD2    N111889   0.962   2.046  12.076  0.5472 -0.0532  0.1987
  803MPD2    H711890   1.049   2.059  12.127  0.5863 -0.0142  0.1216
  804MPD2     C11891   0.383   3.481  16.588  0.0151 -0.1672 -1.1204
  804MPD2    C111892   0.372   3.462  16.722 -0.0307 -0.4791  0.3406
  804MPD2    C211893   0.390   3.568  16.812 -0.8053  0.8692  0.3299
  804MPD2    C311894   0.418   3.687  16.765 -0.2953  0.4674 -0.0536
  804MPD2    C411895   0.424   3.711  16.629  0.0609 -0.3157  0.1795
  804MPD2    C511896   0.407   3.609  16.542 -0.0043 -0.2618  1.3056
  804MPD2     H11897   0.391   3.553  16.920 -0.5377  0.0339  0.2101
  804MPD2    H111898   0.437   3.809  16.585  1.4074 -0.0339  1.2179
  804MPD2    H211899   0.366   3.395  16.524  1.2868  0.3329 -2.1243
  804MPD2    H311900   0.408   3.631  16.436  1.5755 -0.4815  1.2671
  804MPD2     N11901   0.437   3.797  16.863  0.3107  0.0984 -0.5823
  804MPD2    H511902   0.402   3.784  16.958  1.7478  1.9548  0.2198
  804MPD2    N111903   0.337   3.338  16.788  0.4649  0.3553 -0.1754
  804MPD2    H711904   0.319   3.346  16.887  1.2551 -2.9942  0.2434
  805MPD2     C11905   4.152   1.697  15.109 -0.0244 -0.6816 -0.0974
  805MPD2    C111906   4.235   1.798  15.062  0.4463  0.6073  0.4526
  805MPD2    C211907   4.359   1.819  15.120  0.1551 -0.1390 -0.0168
  805MPD2    C311908   4.400   1.746  15.233 -0.4094  0.4761  0.7007
  805MPD2    C411909   4.318   1.642  15.278 -0.2337 -0.3404  0.4354
  805MPD2    C511910   4.197   1.621  15.213  0.2518  0.1853  0.3003
  805MPD2     H11911   4.431   1.874  15.060  0.7647 -0.7033  0.1983
  805MPD2    H111912   4.347   1.571  15.354  1.9611 -0.4111 -0.4553
  805MPD2    H211913   4.056   1.668  15.067 -2.2100 -0.0642  4.4854
  805MPD2    H311914   4.128   1.544  15.247  0.8390  0.2068  1.5150
  805MPD2     N11915   4.533   1.786  15.277 -0.1887  0.1616  0.8415
  805MPD2    H511916   4.575   1.869  15.236 -0.3758 -2.0883 -3.9869
  805MPD2    N111917   4.206   1.864  14.937 -0.1804  0.9249 -0.4084
  805MPD2    H711918   4.284   1.899  14.883  2.0026 -0.0228  2.1109
  806MPD2     C11919   0.250   1.500  17.741  1.4088 -0.1161 -0.2199
  806MPD2    C111920   0.177   1.587   0.064  0.0816  0.3682  0.2456
  806MPD2    C211921   0.176   1.717   0.021 -0.1715  1.0355 -0.1009
  806MPD2    C311922   0.252   1.756  17.669  0.1521 -0.5553  0.7824
  806MPD2    C411923   0.324   1.673  17.592  0.2253  0.3352 -0.6664
  806MPD2    C511924   0.325   1.543  17.637 -0.3386 -0.3408 -0.2089
  806MPD2     H11925   0.119   1.796   0.069  1.5191  0.8633  2.1578
  806MPD2    H111926   0.394   1.698  17.513 -0.3528  2.2580 -0.5476
  806MPD2    H211927   0.251   1.393   0.003 -0.7677 -0.7882 -3.6536
  806MPD2    H311928   0.386   1.478  17.574 -1.1787  1.6662 -3.1092
  806MPD2     N11929   0.240   1.893  17.641 -0.8589  0.5418  0.0113
  806MPD2    H511930   0.202   1.950  17.716  1.4909 -1.8554  3.0515
  806MPD2    N111931   0.100   1.532   0.168 -0.2142  0.3140  0.7207
  806MPD2    H711932   0.123   1.435   0.187  0.2775  0.3811  0.4607
  807MPD2     C11933   4.738   0.862   0.467  0.0165 -1.2319  0.2425
  807MPD2    C111934   4.637   0.935   0.537  0.6378 -0.5653  0.1507
  807MPD2    C211935   4.573   0.872   0.636  0.9398 -1.1681  0.4016
  807MPD2    C311936   4.602   0.736   0.668  0.0049  0.7069 -0.0353
  807MPD2    C411937   4.701   0.667   0.598  0.2685  0.4378 -0.3053
  807MPD2    C511938   0.016   0.730   0.492 -0.9499  0.5108  0.2236
  807MPD2     H11939   4.496   0.924   0.692  0.5162 -1.9241  0.5171
  807MPD2    H111940   4.721   0.563   0.619  1.7700  0.6571 -0.5909
  807MPD2    H211941   0.059   0.900   0.386 -0.8293 -2.8872 -1.1549
  807MPD2    H311942   0.086   0.684   0.423 -0.6532 -1.6413  1.9596
  807MPD2     N11943   4.502   0.671   0.748 -0.3898  0.0620 -0.1640
  807MPD2    H511944   4.421   0.725   0.777 -1.9207 -1.0164 -2.4160
  807MPD2    N111945   4.613   1.079   0.513  0.8806 -0.0916 -0.0412
  807MPD2    H711946   4.540   1.127   0.565  2.3321  2.5824 -0.4745
  808MPD2     C11947   0.525   2.327   9.964 -0.2539 -0.2567 -0.5664
  808MPD2    C111948   0.586   2.329   9.840  0.0185 -0.2022 -0.4550
  808MPD2    C211949   0.632   2.454   9.791  0.0030  0.4233  1.5013
  808MPD2    C311950   0.627   2.560   9.879 -0.0418  0.4170 -0.3298
  808MPD2    C411951   0.573   2.552  10.004  0.6920 -0.4290 -0.1935
  808MPD2    C511952   0.532   2.430  10.050 -0.6043  0.0687  0.3560
  808MPD2     H11953   0.688   2.467   9.700 -1.8896  0.6697  0.3777
  808MPD2    H111954   0.561   2.641  10.065  1.1238  0.4913 -1.4302
  808MPD2    H211955   0.488   2.231   9.997 -1.4186 -0.1343 -1.5157
  808MPD2    H311956   0.486   2.433  10.148  1.1802 -2.7057  1.2866
  808MPD2     N11957   0.684   2.687   9.834  0.2996  0.5875  0.3323
  808MPD2    H511958   0.681   2.769   9.893  4.1439  1.0000 -0.0331
  808MPD2    N111959   0.566   2.209   9.769  0.5252  0.3244  0.0924
  808MPD2    H711960   0.524   2.132   9.820 -1.1652  0.7275 -0.6898
  809MPD2     C11961   1.403   3.277   9.278  0.0396  0.3115  0.2799
  809MPD2    C111962   1.408   3.147   9.318 -0.2322 -0.3283 -0.5043
  809MPD2    C211963   1.297   3.093   9.372 -0.5782 -0.3553 -0.3075
  809MPD2    C311964   1.181   3.173   9.377 -0.4933 -0.6596  0.3111
  809MPD2    C411965   1.167   3.295   9.317  0.0908  1.0116  0.3230
  809MPD2    C511966   1.282   3.350   9.275  0.3542 -0.3456  0.6854
  809MPD2     H11967   1.311   2.998   9.423  2.0031  0.3949  0.3879
  809MPD2    H111968   1.075   3.353   9.318  0.0749  1.0100 -1.2694
  809MPD2    H211969   1.488   3.333   9.239 -0.4247 -1.1351 -2.8732
  809MPD2    H311970   1.281   3.447   9.226  0.4219 -0.0772  1.2151
  809MPD2     N11971   1.066   3.132   9.451 -0.2454 -0.3317 -0.2601
  809MPD2    H511972   1.005   3.201   9.495  0.2725  2.0080 -3.2565
  809MPD2    N111973   1.531   3.079   9.340 -0.5584  0.2603  0.1282
  809MPD2    H711974   1.527   2.988   9.385  0.1842  0.1830  0.0259
  810MPD2     C11975   0.623   1.923  10.113 -0.1284  0.3797  0.0166
  810MPD2    C111976   0.556   1.823  10.188 -0.6293  0.8439 -0.0868
  810MPD2    C211977   0.524   1.854  10.324 -0.2633 -0.5751 -0.6125
  810MPD2    C311978   0.559   1.980  10.372 -0.2435 -0.2534  0.4075
  810MPD2    C411979   0.620   2.078  10.297  0.2864  0.1005 -0.5932
  810MPD2    C511980   0.643   2.047  10.165 -0.1865 -0.0137  0.3181
  810MPD2     H11981   0.470   1.782  10.384  0.6200 -0.2395  0.6019
  810MPD2    H111982   0.625   2.185  10.315 -0.2231  0.0456 -0.1218
  810MPD2    H211983   0.637   1.909  10.007  0.7648  0.3744  0.1362
  810MPD2    H311984   0.673   2.122  10.092 -0.6777 -1.5094 -1.4092
  810MPD2     N11985   0.522   2.020  10.500 -0.0226 -0.0228  0.8381
  810MPD2    H511986   0.559   2.108  10.534 -1.3622  0.6727  0.4654
  810MPD2    N111987   0.515   1.710  10.117  0.1602  0.1433  0.0401
  810MPD2    H711988   0.524   1.720  10.016  0.9032  0.3252  0.1268
  811MPD2     C11989   4.541   1.642   9.665  0.0050  0.4064  0.0230
  811MPD2    C111990   4.646   1.708   9.729  0.9841 -0.2155  1.0804
  811MPD2    C211991   4.633   1.844   9.751 -0.1402 -0.6479 -0.0647
  811MPD2    C311992   4.523   1.922   9.712  0.0895 -0.1144  0.3786
  811MPD2    C411993   4.422   1.857   9.644  0.0561  0.8542 -0.2114
  811MPD2    C511994   4.438   1.722   9.617  0.6024 -0.7754 -0.5790
  811MPD2     H11995   4.714   1.899   9.799  0.5942 -1.6344 -0.1707
  811MPD2    H111996   4.332   1.909   9.612 -1.2417 -0.2651  1.5955
  811MPD2    H211997   4.539   1.534   9.649  1.4000  0.3949 -0.1071
  811MPD2    H311998   4.347   1.679   9.576  0.0115  0.0964 -0.1904
  811MPD2     N11999   4.532   2.061   9.737  0.1612  0.0333  0.2536
  811MPD2    H512000   4.612   2.095   9.789 -1.2599  0.3645  2.2092
  811MPD2    N112001   0.003   1.627   9.786 -0.0485  0.1429 -0.1519
  811MPD2    H712002   4.729   1.527   9.785  0.7371  0.0282 -0.5245
  812MPD2     C12003   3.620   1.869  12.019 -0.1939 -0.4072  0.1552
  812MPD2    C112004   3.695   1.976  12.063 -0.4547  0.2052  0.2286
  812MPD2    C212005   3.751   1.963  12.182 -0.6362  0.1180 -0.0946
  812MPD2    C312006   3.727   1.851  12.266  0.2207 -0.6221  0.4700
  812MPD2    C412007   3.634   1.760  12.230  0.2827  0.1606 -0.3683
  812MPD2    C512008   3.587   1.764  12.103 -0.2740  0.9727  0.8343
  812MPD2     H12009   3.822   2.035  12.221 -0.4079  0.7170 -1.5812
  812MPD2    H112010   3.609   1.676  12.294  0.3116  0.6039  0.2179
  812MPD2    H212011   3.582   1.853  11.919 -3.8317 -0.6965  1.5747
  812MPD2    H312012   3.516   1.685  12.083  2.1716 -0.2775 -2.7758
  812MPD2     N12013   3.793   1.845  12.391  0.4683  0.0485 -1.0017
  812MPD2    H512014   3.862   1.917  12.409  1.7571 -1.5222  0.3207
  812MPD2    N112015   3.702   2.091  11.984  0.2732  0.1698  0.5497
  812MPD2    H712016   3.670   2.074  11.889 -0.1229 -1.2904  0.9372
  813MPD2     C12017   3.103   3.404  13.276 -0.3252 -0.5539  0.1594
  813MPD2    C112018   3.061   3.529  13.231  0.0479 -0.7969 -0.1447
  813MPD2    C212019   2.928   3.550  13.208 -0.5373  0.3944  0.4634
  813MPD2    C312020   2.839   3.449  13.244  0.3652 -0.5540 -0.3586
  813MPD2    C412021   2.880   3.333  13.298  0.1651 -0.8438  0.1136
  813MPD2    C512022   3.010   3.310  13.308  0.5491  0.3755  0.3850
  813MPD2     H12023   2.892   3.645  13.170  2.0070  0.3025 -2.2222
  813MPD2    H112024   2.807   3.266  13.342  0.7569 -0.5228  1.5507
  813MPD2    H212025   3.208   3.383  13.291 -0.2269 -0.8706 -0.9931
  813MPD2    H312026   3.034   3.220  13.363  0.1290  0.3757  0.5641
  813MPD2     N12027   2.704   3.475  13.224 -0.3629  0.1942 -0.1081
  813MPD2    H512028   2.689   3.554  13.162 -1.0559 -0.0605 -0.2607
  813MPD2    N112029   3.160   3.634  13.226  0.2468 -0.0276 -0.0084
  813MPD2    H712030   3.238   3.626  13.290 -0.7648  4.1869  1.7677
  814MPD2     C12031   3.155   0.403  12.165  0.2312 -0.0685 -0.5748
  814MPD2    C112032   3.195   0.455  12.046 -0.5221  0.7514 -0.2954
  814MPD2    C212033   3.265   0.574  12.038 -0.4463 -0.5083  0.0493
  814MPD2    C312034   3.298   0.640  12.158  0.3649  0.1328 -0.4741
  814MPD2    C412035   3.260   0.581  12.279 -0.2734  0.2785 -0.1452
  814MPD2    C512036   3.191   0.459  12.281  0.0946  0.0474  0.2104
  814MPD2     H12037   3.298   0.620  11.945  1.6791  0.4638  1.2771
  814MPD2    H112038   3.275   0.622  12.378  0.5668  1.5924 -0.8253
  814MPD2    H212039   3.098   0.312  12.177 -0.8460  0.9949  2.2065
  814MPD2    H312040   3.153   0.416  12.372  0.7328  1.0094  0.9255
  814MPD2     N12041   3.365   0.761  12.166 -1.2049 -0.0804 -0.3357
  814MPD2    H512042   3.358   0.814  12.253  1.7074  0.2704 -0.3016
  814MPD2    N112043   3.175   0.386  11.927  0.1085  0.0957  0.4043
  814MPD2    H712044   3.211   0.427  11.842  1.4925 -1.1657  0.3685
  815MPD2     C12045   4.169   3.224  12.025  0.2516 -0.3977  0.0636
  815MPD2    C112046   4.109   3.119  11.948 -0.6009  0.0795 -0.6899
  815MPD2    C212047   3.972   3.115  11.945  0.6714  0.0044  0.0978
  815MPD2    C312048   3.895   3.209  12.011  0.1654  0.0247 -0.4296
  815MPD2    C412049   3.962   3.294  12.102 -0.1621 -0.8918  0.2335
  815MPD2    C512050   4.097   3.299  12.112 -0.0311  0.0707  0.0498
  815MPD2     H12051   3.920   3.057  11.869 -1.6007 -1.9134  3.1328
  815MPD2    H112052   3.906   3.370  12.155  2.7642  0.3455  1.5671
  815MPD2    H212053   4.276   3.238  12.016  0.1953 -0.5990 -0.8575
  815MPD2    H312054   4.147   3.379  12.165 -0.1642  1.3287 -1.7403
  815MPD2     N12055   3.748   3.195  11.992  0.0331  0.4165 -0.2056
  815MPD2    H512056   3.715   3.133  11.919 -0.1781 -1.9370  1.8616
  815MPD2    N112057   4.193   3.033  11.873 -0.4137 -0.3779 -0.0309
  815MPD2    H712058   4.287   3.069  11.864 -1.0443  0.8859 -1.6106
  816MPD2     C12059   3.326   2.953  16.954 -0.1733 -0.5244 -0.2163
  816MPD2    C112060   3.421   3.055  16.944  0.0797 -0.1514  0.4674
  816MPD2    C212061   3.547   3.022  16.896 -0.0950 -0.5639 -0.3411
  816MPD2    C312062   3.585   2.894  16.872  0.3389 -0.6832  0.6082
  816MPD2    C412063   3.490   2.794  16.884  0.0424 -0.0132  0.3781
  816MPD2    C512064   3.361   2.821  16.927  0.1858 -1.0011  0.5095
  816MPD2     H12065   3.622   3.097  16.874 -0.5052  0.1037  0.5142
  816MPD2    H112066   3.510   2.688  16.873  0.3747  0.1817 -0.8819
  816MPD2    H212067   3.226   2.980  16.986 -1.3495 -5.1694 -0.0101
  816MPD2    H312068   3.294   2.736  16.927 -0.2249 -0.6764 -0.8222
  816MPD2     N12069   3.718   2.856  16.835 -0.3552 -0.0805 -0.2170
  816MPD2    H512070   3.777   2.935  16.810  0.8173 -0.5825  0.9843
  816MPD2    N112071   3.377   3.190  16.955 -0.0995 -0.2366  0.2539
  816MPD2    H712072   3.277   3.207  16.955  0.1872  1.4578  0.8926
  817MPD2     C12073   4.323   4.498   9.852 -0.2199 -0.1330 -0.1730
  817MPD2    C112074   4.215   4.430   9.799 -0.3342  0.6676 -0.7121
  817MPD2    C212075   4.095   4.491   9.789 -0.4773  0.0371 -0.7188
  817MPD2    C312076   4.074   4.623   9.825 -0.0234  0.7849 -0.1084
  817MPD2    C412077   4.175   4.694   9.870 -0.0753  0.1722 -0.3888
  817MPD2    C512078   4.299   4.632   9.883 -0.1696 -0.1980 -0.2773
  817MPD2     H12079   4.016   4.438   9.738 -1.1450 -0.7652  1.1676
  817MPD2    H112080   4.172   0.060   9.892 -0.5720  0.2567 -0.8709
  817MPD2    H212081   4.423   4.459   9.857 -1.3355 -2.3240  4.6256
  817MPD2    H312082   4.386   4.695   9.898 -0.7406  0.1489  1.5232
  817MPD2     N12083   3.945   4.672   9.804 -0.2808 -0.8517 -0.2795
  817MPD2    H512084   3.875   4.607   9.771  0.4801 -2.6396  1.6335
  817MPD2    N112085   4.221   4.296   9.750 -0.1435 -0.1449  0.0177
  817MPD2    H712086   4.129   4.272   9.714  0.1966 -1.3232 -0.0672
  818MPD2     C12087   2.897   4.131   9.995 -0.1424  0.0553 -0.8050
  818MPD2    C112088   2.762   4.115  10.022 -0.4509  0.2175  0.2445
  818MPD2    C212089   2.712   3.987  10.002  0.2437  0.3946 -0.4780
  818MPD2    C312090   2.790   3.876   9.974 -0.1629  0.4640  0.1936
  818MPD2    C412091   2.922   3.905   9.952 -0.0587  0.2946 -0.5484
  818MPD2    C512092   2.977   4.030   9.951  0.2682  0.1597 -0.3019
  818MPD2     H12093   2.606   3.989  10.022  0.2820 -1.6743 -0.0539
  818MPD2    H112094   2.985   3.824   9.916  1.7074  1.2905  0.2719
  818MPD2    H212095   2.929   4.235   9.992  1.3446 -0.3811 -0.1464
  818MPD2    H312096   3.077   4.045   9.912  0.3170 -1.8998 -0.9563
  818MPD2     N12097   2.745   3.741   9.983  0.3164  0.5306  0.0425
  818MPD2    H512098   2.802   3.658   9.978  1.2010  1.1469 -0.1091
  818MPD2    N112099   2.676   4.220  10.063  0.1592 -0.3435  0.5746
  818MPD2    H712100   2.593   4.180  10.105 -0.6715  2.1561  1.3193
  819MPD2     C12101   0.503   1.745  15.437  0.7669 -0.7876 -0.2489
  819MPD2    C112102   0.423   1.637  15.459 -0.0294  0.0953 -0.0467
  819MPD2    C212103   0.453   1.552  15.565 -0.2296  0.2693 -0.5764
  819MPD2    C312104   0.567   1.573  15.647  0.2139  0.2796  0.0834
  819MPD2    C412105   0.637   1.693  15.625 -0.3553 -0.2051 -0.8651
  819MPD2    C512106   0.602   1.775  15.525 -0.9989  0.2208  0.2021
  819MPD2     H12107   0.407   1.455  15.577 -0.8042  0.5426 -0.5985
  819MPD2    H112108   0.724   1.721  15.683 -0.9830 -1.5515  0.7395
  819MPD2    H212109   0.480   1.817  15.359  2.3992 -0.1064 -0.1136
  819MPD2    H312110   0.651   1.869  15.500 -2.4870  0.4942 -1.7131
  819MPD2     N12111   0.604   1.481  15.750  0.5863  0.2618 -0.3798
  819MPD2    H512112   0.543   1.401  15.766  0.1174  1.0016  1.5755
  819MPD2    N112113   0.324   1.606  15.366 -0.3113 -0.2744 -0.3211
  819MPD2    H712114   0.348   1.630  15.271  0.7370 -0.0768 -0.0092
  820MPD2     C12115   4.621   1.657  14.469 -0.2798  0.0178  0.1392
  820MPD2    C112116   4.600   1.751  14.568  0.1602  0.8968 -0.2218
  820MPD2    C212117   4.649   1.730  14.698  0.0079  0.3780  0.2768
  820MPD2    C312118   4.728   1.620  14.724 -0.5473 -0.1612  0.0991
  820MPD2    C412119   0.017   1.539  14.614 -0.6659  0.0207  0.2293
  820MPD2    C512120   4.703   1.551  14.493  0.0883  0.4233  0.3000
  820MPD2     H12121   4.630   1.807  14.773 -0.5713  0.2546  0.2551
  820MPD2    H112122   0.077   1.450  14.626  0.4402  0.4730 -2.0450
  820MPD2    H212123   4.584   1.664  14.368  1.0117 -0.8398 -0.3921
  820MPD2    H312124   4.737   1.485  14.413 -1.0045 -0.7674  0.8347
  820MPD2     N12125   0.038   1.581  14.850 -0.4148  0.0236  0.1166
  820MPD2    H512126   0.074   1.486  14.855  2.0708  1.0422  1.3044
  820MPD2    N112127   4.484   1.824  14.542 -0.5192  0.0272 -1.1550
  820MPD2    H712128   4.446   1.811  14.449 -0.0359 -1.0704 -1.1998
  821MPD2     C12129   0.653   2.560  12.838  0.6694  0.2474  0.0463
  821MPD2    C112130   0.688   2.621  12.960  0.0468 -0.0243 -0.5880
  821MPD2    C212131   0.737   2.750  12.956  0.2517  0.8990 -0.1403
  821MPD2    C312132   0.733   2.817  12.838 -0.2129 -0.6109 -0.6895
  821MPD2    C412133   0.682   2.766  12.724 -0.2855  0.2149 -0.4455
  821MPD2    C512134   0.650   2.633  12.723 -0.1588  0.1838 -0.2006
  821MPD2     H12135   0.774   2.798  13.046  2.0477 -0.4479 -0.1431
  821MPD2    H112136   0.677   2.830  12.637  3.0451  1.1450  0.0187
  821MPD2    H212137   0.624   2.455  12.831 -1.8501  0.8941  0.8379
  821MPD2    H312138   0.629   2.587  12.627 -0.4761  0.9034 -0.4781
  821MPD2     N12139   0.758   2.956  12.836 -0.0320 -0.2031  0.3680
  821MPD2    H512140   0.751   2.995  12.742  0.9170  0.0273  0.3906
  821MPD2    N112141   0.696   2.552  13.080 -0.0216 -0.4324  0.4419
  821MPD2    H712142   0.734   2.606  13.157 -0.4057 -1.3853  1.2931
  822MPD2     C12143   1.258   2.946  15.586  0.2417  1.0375 -0.5576
  822MPD2    C112144   1.244   2.922  15.718 -0.0464 -0.6994 -0.7090
  822MPD2    C212145   1.173   3.008  15.795 -0.2863 -0.0724  0.0919
  822MPD2    C312146   1.103   3.116  15.735  0.1873  0.3228  0.1998
  822MPD2    C412147   1.107   3.127  15.601 -0.1370 -0.2312 -0.0348
  822MPD2    C512148   1.179   3.041  15.526  0.1113 -0.1067  0.1090
  822MPD2     H12149   1.155   3.000  15.902  1.2888  0.1296  0.3629
  822MPD2    H112150   1.056   3.207  15.550 -1.0981 -0.0512  1.2124
  822MPD2    H212151   1.320   2.879  15.528 -0.0531 -0.2279  0.5743
  822MPD2    H312152   1.185   3.054  15.419 -3.0282  2.4501  0.2434
  822MPD2     N12153   1.017   3.194  15.819 -0.1167 -0.7336 -0.2506
  822MPD2    H512154   1.018   3.179  15.920 -0.8216  3.7420  0.4328
  822MPD2    N112155   1.313   2.826  15.789  0.2644 -0.1763  0.3924
  822MPD2    H712156   1.276   2.807  15.882 -0.8093 -1.7444 -0.3662
  823MPD2     C12157   0.722   3.277  16.586  0.0503  0.7208 -0.2783
  823MPD2    C112158   0.762   3.207  16.474  0.1648 -0.2146  0.1272
  823MPD2    C212159   0.822   3.080  16.496 -1.2346  0.2566 -0.0917
  823MPD2    C312160   0.802   3.009  16.616  0.0921  0.1819 -0.0557
  823MPD2    C412161   0.742   3.074  16.719  0.6321 -0.1248  0.5686
  823MPD2    C512162   0.698   3.208  16.704 -0.0159  0.0814 -0.0248
  823MPD2     H12163   0.856   3.032  16.405 -0.3536 -0.6580  0.7140
  823MPD2    H112164   0.722   3.023  16.813 -0.7296  0.4243  0.5903
  823MPD2    H212165   0.692   3.380  16.572  3.0801  1.9130  2.1081
  823MPD2    H312166   0.668   3.256  16.797  0.4313 -1.7113  1.0335
  823MPD2     N12167   0.854   2.887  16.648 -0.1357  0.4253  0.0747
  823MPD2    H512168   0.831   2.862  16.744 -2.6792 -0.0687 -0.6624
  823MPD2    N112169   0.753   3.273  16.350  0.1013 -0.5003 -0.5648
  823MPD2    H712170   0.740   3.374  16.349  1.3846 -0.3431 -1.7139
  824MPD2     C12171   1.747   2.055  15.811 -0.0023  0.0879  0.1239
  824MPD2    C112172   1.657   2.127  15.730 -0.0874 -0.0809 -0.2925
  824MPD2    C212173   1.616   2.068  15.614  0.4652  0.5046 -0.6049
  824MPD2    C312174   1.678   1.952  15.567 -0.4928  0.1225  0.3163
  824MPD2    C412175   1.776   1.898  15.638  0.4419  0.3192  0.0874
  824MPD2    C512176   1.805   1.941  15.762 -0.1475 -0.6821 -0.4125
  824MPD2     H12177   1.544   2.119  15.551 -0.8130  1.4280  1.6008
  824MPD2    H112178   1.841   1.819  15.599 -0.1508 -0.1781  0.1117
  824MPD2    H212179   1.773   2.087  15.911 -0.8402 -1.2374  0.7645
  824MPD2    H312180   1.892   1.900  15.811 -1.2519 -1.0337  1.2554
  824MPD2     N12181   1.645   1.910  15.435 -0.3370 -0.0731  0.9228
  824MPD2    H512182   1.588   1.977  15.385  1.4870  0.5512 -0.3301
  824MPD2    N112183   1.600   2.243  15.774 -0.3148  0.5020  0.1421
  824MPD2    H712184   1.526   2.277  15.714  0.0281  0.3583 -0.3604
  825MPD2     C12185   2.154   2.130  14.804  0.0586  0.0868  0.2816
  825MPD2    C112186   2.098   2.113  14.929  0.4892 -0.7654  0.5368
  825MPD2    C212187   2.150   2.183  15.039  0.1514  0.7600  0.6429
  825MPD2    C312188   2.251   2.276  15.023  0.0604  0.1843 -0.3984
  825MPD2    C412189   2.306   2.290  14.899 -0.4861  0.5143 -0.8238
  825MPD2    C512190   2.266   2.206  14.796  0.6966  0.7718 -0.1351
  825MPD2     H12191   2.105   2.182  15.138 -0.4825 -2.8280  0.3092
  825MPD2    H112192   2.383   2.363  14.882 -0.5886  1.1902  1.6553
  825MPD2    H212193   2.126   2.067  14.720 -0.4466 -0.9892  1.2519
  825MPD2    H312194   2.314   2.219  14.700 -2.6432 -1.8045 -2.1492
  825MPD2     N12195   2.295   2.367  15.125  0.1297 -0.8816 -0.3587
  825MPD2    H512196   2.358   2.444  15.103 -3.0025  1.9612  0.6272
  825MPD2    N112197   1.989   2.024  14.948 -0.2213  0.2614  0.1781
  825MPD2    H712198   1.953   1.965  14.874  1.2936 -0.2170 -0.1626
  826MPD2     C12199   1.513   1.730  13.611 -0.0623  0.2269  0.3633
  826MPD2    C112200   1.594   1.796  13.524 -0.3744  0.6679 -0.2146
  826MPD2    C212201   1.558   1.928  13.502 -0.0678 -0.4944  0.3355
  826MPD2    C312202   1.460   1.990  13.580 -0.3127 -0.1425  0.3519
  826MPD2    C412203   1.371   1.920  13.659  0.8289 -0.1352  0.2258
  826MPD2    C512204   1.398   1.782  13.667  0.0393  0.1323  0.0954
  826MPD2     H12205   1.620   1.989  13.438  0.0971 -0.6706  0.3257
  826MPD2    H112206   1.295   1.963  13.724  0.9712 -1.9797  1.5982
  826MPD2    H212207   1.528   1.624  13.628 -1.2021  0.3656  2.2813
  826MPD2    H312208   1.332   1.726  13.732  0.4232 -1.2690 -0.7247
  826MPD2     N12209   1.435   2.128  13.572 -0.1405 -0.3713  0.1394
  826MPD2    H512210   1.351   2.157  13.621  0.1420 -0.5894  0.7494
  826MPD2    N112211   1.715   1.736  13.483 -0.1710 -0.4412  1.1455
  826MPD2    H712212   1.729   1.644  13.524  0.7325 -0.3581  1.0094
  827MPD2     C12213   2.690   2.526   9.998 -0.8968 -0.2456  0.3448
  827MPD2    C112214   2.612   2.642  10.035  0.5091 -0.6844  0.0897
  827MPD2    C212215   2.489   2.674   9.967  0.4168 -0.3125 -0.2680
  827MPD2    C312216   2.436   2.568   9.893 -1.1455 -0.4233 -0.2045
  827MPD2    C412217   2.515   2.457   9.853  0.9860  0.0834  0.1448
  827MPD2    C512218   2.636   2.436   9.907  0.4092 -0.2640 -0.8498
  827MPD2     H12219   2.431   2.765   9.971  0.2058 -0.3983 -1.2543
  827MPD2    H112220   2.481   2.370   9.798  2.8290 -0.2923 -0.3936
  827MPD2    H212221   2.789   2.509  10.039 -0.2567 -0.6852 -1.3548
  827MPD2    H312222   2.699   2.354   9.874  0.1573 -0.2747 -1.3049
  827MPD2     N12223   2.309   2.573   9.844 -0.1067  0.6118  0.2292
  827MPD2    H512224   2.260   2.661   9.839  1.4994  1.4700 -0.5358
  827MPD2    N112225   2.657   2.718  10.141 -0.0497 -0.1170 -0.3995
  827MPD2    H712226   2.754   2.702  10.167  0.1002  1.2999 -0.0798
  828MPD2     C12227   1.282   3.131  12.223  0.2691 -0.1486 -0.2941
  828MPD2    C112228   1.225   3.076  12.114  0.3327  0.7062 -0.3271
  828MPD2    C212229   1.300   3.001  12.017  0.7103 -0.2179  0.1961
  828MPD2    C312230   1.429   2.961  12.045 -0.0227 -0.3204  0.2389
  828MPD2    C412231   1.485   3.018  12.154  0.5825  0.2581 -0.1486
  828MPD2    C512232   1.415   3.089  12.244 -0.2904  0.5597  0.1146
  828MPD2     H12233   1.243   2.976  11.928 -0.5834  0.7119  0.7595
  828MPD2    H112234   1.591   2.999  12.168 -0.1166 -2.9313  0.8548
  828MPD2    H212235   1.235   3.185  12.303  1.1203  0.0525  0.0708
  828MPD2    H312236   1.467   3.133  12.329  1.1878 -1.1425  0.0875
  828MPD2     N12237   1.511   2.884  11.960 -0.1778  0.0931 -0.1231
  828MPD2    H512238   1.611   2.898  11.948  0.0440 -0.1112  1.5167
  828MPD2    N112239   1.084   3.077  12.082 -0.1879 -0.3301  0.0292
  828MPD2    H712240   1.061   3.018  12.003 -0.1173 -0.8014  0.3629
  829MPD2     C12241   0.920   2.535  11.486 -0.6197 -0.6948 -0.2807
  829MPD2    C112242   0.794   2.559  11.516 -0.3664  0.2365  0.2375
  829MPD2    C212243   0.768   2.650  11.615  0.0274 -0.3225 -1.0284
  829MPD2    C312244   0.866   2.730  11.672  0.0948  0.0977 -0.3091
  829MPD2    C412245   0.994   2.701  11.640  0.1557 -0.7531 -0.1003
  829MPD2    C512246   1.019   2.607  11.542  0.3118  0.2231 -0.2586
  829MPD2     H12247   0.667   2.662  11.653  0.0428  0.2821 -1.1802
  829MPD2    H112248   1.070   2.769  11.677  1.0293 -0.4414 -2.4899
  829MPD2    H212249   0.950   2.453  11.421  0.5979 -0.1458 -0.3969
  829MPD2    H312250   1.123   2.588  11.518  0.2213 -0.0049 -0.4586
  829MPD2     N12251   0.850   2.835  11.770 -0.2751 -0.0051 -0.1184
  829MPD2    H512252   0.931   2.884  11.808 -2.0566  1.1868  2.1474
  829MPD2    N112253   0.700   2.479  11.452 -0.3791 -0.3815 -0.3181
  829MPD2    H712254   0.730   2.436  11.365 -1.3003 -0.3755 -0.6375
  830MPD2     C12255   0.944   0.715  15.815 -0.0231  0.0772  1.2368
  830MPD2    C112256   0.915   0.845  15.769  0.1869 -0.3009  0.5345
  830MPD2    C212257   0.964   0.890  15.648 -0.0621 -0.3148 -0.0172
  830MPD2    C312258   1.043   0.806  15.572  0.2586  0.3215  0.1624
  830MPD2    C412259   1.074   0.681  15.624  0.2200  0.2220  0.5748
  830MPD2    C512260   1.027   0.633  15.741 -0.1557  1.1216  0.4358
  830MPD2     H12261   0.935   0.987  15.610 -0.2658  0.3116  1.7299
  830MPD2    H112262   1.144   0.614  15.575 -1.7742 -0.8984 -0.7512
  830MPD2    H212263   0.909   0.670  15.907 -0.1089 -0.8445  0.7449
  830MPD2    H312264   1.045   0.532  15.777  0.2309  1.3703  0.9404
  830MPD2     N12265   1.100   0.843  15.449  0.3108  0.3906  0.0828
  830MPD2    H512266   1.174   0.784  15.412 -0.7257 -0.8218 -0.0696
  830MPD2    N112267   0.836   0.929  15.849 -0.4044  0.2860 -0.0560
  830MPD2    H712268   0.818   0.895  15.943 -0.7549  0.2223 -0.1461
  831MPD2     C12269   1.312   3.285  16.129 -0.2284 -0.3095  0.3661
  831MPD2    C112270   1.358   3.161  16.082 -0.6484  0.1729  0.2412
  831MPD2    C212271   1.279   3.049  16.110 -0.1038 -0.3751 -0.3115
  831MPD2    C312272   1.155   3.053  16.179  0.0754 -0.0232 -0.6629
  831MPD2    C412273   1.127   3.174  16.235  0.5894 -0.2280 -0.3482
  831MPD2    C512274   1.197   3.288  16.207  0.0753  0.3999 -0.3368
  831MPD2     H12275   1.318   2.949  16.092  1.3125  0.5904 -2.5745
  831MPD2    H112276   1.042   3.193  16.301  0.9266 -3.4330  0.9824
  831MPD2    H212277   1.370   3.375  16.110  0.5457 -0.8494  0.1750
  831MPD2    H312278   1.158   3.378  16.251 -1.0590 -0.2913  0.0519
  831MPD2     N12279   1.064   2.947  16.192  0.2662 -0.0024  0.1989
  831MPD2    H512280   0.983   2.957  16.252  0.2375 -2.8899  0.6742
  831MPD2    N112281   1.469   3.158  15.999 -0.5677  0.6438  0.3801
  831MPD2    H712282   1.492   3.247  15.954  0.1973  1.0782  1.6405
  832MPD2     C12283   4.378   4.408  17.136 -0.6861 -0.1966 -0.0067
  832MPD2    C112284   4.382   4.488  17.022  0.0483 -0.0824  0.0355
  832MPD2    C212285   4.315   4.453  16.908  0.5972  0.5272 -0.4666
  832MPD2    C312286   4.220   4.350  16.921 -0.6612 -0.2356 -0.9512
  832MPD2    C412287   4.207   4.281  17.045 -0.4284 -0.0141 -0.2290
  832MPD2    C512288   4.290   4.311  17.151  0.1996 -0.0935 -0.2577
  832MPD2     H12289   4.333   4.501  16.812  0.8464 -0.7221 -1.0349
  832MPD2    H112290   4.137   4.198  17.050  2.7949 -2.5420  2.1698
  832MPD2    H212291   4.456   4.413  17.211  0.6571 -0.7900 -1.3623
  832MPD2    H312292   4.273   4.251  17.240  0.8323 -0.7896 -0.6098
  832MPD2     N12293   4.140   4.302  16.811  0.1211 -0.3487 -1.0740
  832MPD2    H512294   4.088   4.216  16.825 -1.7173  0.9832  0.1557
  832MPD2    N112295   4.477   4.593  17.032  0.0666 -0.5542  0.2094
  832MPD2    H712296   4.525   4.595  17.122 -1.4366  1.0049  0.9544
  833MPD2     C12297   2.185   0.479  12.450 -0.3984  0.0433  0.4270
  833MPD2    C112298   2.154   0.599  12.389 -0.1724  0.3650 -0.5910
  833MPD2    C212299   2.123   0.605  12.255  0.1748  0.4928 -0.2641
  833MPD2    C312300   2.129   0.488  12.185  0.4336 -0.2049 -0.3129
  833MPD2    C412301   2.156   0.366  12.246  1.5004 -0.1753  0.2278
  833MPD2    C512302   2.173   0.365  12.385 -1.4642 -0.0827 -0.0720
  833MPD2     H12303   2.112   0.705  12.215  0.2491  0.1272 -1.1946
  833MPD2    H112304   2.158   0.270  12.196 -0.6749 -0.0041 -0.1619
  833MPD2    H212305   2.208   0.474  12.556  0.0477 -1.1387  0.2715
  833MPD2    H312306   2.191   0.273  12.439 -0.7619  0.0657 -0.0531
  833MPD2     N12307   2.109   0.480  12.049  0.3791  0.5104 -1.0661
  833MPD2    H512308   2.100   0.386  12.013  0.5873  0.4602 -0.9869
  833MPD2    N112309   2.169   0.712  12.475  0.0754  0.5677 -0.2626
  833MPD2    H712310   2.237   0.695  12.548  1.0658 -1.2277 -1.5821
  834MPD2     C12311   1.547   4.695  11.553  0.5191  0.0955  1.1541
  834MPD2    C112312   1.611   0.018  11.451 -0.4243  0.4371 -0.0167
  834MPD2    C212313   1.664   0.147  11.483 -0.5577  0.3414  0.0789
  834MPD2    C312314   1.647   0.194  11.611  0.5013  0.4257  0.7484
  834MPD2    C412315   1.591   0.123  11.713  0.5174 -0.3929  0.5786
  834MPD2    C512316   1.545   0.001  11.680  0.1934 -0.4817 -1.0908
  834MPD2     H12317   1.715   0.202  11.405  1.9513 -0.0935  1.3959
  834MPD2    H112318   1.567   0.164  11.811  0.7210  1.9419 -0.3486
  834MPD2    H212319   1.521   4.591  11.541  0.8486 -0.0085  1.3314
  834MPD2    H312320   1.490   4.691  11.759 -1.2343  0.2778 -1.6048
  834MPD2     N12321   1.700   0.321  11.635 -0.1261  0.2682  0.4204
  834MPD2    H512322   1.746   0.374  11.562  1.1641 -0.6694  0.5377
  834MPD2    N112323   1.629   4.687  11.330  0.0946 -0.8327  0.0001
  834MPD2    H712324   1.587   4.594  11.327 -0.6169 -0.5202  0.3756
  835MPD2     C12325   2.018   2.608  11.055 -0.4643  0.8003  0.2613
  835MPD2    C112326   1.981   2.736  11.088  0.8006 -0.4579  0.1600
  835MPD2    C212327   2.071   2.827  11.151  0.5096  0.0190 -0.4560
  835MPD2    C312328   2.189   2.779  11.197  0.4505 -0.6480 -0.2364
  835MPD2    C412329   2.231   2.646  11.159 -0.2775  0.2688 -0.3402
  835MPD2    C512330   2.145   2.572  11.092  0.3171  0.5564  0.0368
  835MPD2     H12331   2.028   2.922  11.182 -1.1683 -1.4199  1.6417
  835MPD2    H112332   2.315   2.597  11.207 -1.5503 -1.5415  0.0297
  835MPD2    H212333   1.960   2.549  10.985  1.1970  0.0984 -0.5272
  835MPD2    H312334   2.177   2.473  11.063 -0.0477  0.3311  0.3932
  835MPD2     N12335   2.271   2.840  11.295  0.2695 -0.3778  0.4334
  835MPD2    H512336   2.325   2.780  11.356 -0.7105 -2.0864 -0.3746
  835MPD2    N112337   1.847   2.784  11.071  0.0361 -0.2180 -0.5533
  835MPD2    H712338   1.823   2.871  11.117  0.4852 -0.8383  0.8387
  836MPD2     C12339   1.692   2.917  11.596 -0.3767 -0.0467 -0.1866
  836MPD2    C112340   1.772   3.008  11.670 -0.7912 -0.2589  0.1918
  836MPD2    C212341   1.715   3.116  11.738 -0.2628  0.0815 -0.6794
  836MPD2    C312342   1.578   3.134  11.726 -0.3911 -0.2265 -1.0248
  836MPD2    C412343   1.511   3.050  11.636 -1.1321  0.3757 -0.3090
  836MPD2    C512344   1.561   2.933  11.578 -1.1142  0.0732 -0.6841
  836MPD2     H12345   1.777   3.179  11.801 -1.9410  0.5235  0.5308
  836MPD2    H112346   1.405   3.065  11.622 -0.7056  1.3255 -2.5538
  836MPD2    H212347   1.733   2.836  11.538  0.1678 -0.2799  0.5357
  836MPD2    H312348   1.501   2.874  11.510 -0.6040  0.6481 -1.6243
  836MPD2     N12349   1.505   3.235  11.784  0.3962  0.1354  0.7611
  836MPD2    H512350   1.415   3.258  11.742 -0.1616 -1.5669  1.0039
  836MPD2    N112351   1.913   2.975  11.664  0.8614 -0.1679 -0.0161
  836MPD2    H712352   1.947   2.917  11.588 -0.5865 -0.8100 -0.1776
  837MPD2     C12353   0.275   2.686   9.758 -1.0284  0.2757  0.6089
  837MPD2    C112354   0.149   2.716   9.715  0.2776 -0.5260 -0.6995
  837MPD2    C212355   0.122   2.848   9.675  0.9758 -0.1919  0.1555
  837MPD2    C312356   0.219   2.941   9.703 -0.3207 -0.1057 -0.6630
  837MPD2    C412357   0.341   2.913   9.769  0.1291  0.7386  0.4215
  837MPD2    C512358   0.367   2.779   9.773  0.0401 -0.1553 -0.1259
  837MPD2     H12359   0.026   2.884   9.639 -0.4199 -2.1746  1.8851
  837MPD2    H112360   0.422   2.983   9.785 -0.8493  2.0940 -0.5276
  837MPD2    H212361   0.298   2.583   9.787  2.8483  1.2621  1.0840
  837MPD2    H312362   0.463   2.749   9.814 -0.3791 -0.4630  0.6178
  837MPD2     N12363   0.172   3.073   9.690  0.5771  0.2948  0.8809
  837MPD2    H512364   0.080   3.079   9.649 -1.5824 -0.3113  5.6475
  837MPD2    N112365   0.043   2.620   9.718 -0.1513 -0.1546  0.5174
  837MPD2    H712366   4.695   2.664   9.692  1.0487  1.1935 -1.3197
  838MPD2     C12367   2.633   0.717  11.463 -0.3788  0.2133 -1.0131
  838MPD2    C112368   2.687   0.790  11.571 -0.2849  0.1328 -1.0740
  838MPD2    C212369   2.649   0.753  11.700 -0.5286 -0.0637 -0.4451
  838MPD2    C312370   2.572   0.640  11.726 -0.1115  0.8813 -0.0148
  838MPD2    C412371   2.528   0.566  11.621  0.1753 -0.4949 -0.5063
  838MPD2    C512372   2.562   0.606  11.498 -0.2725 -0.2972 -0.0548
  838MPD2     H12373   2.670   0.809  11.790  0.5429 -0.9143 -0.1642
  838MPD2    H112374   2.476   0.471  11.637  0.0829 -0.3305  0.2026
  838MPD2    H212375   2.660   0.737  11.360  0.5634  2.2434 -0.3736
  838MPD2    H312376   2.533   0.538  11.419 -0.3109 -1.2686  0.7901
  838MPD2     N12377   2.533   0.625  11.862  0.2553  0.0663  0.4539
  838MPD2    H512378   2.562   0.694  11.929 -0.4577  2.8243 -2.0853
  838MPD2    N112379   2.781   0.892  11.569  0.2340 -0.4382  1.0082
  838MPD2    H712380   2.812   0.927  11.659  1.4233  0.7258  0.1530
  839MPD2     C12381   2.834   0.613  12.080  0.2596 -1.0636  0.0682
  839MPD2    C112382   2.868   0.591  11.949 -0.2950 -0.1704  0.2641
  839MPD2    C212383   2.942   0.686  11.885  0.0192 -0.1000 -0.4181
  839MPD2    C312384   2.994   0.797  11.951 -0.0018  0.1167  0.0187
  839MPD2    C412385   2.967   0.812  12.082  0.4807 -0.6272  0.3874
  839MPD2    C512386   2.886   0.719  12.141  0.0439  0.1107 -0.4604
  839MPD2     H12387   2.963   0.670  11.780  2.6825  1.1912 -0.0598
  839MPD2    H112388   2.999   0.896  12.142  0.1877 -1.8300  2.2273
  839MPD2    H212389   2.761   0.550  12.129 -0.1133 -0.9528 -0.3451
  839MPD2    H312390   2.859   0.736  12.245 -1.1165 -1.9316 -0.4428
  839MPD2     N12391   3.059   0.896  11.876 -0.1559 -0.6741  0.5850
  839MPD2    H512392   3.077   0.982  11.925 -0.5694  0.7036 -1.6519
  839MPD2    N112393   2.829   0.480  11.881 -0.7263 -0.4802  0.0276
  839MPD2    H712394   2.871   0.470  11.790 -1.9365 -1.9996 -0.3712
  840MPD2     C12395   3.085   3.230  10.078  0.5395 -0.4631 -0.0415
  840MPD2    C112396   3.105   3.161  10.195  0.5970 -0.0646  0.3313
  840MPD2    C212397   3.220   3.182  10.271 -0.0900  0.3827  0.0440
  840MPD2    C312398   3.312   3.281  10.231 -0.3143 -0.7403  0.4025
  840MPD2    C412399   3.284   3.353  10.120 -0.0384  0.2378  0.1287
  840MPD2    C512400   3.175   3.319  10.041 -0.0436  0.0477  0.7493
  840MPD2     H12401   3.249   3.125  10.358 -1.5998 -0.5027 -0.0269
  840MPD2    H112402   3.343   3.436  10.080  3.8147 -1.5029  2.2044
  840MPD2    H212403   2.993   3.215  10.022 -0.0602 -1.8230  1.3109
  840MPD2    H312404   3.160   3.377   9.951  0.5019  1.0094  1.2718
  840MPD2     N12405   3.434   3.302  10.292 -0.1239 -0.2669  0.0532
  840MPD2    H512406   3.494   3.374  10.253 -1.0231 -0.3277 -1.4575
  840MPD2    N112407   3.002   3.077  10.245  0.4362 -0.7895 -0.7883
  840MPD2    H712408   2.917   3.077  10.190  0.1002  1.5415 -0.2370
  841MPD2     C12409   2.186   3.391  14.832  0.3565  0.7840  0.7704
  841MPD2    C112410   2.257   3.332  14.725  0.9272  0.6358  0.4430
  841MPD2    C212411   2.397   3.324  14.734 -0.0883 -0.1990 -0.3010
  841MPD2    C312412   2.468   3.358  14.845 -0.0889 -0.1362  0.4491
  841MPD2    C412413   2.400   3.421  14.949 -0.7082  0.3260  0.1876
  841MPD2    C512414   2.258   3.432  14.943 -0.3338  0.0231 -0.6443
  841MPD2     H12415   2.451   3.274  14.654  0.3767  0.9890 -0.7362
  841MPD2    H112416   2.449   3.466  15.035 -0.3066  3.0043 -1.4340
  841MPD2    H212417   2.082   3.420  14.826 -0.2051 -1.1689  1.0875
  841MPD2    H312418   2.202   3.473  15.026 -0.2582  0.9170 -1.0309
  841MPD2     N12419   2.602   3.326  14.843  0.0324 -0.1645  0.4813
  841MPD2    H512420   2.642   3.279  14.763  1.7706  0.5665  0.9172
  841MPD2    N112421   2.184   3.298  14.607  0.3260  0.6111 -0.7706
  841MPD2    H712422   2.235   3.276  14.521 -0.1500 -0.5732 -0.7463
  842MPD2     C12423   3.705   4.521  16.591 -0.0247 -0.3954  0.2645
  842MPD2    C112424   3.602   4.431  16.569 -0.7157 -0.5509  0.0039
  842MPD2    C212425   3.606   4.314  16.638 -0.0480 -0.0871  0.6119
  842MPD2    C312426   3.692   4.295  16.743  0.2260 -0.8970  0.8776
  842MPD2    C412427   3.788   4.388  16.762  0.8760  0.5317 -0.5343
  842MPD2    C512428   3.801   4.502  16.681  0.0148 -0.5468  0.5769
  842MPD2     H12429   3.532   4.235  16.627  1.1290 -1.3328  1.5946
  842MPD2    H112430   3.855   4.382  16.847  0.0925 -1.1486 -0.0363
  842MPD2    H212431   3.698   4.617  16.540  2.2306 -0.2359  0.2721
  842MPD2    H312432   3.882   4.572  16.696  0.1052 -0.7201  0.9059
  842MPD2     N12433   3.675   4.192  16.841 -0.3227  0.1935  0.1171
  842MPD2    H512434   3.764   4.159  16.879 -0.4044  0.7955  0.8283
  842MPD2    N112435   3.502   4.452  16.464 -0.4429 -0.2114 -0.5431
  842MPD2    H712436   3.501   4.542  16.415 -3.0736 -0.4458 -0.9200
  843MPD2     C12437   0.520   1.089  17.441  0.3511 -0.3912  1.5259
  843MPD2    C112438   0.602   0.987  17.493  0.1685 -0.6820 -0.1068
  843MPD2    C212439   0.715   1.008  17.572  0.4953  0.3473 -0.4799
  843MPD2    C312440   0.742   1.143  17.608  0.2615  0.3673 -0.5322
  843MPD2    C412441   0.658   1.245  17.562 -0.4326 -0.3999  0.1577
  843MPD2    C512442   0.548   1.214  17.488  0.6757 -0.1938  0.2508
  843MPD2     H12443   0.784   0.931  17.605  0.0800 -0.2655 -1.0188
  843MPD2    H112444   0.679   1.346  17.595 -2.2174 -0.3273  1.1004
  843MPD2    H212445   0.439   1.062  17.375 -1.5230  1.5457  3.0283
  843MPD2    H312446   0.470   1.288  17.468  0.2783 -0.2549  1.6015
  843MPD2     N12447   0.846   1.179  17.692  0.5611  0.4053 -0.1873
  843MPD2    H512448   0.852   1.279  17.708 -1.0005  0.2209  1.5012
  843MPD2    N112449   0.564   0.852  17.455  0.3282 -0.3323  0.6442
  843MPD2    H712450   0.487   0.846  17.390  1.4491  1.7448 -0.8669
  844MPD2     C12451   4.140   3.744  16.503  0.0195 -0.4151 -0.1817
  844MPD2    C112452   4.167   3.796  16.378  0.5142 -0.4118 -0.4480
  844MPD2    C212453   4.251   3.909  16.370 -0.2460  0.4551  0.0319
  844MPD2    C312454   4.312   3.961  16.487 -0.4498  0.1735 -1.1095
  844MPD2    C412455   4.268   3.904  16.606 -0.0681  0.1255  0.4105
  844MPD2    C512456   4.179   3.802  16.616 -0.4113  0.6199 -0.0876
  844MPD2     H12457   4.271   3.965  16.279 -2.4728  0.6181 -0.3465
  844MPD2    H112458   4.316   3.948  16.692 -0.5873 -0.5397  1.0329
  844MPD2    H212459   4.083   3.652  16.511  1.2631 -1.2103 -0.4939
  844MPD2    H312460   4.155   3.762  16.714 -3.3246  0.9352 -0.6728
  844MPD2     N12461   4.398   4.082  16.482  0.1709  0.2660  0.0209
  844MPD2    H512462   4.422   4.120  16.391  1.6713 -0.5207  0.0875
  844MPD2    N112463   4.126   3.732  16.257  0.3017  0.0555  0.3448
  844MPD2    H712464   4.134   3.790  16.174 -2.0022 -2.6995 -1.7979
  845MPD2     C12465   4.423   0.354  16.372 -0.0427 -0.4684  0.4833
  845MPD2    C112466   4.426   0.331  16.512  0.2236 -0.5678 -0.1836
  845MPD2    C212467   4.434   0.195  16.555  0.3331 -0.6616 -0.4945
  845MPD2    C312468   4.425   0.099  16.465 -0.5509 -0.4073  0.2586
  845MPD2    C412469   4.413   0.125  16.333 -0.4924  0.5521 -0.7472
  845MPD2    C512470   4.410   0.254  16.281 -0.5581  0.0363  0.0100
  845MPD2     H12471   4.442   0.159  16.657  0.6008  2.5198  0.6227
  845MPD2    H112472   4.396   0.040  16.268  0.3983  1.2809 -1.9535
  845MPD2    H212473   4.419   0.451  16.326  0.9147  0.3301  2.0880
  845MPD2    H312474   4.380   0.260  16.177 -1.0172  0.3108  0.1554
  845MPD2     N12475   4.434   4.715  16.522 -0.2313  0.2291 -0.6398
  845MPD2    H512476   4.432   4.713  16.623  2.4261  1.1259 -0.5727
  845MPD2    N112477   4.434   0.442  16.597 -0.3426  0.4060  0.2207
  845MPD2    H712478   4.425   0.534  16.554 -0.4874  0.4963  0.4455
  846MPD2     C12479   1.098   0.150  13.792 -0.5266 -0.7677 -0.5943
  846MPD2    C112480   0.977   0.199  13.772  0.0978 -0.4546  0.4000
  846MPD2    C212481   0.888   0.225  13.873 -0.8295 -0.6348 -0.0213
  846MPD2    C312482   0.912   0.195  14.002 -0.8828  0.3739 -0.4514
  846MPD2    C412483   1.025   0.128  14.026 -0.0947 -0.6684  0.0963
  846MPD2    C512484   1.118   0.113  13.927  0.2510  0.7403 -0.0935
  846MPD2     H12485   0.786   0.253  13.847 -0.9210  0.0264  1.0522
  846MPD2    H112486   1.034   0.070  14.117 -4.1648 -2.5325 -0.6619
  846MPD2    H212487   1.172   0.144  13.713  0.3818 -1.1199  0.2875
  846MPD2    H312488   1.208   0.055  13.943 -0.2893 -0.9377 -3.1057
  846MPD2     N12489   0.808   0.206  14.095  0.0729  0.8052 -0.5546
  846MPD2    H512490   0.722   0.251  14.066 -0.8967 -2.9024 -3.4517
  846MPD2    N112491   0.931   0.228  13.644 -0.1917 -0.1749 -0.6549
  846MPD2    H712492   0.848   0.285  13.643 -0.3373 -0.3737 -0.2135
  847MPD2     C12493   0.560   1.000  14.301 -0.2098 -0.3129  0.3408
  847MPD2    C112494   0.689   1.050  14.326 -0.3573 -0.2522  0.2976
  847MPD2    C212495   0.781   0.965  14.387 -0.1765  0.0715  0.6741
  847MPD2    C312496   0.752   0.832  14.412  0.5917  0.2346  0.1174
  847MPD2    C412497   0.627   0.786  14.386 -0.7205 -0.3740 -0.0206
  847MPD2    C512498   0.535   0.859  14.325 -0.5419 -0.2409  0.9544
  847MPD2     H12499   0.879   1.010  14.395 -1.2873  2.5179  0.3209
  847MPD2    H112500   0.605   0.681  14.404 -1.1871 -0.3497 -0.4310
  847MPD2    H212501   0.491   1.061  14.244 -0.2471  0.1471  0.8770
  847MPD2    H312502   0.435   0.821  14.306  0.3347 -0.0875 -3.9672
  847MPD2     N12503   0.854   0.756  14.456  0.7015  0.1975  0.1282
  847MPD2    H512504   0.944   0.803  14.455 -0.0117  1.5322 -0.9967
  847MPD2    N112505   0.733   1.184  14.292  0.3390  0.1839 -0.0200
  847MPD2    H712506   0.830   1.198  14.320  0.5167  0.0816 -0.5906
  848MPD2     C12507   3.680   4.450  16.126  0.1479  0.4894  0.1586
  848MPD2    C112508   3.796   4.512  16.179 -0.1249 -0.6657 -0.1520
  848MPD2    C212509   3.838   4.629  16.119 -0.2379  0.1153  0.3390
  848MPD2    C312510   3.767   4.678  16.010 -0.1578  0.0998 -0.3916
  848MPD2    C412511   3.655   4.610  15.957  0.6439  0.6718 -0.2236
  848MPD2    C512512   3.608   4.500  16.017  0.5177  0.4169 -0.5025
  848MPD2     H12513   3.927   4.680  16.152 -0.6247 -0.9735  2.9995
  848MPD2    H112514   3.609   4.642  15.864  0.0183  1.4805  0.3612
  848MPD2    H212515   3.632   4.358  16.158 -0.4434  0.4089 -0.9592
  848MPD2    H312516   3.517   4.451  15.985 -0.2971  2.1507 -0.8518
  848MPD2     N12517   3.794   0.058  15.935 -0.9141  0.2003  0.5010
  848MPD2    H512518   3.754   0.069  15.842  0.6431  3.7350  0.2354
  848MPD2    N112519   3.882   4.449  16.281  0.2563 -0.0370 -0.3014
  848MPD2    H712520   3.974   4.488  16.300  0.7952 -1.2237 -0.5019
  849MPD2     C12521   2.113   3.706  14.543 -0.0016  0.4356  0.3627
  849MPD2    C112522   2.217   3.748  14.463  0.0020 -0.6510 -0.0419
  849MPD2    C212523   2.339   3.778  14.518  0.5288 -0.2424 -0.3530
  849MPD2    C312524   2.345   3.771  14.655 -0.2896 -0.1288  0.1026
  849MPD2    C412525   2.237   3.740  14.735 -0.3108 -0.5225  0.2487
  849MPD2    C512526   2.117   3.707  14.679 -0.0995  0.7487  0.5894
  849MPD2     H12527   2.431   3.792  14.463  0.3972  0.9235 -0.2772
  849MPD2    H112528   2.253   3.722  14.840 -0.7390  0.8141  0.5323
  849MPD2    H212529   2.032   3.650  14.499  1.2638 -1.6439  0.7103
  849MPD2    H312530   2.031   3.673  14.735  0.4306 -2.2694 -0.4407
  849MPD2     N12531   2.469   3.774  14.725 -0.0964  0.8512 -0.1377
  849MPD2    H512532   2.470   3.750  14.824 -0.9902 -2.1675 -0.8390
  849MPD2    N112533   2.203   3.734  14.325  0.0568 -0.9890  0.3150
  849MPD2    H712534   2.140   3.663  14.290 -0.8057 -0.8227  1.5220
  850MPD2     C12535   1.401   2.008  14.465  0.9792 -0.6663  0.4027
  850MPD2    C112536   1.381   2.094  14.570 -0.4012  0.5234 -0.7470
  850MPD2    C212537   1.483   2.177  14.615  0.1626  0.2221 -0.0086
  850MPD2    C312538   1.615   2.165  14.569 -0.2589  0.3641  0.2088
  850MPD2    C412539   1.633   2.079  14.462 -0.0580  0.9580 -0.3631
  850MPD2    C512540   1.524   2.009  14.414 -0.1556 -0.1483 -0.1220
  850MPD2     H12541   1.463   2.250  14.693 -0.9298 -0.0682 -0.0106
  850MPD2    H112542   1.732   2.047  14.431 -0.3757  0.2159 -0.6206
  850MPD2    H212543   1.333   1.931  14.432  0.2565  0.7783 -1.4471
  850MPD2    H312544   1.549   1.935  14.339 -0.2351 -0.8067  0.5001
  850MPD2     N12545   1.724   2.232  14.626 -0.2424  0.2369 -0.0098
  850MPD2    H512546   1.810   2.239  14.573 -0.2301 -1.7650 -0.2587
  850MPD2    N112547   1.268   2.083  14.644 -0.3047 -0.3051 -0.6357
  850MPD2    H712548   1.203   2.011  14.615  0.0523 -0.5834 -0.7414
  851MPD2     C12549   1.365   1.722  15.415 -0.2007 -0.4002 -0.3766
  851MPD2    C112550   1.311   1.707  15.285  0.2520  0.5250  0.0105
  851MPD2    C212551   1.293   1.577  15.249  0.0098 -0.3170  0.0346
  851MPD2    C312552   1.319   1.465  15.329 -0.6369  0.2094 -0.1321
  851MPD2    C412553   1.367   1.485  15.454 -0.3603  0.6491 -0.1929
  851MPD2    C512554   1.384   1.620  15.493 -0.6206 -0.3294  0.2129
  851MPD2     H12555   1.274   1.554  15.145 -2.0674  0.8318  0.1449
  851MPD2    H112556   1.387   1.407  15.527 -0.4105  0.4929 -0.3471
  851MPD2    H212557   1.386   1.823  15.449  0.8924 -0.5026 -0.7616
  851MPD2    H312558   1.427   1.653  15.587  0.0116 -1.0369  0.1686
  851MPD2     N12559   1.277   1.343  15.277 -0.1858 -0.6434  0.5296
  851MPD2    H512560   1.217   1.347  15.196  0.2746  1.6857  0.2815
  851MPD2    N112561   1.273   1.816  15.204  0.1436 -0.2067 -0.2818
  851MPD2    H712562   1.282   1.908  15.245  1.0222 -0.4372  0.0458
  852MPD2     C12563   0.732   0.144   9.750 -0.0034 -0.0130 -0.3676
  852MPD2    C112564   0.731   0.034   9.832  0.9470  0.7846  0.0504
  852MPD2    C212565   0.820   0.039   9.940  0.2421 -0.0826  0.2747
  852MPD2    C312566   0.907   0.142   9.957  0.2006 -0.2212  0.2262
  852MPD2    C412567   0.911   0.252   9.871 -1.1329  0.3784  0.1437
  852MPD2    C512568   0.809   0.252   9.773  0.0014 -0.7236 -0.2013
  852MPD2     H12569   0.817   4.703  10.016  0.0435  0.1179  0.4666
  852MPD2    H112570   0.968   0.344   9.873 -1.7506  0.7512  0.6969
  852MPD2    H212571   0.658   0.157   9.673 -1.6288 -1.3986  0.9582
  852MPD2    H312572   0.802   0.347   9.722  1.4400 -1.4304 -1.7360
  852MPD2     N12573   0.989   0.141  10.072  0.5472 -0.0549  0.7014
  852MPD2    H512574   0.996   0.056  10.126  1.0313  0.5128  1.5224
  852MPD2    N112575   0.636   4.671   9.823 -0.1373 -0.2144  0.1292
  852MPD2    H712576   0.641   4.603   9.897 -4.5367  0.4969  1.0716
  853MPD2     C12577   2.614   3.968  12.318 -0.0447  0.3083  0.4052
  853MPD2    C112578   2.573   4.099  12.300 -0.4817  0.3510  0.2882
  853MPD2    C212579   2.574   4.143  12.170 -0.0430 -0.6947  0.6776
  853MPD2    C312580   2.600   4.059  12.065  0.0253  0.8494 -0.2842
  853MPD2    C412581   2.645   3.934  12.089  0.8525 -0.5526 -0.0423
  853MPD2    C512582   2.658   3.891  12.218 -0.1164 -0.7047  0.1970
  853MPD2     H12583   2.559   4.249  12.151  2.0770 -0.8047 -1.6032
  853MPD2    H112584   2.668   3.858  12.016 -1.4323  0.4213 -1.7701
  853MPD2    H212585   2.616   3.936  12.422 -1.6510  3.1940  1.3151
  853MPD2    H312586   2.719   3.803  12.237  1.4309  0.6235  1.4042
  853MPD2     N12587   2.589   4.095  11.931  0.1812  0.0977  0.2841
  853MPD2    H512588   2.611   4.032  11.855 -0.7291  0.3700 -0.2021
  853MPD2    N112589   2.547   4.175  12.415 -0.2569 -0.3068 -0.3134
  853MPD2    H712590   2.563   4.133  12.506 -1.0641 -0.3890 -0.2082
  854MPD2     C12591   4.535   0.453  12.633  0.6878  0.0865 -0.2357
  854MPD2    C112592   4.526   0.364  12.529  0.0611 -0.5490 -0.5401
  854MPD2    C212593   4.581   0.239  12.542 -0.7138  0.0860 -0.1079
  854MPD2    C312594   4.638   0.194  12.660  0.1446 -0.2286  0.0172
  854MPD2    C412595   4.638   0.286  12.763  0.3240  0.6368  0.4082
  854MPD2    C512596   4.589   0.413  12.750  0.9594 -0.1476 -0.2181
  854MPD2     H12597   4.576   0.175  12.455  0.2666  0.5439 -0.4941
  854MPD2    H112598   4.674   0.253  12.859 -0.6541 -1.1567  0.1418
  854MPD2    H212599   4.485   0.549  12.627  0.3122 -0.2535 -2.2517
  854MPD2    H312600   4.598   0.487  12.830  0.1913  2.7020 -2.7806
  854MPD2     N12601   4.700   0.065  12.676  0.5799 -0.6089  0.3787
  854MPD2    H512602   4.740   0.043  12.766 -3.8722 -1.7729  2.0590
  854MPD2    N112603   4.467   0.416  12.413 -0.0143 -0.3919 -0.7407
  854MPD2    H712604   4.447   0.515  12.424 -0.8100 -0.4696 -1.5032
  855MPD2     C12605   4.605   4.460  13.405  0.3211  0.4396 -0.4308
  855MPD2    C112606   4.671   4.347  13.349  0.7292 -0.0720  0.2884
  855MPD2    C212607   4.723   4.354  13.218  0.1890 -0.2523 -0.5478
  855MPD2    C312608   4.689   4.468  13.145  0.1553  0.4349 -0.2037
  855MPD2    C412609   4.612   4.570  13.200 -0.6594 -0.2154 -0.0792
  855MPD2    C512610   4.580   4.577  13.335  0.3938  0.6239  0.4286
  855MPD2     H12611   0.044   4.271  13.187  1.8831  0.9342 -0.4303
  855MPD2    H112612   4.586   4.656  13.140  4.0403 -0.0051 -1.8229
  855MPD2    H212613   4.563   4.458  13.505  2.3475  1.1583  0.4389
  855MPD2    H312614   4.535   4.670  13.367 -0.8215 -0.0718  0.7703
  855MPD2     N12615   0.010   4.492  13.016  0.0236  0.5705  0.2507
  855MPD2    H512616   0.008   4.586  12.978 -0.9443  0.8167  0.8970
  855MPD2    N112617   4.686   4.220  13.411  0.0491 -0.3555 -0.0979
  855MPD2    H712618   0.008   4.150  13.372 -1.6809 -0.3674 -2.7787
  856MPD2     C12619   2.237   0.150  14.151 -0.4097 -0.9946  1.0587
  856MPD2    C112620   2.260   0.284  14.129 -0.8417  0.0275 -0.0255
  856MPD2    C212621   2.152   0.363  14.104 -0.1037 -0.3935 -0.6427
  856MPD2    C312622   2.027   0.316  14.099  0.2065 -0.2412 -0.4246
  856MPD2    C412623   2.007   0.182  14.117 -0.5322  0.4384 -0.3881
  856MPD2    C512624   2.113   0.099  14.145 -0.1117 -0.1507 -0.3114
  856MPD2     H12625   2.167   0.469  14.087  2.6022 -0.8244 -0.9580
  856MPD2    H112626   1.907   0.140  14.122 -0.8665  1.3240  0.4536
  856MPD2    H212627   2.316   0.080  14.178 -0.1847 -0.4377  1.8343
  856MPD2    H312628   2.100   4.733  14.165  0.2353 -0.0256  0.5725
  856MPD2     N12629   1.922   0.402  14.065 -0.7385 -0.3846  0.3281
  856MPD2    H512630   1.835   0.356  14.044 -1.0638  1.7488 -2.9695
  856MPD2    N112631   2.384   0.346  14.117 -0.2949 -0.1455  0.0995
  856MPD2    H712632   2.377   0.443  14.089  1.7371  0.4421  1.6011
  857MPD2     C12633   3.585   2.730  12.993 -0.5142 -0.2225 -0.2817
  857MPD2    C112634   3.611   2.768  12.865 -0.1678 -0.3602 -0.0235
  857MPD2    C212635   3.575   2.893  12.827 -0.2326  0.2472  0.3119
  857MPD2    C312636   3.526   2.993  12.913  0.2870  0.0262  0.4950
  857MPD2    C412637   3.497   2.953  13.040 -1.1151  0.5223 -0.3855
  857MPD2    C512638   3.535   2.827  13.079  0.5391  0.3312 -0.2063
  857MPD2     H12639   3.599   2.922  12.725 -1.0738  3.3014  0.9796
  857MPD2    H112640   3.463   3.019  13.118  2.3297  3.0121 -0.9893
  857MPD2    H212641   3.613   2.635  13.036  0.0131  0.5619  1.0740
  857MPD2    H312642   3.539   2.795  13.182 -0.0573  1.4310  0.1584
  857MPD2     N12643   3.504   3.122  12.862  0.1912 -0.2200  0.2965
  857MPD2    H512644   3.550   3.147  12.774  1.7412  0.9345  1.4346
  857MPD2    N112645   3.669   2.669  12.777  0.6447  0.6054 -0.5890
  857MPD2    H712646   3.666   2.577  12.819 -4.0665  0.3223 -1.5328
  858MPD2     C12647   3.971   1.798  16.545  0.1203  0.5464 -0.5688
  858MPD2    C112648   4.107   1.807  16.540 -0.4955  0.0474 -0.1629
  858MPD2    C212649   4.176   1.879  16.637  0.2151  0.4597  0.0135
  858MPD2    C312650   4.102   1.951  16.735  0.7263  0.2531  0.2640
  858MPD2    C412651   3.964   1.951  16.730  0.0424  0.0674 -0.1173
  858MPD2    C512652   3.904   1.862  16.643  0.2443 -0.0831  0.2541
  858MPD2     H12653   4.284   1.883  16.649  0.1700  1.4791  0.1071
  858MPD2    H112654   3.900   2.009  16.795  0.6845 -0.6171  1.1291
  858MPD2    H212655   3.907   1.743  16.477 -0.1929  0.4673 -0.2119
  858MPD2    H312656   3.796   1.862  16.646  0.1661 -0.1325 -2.4086
  858MPD2     N12657   4.171   2.023  16.835 -1.0532 -0.0455 -0.5325
  858MPD2    H512658   4.107   2.079  16.889 -0.9993 -0.4207 -0.0772
  858MPD2    N112659   4.168   1.745  16.430 -0.0538 -0.1618 -0.0981
  858MPD2    H712660   4.109   1.689  16.370 -1.1250  0.8718  0.0065
  859MPD2     C12661   2.858   3.731  15.980  0.6439  0.3241 -0.2795
  859MPD2    C112662   2.913   3.687  15.864  0.0545  0.1862 -1.3737
  859MPD2    C212663   2.982   3.570  15.855 -0.5114  0.6247  0.1207
  859MPD2    C312664   2.998   3.492  15.973  0.0294  0.5247  0.3027
  859MPD2    C412665   2.943   3.535  16.092  0.1439 -0.5797  0.4681
  859MPD2    C512666   2.871   3.658  16.097  0.3624  0.3982  0.7957
  859MPD2     H12667   3.029   3.547  15.760  2.5834  1.8755  1.3677
  859MPD2    H112668   2.951   3.466  16.175  2.1405 -0.0036  0.7731
  859MPD2    H212669   2.821   3.833  15.980 -0.1186  0.0478 -1.3672
  859MPD2    H312670   2.827   3.696  16.188  1.0734  1.8989  0.5246
  859MPD2     N12671   3.056   3.360  15.983 -0.3697  0.1632  0.7026
  859MPD2    H512672   3.054   3.309  16.071  1.3292  0.0536  0.6879
  859MPD2    N112673   2.911   3.779  15.759  0.8042  0.1545 -0.7131
  859MPD2    H712674   2.875   3.866  15.798  2.0490  0.7580 -0.9176
  860MPD2     C12675   0.692   3.962  11.323 -0.2574  0.2402 -0.1185
  860MPD2    C112676   0.695   4.078  11.398 -0.9387  0.5825 -0.0462
  860MPD2    C212677   0.576   4.137  11.429  0.0931  0.1139  0.0672
  860MPD2    C312678   0.457   4.081  11.392  0.3045  0.7089 -0.3434
  860MPD2    C412679   0.446   3.969  11.308  0.4187  0.6729  0.1219
  860MPD2    C512680   0.563   3.913  11.275 -0.1683 -0.3333  0.1769
  860MPD2     H12681   0.572   4.223  11.495  1.9022  0.6262 -0.4980
  860MPD2    H112682   0.354   3.928  11.268 -0.0341  2.2797 -0.4817
  860MPD2    H212683   0.782   3.912  11.292 -1.2001 -0.6372 -1.4472
  860MPD2    H312684   0.565   3.829  11.206 -0.7972  0.6446 -1.0316
  860MPD2     N12685   0.345   4.134  11.457 -0.2999 -0.2281 -0.5614
  860MPD2    H512686   0.381   4.214  11.509 -0.0885  0.7779 -2.2690
  860MPD2    N112687   0.816   4.121  11.457 -0.4265  0.1154 -0.7350
  860MPD2    H712688   0.800   4.197  11.523 -3.3303  0.4578 -1.8604
  861MPD2     C12689   4.637   2.100  10.829 -0.4278  0.2966 -0.4332
  861MPD2    C112690   4.526   2.092  10.914  0.8235 -0.1854  0.1434
  861MPD2    C212691   4.418   2.163  10.870 -0.2852  0.1694 -0.1733
  861MPD2    C312692   4.411   2.233  10.742  0.1645 -0.2279  0.5816
  861MPD2    C412693   4.517   2.216  10.654 -0.1420  0.3129  0.3136
  861MPD2    C512694   4.623   2.150  10.697 -0.3191  0.0503  0.4398
  861MPD2     H12695   4.328   2.163  10.931  0.1931 -1.2931  0.5390
  861MPD2    H112696   4.513   2.249  10.551  2.2626  3.0681  1.0960
  861MPD2    H212697   4.732   2.051  10.849 -1.4507 -0.6319  2.2407
  861MPD2    H312698   4.711   2.145  10.634  0.0854  2.7899  0.8134
  861MPD2     N12699   4.300   2.309  10.703 -0.0885 -0.3037  0.0340
  861MPD2    H512700   4.305   2.364  10.618 -0.4625  2.3387  1.7297
  861MPD2    N112701   4.520   2.010  11.035 -0.2910  0.2350 -0.9142
  861MPD2    H712702   4.440   2.024  11.097  0.4947 -0.2558  0.2166
  862MPD2     C12703   3.880   2.607  10.156 -0.0613  0.5737 -0.3223
  862MPD2    C112704   3.827   2.602  10.289  0.2350 -0.4352 -0.1046
  862MPD2    C212705   3.695   2.580  10.308 -0.6469  0.4034  0.0494
  862MPD2    C312706   3.613   2.550  10.197  0.0942  0.3479 -0.1810
  862MPD2    C412707   3.663   2.561  10.068 -0.2245 -0.3164 -0.5006
  862MPD2    C512708   3.797   2.576  10.049 -0.7324  0.5875  0.2886
  862MPD2     H12709   3.652   2.584  10.407 -4.2409  0.0249 -1.4906
  862MPD2    H112710   3.604   2.545   9.978 -0.2661 -0.3848 -0.4608
  862MPD2    H212711   3.987   2.623  10.150  0.3594 -2.7635 -1.4376
  862MPD2    H312712   3.838   2.585   9.949 -2.4941 -2.3017 -0.7182
  862MPD2     N12713   3.482   2.510  10.225 -1.0595  0.0947 -0.4146
  862MPD2    H512714   3.462   2.504  10.325  0.2600  0.5061 -0.1232
  862MPD2    N112715   3.905   2.625  10.398 -0.0063  0.4080  0.0406
  862MPD2    H712716   3.852   2.640  10.483  0.0800 -1.2397  0.3746
  863MPD2     C12717   2.858   0.866  16.387  0.0516  0.1271  0.3874
  863MPD2    C112718   2.749   0.864  16.470  0.0053 -0.8346  0.2120
  863MPD2    C212719   2.771   0.824  16.605  0.4057 -0.6029  0.5457
  863MPD2    C312720   2.890   0.785  16.647  0.1228 -0.2152 -0.0502
  863MPD2    C412721   2.999   0.792  16.565 -0.4098 -0.0256 -0.6589
  863MPD2    C512722   2.986   0.835  16.432  0.4104 -0.0187  0.2337
  863MPD2     H12723   2.679   0.808  16.661  0.7602 -0.4864  1.1640
  863MPD2    H112724   3.099   0.760  16.592 -0.4826  1.9664  2.0045
  863MPD2    H212725   2.848   0.898  16.284  2.6897  0.1792  0.1591
  863MPD2    H312726   3.070   0.834  16.364 -1.4165 -1.0559 -2.0070
  863MPD2     N12727   2.922   0.761  16.782 -0.3030 -0.4192 -0.1377
  863MPD2    H512728   3.021   0.745  16.800 -0.2803  1.9934  1.8176
  863MPD2    N112729   2.625   0.900  16.409  0.0790  0.3325 -0.4489
  863MPD2    H712730   2.627   0.908  16.308 -1.1232 -0.1947 -0.5159
  864MPD2     C12731   2.949   2.018  17.125  0.1249  0.5440 -0.7761
  864MPD2    C112732   3.043   1.969  17.042 -0.2371 -0.2624  0.2652
  864MPD2    C212733   3.127   2.053  16.967  0.3991 -0.1501 -0.2896
  864MPD2    C312734   3.115   2.192  16.977  0.0166 -0.2547 -0.0830
  864MPD2    C412735   3.010   2.238  17.056 -0.0329  0.0815 -0.3760
  864MPD2    C512736   2.923   2.153  17.126  0.3905 -0.5970 -0.7219
  864MPD2     H12737   3.191   2.006  16.893 -0.1023  1.5232 -1.8118
  864MPD2    H112738   2.986   2.343  17.067 -2.7251 -0.6863  0.9084
  864MPD2    H212739   2.879   1.951  17.173  0.3208  1.5256  0.8778
  864MPD2    H312740   2.837   2.186  17.183  0.6034  2.8712 -2.4328
  864MPD2     N12741   3.199   2.285  16.913  0.2255  0.3687 -0.0884
  864MPD2    H512742   3.170   2.382  16.922  1.5111  0.7228  0.3093
  864MPD2    N112743   3.044   1.829  17.033  0.1802  0.5126 -0.1554
  864MPD2    H712744   2.963   1.781  17.070 -0.9759  3.0504  0.6519
  865MPD2     C12745   3.331   2.453  16.065  0.3291  0.5902 -0.0395
  865MPD2    C112746   3.296   2.346  16.146  0.2477  0.7304 -0.3402
  865MPD2    C212747   3.272   2.372  16.280 -0.8089  0.7775 -0.7649
  865MPD2    C312748   3.287   2.500  16.334 -0.0863  0.6540  0.4230
  865MPD2    C412749   3.313   2.609  16.254  0.4158  0.0834  1.0920
  865MPD2    C512750   3.337   2.583  16.118  0.8120  0.1413 -0.5947
  865MPD2     H12751   3.243   2.295  16.351 -0.1997  0.5518 -0.7657
  865MPD2    H112752   3.311   2.714  16.282 -1.1259  0.2571  0.3327
  865MPD2    H212753   3.370   2.440  15.965 -0.3163  0.8359 -0.3279
  865MPD2    H312754   3.360   2.669  16.056  1.3212 -0.3946 -1.1493
  865MPD2     N12755   3.273   2.506  16.471 -0.0367  0.0535  0.1149
  865MPD2    H512756   3.258   2.417  16.517 -0.3922 -1.2401 -2.4474
  865MPD2    N112757   3.301   2.221  16.096 -0.7392  0.0613  0.3724
  865MPD2    H712758   3.327   2.225  15.998 -1.4432 -1.8059  0.1171
  866MPD2     C12759   0.074   2.099  11.633 -1.0340 -0.7606  0.0710
  866MPD2    C112760   0.098   2.088  11.494  0.2842  1.2493 -0.0891
  866MPD2    C212761   0.020   2.165  11.401 -0.3711  0.0095 -0.3793
  866MPD2    C312762   4.662   2.243  11.450  0.5202 -0.7352 -0.1681
  866MPD2    C412763   4.638   2.248  11.589  0.1067 -0.0457 -0.5955
  866MPD2    C512764   4.712   2.175  11.679  0.5017  0.2340 -0.0634
  866MPD2     H12765   0.028   2.145  11.294  1.0685 -1.6656  0.0460
  866MPD2    H112766   4.558   2.310  11.628 -0.6837 -0.3881 -1.6835
  866MPD2    H212767   0.141   2.044  11.698 -2.5318  0.8827  3.0154
  866MPD2    H312768   4.694   2.186  11.785  0.5170 -1.1198  0.0687
  866MPD2     N12769   4.576   2.314  11.364  0.0787 -0.0874 -0.7128
  866MPD2    H512770   4.521   2.389  11.404 -1.4417 -0.9648 -1.1732
  866MPD2    N112771   0.208   2.004  11.462  0.0403 -0.0538 -0.4133
  866MPD2    H712772   0.252   1.958  11.541  0.6357  2.2903  0.5903
  867MPD2     C12773   2.029   1.903  16.202  0.3240 -0.0392  0.4251
  867MPD2    C112774   2.072   1.915  16.328 -1.0939  0.0712  0.0713
  867MPD2    C212775   2.076   2.039  16.392 -0.7674 -0.3654  0.3130
  867MPD2    C312776   2.050   2.150  16.315 -0.0483 -0.1488  0.0124
  867MPD2    C412777   2.006   2.129  16.189  0.0424 -0.0427  0.1581
  867MPD2    C512778   1.992   2.008  16.132  0.1482  0.5524 -0.1294
  867MPD2     H12779   2.118   2.055  16.491 -0.8940  0.3211  0.2567
  867MPD2    H112780   1.983   2.215  16.128  1.0948  0.7620  0.9063
  867MPD2    H212781   2.012   1.803  16.164  0.6023  0.1275 -0.1382
  867MPD2    H312782   1.950   1.994  16.033  0.8347 -0.1561 -0.3193
  867MPD2     N12783   2.073   2.284  16.349 -0.3828  0.3358  0.0545
  867MPD2    H512784   2.018   2.346  16.289 -1.4770 -0.8754 -0.1942
  867MPD2    N112785   2.114   1.795  16.395  0.2099 -0.4206  0.0021
  867MPD2    H712786   2.091   1.713  16.340  1.4997  0.4025 -1.7655
  868MPD2     C12787   3.641   1.287  12.705  0.4708 -0.6912 -0.0888
  868MPD2    C112788   3.681   1.211  12.809  0.6139 -0.0217  0.6148
  868MPD2    C212789   3.653   1.245  12.936  0.2514 -0.6850  0.1942
  868MPD2    C312790   3.561   1.345  12.963 -0.5428  0.1206 -0.2777
  868MPD2    C412791   3.513   1.420  12.859  0.1972 -0.4618 -0.3285
  868MPD2    C512792   3.553   1.391  12.732 -0.4242  0.3045  0.6074
  868MPD2     H12793   3.688   1.190  13.022 -1.7116 -0.7684  0.9506
  868MPD2    H112794   3.437   1.495  12.873  0.0653 -0.0936 -3.1358
  868MPD2    H212795   3.667   1.253  12.606  1.5743  1.1651 -0.4530
  868MPD2    H312796   3.504   1.449  12.655 -1.2384 -1.8985 -0.5241
  868MPD2     N12797   3.525   1.361  13.100  0.4836  0.4137 -0.0290
  868MPD2    H512798   3.588   1.317  13.166  1.0594 -1.0959 -1.5835
  868MPD2    N112799   3.762   1.101  12.767  0.7340  0.2139 -0.2761
  868MPD2    H712800   3.784   1.093  12.668 -1.6328 -2.9847 -0.5539
  869MPD2     C12801   4.299   4.458   0.699  0.1784  0.7401 -0.4657
  869MPD2    C112802   4.336   4.543   0.597  0.5972 -0.4729  0.5385
  869MPD2    C212803   4.454   4.521   0.544  0.3173 -0.1988 -0.2964
  869MPD2    C312804   4.539   4.422   0.594  0.2842 -0.5834 -0.1622
  869MPD2    C412805   4.509   4.355   0.710 -0.8983  0.0819  1.1468
  869MPD2    C512806   4.382   4.371   0.755 -0.7110  0.2309  0.2104
  869MPD2     H12807   4.484   4.572   0.453 -0.6682 -0.5863 -0.8367
  869MPD2    H112808   4.573   4.284   0.762  0.5354 -0.4106 -1.2793
  869MPD2    H212809   4.216   4.483   0.764 -0.3759  1.4787 -1.4664
  869MPD2    H312810   4.349   4.312   0.840  0.5455  1.5631  1.6189
  869MPD2     N12811   4.667   4.398   0.533 -0.3674 -0.2390  0.8487
  869MPD2    H512812   4.736   4.339   0.580  0.7064  0.5059  0.2144
  869MPD2    N112813   4.239   4.630   0.543  0.1343  0.4597  0.8561
  869MPD2    H712814   4.144   4.617   0.577  0.5288 -0.5575  1.5356
  870MPD2     C12815   0.799   2.926   1.261  0.2168 -0.0621  0.4373
  870MPD2    C112816   0.669   2.870   1.261 -0.1413 -0.0548 -0.2597
  870MPD2    C212817   0.556   2.951   1.258  0.4998 -0.2183  0.5560
  870MPD2    C312818   0.579   3.087   1.254  0.1252  0.2573  0.0957
  870MPD2    C412819   0.701   3.148   1.272 -0.9029  0.1333 -0.1798
  870MPD2    C512820   0.814   3.064   1.278 -0.5791 -0.1783 -0.0421
  870MPD2     H12821   0.458   2.919   1.225 -0.8113  2.1212  2.1981
  870MPD2    H112822   0.726   3.253   1.266  1.5140 -0.3501  1.6160
  870MPD2    H212823   0.883   2.857   1.265 -0.4423 -0.9399 -0.8273
  870MPD2    H312824   0.913   3.106   1.273 -0.1237 -1.4053 -1.4096
  870MPD2     N12825   0.469   3.171   1.221 -0.1300 -0.3175  0.2787
  870MPD2    H512826   0.379   3.127   1.202 -0.3137 -0.3710  1.2815
  870MPD2    N112827   0.652   2.731   1.238  0.6582  0.2230 -0.3340
  870MPD2    H712828   0.737   2.676   1.230 -0.2422 -1.4224  1.4817
  871MPD2     C12829   1.148   2.487  16.125  0.0016  0.3413  0.4780
  871MPD2    C112830   1.173   2.417  16.240 -0.2722 -0.9175  0.3310
  871MPD2    C212831   1.246   2.297  16.225  0.1420  0.1760 -0.1000
  871MPD2    C312832   1.275   2.243  16.098  0.0027  0.3874  0.0210
  871MPD2    C412833   1.234   2.319  15.990 -0.2755 -0.2663  0.1290
  871MPD2    C512834   1.175   2.440  16.002  0.6529  0.4113  0.0145
  871MPD2     H12835   1.284   2.249  16.314 -0.4274 -1.0653 -0.5336
  871MPD2    H112836   1.255   2.282  15.890  0.1385 -0.6053  0.3432
  871MPD2    H212837   1.094   2.581  16.124 -0.7016 -0.0754 -0.3557
  871MPD2    H312838   1.145   2.500  15.917 -2.4751  0.9154  1.4707
  871MPD2     N12839   1.335   2.118  16.085 -0.4768  0.0207  0.5819
  871MPD2    H512840   1.352   2.064  16.169 -2.3029  1.9879  2.2372
  871MPD2    N112841   1.147   2.476  16.366  0.0288  0.6188  0.0591
  871MPD2    H712842   1.134   2.576  16.365 -0.7343  0.4940 -1.1650
  872MPD2     C12843   1.827   4.414  14.321  0.6113 -0.4396 -0.2437
  872MPD2    C112844   1.780   4.486  14.211 -0.1347  0.0687  0.0352
  872MPD2    C212845   1.641   4.520  14.208  0.5648 -0.2792  0.5381
  872MPD2    C312846   1.558   4.474  14.316 -0.4327 -0.3335  0.3676
  872MPD2    C412847   1.610   4.405  14.421  0.5471  0.3799 -0.5624
  872MPD2    C512848   1.749   4.381  14.429  0.3273 -0.1967 -0.2005
  872MPD2     H12849   1.611   4.593  14.133  0.0610  0.2719  1.2761
  872MPD2    H112850   1.551   4.384  14.509  0.2183  1.3827 -0.5432
  872MPD2    H212851   1.931   4.388  14.338  0.3712 -1.6238 -0.6127
  872MPD2    H312852   1.789   4.340  14.521  0.7532 -0.4160 -0.4811
  872MPD2     N12853   1.415   4.496  14.324 -0.5633  0.0457 -0.0977
  872MPD2    H512854   1.376   4.463  14.411 -0.7471  0.4598 -0.0214
  872MPD2    N112855   1.873   4.531  14.113  0.1662 -0.0980 -0.3124
  872MPD2    H712856   1.966   4.498  14.138 -0.4888 -0.6161  1.4447
  873MPD2     C12857   3.130   0.496   0.243 -0.3471 -0.1559  0.5144
  873MPD2    C112858   3.204   0.389   0.276  0.4117 -0.5880 -0.1087
  873MPD2    C212859   3.220   0.293   0.181 -0.6777  0.0923 -0.2445
  873MPD2    C312860   3.168   0.304   0.049  1.2811  0.4415  0.0602
  873MPD2    C412861   3.099   0.422   0.015 -0.0075 -0.4077 -0.2506
  873MPD2    C512862   3.073   0.513   0.121 -0.3526 -0.8493 -0.5777
  873MPD2     H12863   3.269   0.203   0.218 -1.1341  0.1004  0.3755
  873MPD2    H112864   3.035   0.428  17.687  1.4445 -0.7165 -1.3466
  873MPD2    H212865   3.119   0.579   0.312  1.3496  0.4123  0.1008
  873MPD2    H312866   3.025   0.605   0.092  0.7403 -0.0201  0.2429
  873MPD2     N12867   3.181   0.196  17.712  0.7296 -0.7353  0.0579
  873MPD2    H512868   3.133   0.212  17.624  0.0086  2.0181  0.9632
  873MPD2    N112869   3.257   0.392   0.405  0.7806  0.3588 -0.1011
  873MPD2    H712870   3.246   0.472   0.467 -0.4915 -1.4047  1.9387
  874MPD2     C12871   3.165   0.113  15.795  0.1993  0.4665 -0.5786
  874MPD2    C112872   3.260   0.080  15.888 -0.9662 -0.0682 -0.1064
  874MPD2    C212873   3.381   0.141  15.885  0.1711 -0.0837 -1.0315
  874MPD2    C312874   3.409   0.233  15.791 -0.5195 -0.3334 -0.2274
  874MPD2    C412875   3.316   0.269  15.691  0.5350  0.0329 -0.3977
  874MPD2    C512876   3.193   0.205  15.691  0.3004 -0.4245 -0.0559
  874MPD2     H12877   3.457   0.107  15.954  0.2395 -2.2019 -2.1290
  874MPD2    H112878   3.358   0.323  15.607  2.2537 -0.2986  0.2498
  874MPD2    H212879   3.066   0.068  15.791  1.0123 -1.4946  1.4793
  874MPD2    H312880   3.121   0.230  15.614  0.1656  1.3790  0.6445
  874MPD2     N12881   3.541   0.282  15.799  0.7634  0.5695  0.0832
  874MPD2    H512882   3.596   0.250  15.878  0.0944 -1.5366 -0.3071
  874MPD2    N112883   3.233   4.724  15.996 -0.2066  0.0226 -0.4329
  874MPD2    H712884   3.139   4.687  15.990 -0.1253 -0.2731  0.1324
  875MPD2     C12885   4.646   2.969  14.260  0.0345  0.4199  0.5048
  875MPD2    C112886   4.526   2.967  14.333 -0.2104  0.4569  0.5355
  875MPD2    C212887   4.522   3.003  14.462  0.2547 -0.4645 -0.0153
  875MPD2    C312888   4.638   3.034  14.525 -0.2861 -0.2177  0.0001
  875MPD2    C412889   0.020   3.034  14.457 -0.0054 -0.2637 -0.3273
  875MPD2    C512890   0.024   3.002  14.325 -0.6105 -0.0202 -0.1665
  875MPD2     H12891   4.425   3.001  14.509 -0.5681 -0.1727 -1.6780
  875MPD2    H112892   0.109   3.074  14.504 -0.6445  0.9319 -0.1350
  875MPD2    H212893   4.652   2.946  14.154  0.5215  1.0217  0.4045
  875MPD2    H312894   0.118   2.992  14.272  0.5326 -0.1501  1.8870
  875MPD2     N12895   4.643   3.062  14.666  0.3376  0.2234 -0.3983
  875MPD2    H512896   4.733   3.068  14.711  0.2070  1.5281 -0.3150
  875MPD2    N112897   4.412   2.895  14.283  0.4013  0.2607  0.2297
  875MPD2    H712898   4.327   2.892  14.338  0.8093  0.3822  0.8580
  876MPD2     C12899   2.977   4.181  16.019  0.4086  0.0844 -0.3408
  876MPD2    C112900   3.105   4.173  15.964  0.7330 -0.7397 -0.3105
  876MPD2    C212901   3.180   4.062  15.987 -0.4711 -0.7811  0.6398
  876MPD2    C312902   3.144   3.966  16.080 -0.1186  0.7398  0.5488
  876MPD2    C412903   3.010   3.977  16.126 -0.4825 -0.4610 -0.7698
  876MPD2    C512904   2.929   4.077  16.095 -0.0555 -0.6114 -0.2358
  876MPD2     H12905   3.281   4.055  15.948 -0.0010 -1.8380  2.0259
  876MPD2    H112906   2.971   3.910  16.202 -0.7361 -0.5274 -0.9583
  876MPD2    H212907   2.913   4.267  16.009 -0.3412 -0.6115 -1.4797
  876MPD2    H312908   2.825   4.081  16.127 -0.0949  2.4906 -0.8287
  876MPD2     N12909   3.232   3.856  16.104 -0.2854  0.9854  0.9821
  876MPD2    H512910   3.318   3.851  16.050 -0.3841  1.2715  0.8002
  876MPD2    N112911   3.150   4.271  15.866  0.2576  0.2087  0.6690
  876MPD2    H712912   3.088   4.346  15.838  2.1101  0.9849 -1.3758
  877MPD2     C12913   3.018   4.689  15.255  0.5425  1.2267  0.2428
  877MPD2    C112914   3.149   4.653  15.257 -0.5978 -0.9387 -0.0911
  877MPD2    C212915   3.222   4.650  15.141 -0.1817  0.0442 -0.4265
  877MPD2    C312916   3.161   4.667  15.017  0.8867  0.7571  0.7904
  877MPD2    C412917   3.025   4.697  15.017  0.3550  0.1174 -0.2894
  877MPD2    C512918   2.951   4.699  15.129  0.2932  0.0649  0.0432
  877MPD2     H12919   3.322   4.610  15.151  0.1612  1.0952  0.3413
  877MPD2    H112920   2.978   4.715  14.921  2.0579  0.3153 -1.0651
  877MPD2    H212921   2.954   4.694  15.343  2.0480 -2.7882  1.5623
  877MPD2    H312922   2.844   4.713  15.131  0.3260  0.1763  0.8807
  877MPD2     N12923   3.232   4.656  14.893  0.4799  0.1864  0.4013
  877MPD2    H512924   3.178   4.642  14.808 -1.9552 -0.7008  2.0944
  877MPD2    N112925   3.217   4.633  15.382 -0.0861 -0.0842 -0.3560
  877MPD2    H712926   3.318   4.620  15.380  0.2871  2.8660 -1.6599
  878MPD2     C12927   2.724   4.086  13.428 -0.9864  0.5003  0.2864
  878MPD2    C112928   2.807   4.000  13.500 -0.4611  0.0453 -0.2476
  878MPD2    C212929   2.760   3.918  13.605 -0.0344 -0.1280  0.3206
  878MPD2    C312930   2.622   3.920  13.640  0.5151 -0.5886 -0.3127
  878MPD2    C412931   2.536   3.994  13.562  0.9995  0.3443 -0.1001
  878MPD2    C512932   2.587   4.068  13.457  0.2272 -0.3496  0.2011
  878MPD2     H12933   2.830   3.866  13.670 -0.4530 -1.2932 -0.1768
  878MPD2    H112934   2.428   3.992  13.576  0.8099  2.2644 -1.2941
  878MPD2    H212935   2.755   4.147  13.344  0.9954  1.2452  1.5594
  878MPD2    H312936   2.511   4.112  13.394  0.0779 -0.8047  0.0635
  878MPD2     N12937   2.578   3.846  13.753  0.3004 -0.6686  0.6720
  878MPD2    H512938   2.646   3.795  13.808  0.8660 -0.3908  0.2336
  878MPD2    N112939   2.947   4.011  13.472  0.1277  0.1462  0.0296
  878MPD2    H712940   2.977   4.085  13.410  2.4154 -1.3812 -0.6523
  879MPD2     C12941   3.432   1.026  16.657  0.1840  0.1486 -0.0703
  879MPD2    C112942   3.524   0.927  16.686 -0.4373 -0.2052  0.0536
  879MPD2    C212943   3.522   0.805  16.621 -1.2311 -0.9242  0.5034
  879MPD2    C312944   3.432   0.789  16.515 -0.0132  0.4086 -0.3085
  879MPD2    C412945   3.338   0.884  16.487  0.1800 -0.3099  0.5386
  879MPD2    C512946   3.343   1.001  16.554 -0.3428 -0.1513 -0.3455
  879MPD2     H12947   3.596   0.732  16.654  0.5873  1.0576  0.7528
  879MPD2    H112948   3.267   0.894  16.405  0.7203 -1.8235 -0.1163
  879MPD2    H212949   3.431   1.124  16.704  0.2494  0.1575 -0.0876
  879MPD2    H312950   3.271   1.080  16.538  0.0073  0.1782 -0.3018
  879MPD2     N12951   3.424   0.673  16.439  0.5155 -0.6726  0.7629
  879MPD2    H512952   3.356   0.678  16.365  0.6697  0.3248  0.6878
  879MPD2    N112953   3.599   0.953  16.803  0.7391  0.0613 -0.2881
  879MPD2    H712954   3.598   1.045  16.844 -0.9369 -0.5168  0.9605
  880MPD2     C12955   4.573   2.448  17.680 -0.2297  0.1022  0.0969
  880MPD2    C112956   4.611   2.492   0.046  0.2748  0.1448  0.2702
  880MPD2    C212957   4.652   2.404   0.141  0.7577  0.3637 -0.1005
  880MPD2    C312958   4.682   2.272   0.117 -0.0844 -0.1719  0.0259
  880MPD2    C412959   4.650   2.231  17.750  0.8016 -0.3650 -0.0955
  880MPD2    C512960   4.585   2.315  17.656 -0.6741 -0.7141  0.8298
  880MPD2     H12961   4.670   2.461   0.231 -0.3170  0.9797 -0.2738
  880MPD2    H112962   4.668   2.129  17.716 -3.3081 -1.4359  0.9555
  880MPD2    H212963   4.535   2.510  17.600 -1.9567  0.4862  1.1949
  880MPD2    H312964   4.551   2.273  17.562 -0.4825 -0.3524  0.5960
  880MPD2     N12965   0.012   2.201   0.221  0.6200  0.2056 -0.6433
  880MPD2    H512966   0.042   2.247   0.306 -1.0221 -0.2997  0.1914
  880MPD2    N112967   4.600   2.629   0.068  0.0094 -0.5450 -0.2513
  880MPD2    H712968   4.591   2.692  17.748 -0.2785 -0.0808  0.1585
  881MPD2     C12969   0.033   3.367  17.331  0.1721  0.1824  0.2829
  881MPD2    C112970   0.097   3.251  17.333  0.1397 -0.1098 -0.0612
  881MPD2    C212971   0.085   3.175  17.450 -0.5938 -0.1648  0.0321
  881MPD2    C312972   0.027   3.221  17.568 -0.4941  0.0873  0.2262
  881MPD2    C412973   4.701   3.341  17.562 -0.8478 -0.4128 -0.0083
  881MPD2    C512974   4.699   3.408  17.443 -0.0358 -0.6205  0.6061
  881MPD2     H12975   0.128   3.075  17.450 -1.1188 -0.3894  1.4295
  881MPD2    H112976   4.643   3.379  17.645  2.4409  0.4704  1.8690
  881MPD2    H212977   0.029   3.424  17.239  1.0605  0.9430  0.7161
  881MPD2    H312978   4.643   3.501  17.443 -0.7352 -1.0416 -1.0214
  881MPD2     N12979   0.035   3.156  17.691 -0.4901 -0.3191  0.0164
  881MPD2    H512980   4.728   3.199   0.011  1.1711  0.0780  0.8043
  881MPD2    N112981   0.143   3.202  17.207 -0.1103 -0.0382  0.2611
  881MPD2    H712982   0.139   3.263  17.126  1.4988 -2.5879 -1.6967
  882MPD2     C12983   3.127   4.117  14.454 -0.5208  0.0855  0.7323
  882MPD2    C112984   3.116   4.255  14.468  0.0005 -0.3141 -1.0820
  882MPD2    C212985   2.990   4.314  14.432  0.2559 -0.7365  0.4579
  882MPD2    C312986   2.881   4.232  14.404  0.2062 -0.0125 -0.1786
  882MPD2    C412987   2.895   4.098  14.403  0.7060 -0.4621 -0.2255
  882MPD2    C512988   3.017   4.045  14.421  0.1163 -0.1229 -0.1868
  882MPD2     H12989   2.980   4.421  14.443 -1.6981 -0.7812 -0.9050
  882MPD2    H112990   2.810   4.040  14.368  1.4354 -2.0935  0.6915
  882MPD2    H212991   3.212   4.051  14.463  0.5157  1.3302  0.1109
  882MPD2    H312992   3.032   3.939  14.401 -0.9832 -0.1296 -0.9655
  882MPD2     N12993   2.750   4.285  14.379  0.1264  0.6010 -0.3182
  882MPD2    H512994   2.683   4.222  14.335  0.1444 -0.7282  1.5459
  882MPD2    N112995   3.234   4.333  14.486 -0.1612  0.4220 -0.3740
  882MPD2    H712996   3.322   4.283  14.491 -0.7832 -0.5175  1.3211
  883MPD2     C12997   0.332   4.406  15.928  0.9011  0.6526  0.5524
  883MPD2    C112998   0.301   4.530  15.882  0.3317 -0.2926 -0.1788
  883MPD2    C212999   0.357   4.639  15.950 -0.1311 -0.1491 -0.1083
  883MPD2    C313000   0.451   4.622  16.056 -0.4047  0.5329 -0.3022
  883MPD2    C413001   0.485   4.489  16.087 -0.0710 -0.5832  0.3730
  883MPD2    C513002   0.422   4.385  16.027 -0.4252  0.9633 -0.8271
  883MPD2     H13003   0.327   4.739  15.920  2.1037 -0.1328 -2.2822
  883MPD2    H113004   0.550   4.461  16.169  0.4273 -2.0931 -0.5591
  883MPD2    H213005   0.287   4.315  15.890  0.7623  1.6035 -1.5251
  883MPD2    H313006   0.439   4.285  16.064 -1.1151  0.2437 -2.4696
  883MPD2     N13007   0.524   4.730  16.103  0.3834 -0.5325 -0.2562
  883MPD2    H513008   0.514   0.083  16.065  2.2449 -0.2077  0.0653
  883MPD2    N113009   0.213   4.551  15.774  0.1976 -0.6266  0.1566
  883MPD2    H713010   0.200   4.651  15.761 -0.2868 -0.5414  1.2603
  884MPD2     C13011   2.234   0.413  15.021 -0.1263 -0.4632  0.7515
  884MPD2    C113012   2.222   0.485  14.907 -0.1106 -0.0455 -0.2263
  884MPD2    C213013   2.118   0.579  14.895 -0.0271  0.2003 -0.7863
  884MPD2    C313014   2.037   0.600  15.000  0.0547 -0.4853 -0.0190
  884MPD2    C413015   2.037   0.523  15.114  0.1822 -0.0655  0.4240
  884MPD2    C513016   2.140   0.432  15.118 -0.1590 -1.2088  0.3115
  884MPD2     H13017   2.105   0.633  14.802 -2.0596 -1.2164 -1.3099
  884MPD2    H113018   1.957   0.529  15.187  1.5401  0.5737  1.8408
  884MPD2    H213019   2.308   0.336  15.032 -1.2864 -1.5365  1.0613
  884MPD2    H313020   2.144   0.367  15.205  0.5227 -1.3632  0.1684
  884MPD2     N13021   1.961   0.716  14.988 -0.4774  0.1898 -0.5415
  884MPD2    H513022   1.973   0.770  14.902  0.1354 -2.0998 -1.8797
  884MPD2    N113023   2.312   0.474  14.796 -0.0647 -0.3550  0.3573
  884MPD2    H713024   2.274   0.522  14.716 -1.2426  0.7161  1.5482
  885MPD2     C13025   0.669   1.802  17.699 -0.0369  0.2735  0.2179
  885MPD2    C113026   0.721   1.673  17.727 -0.4205  0.6147  0.1968
  885MPD2    C213027   0.785   1.604  17.627  0.0849 -0.4677  0.2550
  885MPD2    C313028   0.758   1.644  17.492 -0.0318  0.4318  0.5285
  885MPD2    C413029   0.683   1.756  17.469 -0.0158  0.0477  0.8523
  885MPD2    C513030   0.653   1.840  17.569  0.5727  0.4656 -0.2472
  885MPD2     H13031   0.837   1.513  17.655 -0.3732 -1.3136 -1.5910
  885MPD2    H113032   0.666   1.801  17.372  2.1159 -0.1847  0.3697
  885MPD2    H213033   0.623   1.856   0.022 -0.9601 -0.3468  0.1044
  885MPD2    H313034   0.603   1.932  17.542 -0.4977  0.2760  1.0579
  885MPD2     N13035   0.804   1.554  17.395  0.0665 -0.2598  0.0298
  885MPD2    H513036   0.852   1.471  17.431  2.2444  0.4364 -1.2455
  885MPD2    N113037   0.710   1.613   0.098 -0.0063  0.1531  0.6049
  885MPD2    H713038   0.676   1.677   0.170  1.3045  2.7532 -1.0940
  886MPD2     C13039   2.172   3.760  15.165 -0.2868  0.8652  0.8290
  886MPD2    C113040   2.193   3.858  15.267 -0.1955 -0.1155 -0.4399
  886MPD2    C213041   2.119   3.970  15.275  0.0096 -0.1476  0.4154
  886MPD2    C313042   2.026   3.999  15.173  1.1444 -1.2338  0.3790
  886MPD2    C413043   2.009   3.911  15.069  0.3025  0.6579 -0.4209
  886MPD2    C513044   2.078   3.791  15.067  0.2337  0.5909  0.1573
  886MPD2     H13045   2.132   4.042  15.355  1.1654  2.3802 -2.0527
  886MPD2    H113046   1.925   3.926  15.003 -0.4947 -1.7546  0.0405
  886MPD2    H213047   2.208   3.658  15.174  1.8949  1.6017  0.4582
  886MPD2    H313048   2.054   3.712  14.996 -1.4421  0.3257  1.0068
  886MPD2     N13049   1.949   4.117  15.166  0.7283 -0.1828  0.1601
  886MPD2    H513050   1.919   4.131  15.070 -1.6302  1.1819  1.1072
  886MPD2    N113051   2.284   3.840  15.376 -0.3779  0.0348  0.1332
  886MPD2    H713052   2.292   3.911  15.449 -0.9292 -1.6162  1.7886
  887MPD2     C13053   2.735   4.223  15.673 -0.2197 -0.0407 -0.4651
  887MPD2    C113054   2.607   4.200  15.625 -0.7969  0.2993  0.0340
  887MPD2    C213055   2.549   4.295  15.545 -0.2101  0.2438  0.3462
  887MPD2    C313056   2.620   4.416  15.517 -0.0185  0.1671 -0.2152
  887MPD2    C413057   2.745   4.437  15.563  0.2794  0.3588 -0.1920
  887MPD2    C513058   2.804   4.337  15.642 -0.0873 -0.7472  0.0252
  887MPD2     H13059   2.448   4.287  15.507 -0.0081 -1.0234  0.0919
  887MPD2    H113060   2.801   4.526  15.535 -1.1486  0.7211 -1.8471
  887MPD2    H213061   2.785   4.147  15.733 -0.2904  0.0946 -0.2341
  887MPD2    H313062   2.905   4.351  15.680 -0.0350 -0.9526 -0.0403
  887MPD2     N13063   2.562   4.508  15.432  0.2983 -0.5523  0.0989
  887MPD2    H513064   2.468   4.485  15.401  0.6393 -2.0065  0.1413
  887MPD2    N113065   2.541   4.080  15.649  0.6336  0.3071 -0.4366
  887MPD2    H713066   2.446   4.070  15.613 -0.3403  0.7295  2.0282
  888MPD2     C13067   4.031   4.024  14.738 -0.0827 -0.7375  0.5342
  888MPD2    C113068   4.082   4.033  14.865  0.5258  0.0858 -0.6370
  888MPD2    C213069   4.157   4.153  14.905  0.2320  0.1855 -0.4531
  888MPD2    C313070   4.192   4.245  14.813  0.3525  0.1944 -0.3062
  888MPD2    C413071   4.140   4.226  14.691  0.2754  0.7827 -0.0771
  888MPD2    C513072   4.069   4.120  14.647 -0.5910 -0.0667  0.3466
  888MPD2     H13073   4.208   4.158  15.000  0.2494  1.3318 -0.5247
  888MPD2    H113074   4.154   4.301  14.613 -0.6639 -0.6858 -1.6738
  888MPD2    H213075   3.985   3.930  14.710  1.4701 -0.7841 -1.9497
  888MPD2    H313076   4.039   4.125  14.543 -4.3591  0.5067  1.4793
  888MPD2     N13077   4.285   4.353  14.840  0.2334 -0.2971 -0.1038
  888MPD2    H513078   4.325   4.370  14.932 -0.2937 -0.7216  0.2047
  888MPD2    N113079   4.051   3.925  14.944  0.1380  1.1689 -0.1599
  888MPD2    H713080   4.018   3.844  14.894 -0.2563  1.1593  0.1174
  889MPD2     C13081   3.409   3.407  13.461  1.1637  0.0850  0.4714
  889MPD2    C113082   3.460   3.519  13.394 -0.6942  0.0079 -0.2458
  889MPD2    C213083   3.435   3.640  13.454  0.5673  0.4664 -0.0631
  889MPD2    C313084   3.401   3.648  13.588 -0.2991  0.0833  0.4148
  889MPD2    C413085   3.352   3.533  13.655  0.6424  0.4980  0.3300
  889MPD2    C513086   3.355   3.417  13.586 -0.6544 -0.0197  0.4544
  889MPD2     H13087   3.468   3.734  13.411 -0.5907  1.5941  1.5316
  889MPD2    H113088   3.313   3.539  13.756 -0.3030  2.3611 -0.1470
  889MPD2    H213089   3.418   3.307  13.420 -1.2712  0.4223 -0.8900
  889MPD2    H313090   3.319   3.327  13.635 -1.1920  0.3101  0.6651
  889MPD2     N13091   3.404   3.779  13.643 -0.9283 -0.4949  0.4163
  889MPD2    H513092   3.419   3.860  13.583 -1.6491 -0.9783 -0.4233
  889MPD2    N113093   3.495   3.503  13.257  0.0540  0.5863 -0.7105
  889MPD2    H713094   3.500   3.412  13.213 -0.7424  0.6952 -1.0113
  890MPD2     C13095   3.372   0.493  14.262 -0.4703 -0.4787 -0.8705
  890MPD2    C113096   3.480   0.542  14.332  0.4545  0.0534 -0.2688
  890MPD2    C213097   3.503   0.500  14.462  0.8672  0.5421 -0.5752
  890MPD2    C313098   3.419   0.419  14.528  0.2893 -0.3183 -0.3267
  890MPD2    C413099   3.310   0.378  14.456 -0.4113  0.0408  0.4719
  890MPD2    C513100   3.296   0.404  14.326  0.4398 -0.5358  0.3723
  890MPD2     H13101   3.594   0.528  14.512 -0.3462  1.7680  0.9466
  890MPD2    H113102   3.238   0.311  14.503 -0.7885 -0.6677 -1.1347
  890MPD2    H213103   3.358   0.511  14.156  0.9085 -1.3867 -1.2005
  890MPD2    H313104   3.227   0.347  14.265 -0.2639 -0.3412  0.9966
  890MPD2     N13105   3.447   0.391  14.658 -0.3833 -0.2735 -0.2878
  890MPD2    H513106   3.531   0.431  14.699  0.3084 -3.4467  1.4047
  890MPD2    N113107   3.552   0.644  14.276 -0.5288  0.3025  0.3723
  890MPD2    H713108   3.523   0.677  14.185 -0.6644 -2.4208 -0.5956
  891MPD2     C13109   1.393   4.156  16.483  1.0450 -0.2498 -0.0297
  891MPD2    C113110   1.290   4.106  16.562 -0.8945  0.1107  0.2820
  891MPD2    C213111   1.322   4.015  16.660 -0.1051 -0.0085  0.3490
  891MPD2    C313112   1.449   3.969  16.682 -0.3856 -0.1774 -0.2018
  891MPD2    C413113   1.549   4.024  16.598  0.4243 -0.0708  0.3769
  891MPD2    C513114   1.523   4.115  16.499  0.3102  0.7015 -0.3936
  891MPD2     H13115   1.242   3.977  16.722 -0.2099 -2.2771 -1.1728
  891MPD2    H113116   1.654   3.998  16.610  0.8091  1.4919  0.4614
  891MPD2    H213117   1.367   4.224  16.403  1.2071 -1.9806 -1.5564
  891MPD2    H313118   1.591   4.168  16.433 -0.8507  1.9634 -0.5751
  891MPD2     N13119   1.464   3.864  16.780 -0.0753 -0.8959  0.3654
  891MPD2    H513120   1.379   3.840  16.829 -0.7540  0.0483 -0.3367
  891MPD2    N113121   1.163   4.159  16.537 -0.5615 -0.0081 -0.1847
  891MPD2    H713122   1.171   4.229  16.464  3.2043 -1.4386 -1.1192
  892MPD2     C13123   2.287   0.047  14.962 -0.0368  0.5021  0.5877
  892MPD2    C113124   2.217   0.096  14.857 -0.8486  0.2349 -0.2920
  892MPD2    C213125   2.267   0.069  14.727  0.4603  1.0497 -0.2863
  892MPD2    C313126   2.384   4.734  14.714 -0.3640  0.4677  0.0776
  892MPD2    C413127   2.462   4.711  14.830  0.4072 -0.3527 -0.2114
  892MPD2    C513128   2.410   4.732  14.952 -0.3287  0.2460 -0.0671
  892MPD2     H13129   2.224   0.105  14.635  0.4714 -3.3120 -1.9572
  892MPD2    H113130   2.555   4.657  14.818  0.3753 -0.0344 -1.9683
  892MPD2    H213131   2.264   0.068  15.066  1.5189 -0.9970  1.2274
  892MPD2    H313132   2.469   4.707  15.039  0.9319  3.3644 -0.0283
  892MPD2     N13133   2.432   4.692  14.592 -0.2332 -0.0131 -0.1559
  892MPD2    H513134   2.518   4.638  14.599 -0.0596  0.0713 -1.5638
  892MPD2    N113135   2.094   0.167  14.872  0.2813  0.1824 -0.1879
  892MPD2    H713136   2.061   0.212  14.787 -1.5955  0.9019  0.9119
  893MPD2     C13137   3.298   3.556   1.032  0.2213 -0.0007  0.4082
  893MPD2    C113138   3.310   3.596   0.909  0.7262  0.8788  0.4377
  893MPD2    C213139   3.209   3.587   0.810  0.5099  0.4342  0.1728
  893MPD2    C313140   3.085   3.535   0.837  0.2331  0.1498  0.4852
  893MPD2    C413141   3.070   3.501   0.968  0.0324  0.7035 -0.0681
  893MPD2    C513142   3.173   3.516   1.061  0.0233 -0.4799  0.8216
  893MPD2     H13143   3.221   3.604   0.704 -0.4066  0.4906  0.0746
  893MPD2    H113144   2.971   3.462   0.991 -0.5301  2.0800 -0.1876
  893MPD2    H213145   3.378   3.549   1.105  0.6999 -2.5626 -0.3721
  893MPD2    H313146   3.154   3.474   1.158  0.0344 -0.0730  1.0011
  893MPD2     N13147   2.971   3.532   0.743  0.1447  0.0179  0.4800
  893MPD2    H513148   2.881   3.520   0.790 -0.2492 -2.8832 -0.9733
  893MPD2    N113149   3.433   3.657   0.887 -0.1102  0.2978 -0.0204
  893MPD2    H713150   3.498   3.651   0.966  0.7778 -2.4304 -0.9617
  894MPD2     C13151   2.268   1.401   0.667  0.4713  0.4588  0.6262
  894MPD2    C113152   2.246   1.450   0.793  0.3923 -0.8939  0.2988
  894MPD2    C213153   2.290   1.575   0.824  0.3055  0.3360  0.8868
  894MPD2    C313154   2.335   1.662   0.729 -0.5587 -0.1957 -0.8569
  894MPD2    C413155   2.351   1.619   0.598 -0.0701  0.3256 -0.2290
  894MPD2    C513156   2.322   1.490   0.568  0.5769 -0.1494 -0.2170
  894MPD2     H13157   2.277   1.612   0.925  0.6949 -0.7708  1.3421
  894MPD2    H113158   2.391   1.676   0.515 -0.0622  0.5491 -0.0724
  894MPD2    H213159   2.241   1.299   0.640  0.2785  0.1837  1.8731
  894MPD2    H313160   2.342   1.460   0.466 -0.5195 -1.6818  0.0270
  894MPD2     N13161   2.371   1.790   0.773 -0.3172 -0.0266 -0.3941
  894MPD2    H513162   2.355   1.809   0.872 -1.3192  0.4151 -0.6472
  894MPD2    N113163   2.201   1.376   0.900 -0.6709  0.1870  0.2404
  894MPD2    H713164   2.219   1.419   0.990 -0.1403  0.3746  0.0475
  895MPD2     C13165   1.282   4.378  13.972  0.1241 -0.5082 -0.7050
  895MPD2    C113166   1.286   4.386  13.833 -1.0139  0.0507 -0.5820
  895MPD2    C213167   1.389   4.319  13.769 -1.0012 -0.1954 -0.2750
  895MPD2    C313168   1.493   4.246  13.842 -0.1906  0.2209 -0.1535
  895MPD2    C413169   1.483   4.239  13.982  0.3225  0.4699  0.3551
  895MPD2    C513170   1.380   4.306  14.038 -0.2876  0.2094  0.0543
  895MPD2     H13171   1.371   4.311  13.662  0.3615  0.9456 -0.5917
  895MPD2    H113172   1.552   4.192  14.051  1.8712  0.2923 -1.3113
  895MPD2    H213173   1.201   4.426  14.027 -0.3292 -2.4158  0.3021
  895MPD2    H313174   1.369   4.302  14.145  1.1042  1.0829  0.2283
  895MPD2     N13175   1.594   4.171  13.772 -0.2264  0.1969  0.4671
  895MPD2    H513176   1.639   4.102  13.831  0.5276 -0.3689 -0.7528
  895MPD2    N113177   1.184   4.447  13.758 -0.6596  0.5843  0.5544
  895MPD2    H713178   1.197   4.432  13.659  0.6509 -2.1264  1.1183
  896MPD2     C13179   3.932   2.165   1.298  0.3286 -0.0825 -0.2400
  896MPD2    C113180   3.928   2.155   1.158  0.6368  0.1177  0.1193
  896MPD2    C213181   3.818   2.106   1.097  0.1235 -0.2219  0.2417
  896MPD2    C313182   3.703   2.078   1.171  0.0040 -0.9612  0.2258
  896MPD2    C413183   3.698   2.107   1.306 -0.2660  0.0589 -0.1284
  896MPD2    C513184   3.815   2.135   1.371  0.5926 -0.4548  0.1944
  896MPD2     H13185   3.799   2.116   0.991  0.3497  2.8763  0.4701
  896MPD2    H113186   3.611   2.077   1.363  0.4315 -0.9770  0.3865
  896MPD2    H213187   4.024   2.198   1.345  0.5009 -1.5418  0.4372
  896MPD2    H313188   3.816   2.134   1.480 -0.3942 -0.7166  0.2045
  896MPD2     N13189   3.593   2.047   1.090  0.5454  0.5491  0.6568
  896MPD2    H513190   3.613   2.033   0.992  0.4000  0.9453  0.5674
  896MPD2    N113191   4.044   2.211   1.094 -0.8338 -0.3284 -0.5671
  896MPD2    H713192   4.106   2.247   1.166 -0.1410 -1.2148 -0.7101
  897MPD2     C13193   0.432   3.058  10.164 -0.0518 -0.6149  1.0104
  897MPD2    C113194   0.367   3.178  10.184  0.2516  0.1726 -0.0527
  897MPD2    C213195   0.279   3.189  10.292 -0.5282  0.2570 -0.0157
  897MPD2    C313196   0.245   3.072  10.359  1.0553  0.6036 -0.9252
  897MPD2    C413197   0.303   2.952  10.331  0.2229  0.3518  0.5950
  897MPD2    C513198   0.411   2.950  10.238 -0.1150 -0.7241  0.7028
  897MPD2     H13199   0.217   3.274  10.318  0.9271  0.7280  1.9532
  897MPD2    H113200   0.290   2.864  10.393  3.4659 -0.5018  0.0760
  897MPD2    H213201   0.503   3.043  10.084 -2.3122 -1.4598 -0.8214
  897MPD2    H313202   0.462   2.855  10.230  0.7720 -0.2044  0.1614
  897MPD2     N13203   0.145   3.080  10.454  0.1607  0.5068  0.5510
  897MPD2    H513204   0.083   3.160  10.453 -2.0863 -1.2248  1.1136
  897MPD2    N113205   0.403   3.286  10.098  0.0985  0.7233  0.4099
  897MPD2    H713206   0.470   3.262  10.025  1.8977  1.5345  1.7856
  898MPD2     C13207   1.270   4.372  17.445 -0.2334 -0.0250 -0.8756
  898MPD2    C113208   1.380   4.347  17.526  0.0165 -0.0093  0.7238
  898MPD2    C213209   1.491   4.432  17.522 -0.3209  0.7309 -0.5010
  898MPD2    C313210   1.499   4.549  17.448 -0.2433  0.3646 -0.7190
  898MPD2    C413211   1.392   4.570  17.365 -0.5202 -0.1694  0.3694
  898MPD2    C513212   1.281   4.488  17.369  0.0409  1.0608 -0.6223
  898MPD2     H13213   1.576   4.414  17.587  0.2837  0.1669 -1.4439
  898MPD2    H113214   1.384   4.663  17.310 -0.8928  0.6656  1.8223
  898MPD2    H213215   1.177   4.316  17.435 -0.3496  0.2524 -1.3398
  898MPD2    H313216   1.197   4.514  17.306  0.2500  1.3645 -0.7793
  898MPD2     N13217   1.600   4.649  17.466  0.1142 -0.1117 -0.3418
  898MPD2    H513218   1.669   4.628  17.537 -1.5491  0.4372  1.4395
  898MPD2    N113219   1.393   4.235  17.618  0.1773 -0.5020 -0.1911
  898MPD2    H713220   1.487   4.224  17.654 -0.4498 -0.3659  1.4843
  899MPD2     C13221   2.529   0.437  17.363  0.4495 -0.0152 -0.3105
  899MPD2    C113222   2.652   0.478  17.415 -0.4857 -0.3170  0.4823
  899MPD2    C213223   2.697   0.434  17.537  0.2849 -0.3274  0.2995
  899MPD2    C313224   2.604   0.367  17.615  0.3845 -0.1557 -0.5116
  899MPD2    C413225   2.476   0.331  17.569 -0.0551 -0.6623  0.5938
  899MPD2    C513226   2.449   0.354  17.437  0.3593 -0.4477 -0.1265
  899MPD2     H13227   2.791   0.472  17.577  1.0714  2.0280 -3.7526
  899MPD2    H113228   2.408   0.279  17.634  1.4431 -0.1760  2.5473
  899MPD2    H213229   2.508   0.449  17.257  1.6269 -0.0268 -0.5389
  899MPD2    H313230   2.352   0.329  17.394  0.0252  1.6469 -0.5800
  899MPD2     N13231   2.624   0.329  17.751 -0.9193 -0.6766  0.3215
  899MPD2    H513232   2.550   0.269   0.026 -2.9664  1.2364 -0.7938
  899MPD2    N113233   2.725   0.561  17.332  0.4166 -0.5140 -0.5160
  899MPD2    H713234   2.679   0.609  17.255 -0.5529  0.1349  0.4820
  900MPD2     C13235   2.587   1.822  12.804  0.2990  0.7585  0.0200
  900MPD2    C113236   2.535   1.689  12.801 -0.2629  0.1786  0.1981
  900MPD2    C213237   2.412   1.664  12.741 -0.5296 -0.9320 -0.9151
  900MPD2    C313238   2.337   1.777  12.700 -0.0594 -0.2495 -0.1415
  900MPD2    C413239   2.388   1.908  12.717  0.0919  0.5746  0.2967
  900MPD2    C513240   2.517   1.922  12.758 -0.1734  0.4605 -0.3764
  900MPD2     H13241   2.365   1.569  12.720  1.4744 -1.9528 -0.6909
  900MPD2    H113242   2.328   1.994  12.690 -0.6689 -0.0393  0.0375
  900MPD2    H213243   2.689   1.836  12.838 -0.0180 -1.2196  1.7705
  900MPD2    H313244   2.565   2.019  12.765  0.7512  0.0026 -0.4300
  900MPD2     N13245   2.216   1.753  12.624 -0.0408  0.3712 -0.5014
  900MPD2    H513246   2.200   1.653  12.619 -1.6816  0.6414 -0.3758
  900MPD2    N113247   2.618   1.583  12.846 -0.4178  0.0956 -0.2922
  900MPD2    H713248   2.710   1.612  12.878 -0.4164 -0.9453  0.6388
  901MPD2     C13249   2.573   0.526  13.045 -0.2148  0.0679  0.1217
  901MPD2    C113250   2.706   0.541  13.029 -0.4232 -0.4740 -0.0087
  901MPD2    C213251   2.745   0.675  13.015  0.6953  0.8677 -0.6926
  901MPD2    C313252   2.653   0.777  12.995  0.2198 -0.5152  0.6040
  901MPD2    C413253   2.519   0.751  13.002  0.1286 -0.5181 -0.3057
  901MPD2    C513254   2.482   0.626  13.040 -0.2824 -0.1893  0.0917
  901MPD2     H13255   2.849   0.702  13.003  0.8091  0.0550 -1.4905
  901MPD2    H113256   2.440   0.824  12.988  0.2671 -0.7796 -2.3335
  901MPD2    H213257   2.539   0.423  13.047  0.3338 -0.1291 -0.7399
  901MPD2    H313258   2.376   0.611  13.060 -0.6048  1.1779 -0.5769
  901MPD2     N13259   2.703   0.910  12.979  0.3779 -0.3054  0.1384
  901MPD2    H513260   2.802   0.928  12.970  0.4854 -0.1995  1.5248
  901MPD2    N113261   2.795   0.432  13.029 -0.1528  0.2557  0.4954
  901MPD2    H713262   2.748   0.342  13.023 -1.3554  0.8361  1.3144
  902MPD2     C13263   2.120   4.203  12.794 -0.2373 -0.2246  0.4028
  902MPD2    C113264   2.031   4.265  12.718  0.0554 -0.1757  0.5689
  902MPD2    C213265   2.046   4.266  12.577 -0.3666  0.1004  0.1887
  902MPD2    C313266   2.138   4.178  12.516 -0.1367  0.6975 -0.9134
  902MPD2    C413267   2.218   4.105  12.597  0.6426  0.1127  0.1713
  902MPD2    C513268   2.213   4.122  12.731 -0.0370  0.8599  1.1843
  902MPD2     H13269   1.994   4.340  12.519  1.1458  1.2312  0.2676
  902MPD2    H113270   2.286   4.032  12.555 -0.1434 -1.6247  1.9273
  902MPD2    H213271   2.111   4.210  12.902  1.9318 -0.0186  0.5767
  902MPD2    H313272   2.281   4.064  12.792  0.4518  0.8340  0.6154
  902MPD2     N13273   2.159   4.164  12.376 -0.0380 -0.7770 -0.1829
  902MPD2    H513274   2.222   4.090  12.345 -0.1731  0.1153 -2.6072
  902MPD2    N113275   1.938   4.356  12.779  0.4369  0.5175  0.2240
  902MPD2    H713276   1.945   4.377  12.879 -1.2125 -2.0699  0.8869
  903MPD2     C13277   1.893   4.233  11.477 -0.6757  1.0240 -0.1975
  903MPD2    C113278   1.866   4.231  11.608 -0.2776 -0.2249  0.2104
  903MPD2    C213279   1.735   4.242  11.639 -0.5476  0.3646 -0.1350
  903MPD2    C313280   1.633   4.254  11.548  0.5722  0.1408 -0.5508
  903MPD2    C413281   1.663   4.250  11.413 -0.4091  0.0976  0.3856
  903MPD2    C513282   1.799   4.237  11.382  0.8634  0.1163  0.6309
  903MPD2     H13283   1.706   4.251  11.743  2.0667 -0.8675  0.7046
  903MPD2    H113284   1.592   4.243  11.330 -0.6875  0.8403  0.5534
  903MPD2    H213285   1.994   4.232  11.437  0.4714  0.9588  2.7215
  903MPD2    H313286   1.825   4.234  11.277  1.3556  0.9244  0.7307
  903MPD2     N13287   1.503   4.236  11.605  0.0317  0.1502  0.9546
  903MPD2    H513288   1.498   4.242  11.706  0.3694 -0.8310  1.0319
  903MPD2    N113289   1.964   4.230  11.703 -0.0402  0.1387  0.3969
  903MPD2    H713290   2.059   4.213  11.671 -0.2034  0.1096 -0.0621
  904MPD2     C13291   1.208   3.760  13.693  0.5486 -0.3475  0.2548
  904MPD2    C113292   1.169   3.688  13.799 -0.0676 -0.6292  0.3725
  904MPD2    C213293   1.257   3.681  13.906  0.1135 -0.3340  0.2246
  904MPD2    C313294   1.364   3.764  13.914  0.2660  0.8866 -0.1751
  904MPD2    C413295   1.378   3.867  13.817 -0.1241  0.3471 -0.7475
  904MPD2    C513296   1.308   3.853  13.701 -0.2072 -0.3612  0.3731
  904MPD2     H13297   1.239   3.608  13.983 -0.1379  0.2080  0.6801
  904MPD2    H113298   1.459   3.939  13.813  1.3694 -1.1794  1.8620
  904MPD2    H213299   1.171   3.757  13.592  1.4228 -0.6787 -0.0556
  904MPD2    H313300   1.327   3.921  13.619  0.4693 -2.4594 -1.2025
  904MPD2     N13301   1.453   3.751  14.025  0.1911 -0.1851 -0.3800
  904MPD2    H513302   1.416   3.693  14.100 -3.5719  0.0484 -2.0414
  904MPD2    N113303   1.048   3.615  13.807  0.7513 -1.1094 -0.0366
  904MPD2    H713304   1.032   3.545  13.878  1.4664 -2.1140 -0.8664
  905MPD2     C13305   1.141   3.829  13.153  0.0194  0.0580 -0.3682
  905MPD2    C113306   1.153   3.884  13.278 -0.1124  0.2738  1.2148
  905MPD2    C213307   1.279   3.933  13.316  0.8168 -0.2372 -0.4610
  905MPD2    C313308   1.396   3.903  13.245  0.0924 -0.2922 -0.2641
  905MPD2    C413309   1.378   3.848  13.127 -0.3132  0.6275  0.4460
  905MPD2    C513310   1.257   3.804  13.078 -0.3567  0.3587 -1.5340
  905MPD2     H13311   1.287   3.986  13.410  0.1529 -0.4199 -0.3025
  905MPD2    H113312   1.454   3.843  13.050 -1.8461  1.5107 -1.1062
  905MPD2    H213313   1.050   3.789  13.109  0.9778  1.4596 -3.6910
  905MPD2    H313314   1.256   3.759  12.979 -0.5996  1.3063 -1.9642
  905MPD2     N13315   1.520   3.938  13.296  0.1151  0.0995 -0.3326
  905MPD2    H513316   1.521   3.995  13.380  0.6481  0.5019 -0.6101
  905MPD2    N113317   1.031   3.894  13.348 -0.6006 -0.0090  0.4053
  905MPD2    H713318   0.954   3.834  13.321  2.0476 -2.8862 -0.7765
  906MPD2     C13319   3.791   3.173  11.045  1.0122 -0.1367 -0.6295
  906MPD2    C113320   3.685   3.239  10.995 -0.5147 -0.8371  0.0460
  906MPD2    C213321   3.571   3.248  11.063  0.4567 -0.2261  0.3024
  906MPD2    C313322   3.551   3.180  11.185  0.1314 -0.1809 -0.1895
  906MPD2    C413323   3.665   3.114  11.243  0.2074  0.0262  0.4587
  906MPD2    C513324   3.784   3.116  11.172  0.5695 -0.7163  0.0003
  906MPD2     H13325   3.486   3.305  11.027 -0.2872 -1.1262  0.6692
  906MPD2    H113326   3.666   3.070  11.342  0.5126  1.3038  1.0272
  906MPD2    H213327   3.888   3.169  10.998  0.6518  0.6373 -1.4442
  906MPD2    H313328   3.868   3.063  11.217  0.9613 -2.3426 -2.6981
  906MPD2     N13329   3.435   3.183  11.262  0.3264 -0.1082 -0.0971
  906MPD2    H513330   3.442   3.132  11.350 -0.1466 -0.9816 -0.5740
  906MPD2    N113331   3.690   3.293  10.861  0.1472  0.3129  0.5498
  906MPD2    H713332   3.602   3.326  10.822 -0.5715 -0.8331  1.1852
  907MPD2     C13333   2.540   2.822  15.897  0.0067 -0.8740 -0.6178
  907MPD2    C113334   2.536   2.691  15.852  0.0069 -0.6486  0.0100
  907MPD2    C213335   2.602   2.587  15.919  0.9506 -0.8958  0.9058
  907MPD2    C313336   2.668   2.614  16.040  0.3300 -0.0849  0.3279
  907MPD2    C413337   2.672   2.747  16.084  0.4749 -0.3399  0.5643
  907MPD2    C513338   2.608   2.847  16.013 -0.0455 -0.6732  0.3733
  907MPD2     H13339   2.631   2.493  15.875 -0.7147 -0.7511 -0.5170
  907MPD2    H113340   2.736   2.779  16.165  0.8289 -3.1757  1.4079
  907MPD2    H213341   2.486   2.902  15.849  0.7545 -0.9712 -1.6245
  907MPD2    H313342   2.619   2.945  16.058 -1.0654 -0.1127 -0.6046
  907MPD2     N13343   2.734   2.504  16.102  0.4067 -0.5074 -0.0621
  907MPD2    H513344   2.717   2.413  16.061  1.4195 -1.8080  2.3942
  907MPD2    N113345   2.473   2.674  15.721 -0.2637 -0.7025 -0.1478
  907MPD2    H713346   2.439   2.756  15.673  0.2021  0.3983  1.4002
  908MPD2     C13347   0.704   3.216   9.301  0.7337  0.1213  0.2668
  908MPD2    C113348   0.638   3.134   9.386  1.2019 -0.2573 -0.5125
  908MPD2    C213349   0.589   3.191   9.507  0.0246  0.7321  0.6236
  908MPD2    C313350   0.600   3.326   9.532  0.2202 -0.3651  0.7717
  908MPD2    C413351   0.671   3.399   9.442 -0.6118 -0.2843 -0.2261
  908MPD2    C513352   0.724   3.351   9.326  0.4882 -0.3921  0.0372
  908MPD2     H13353   0.543   3.127   9.582  1.2831  0.4623  1.1714
  908MPD2    H113354   0.697   3.503   9.461 -1.3203 -0.5905  2.4033
  908MPD2    H213355   0.754   3.176   9.214 -0.6672  0.1531 -0.5552
  908MPD2    H313356   0.788   3.404   9.257 -1.1195  1.1701 -0.2734
  908MPD2     N13357   0.529   3.385   9.640  0.3148 -0.7014 -0.1810
  908MPD2    H513358   0.490   3.328   9.714 -3.0105  0.1093 -1.3269
  908MPD2    N113359   0.634   2.994   9.351  0.2370 -0.0032 -0.3354
  908MPD2    H713360   0.704   2.954   9.291 -1.3679 -1.9381 -0.9281
  909MPD2     C13361   1.237   0.799  11.598 -0.7780 -0.4117  0.7316
  909MPD2    C113362   1.182   0.895  11.512  0.4790  0.0018  0.0261
  909MPD2    C213363   1.076   0.978  11.554 -0.1053  0.1890  0.2346
  909MPD2    C313364   1.026   0.962  11.680 -0.2403  0.4116 -0.0736
  909MPD2    C413365   1.084   0.865  11.768 -0.6811 -0.1886  0.0418
  909MPD2    C513366   1.191   0.791  11.725  0.2182 -0.2227 -0.0146
  909MPD2     H13367   1.040   1.052  11.484 -2.4453 -1.7051 -0.5494
  909MPD2    H113368   1.043   0.849  11.867 -0.9986 -2.6425 -0.4592
  909MPD2    H213369   1.310   0.723  11.572 -0.0743  0.8401 -0.9843
  909MPD2    H313370   1.240   0.721  11.791  0.3135 -0.1108  0.0339
  909MPD2     N13371   0.912   1.040  11.722  0.6065  0.5008 -0.5433
  909MPD2    H513372   0.868   1.103  11.655  0.9595 -1.2555 -2.4179
  909MPD2    N113373   1.210   0.904  11.372 -0.2467  0.0752  0.3707
  909MPD2    H713374   1.144   0.961  11.319 -0.7776  1.3849  2.4644
  910MPD2     C13375   1.940   3.545  16.101  0.0703  0.5118 -0.3590
  910MPD2    C113376   1.958   3.472  15.977 -0.1420  0.2111 -0.7736
  910MPD2    C213377   1.871   3.503  15.876 -0.0328 -0.2037 -0.6445
  910MPD2    C313378   1.782   3.607  15.883 -0.5550 -0.3957  0.0109
  910MPD2    C413379   1.789   3.694  15.990  0.5408 -0.0001  0.2250
  910MPD2    C513380   1.868   3.664  16.099 -0.0632 -0.6651  0.2651
  910MPD2     H13381   1.879   3.437  15.791 -2.4685 -1.2017 -0.1081
  910MPD2    H113382   1.740   3.790  15.990  0.5279 -0.0129  1.5986
  910MPD2    H213383   2.002   3.530  16.189  0.4371  0.3165 -0.6470
  910MPD2    H313384   1.864   3.726  16.187 -2.5209 -1.5885  0.8018
  910MPD2     N13385   1.696   3.644  15.776  0.1961  0.9477 -0.6516
  910MPD2    H513386   1.714   3.607  15.683 -0.1524  1.5365 -0.9595
  910MPD2    N113387   2.046   3.362  15.971  0.9524 -0.6236 -0.0774
  910MPD2    H713388   2.023   3.283  15.912  0.2192 -1.2637  1.0589
  911MPD2     C13389   4.392   3.854  15.870 -0.3229 -0.7553 -0.0203
  911MPD2    C113390   4.411   3.931  15.985 -0.0892 -0.1533 -0.1087
  911MPD2    C213391   4.336   4.046  15.998  1.0654 -0.4216  0.9422
  911MPD2    C313392   4.257   4.091  15.896 -0.5130  0.5305  0.1889
  911MPD2    C413393   4.261   4.028  15.769 -0.2310 -0.7881 -0.1846
  911MPD2    C513394   4.331   3.910  15.756  0.0803 -0.6977 -0.4021
  911MPD2     H13395   4.346   4.106  16.088  0.2406  0.3951  0.4898
  911MPD2    H113396   4.219   4.077  15.682 -1.5957 -0.8725  0.4206
  911MPD2    H213397   4.447   3.762  15.860 -0.6588 -1.2996  3.2005
  911MPD2    H313398   4.341   3.859  15.661  1.4165 -1.4004  0.1135
  911MPD2     N13399   4.204   4.214  15.903 -0.2924 -0.1140  0.1407
  911MPD2    H513400   4.183   4.259  15.815  1.3570  0.7186  0.1724
  911MPD2    N113401   4.486   3.872  16.088  0.1526 -0.1382  0.0471
  911MPD2    H713402   4.499   3.772  16.081  0.0722 -0.1202 -0.3532
  912MPD2     C13403   3.932   4.077  15.492  0.5105 -0.2911  0.2184
  912MPD2    C113404   3.915   4.107  15.626  0.5412 -0.1612 -0.7307
  912MPD2    C213405   3.920   4.001  15.716  0.3547 -0.0465  0.8342
  912MPD2    C313406   3.959   3.871  15.680  0.4579 -0.7064  0.6320
  912MPD2    C413407   3.983   3.849  15.541 -0.2383  0.3862 -0.1831
  912MPD2    C513408   3.973   3.954  15.456  0.2168 -0.2007  0.0228
  912MPD2     H13409   3.918   4.026  15.822 -0.1855  0.5902  0.6749
  912MPD2    H113410   4.009   3.756  15.491 -0.1147  1.5820 -2.3520
  912MPD2    H213411   3.935   4.159  15.422 -4.0701 -1.9578 -1.9087
  912MPD2    H313412   3.993   3.938  15.350  0.9480  1.6234 -0.1149
  912MPD2     N13413   3.982   3.771  15.782 -0.1683  0.1422 -0.0460
  912MPD2    H513414   3.959   3.793  15.878  1.1322 -0.5404  0.4162
  912MPD2    N113415   3.887   4.242  15.658  0.8940  0.1295 -0.1592
  912MPD2    H713416   3.878   4.317  15.590 -1.2363 -1.5446 -1.6791
  913MPD2     C13417   0.196   0.148  10.703  0.0472 -0.0961 -0.7130
  913MPD2    C113418   0.302   0.243  10.718 -0.5331  0.9741 -0.3956
  913MPD2    C213419   0.323   0.331  10.618 -0.3955  0.5448  0.8193
  913MPD2    C313420   0.253   0.326  10.499 -0.0825  0.3367  0.0986
  913MPD2    C413421   0.158   0.229  10.483  0.0525  0.4441 -0.0280
  913MPD2    C513422   0.124   0.152  10.588 -0.1302 -0.3794  0.6349
  913MPD2     H13423   0.397   0.410  10.632  1.3661 -1.2105  1.4515
  913MPD2    H113424   0.085   0.210  10.405 -0.6132 -0.8357  0.9099
  913MPD2    H213425   0.173   0.078  10.783  0.8708  0.6049  0.1492
  913MPD2    H313426   0.049   0.077  10.565  0.4881 -1.1015  0.9944
  913MPD2     N13427   0.268   0.410  10.385  0.7456 -0.2588 -0.2913
  913MPD2    H513428   0.212   0.390  10.303  2.3774  0.0428 -1.4624
  913MPD2    N113429   0.376   0.249  10.843 -0.7022 -0.9222  0.5972
  913MPD2    H713430   0.343   0.182  10.911 -0.4760 -0.0862  1.5255
  914MPD2     C13431   2.603   0.023  12.326  0.2396 -0.0455  0.2782
  914MPD2    C113432   2.600   0.147  12.393  0.2615  0.3011 -0.5390
  914MPD2    C213433   2.647   0.161  12.521 -0.6452 -0.0466 -0.1603
  914MPD2    C313434   2.735   0.064  12.563 -0.1514  0.3623  0.0969
  914MPD2    C413435   2.752   4.687  12.492 -0.3145 -0.2749  0.6750
  914MPD2    C513436   2.679   4.662  12.380  0.2259  0.0094  0.2136
  914MPD2     H13437   2.636   0.250  12.582  2.7283  0.3628 -0.1678
  914MPD2    H113438   2.817   4.607  12.526  1.1304  0.3209 -0.6808
  914MPD2    H213439   2.555   0.005  12.230 -0.5070 -2.5452  1.1269
  914MPD2    H313440   2.707   4.577  12.318 -0.3237  1.7212 -2.3858
  914MPD2     N13441   2.813   0.108  12.665  0.3743 -1.0945 -0.4977
  914MPD2    H513442   2.796   0.204  12.694  2.7707 -1.2494  1.4620
  914MPD2    N113443   2.537   0.250  12.328 -0.0006  0.0185 -0.1242
  914MPD2    H713444   2.516   0.244  12.229 -0.6717  0.0880  0.0180
  915MPD2     C13445   0.624   0.669  15.256  0.0463  0.0211  0.7740
  915MPD2    C113446   0.494   0.705  15.274  0.2692 -0.4294 -0.5239
  915MPD2    C213447   0.456   0.751  15.397  0.0652  0.2372  0.4542
  915MPD2    C313448   0.541   0.758  15.502  0.2571  0.8507 -0.9331
  915MPD2    C413449   0.673   0.717  15.494  0.3424  0.7589 -0.3982
  915MPD2    C513450   0.709   0.678  15.362  0.2328 -1.1041  0.6964
  915MPD2     H13451   0.353   0.779  15.418  0.3642  1.0105  0.8889
  915MPD2    H113452   0.749   0.717  15.571  0.8227  2.7183 -0.8662
  915MPD2    H213453   0.654   0.631  15.159  1.6829  1.3989  0.7382
  915MPD2    H313454   0.810   0.644  15.339  0.7914  2.3056 -1.9567
  915MPD2     N13455   0.480   0.798  15.625  0.3485 -0.4174 -0.4791
  915MPD2    H513456   0.387   0.838  15.626  0.1322 -0.9472 -0.0004
  915MPD2    N113457   0.401   0.673  15.169 -0.3309 -0.2764  0.9069
  915MPD2    H713458   0.438   0.626  15.087  1.4141  1.1371  0.8801
  916MPD2     C13459   3.651   3.642  15.681 -0.8217 -0.5825 -0.0644
  916MPD2    C113460   3.653   3.540  15.766  1.1322  0.2745 -0.1300
  916MPD2    C213461   3.728   3.427  15.744  0.2702 -0.1454  0.4898
  916MPD2    C313462   3.807   3.417  15.629 -0.4202  0.1585  0.4516
  916MPD2    C413463   3.802   3.523  15.539 -0.1931 -0.3800 -0.6855
  916MPD2    C513464   3.715   3.629  15.560  0.7033  0.4955  0.5233
  916MPD2     H13465   3.732   3.343  15.812 -0.8670 -1.4219 -1.0157
  916MPD2    H113466   3.849   3.517  15.441  0.5852 -1.7538 -0.2322
  916MPD2    H213467   3.604   3.736  15.709  3.2745  1.7295 -0.8969
  916MPD2    H313468   3.701   3.694  15.474 -1.6122  0.6091  0.9932
  916MPD2     N13469   3.875   3.295  15.612  0.0663 -0.2086  0.4453
  916MPD2    H513470   3.870   3.219  15.679 -2.0557 -0.0764  0.4585
  916MPD2    N113471   3.585   3.562  15.889 -0.2718  0.8027 -0.1430
  916MPD2    H713472   3.537   3.651  15.899  0.3498  1.2567 -1.1828
  917MPD2     C13473   3.975   1.126  10.915 -1.0920  0.7445  0.0508
  917MPD2    C113474   3.925   1.202  11.025  0.8577  0.4838  0.1687
  917MPD2    C213475   3.921   1.346  11.023  0.5586  0.6251  0.4435
  917MPD2    C313476   3.981   1.410  10.917 -0.5971 -0.3073 -0.8497
  917MPD2    C413477   4.030   1.336  10.818 -0.4250 -0.2817  0.3659
  917MPD2    C513478   4.039   1.198  10.821 -0.3160  0.8462 -0.0155
  917MPD2     H13479   3.867   1.403  11.097  0.2358 -0.4838  1.0478
  917MPD2    H113480   4.064   1.390  10.730 -0.6209 -0.0635  0.4255
  917MPD2    H213481   3.985   1.018  10.919  1.3648  0.9827  0.0219
  917MPD2    H313482   4.070   1.134  10.739  1.4661 -1.3401  2.3709
  917MPD2     N13483   3.978   1.548  10.912  0.8525 -0.3177  0.3596
  917MPD2    H513484   4.052   1.585  10.853  1.9717  0.7051  2.4117
  917MPD2    N113485   3.873   1.130  11.134  1.0888 -0.0926  0.1962
  917MPD2    H713486   3.862   1.030  11.118  1.0075  0.1429 -1.1939
  918MPD2     C13487   3.943   1.527  12.049 -0.3615 -0.1448 -0.6950
  918MPD2    C113488   4.036   1.462  11.979  0.2794 -0.1233 -0.0694
  918MPD2    C213489   3.990   1.382  11.878  0.4148  0.7056 -0.2715
  918MPD2    C313490   3.860   1.353  11.851  0.7647  0.1091 -0.0997
  918MPD2    C413491   3.761   1.405  11.933  0.5172  0.7355  0.1304
  918MPD2    C513492   3.808   1.498  12.024 -0.5702 -0.2131  0.3409
  918MPD2     H13493   4.068   1.367  11.803 -0.3239 -0.6536 -0.7534
  918MPD2    H113494   3.657   1.373  11.932  1.1970 -1.4239 -1.0907
  918MPD2    H213495   3.956   1.599  12.129  0.2735  0.3747 -1.2667
  918MPD2    H313496   3.731   1.543  12.086 -1.1916  0.0360 -0.6144
  918MPD2     N13497   3.841   1.260  11.750 -0.0014  0.1334  0.2526
  918MPD2    H513498   3.924   1.226  11.703  0.3131 -0.7380  1.4474
  918MPD2    N113499   4.171   1.484  11.998 -0.3560  0.3011 -0.2211
  918MPD2    H713500   4.231   1.429  11.938 -1.5221  1.5281 -2.5136
  919MPD2     C13501   4.597   0.069  11.578 -0.4202 -0.5933 -0.4565
  919MPD2    C113502   4.464   0.045  11.556  0.5400 -0.4469  1.0780
  919MPD2    C213503   4.403   0.139  11.474  0.3735 -0.4164 -0.9686
  919MPD2    C313504   4.460   0.245  11.411  0.3327 -0.4226  0.5091
  919MPD2    C413505   4.592   0.273  11.437  0.4891 -0.4282  0.5874
  919MPD2    C513506   4.658   0.172  11.510 -0.4577  0.2088 -0.4278
  919MPD2     H13507   4.298   0.118  11.462  0.9950 -3.7744 -0.4465
  919MPD2    H113508   4.648   0.357  11.398  2.6236 -2.1150  0.0323
  919MPD2    H213509   4.650   0.002  11.644  3.4103  2.4062 -0.4737
  919MPD2    H313510   0.020   0.188  11.541 -0.9806 -1.2190  2.0499
  919MPD2     N13511   4.396   0.342  11.324 -0.0267 -0.7364 -0.1730
  919MPD2    H513512   4.452   0.413  11.278 -0.2781 -0.8618 -0.6628
  919MPD2    N113513   4.391   4.670  11.601  0.6643 -0.4153 -0.6899
  919MPD2    H713514   4.299   4.653  11.560  0.2099 -0.1073  0.1976
  920MPD2     C13515   4.442   0.199  10.414  0.4028  0.0474  0.1127
  920MPD2    C113516   4.323   0.173  10.465  0.8159 -0.1750  0.8591
  920MPD2    C213517   4.282   0.240  10.576  0.0563 -0.2431  0.6197
  920MPD2    C313518   4.366   0.322  10.650 -0.0534  0.2111  0.1933
  920MPD2    C413519   4.488   0.358  10.594  0.2012 -0.2104 -0.3266
  920MPD2    C513520   4.524   0.292  10.479  0.0901 -0.4641  0.4767
  920MPD2     H13521   4.183   0.227  10.620 -1.5214  2.4728 -2.2084
  920MPD2    H113522   4.560   0.433  10.626  0.7829 -0.9354  0.0957
  920MPD2    H213523   4.473   0.150  10.322  0.0223  1.2976 -0.6796
  920MPD2    H313524   4.626   0.303  10.444  0.7682  1.2945  2.9717
  920MPD2     N13525   4.322   0.392  10.764  0.5619  0.1993  0.6082
  920MPD2    H513526   4.227   0.376  10.797 -0.0996  0.8306 -1.0202
  920MPD2    N113527   4.231   0.089  10.403 -0.7586  0.0086  0.5890
  920MPD2    H713528   4.139   0.087  10.446 -0.8014  1.0175  0.5325
  921MPD2     C13529   0.356   4.233  16.859  0.0508  0.7519 -0.1232
  921MPD2    C113530   0.400   4.180  16.734  0.0327  0.0621 -0.3073
  921MPD2    C213531   0.318   4.083  16.669 -0.1649 -0.2407  0.5809
  921MPD2    C313532   0.192   4.046  16.716  0.3946  0.4018  0.1813
  921MPD2    C413533   0.155   4.096  16.837  0.6728  0.1936  0.1369
  921MPD2    C513534   0.241   4.184  16.906  0.2755  0.1656  0.3549
  921MPD2     H13535   0.365   4.032  16.587 -1.3355 -1.8213  0.8991
  921MPD2    H113536   0.058   4.080  16.883 -0.0717  0.5723 -1.3068
  921MPD2    H213537   0.424   4.301  16.910  1.4899 -1.0818  0.4214
  921MPD2    H313538   0.214   4.201  17.010  0.3106 -0.0994  0.4078
  921MPD2     N13539   0.098   3.968  16.646  0.6627  0.4379  0.1912
  921MPD2    H513540   0.010   3.939  16.689 -0.2279  3.2486  0.2228
  921MPD2    N113541   0.528   4.218  16.687 -0.6060  0.2848  0.1832
  921MPD2    H713542   0.596   4.267  16.744  1.3858  1.3838 -3.1820
  922MPD2     C13543   1.252   2.138  16.878 -0.3264  0.5997  0.0143
  922MPD2    C113544   1.173   2.118  16.991 -0.2667 -0.0560  0.5758
  922MPD2    C213545   1.137   1.990  17.024 -0.3334  0.5893  0.3520
  922MPD2    C313546   1.190   1.880  16.956  0.1441 -0.0641  0.3249
  922MPD2    C413547   1.271   1.899  16.845 -0.2051 -0.1425  0.0450
  922MPD2    C513548   1.302   2.029  16.813  0.0313 -0.3173 -0.3203
  922MPD2     H13549   1.068   1.975  17.106 -1.3666 -0.1880 -0.6640
  922MPD2    H113550   1.305   1.819  16.780  1.7405  1.2783 -0.7188
  922MPD2    H213551   1.275   2.235  16.834 -3.2983  0.7361 -1.2310
  922MPD2    H313552   1.357   2.043  16.720 -0.5925  0.2729 -0.6010
  922MPD2     N13553   1.141   1.751  16.993 -0.2669  0.4564 -0.5418
  922MPD2    H513554   1.085   1.743  17.077 -1.1294  3.5727 -0.7946
  922MPD2    N113555   1.139   2.214  17.082  0.0759 -0.5517 -0.1254
  922MPD2    H713556   1.090   2.184  17.165  0.0087 -0.9401 -0.3053
  923MPD2     C13557   2.698   2.878   9.691  0.7201  0.2669  0.0456
  923MPD2    C113558   2.764   2.995   9.644 -0.0087 -0.5554  0.3215
  923MPD2    C213559   2.902   2.991   9.683  0.5529 -0.0751  0.2084
  923MPD2    C313560   2.967   2.900   9.759  0.2437 -0.3361  0.7585
  923MPD2    C413561   2.892   2.784   9.794 -0.3876  0.5210  0.4586
  923MPD2    C513562   2.760   2.777   9.758  0.1804 -0.5044 -0.3864
  923MPD2     H13563   2.965   3.076   9.660 -2.2501  1.5990 -1.3049
  923MPD2    H113564   2.919   2.716   9.874 -0.1947  0.1347  0.0703
  923MPD2    H213565   2.590   2.870   9.681  0.9003  0.3311 -1.9123
  923MPD2    H313566   2.703   2.691   9.788 -1.4986  1.0990  1.0062
  923MPD2     N13567   3.096   2.929   9.810 -0.0108  0.0094 -0.5170
  923MPD2    H513568   3.125   3.025   9.795 -1.3293  1.0736  3.6978
  923MPD2    N113569   2.701   3.100   9.569  0.1524 -0.3846  0.1854
  923MPD2    H713570   2.601   3.101   9.547  0.3746 -1.6205 -0.8620
  924MPD2     C13571   2.611   1.829  15.765  0.1531 -0.2657  0.3091
  924MPD2    C113572   2.577   1.822  15.899 -0.1919 -0.4192 -0.2279
  924MPD2    C213573   2.651   1.894  15.988 -0.0078 -0.2385 -0.1744
  924MPD2    C313574   2.757   1.969  15.949  0.2944 -0.2231 -0.7622
  924MPD2    C413575   2.791   1.983  15.817 -0.3710  0.0990 -0.1498
  924MPD2    C513576   2.714   1.912  15.723  0.0389  0.1666 -0.7757
  924MPD2     H13577   2.634   1.882  16.094  0.9939  3.2481  0.3532
  924MPD2    H113578   2.871   2.050  15.788  0.2270 -0.5798 -0.0505
  924MPD2    H213579   2.549   1.785  15.688 -0.1576 -1.0649  1.0233
  924MPD2    H313580   2.744   1.910  15.619 -0.0226  1.4210 -0.8196
  924MPD2     N13581   2.826   2.047  16.047 -0.4284 -0.2460  0.5938
  924MPD2    H513582   2.888   2.121  16.013 -0.6912 -1.6120 -2.8861
  924MPD2    N113583   2.460   1.744  15.938  0.5804  0.1039  0.2969
  924MPD2    H713584   2.430   1.664  15.883 -2.7027  0.4219  1.6764
  925MPD2     C13585   1.173   4.665  14.945 -0.3913 -0.1696 -0.5662
  925MPD2    C113586   1.081   4.739  14.875 -0.1247 -0.0310 -0.2415
  925MPD2    C213587   0.997   0.089  14.952  0.1072 -0.7458  0.3170
  925MPD2    C313588   1.020   0.104  15.092  0.1072 -0.3502 -0.8370
  925MPD2    C413589   1.123   0.044  15.150 -0.1849 -0.3235  0.3154
  925MPD2    C513590   1.197   4.693  15.078 -0.3547  0.4875  0.6559
  925MPD2     H13591   0.927   0.158  14.905 -2.2649 -1.6843  2.4890
  925MPD2    H113592   1.141   0.048  15.256  0.1687 -0.8213  0.2732
  925MPD2    H213593   1.243   4.598  14.897 -1.4704 -2.1356  0.6101
  925MPD2    H313594   1.281   4.647  15.130  0.9488  0.1466 -1.7225
  925MPD2     N13595   0.934   0.180  15.178 -0.2337  1.3500  0.3837
  925MPD2    H513596   0.944   0.160  15.277 -1.3844 -0.0563  0.2145
  925MPD2    N113597   1.062   4.737  14.733  0.0803 -0.0855 -0.2377
  925MPD2    H713598   0.984   0.048  14.693  0.6275  0.0277 -1.1608
  926MPD2     C13599   0.308   3.187  13.113 -0.4980  0.4743 -1.2685
  926MPD2    C113600   0.188   3.242  13.077 -0.3520 -0.8882 -0.0426
  926MPD2    C213601   0.176   3.336  12.971  0.1251 -0.7296 -0.5983
  926MPD2    C313602   0.290   3.391  12.914  0.6567 -0.2557 -0.3740
  926MPD2    C413603   0.412   3.347  12.962 -0.4593  0.8504 -0.0684
  926MPD2    C513604   0.415   3.247  13.059  0.4108 -0.0223 -0.3190
  926MPD2     H13605   0.077   3.357  12.931 -1.3229 -0.1412  3.2400
  926MPD2    H113606   0.504   3.381  12.917 -0.4558 -1.1071 -1.5521
  926MPD2    H213607   0.307   3.108  13.187 -0.0660  0.4515 -1.2888
  926MPD2    H313608   0.507   3.199  13.091  1.1328  1.1887 -0.5973
  926MPD2     N13609   0.294   3.492  12.817  0.4641  0.4895  0.0573
  926MPD2    H513610   0.384   3.524  12.784  0.6209  0.7462  0.7467
  926MPD2    N113611   0.062   3.194  13.127 -0.2886 -0.0433 -0.6962
  926MPD2    H713612   4.716   3.232  13.089 -1.7829 -0.6417  2.1560
  927MPD2     C13613   4.266   0.864  17.304  0.1079  0.5182  0.3166
  927MPD2    C113614   4.344   0.974  17.335  0.9713 -0.9391 -0.0182
  927MPD2    C213615   4.406   1.044  17.230  0.2731  0.2261  0.6992
  927MPD2    C313616   4.373   1.015  17.101 -0.3983  0.2899  0.3552
  927MPD2    C413617   4.278   0.914  17.075  0.3849 -0.2519  0.2226
  927MPD2    C513618   4.231   0.836  17.177  0.3001 -0.5267 -0.2576
  927MPD2     H13619   4.485   1.116  17.248 -0.5577  1.2991  0.0197
  927MPD2    H113620   4.236   0.893  16.977 -1.9947 -0.8506  1.3689
  927MPD2    H213621   4.210   0.816  17.383 -0.7312 -1.1471 -1.2868
  927MPD2    H313622   4.171   0.748  17.157  0.6861 -0.9363  0.3541
  927MPD2     N13623   4.444   1.091  17.002  0.0755  0.4287 -0.3529
  927MPD2    H513624   4.520   1.153  17.029 -0.3799  1.6071 -1.7426
  927MPD2    N113625   4.357   1.000  17.470 -0.4743 -0.1504  0.7485
  927MPD2    H713626   4.306   0.942  17.535 -0.9151  0.1667  0.6806
  928MPD2     C13627   2.322   3.679   0.355  0.1295 -0.2022 -0.1578
  928MPD2    C113628   2.350   3.807   0.391 -0.2097  0.4596  0.8206
  928MPD2    C213629   2.372   3.904   0.291  0.0784 -0.0326  0.4622
  928MPD2    C313630   2.348   3.868   0.155 -0.1559 -0.0420  0.1366
  928MPD2    C413631   2.307   3.744   0.128 -0.4914  0.1441  0.1467
  928MPD2    C513632   2.306   3.650   0.226  0.7002  0.2448 -0.7002
  928MPD2     H13633   2.411   4.003   0.310  0.4366  0.0123 -0.5408
  928MPD2    H113634   2.287   3.705   0.029  0.0931  0.2419 -0.0088
  928MPD2    H213635   2.326   3.593   0.420 -0.0337  0.4055  0.6551
  928MPD2    H313636   2.271   3.550   0.200 -0.6911  0.5889 -0.1361
  928MPD2     N13637   2.352   3.951   0.047  0.3335  0.5617  0.3810
  928MPD2    H513638   2.327   3.920  17.711 -0.5523  0.8009  0.5341
  928MPD2    N113639   2.385   3.838   0.528  0.3632  0.0944 -0.0188
  928MPD2    H713640   2.394   3.770   0.603 -0.8329  1.4759  1.3710
  929MPD2     C13641   3.056   3.465  10.624 -0.1791  0.6496  0.6118
  929MPD2    C113642   2.936   3.403  10.634 -0.4632 -0.7074  0.4584
  929MPD2    C213643   2.868   3.367  10.518  0.4050  0.0301  0.2641
  929MPD2    C313644   2.923   3.396  10.393 -0.0451 -0.9530 -0.4167
  929MPD2    C413645   3.047   3.444  10.384 -0.1499  0.1021  0.2509
  929MPD2    C513646   3.114   3.472  10.501 -0.5846  0.3188  0.8125
  929MPD2     H13647   2.766   3.334  10.533  0.3012 -0.3226 -1.2345
  929MPD2    H113648   3.091   3.464  10.287 -0.7299 -1.5637 -0.3622
  929MPD2    H213649   3.109   3.502  10.711  2.8478 -0.3348 -0.8294
  929MPD2    H313650   3.212   3.519  10.500  0.0625 -1.0189  2.5700
  929MPD2     N13651   2.846   3.397  10.277  0.7778 -0.2746  0.4939
  929MPD2    H513652   2.882   3.437  10.190 -1.1983  2.6268  1.0252
  929MPD2    N113653   2.881   3.400  10.762 -0.4807 -0.1743 -0.3293
  929MPD2    H713654   2.918   3.471  10.824  0.3247  1.0378 -2.1844
  930MPD2     C13655   4.162   1.206  13.489 -0.6310  0.0289  0.0324
  930MPD2    C113656   4.266   1.117  13.494 -0.3228 -0.7249  0.2664
  930MPD2    C213657   4.237   0.985  13.498  0.4967 -0.2680 -0.0263
  930MPD2    C313658   4.112   0.933  13.499 -0.2571 -0.4003 -0.3549
  930MPD2    C413659   4.006   1.019  13.506  0.2037 -0.3496  0.2343
  930MPD2    C513660   4.030   1.149  13.490  0.8585  0.0788  0.6403
  930MPD2     H13661   4.314   0.910  13.499  0.8021  0.0591  0.5689
  930MPD2    H113662   3.904   0.987  13.520  0.7355 -1.7427  0.9485
  930MPD2    H213663   4.173   1.313  13.484  2.3583 -0.2446  0.7891
  930MPD2    H313664   3.941   1.210  13.482 -0.3004 -1.6131  0.7022
  930MPD2     N13665   4.083   0.794  13.483  0.1617  0.4548 -0.0076
  930MPD2    H513666   3.988   0.768  13.504  0.3100 -1.9014 -2.3241
  930MPD2    N113667   4.397   1.167  13.473  0.0644  0.3584  0.2122
  930MPD2    H713668   4.405   1.268  13.467 -0.1828  0.4073  0.7244
  931MPD2     C13669   0.047   0.621   0.052  0.1907  0.1562  0.5661
  931MPD2    C113670   4.679   0.657   0.128  0.0056 -1.0012  0.5645
  931MPD2    C213671   4.626   0.567   0.219 -0.1380  0.1705  1.1078
  931MPD2    C313672   4.688   0.441   0.244 -0.1316  0.1312  0.4503
  931MPD2    C413673   0.063   0.414   0.168  0.1574  0.3143 -0.7792
  931MPD2    C513674   0.101   0.493   0.065  0.1095  0.3213 -0.5253
  931MPD2     H13675   4.562   0.602   0.298 -3.0932 -0.1008 -1.1831
  931MPD2    H113676   0.120   0.322   0.176 -2.3511 -1.2799 -0.9734
  931MPD2    H213677   0.087   0.690  17.737 -0.6101 -1.3448 -1.3028
  931MPD2    H313678   0.188   0.469   0.004 -0.4011 -1.7248 -0.4578
  931MPD2     N13679   4.660   0.352   0.348 -0.0816 -0.2399  0.3953
  931MPD2    H513680   4.717   0.268   0.353 -1.2069 -0.9894  0.7402
  931MPD2    N113681   4.613   0.788   0.116 -0.5350 -0.3271 -0.3735
  931MPD2    H713682   4.663   0.839   0.044  0.2901  3.6345  3.0351
  932MPD2     C13683   1.496   4.030  10.970  0.2228  0.5131 -0.4378
  932MPD2    C113684   1.626   4.060  10.975 -0.0447 -0.2867 -1.3073
  932MPD2    C213685   1.711   3.950  10.999 -0.1756 -0.3149 -0.3898
  932MPD2    C313686   1.667   3.814  11.013 -0.3075  0.3319 -0.3195
  932MPD2    C413687   1.532   3.787  10.991 -0.0093  0.4549 -0.7890
  932MPD2    C513688   1.450   3.898  10.968 -0.0020  0.0035  0.3746
  932MPD2     H13689   1.816   3.969  11.014 -0.5558  1.3175  0.2006
  932MPD2    H113690   1.488   3.689  11.003 -0.9801  1.1224  1.1626
  932MPD2    H213691   1.423   4.109  10.954 -2.3328 -1.5238  1.0985
  932MPD2    H313692   1.345   3.879  10.951 -0.1241  0.6427  0.3944
  932MPD2     N13693   1.764   3.714  11.041  0.9535 -0.0406 -0.6430
  932MPD2    H513694   1.858   3.750  11.058  1.4269 -1.5815 -0.0171
  932MPD2    N113695   1.676   4.196  10.983 -0.2023 -0.2171 -0.1269
  932MPD2    H713696   1.776   4.199  11.000 -0.4312 -1.3618  1.4097
  933MPD2     C13697   2.569   4.306   1.317 -0.5509  0.1540 -0.0340
  933MPD2    C113698   2.520   4.327   1.192  0.4321  0.1131  0.6005
  933MPD2    C213699   2.487   4.457   1.147  0.5287  0.8410  0.4118
  933MPD2    C313700   2.511   4.560   1.233 -0.2881 -0.2569  1.3022
  933MPD2    C413701   2.566   4.543   1.354 -0.0255  0.4674 -0.0556
  933MPD2    C513702   2.596   4.416   1.399  0.1542  0.6007 -0.2278
  933MPD2     H13703   2.446   4.475   1.049  0.3120 -2.9335 -0.2081
  933MPD2    H113704   2.598   4.618   1.426 -0.1838 -1.0225  1.5660
  933MPD2    H213705   2.590   4.209   1.359 -2.3290 -0.7520 -1.2162
  933MPD2    H313706   2.640   4.393   1.495  0.1982 -0.7580 -0.5620
  933MPD2     N13707   2.464   4.692   1.195  0.4052  0.4875 -0.3212
  933MPD2    H513708   2.429   4.697   1.100 -1.0728 -0.4094  0.1847
  933MPD2    N113709   2.523   4.221   1.099 -0.7774 -0.1921  0.1446
  933MPD2    H713710   2.556   4.133   1.137 -0.4146 -0.5654 -1.0259
  934MPD2     C13711   3.615   2.025   1.818  0.3606 -0.2555  0.3777
  934MPD2    C113712   3.713   1.990   1.730 -0.4576  0.9287 -0.1437
  934MPD2    C213713   3.674   1.943   1.607  0.2128 -0.3144 -0.2690
  934MPD2    C313714   3.551   1.899   1.575  0.0542  0.2210 -0.4987
  934MPD2    C413715   3.456   1.944   1.659 -0.3447 -0.7529  0.1103
  934MPD2    C513716   3.486   2.002   1.784 -0.3274 -0.6929  0.2873
  934MPD2     H13717   3.748   1.930   1.530 -0.3953 -1.0465 -0.7293
  934MPD2    H113718   3.351   1.932   1.635 -0.7132 -0.0599  1.4223
  934MPD2    H213719   3.640   2.069   1.914  0.4266 -3.7112  1.9596
  934MPD2    H313720   3.411   2.036   1.855  0.1202 -0.0313  0.4511
  934MPD2     N13721   3.510   1.830   1.459  0.2899  0.2348  0.0569
  934MPD2    H513722   3.413   1.802   1.466  0.0759  0.8737 -0.4608
  934MPD2    N113723   3.853   2.008   1.750  0.0727 -0.4146  0.4647
  934MPD2    H713724   3.922   1.963   1.691 -0.0009  2.7487 -1.9665
  935MPD2     C13725   3.920   1.207   0.772 -0.2892  0.0319  0.2657
  935MPD2    C113726   3.782   1.189   0.762  0.1088 -0.2611 -0.6794
  935MPD2    C213727   3.694   1.274   0.823 -0.9398  0.2179 -0.5745
  935MPD2    C313728   3.744   1.393   0.872  0.4273  0.3243  0.4831
  935MPD2    C413729   3.881   1.419   0.864  0.1446 -0.2654 -0.2722
  935MPD2    C513730   3.971   1.327   0.814  0.2309  0.7020  0.6906
  935MPD2     H13731   3.588   1.261   0.840 -0.7141 -0.9973 -0.1124
  935MPD2    H113732   3.913   1.507   0.917  1.9213 -0.4770 -1.0121
  935MPD2    H213733   3.994   1.140   0.728 -0.4450  0.0126  0.0370
  935MPD2    H313734   4.077   1.347   0.822  0.4735 -0.6322  0.7356
  935MPD2     N13735   3.669   1.479   0.947 -0.3367 -0.2152 -0.2728
  935MPD2    H513736   3.719   1.553   0.996 -0.9176  0.6969 -1.0489
  935MPD2    N113737   3.733   1.072   0.700  0.1970 -0.7224 -0.0186
  935MPD2    H713738   3.633   1.061   0.686  0.3582 -0.1135 -1.5722
  936MPD2     C13739   1.973   2.604  12.800  0.2587  0.1383 -0.0231
  936MPD2    C113740   1.961   2.716  12.724  0.4789 -0.0821  0.4944
  936MPD2    C213741   2.028   2.740  12.608 -0.1316  0.3718  0.3417
  936MPD2    C313742   2.110   2.646  12.555 -0.7047  0.7075  0.1119
  936MPD2    C413743   2.125   2.528  12.627 -0.4051 -0.0641  0.4334
  936MPD2    C513744   2.057   2.509  12.749  0.8085  0.4138 -0.1717
  936MPD2     H13745   2.017   2.831  12.551  0.3405  0.4241  0.3367
  936MPD2    H113746   2.175   2.438  12.594  2.7983  2.8137 -2.6650
  936MPD2    H213747   1.929   2.575  12.895  0.9872 -1.9816 -0.3195
  936MPD2    H313748   2.069   2.414  12.801  1.1453  1.1636  1.1327
  936MPD2     N13749   2.173   2.681  12.435 -0.3383 -0.3344 -0.2474
  936MPD2    H513750   2.137   2.769  12.400 -1.8961 -0.3755  1.2509
  936MPD2    N113751   1.896   2.823  12.772  0.4198  0.2012 -0.5389
  936MPD2    H713752   1.885   2.908  12.717 -0.2732  0.2712 -0.2950
  937MPD2     C13753   4.081   4.131  11.293 -0.1082 -0.7026 -0.4983
  937MPD2    C113754   4.204   4.185  11.329 -0.8041 -0.6167 -0.5696
  937MPD2    C213755   4.300   4.206  11.234  0.3407  0.5014 -0.2276
  937MPD2    C313756   4.273   4.172  11.100  0.1770  0.5489  0.0484
  937MPD2    C413757   4.152   4.110  11.065  0.4141  0.3244 -0.6664
  937MPD2    C513758   4.060   4.088  11.167  0.1503  0.1928 -0.5740
  937MPD2     H13759   4.388   4.259  11.270  1.2675 -0.0113 -1.6955
  937MPD2    H113760   4.128   4.096  10.961 -0.0596  2.3719 -0.8369
  937MPD2    H213761   3.998   4.116  11.361  0.5931  0.1600  0.5462
  937MPD2    H313762   3.967   4.049  11.130 -0.2953  1.6236 -0.9789
  937MPD2     N13763   4.370   4.207  11.000  0.2149  0.6401  0.3951
  937MPD2    H513764   4.448   4.267  11.023 -1.4760  3.3863 -0.9815
  937MPD2    N113765   4.235   4.248  11.451 -0.1109 -0.1923  0.1541
  937MPD2    H713766   4.314   4.312  11.452  1.2826 -1.9302 -0.8292
  938MPD2     C13767   2.387   1.201   0.134  0.4828 -0.1830 -0.3944
  938MPD2    C113768   2.455   1.286   0.227 -0.0016  0.1163  0.0495
  938MPD2    C213769   2.491   1.240   0.351  0.0467 -0.8660 -0.4919
  938MPD2    C313770   2.451   1.111   0.388  0.6885  0.1941 -0.4000
  938MPD2    C413771   2.372   1.041   0.300  0.0002  0.1324 -0.6663
  938MPD2    C513772   2.350   1.076   0.169  0.3892  0.0502 -1.0003
  938MPD2     H13773   2.543   1.304   0.421  2.6035  0.8517 -3.9779
  938MPD2    H113774   2.331   0.944   0.329 -0.9157  0.7976  0.2340
  938MPD2    H213775   2.377   1.231   0.030 -3.1032 -0.2144 -0.0409
  938MPD2    H313776   2.306   1.013   0.093  0.5098 -0.2790 -0.7963
  938MPD2     N13777   2.486   1.052   0.511 -0.2111  0.5852 -0.3811
  938MPD2    H513778   2.442   0.961   0.520  0.4614  0.2149 -0.9217
  938MPD2    N113779   2.504   1.410   0.197 -0.2267  0.0785 -0.6213
  938MPD2    H713780   2.554   1.457   0.272  0.6351  2.1269 -2.4734
  939MPD2     C13781   3.206   2.435   0.800  0.1514  0.1482  0.6630
  939MPD2    C113782   3.335   2.416   0.856  0.0291 -0.0724 -0.4227
  939MPD2    C213783   3.441   2.383   0.768  0.0695  0.3140 -0.3344
  939MPD2    C313784   3.425   2.365   0.632 -0.6302  0.3579 -0.1611
  939MPD2    C413785   3.296   2.386   0.586  0.8360 -0.2731  0.2079
  939MPD2    C513786   3.189   2.425   0.665  0.1921 -0.9084  0.6082
  939MPD2     H13787   3.541   2.392   0.807 -0.6642 -1.1791  1.8837
  939MPD2    H113788   3.273   2.375   0.481 -1.9808  1.7386  0.6309
  939MPD2    H213789   3.121   2.467   0.859 -2.3709 -0.8004 -2.4000
  939MPD2    H313790   3.093   2.458   0.628 -0.1708 -2.3503  0.2468
  939MPD2     N13791   3.533   2.324   0.549  0.2045  0.3755 -1.0707
  939MPD2    H513792   3.627   2.316   0.588 -0.5498  0.4551  0.7808
  939MPD2    N113793   3.352   2.427   0.993 -0.1874 -0.3530 -0.7583
  939MPD2    H713794   3.273   2.452   1.051  0.0645 -0.1590 -0.5020
  940MPD2     C13795   3.159   2.949  13.476 -1.0481 -0.9664 -0.0621
  940MPD2    C113796   3.098   2.822  13.486 -0.1040 -0.7822  0.0596
  940MPD2    C213797   3.093   2.730  13.382 -0.0078 -0.3739  0.3184
  940MPD2    C313798   3.147   2.784  13.261  0.8818 -0.7890 -0.4626
  940MPD2    C413799   3.223   2.900  13.249  1.0277 -0.4831 -0.9171
  940MPD2    C513800   3.219   2.981  13.358  0.1856 -0.2784  0.0972
  940MPD2     H13801   3.048   2.633  13.397  0.6138 -0.6488  0.3685
  940MPD2    H113802   3.267   2.925  13.153 -0.2239  0.9367 -1.1164
  940MPD2    H213803   3.169   3.019  13.558  0.9408 -0.6157 -0.5992
  940MPD2    H313804   3.255   3.084  13.359 -0.6300  0.0089 -0.4311
  940MPD2     N13805   3.148   2.714  13.139 -0.1287 -0.2119  0.6721
  940MPD2    H513806   3.187   2.762  13.059  0.7527 -0.1623  1.1345
  940MPD2    N113807   3.031   2.786  13.608 -0.0938 -0.2670  0.4786
  940MPD2    H713808   2.973   2.703  13.607  0.4233 -0.6116 -0.3794
  941MPD2     C13809   1.442   1.965   9.719 -0.1343 -0.6794 -0.8466
  941MPD2    C113810   1.552   1.941   9.808  0.1454  0.3602 -0.4016
  941MPD2    C213811   1.526   1.870   9.922 -0.2635 -0.0156 -0.5652
  941MPD2    C313812   1.399   1.810   9.939 -0.4283  0.1702  0.1344
  941MPD2    C413813   1.295   1.857   9.860 -0.2677  0.3362 -0.2547
  941MPD2    C513814   1.314   1.944   9.752 -0.0980 -0.0645  0.3361
  941MPD2     H13815   1.615   1.859   9.983 -1.6417  0.8922  1.6271
  941MPD2    H113816   1.191   1.838   9.882 -0.7293  2.2179 -0.8127
  941MPD2    H213817   1.457   2.021   9.627 -0.8682  0.0274 -0.5431
  941MPD2    H313818   1.231   1.976   9.691 -1.3768 -1.3417  1.3930
  941MPD2     N13819   1.368   1.719  10.048  0.1820 -0.2647 -0.2868
  941MPD2    H513820   1.271   1.696  10.062 -0.1858  1.9388  0.8922
  941MPD2    N113821   1.688   1.983   9.782  0.0281  0.2989 -0.1443
  941MPD2    H713822   1.751   1.953   9.855 -0.0973  0.0896 -0.1212
  942MPD2     C13823   1.505   3.034   8.687 -0.1653  0.1395  0.2372
  942MPD2    C113824   1.438   3.090   8.793 -0.2693  0.2022  0.2174
  942MPD2    C213825   1.455   3.225   8.828 -0.7468 -0.2015  0.0196
  942MPD2    C313826   1.529   3.310   8.741 -0.6816 -0.5291  0.2053
  942MPD2    C413827   1.593   3.251   8.635 -0.6480 -0.9317  0.4264
  942MPD2    C513828   1.573   3.114   8.604 -0.8785 -0.0966  0.3685
  942MPD2     H13829   1.416   3.270   8.918 -0.5929 -1.3534  0.6635
  942MPD2    H113830   1.671   3.302   8.579 -0.3315 -2.0952 -0.1898
  942MPD2    H213831   1.492   2.931   8.655  0.9739  0.1924 -0.3757
  942MPD2    H313832   1.632   3.064   8.528  0.2206 -0.3718  1.4157
  942MPD2     N13833   1.563   3.445   8.775 -0.0808  0.5477 -0.0424
  942MPD2    H513834   1.642   3.487   8.727  0.4704  0.8125  1.0945
  942MPD2    N113835   1.345   3.012   8.867  0.1753  0.4002 -0.6498
  942MPD2    H713836   1.290   3.063   8.935 -0.3603  0.1119 -0.8690
  943MPD2     C13837   0.967   1.940   9.524 -0.1752  0.6609  0.6054
  943MPD2    C113838   0.957   1.869   9.637 -0.1842  0.5952  0.4023
  943MPD2    C213839   0.948   1.932   9.757  0.1108  0.5164  0.6292
  943MPD2    C313840   0.952   2.076   9.756 -0.3624  0.9139 -0.0054
  943MPD2    C413841   0.955   2.143   9.640  1.3245  0.5818  0.4484
  943MPD2    C513842   0.966   2.074   9.521  0.6899  0.0418  0.1637
  943MPD2     H13843   0.950   1.880   9.852 -2.0845 -0.6702  0.0230
  943MPD2    H113844   0.949   2.250   9.620  0.9936  0.0652 -2.2476
  943MPD2    H213845   0.981   1.879   9.436  1.0594  1.3973  0.2843
  943MPD2    H313846   0.983   2.127   9.428 -0.2012 -0.2444 -0.1659
  943MPD2     N13847   0.950   2.160   9.868  0.0782 -0.3783  0.3549
  943MPD2    H513848   0.953   2.261   9.854 -0.7293 -0.7135 -2.2233
  943MPD2    N113849   0.949   1.732   9.612 -0.1330 -0.7043  0.2829
  943MPD2    H713850   0.962   1.704   9.515  0.4419  0.5261  0.0053
  944MPD2     C13851   0.991   0.569  11.568 -0.4298 -0.7735  0.4353
  944MPD2    C113852   0.982   0.608  11.437 -0.0996 -0.2337  0.1914
  944MPD2    C213853   0.887   0.705  11.410  0.0919  0.3059  0.0482
  944MPD2    C313854   0.802   0.750  11.503  0.2611 -0.1318 -0.3321
  944MPD2    C413855   0.804   0.708  11.636  0.6030 -0.4838  0.2155
  944MPD2    C513856   0.901   0.615  11.660  0.4433  0.1318 -0.3833
  944MPD2     H13857   0.877   0.744  11.309 -0.0620 -2.4185 -0.9749
  944MPD2    H113858   0.738   0.748  11.713 -2.7299 -2.5343 -1.5635
  944MPD2    H213859   1.069   0.498  11.592  1.0258  0.7113  0.1297
  944MPD2    H313860   0.910   0.569  11.758 -0.8715 -0.8685 -0.7214
  944MPD2     N13861   0.711   0.842  11.451  0.0440  0.6320 -0.1602
  944MPD2    H513862   0.717   0.857  11.351  0.2381 -2.5407 -0.6263
  944MPD2    N113863   1.079   0.549  11.345  0.3399  0.0105 -0.0131
  944MPD2    H713864   1.143   0.474  11.370 -0.0059  0.4165  2.0154
    1TMC1    C113865   3.703   1.779  14.633  0.3110  0.4664  0.6896
    1TMC1    C213866   3.715   1.743  14.770 -0.2124  0.3064  0.1796
    1TMC1    C313867   3.731   1.612  14.808 -0.1556 -0.0454  0.3908
    1TMC1    C413868   3.691   1.683  14.538 -0.1726  0.7321  0.2013
    1TMC1    C513869   3.693   1.551  14.585 -0.6398 -0.1641  0.4104
    1TMC1    C613870   3.709   1.514  14.714 -0.2964  0.0380 -0.2496
    1TMC1     C13871   3.710   1.916  14.598 -0.8615 -0.4784  0.2022
    1TMC1     O13872   3.745   1.992  14.688 -0.4067  0.6957  0.3245
    1TMC1     H13873   3.721   1.821  14.845  1.4630 -0.4996  0.8658
    1TMC1    H113874   3.673   1.705  14.434 -0.9929  0.9735  0.3936
    1TMC1    H213875   3.724   1.409  14.737  0.3327 -0.1274 -1.4431
    1TMC1    C713876   3.683   1.437  14.500 -0.4484 -0.1221  0.4923
    1TMC1    C813877   3.752   1.566  14.951 -0.0525 -0.5952  0.0157
    1TMC1    O113878   3.614   1.336  14.525 -0.1935 -0.2316  0.7018
    1TMC1    O213879   3.701   1.460  14.994  0.3810 -0.5065 -0.3344
    1TMC1    O313880   3.755   1.476  14.394  0.2046  0.5383 -0.5196
    1TMC1    H313881   3.794   1.563  14.419  0.2467  0.3482  0.0823
    1TMC1    O513882   3.806   1.667  15.021  0.3619  0.4509  0.2531
    1TMC1    H513883   3.857   1.731  14.967 -0.7767  0.2914 -0.9891
    2MPD2     C13884   3.537   2.354  14.389  0.4008 -1.0667 -0.0714
    2MPD2    C113885   3.544   2.258  14.291 -0.0865  0.2555 -0.5795
    2MPD2    C213886   3.590   2.128  14.322  0.0869 -0.7962 -0.2032
    2MPD2    C313887   3.633   2.093  14.448  0.0485  0.2181 -0.0961
    2MPD2    C413888   3.624   2.194  14.549  0.2432  0.6735  0.2474
    2MPD2    C513889   3.575   2.321  14.516 -0.6407  0.2917  0.2758
    2MPD2     H13890   3.611   2.049  14.251 -1.7510 -2.3688  0.9929
    2MPD2    H113891   3.646   2.177  14.654  1.8791 -1.1300 -0.3756
    2MPD2    H213892   3.513   2.457  14.368 -2.4571 -1.3475  1.6966
    2MPD2    H313893   3.575   2.392  14.598 -0.0976  1.4451 -0.7218
    2MPD2     N13894   3.658   1.955  14.474  0.0123  0.6327  0.4260
    2MPD2    H513895   3.652   1.887  14.399  1.3375 -0.1499  1.0162
    2MPD2    N113896   3.511   2.305  14.164 -0.2904 -0.7585 -0.5387
    2MPD2    H713897   3.487   2.404  14.164  1.1896 -0.4020 -0.1415
    3TMC2    C113898   3.518   2.317  13.931 -0.0063  0.2375  0.6031
    3TMC2    C213899   3.534   2.249  13.817 -0.2043 -0.3143 -0.1286
    3TMC2    C313900   3.624   2.286  13.726 -0.0826 -1.0208 -0.0069
    3TMC2    C413901   3.589   2.433  13.953  0.0171  0.4190 -0.7807
    3TMC2    C513902   3.666   2.480  13.848  0.2343  0.3017 -0.0625
    3TMC2    C613903   3.688   2.403  13.734  0.2278 -0.3017  0.3698
    3TMC2     C13904   3.506   2.229  14.051  0.1152 -0.2953  0.8153
    3TMC2     O13905   3.498   2.108  14.041  0.3129  0.1808  0.4861
    3TMC2     H13906   3.494   2.148  13.813  0.3616 -0.5406  0.0180
    3TMC2    H113907   3.617   2.469  14.051 -1.1919  0.9991 -0.6476
    3TMC2    H213908   3.746   2.444  13.652 -1.2103 -1.7837 -1.3985
    3TMC2    C713909   3.704   2.622  13.854 -0.1063  0.1507 -0.0909
    3TMC2    C813910   3.648   2.206  13.610  0.4001  0.2115 -0.6433
    3TMC2    O113911   3.752   2.673  13.753  0.3344  0.0949 -0.2719
    3TMC2    O213912   3.742   2.212  13.534 -0.5796  0.0008 -0.0603
    3TMC2    O513913   3.524   2.158  13.578  0.5077 -0.0541 -0.0114
    3TMC2    H513914   3.452   2.186  13.639  0.0360 -0.7247 -0.2729
    4TMC2    C113915   2.986   3.130  14.212 -0.2848  0.0359 -0.1039
    4TMC2    C213916   2.990   3.136  14.348  0.0759 -0.4794  0.6502
    4TMC2    C313917   3.115   3.147  14.413  1.4349 -0.1387 -0.3591
    4TMC2    C413918   3.100   3.122  14.143  0.0766 -0.6526  0.1950
    4TMC2    C513919   3.228   3.130  14.208 -0.0670  0.1487  0.1243
    4TMC2    C613920   3.226   3.140  14.342 -0.6618  0.3940 -0.3464
    4TMC2     C13921   2.857   3.110  14.151  0.3219  0.0215  0.0113
    4TMC2     O13922   2.769   3.100  14.235 -0.0077 -0.3163 -0.6144
    4TMC2     H13923   2.901   3.165  14.401 -0.0531  1.0005 -0.3748
    4TMC2    H113924   3.094   3.098  14.037 -0.7665 -0.9407  0.3050
    4TMC2    H213925   3.318   3.135  14.399 -0.7933  1.2899 -0.0613
    4TMC2    C713926   3.321   3.033  14.155 -0.3574  0.6267 -0.5251
    4TMC2    C813927   3.131   3.162  14.553 -0.4957 -0.2606  0.1652
    4TMC2    O113928   3.271   2.923  14.119  0.2076  0.5651  0.1949
    4TMC2    O213929   3.220   3.231  14.602 -0.3489 -0.2497 -0.1274
    4TMC2    O513930   3.009   3.140  14.609  0.1039 -0.4892 -0.0356
    4TMC2    H513931   2.953   3.081  14.555 -1.8063  1.6179 -0.3984
    5MPD2     C13932   2.527   3.018  13.775 -0.3403 -0.1287  0.2355
    5MPD2    C113933   2.650   3.016  13.722 -0.3167  0.0933  0.4183
    5MPD2    C213934   2.761   3.046  13.795  0.4554  0.1545  0.7520
    5MPD2    C313935   2.750   3.073  13.934 -0.5745  0.4831 -0.1075
    5MPD2    C413936   2.622   3.071  13.987  0.3071  0.4744  0.0590
    5MPD2    C513937   2.515   3.047  13.903 -0.5384  0.3065 -0.6672
    5MPD2     H13938   2.861   3.044  13.753 -0.0019  4.0524 -0.5231
    5MPD2    H113939   2.599   3.097  14.090 -0.2379 -0.7503  0.2453
    5MPD2    H213940   2.444   2.985  13.714  1.6709  1.3183 -3.2526
    5MPD2    H313941   2.416   3.040  13.946 -0.0623  2.2222  0.7065
    5MPD2     N13942   2.859   3.115  14.015  0.0552  0.3599 -0.1436
    5MPD2    H513943   2.946   3.126  13.965  0.4575  0.1225  0.4978
    5MPD2    N113944   2.659   2.968  13.589  0.0210  0.1286 -0.1579
    5MPD2    H713945   2.586   2.913  13.545 -1.3450  0.6337  1.4837
    6MPD1     C13946   1.605   4.211  12.964  0.7637 -0.0774  0.0136
    6MPD1    C113947   1.684   4.229  13.080 -1.5209 -0.3949 -0.6782
    6MPD1    C213948   1.792   4.147  13.099 -0.3286 -0.0255 -0.3460
    6MPD1    C313949   1.838   4.076  12.986  0.8423  0.5586 -0.3320
    6MPD1    C413950   1.778   4.090  12.867 -0.2099 -0.2564 -0.2486
    6MPD1    C513951   1.657   4.154  12.856 -0.0079  0.3338 -0.7981
    6MPD1     H13952   1.846   4.141  13.193  3.1935 -2.2119 -2.4961
    6MPD1    H113953   1.819   4.041  12.780  0.2678 -0.6174  0.1828
    6MPD1    H213954   1.508   4.258  12.957  0.4235 -0.4246  2.2526
    6MPD1    H313955   1.612   4.162  12.758  1.8448 -2.0483 -1.8368
    6MPD1     N13956   1.934   3.973  12.997 -0.2847 -0.5257  0.3804
    6MPD1    H513957   1.942   3.912  12.916 -3.2560 -0.5689  0.1186
    6MPD1    N113958   1.633   4.302  13.192  0.1137 -0.1835 -0.1990
    6MPD1    H613959   1.712   4.342  13.242 -0.4460  0.3961  0.2126
    6MPD1    H713960   1.575   4.375  13.151 -0.1431 -0.7435 -0.8522
    7MPD2     C13961   2.095   3.265  13.470  0.7202  0.0691  0.4283
    7MPD2    C113962   2.131   3.258  13.336 -0.0436  0.5377  0.6623
    7MPD2    C213963   2.221   3.162  13.288 -0.6671  0.8310 -0.5605
    7MPD2    C313964   2.263   3.068  13.381  0.5283  0.6733  0.1770
    7MPD2    C413965   2.222   3.064  13.512 -0.1199 -0.5980 -0.3631
    7MPD2    C513966   2.131   3.158  13.556 -0.2938 -0.1363  0.3661
    7MPD2     H13967   2.256   3.170  13.186  1.5517  1.3693  0.2611
    7MPD2    H113968   2.247   2.978  13.573  0.0115  0.7235  1.4449
    7MPD2    H213969   2.042   3.351  13.509 -0.2463 -1.4596  2.5299
    7MPD2    H313970   2.098   3.164  13.659  0.5210  1.7054  0.5139
    7MPD2     N13971   2.364   2.971  13.348  0.3431 -0.5209 -0.5548
    7MPD2    H513972   2.383   2.896  13.414  0.4734  0.0722  0.0709
    7MPD2    N113973   2.089   3.366  13.244  0.4446  0.0677  0.0075
    7MPD2    H713974   2.142   3.365  13.157  0.6147 -0.5736  0.1115
    8TMC3    C113975   2.551   2.884  13.223 -0.2221  0.8757  0.3460
    8TMC3    C213976   2.621   2.866  13.339 -0.1489  0.5553 -0.4861
    8TMC3    C313977   2.736   2.936  13.370 -0.4184 -0.1013  0.9137
    8TMC3    C413978   2.634   2.922  13.117 -0.6041  0.6043 -0.1640
    8TMC3    C513979   2.756   2.979  13.135  0.6570  0.8706  0.9024
    8TMC3    C613980   2.806   2.987  13.263  0.2976 -0.2847  0.5836
    8TMC3     C13981   2.421   2.955  13.224  0.8958  0.2934 -0.2302
    8TMC3     O13982   2.406   3.021  13.123 -0.2835 -0.2519 -0.3156
    8TMC3     H13983   2.567   2.812  13.416  1.5603 -2.4513 -1.4301
    8TMC3    H113984   2.597   2.931  13.015 -0.8921  2.8505  0.1357
    8TMC3    H213985   2.899   3.039  13.284 -0.1650  0.9543 -0.4303
    8TMC3    C713986   2.771   3.099  13.058 -1.0362 -0.0678  0.6332
    8TMC3    C813987   2.758   2.996  13.504  0.1263  0.6721 -0.3003
    8TMC3    O113988   2.876   3.142  13.020  0.0896 -0.0196 -0.6845
    8TMC3    O213989   2.846   3.081  13.525  0.5469  0.2891  0.2246
    9TMC3    C113990   2.047   3.796  13.104  0.5710  0.4205 -0.7778
    9TMC3    C213991   2.117   3.767  12.990 -0.4719 -0.1441  0.5418
    9TMC3    C313992   2.139   3.635  12.967  0.4019  0.2893 -0.4795
    9TMC3    C413993   2.019   3.709  13.209  0.7212 -0.2271 -0.6892
    9TMC3    C513994   2.031   3.575  13.172 -0.0510  0.0550  0.5385
    9TMC3    C613995   2.101   3.537  13.059 -0.1639  0.8773 -0.1779
    9TMC3     C13996   1.987   3.928  13.115  0.2982 -0.0840  0.2563
    9TMC3     O13997   1.973   3.958  13.236 -0.0313  0.1346  0.2047
    9TMC3     H13998   2.140   3.844  12.918 -2.3406 -0.6063 -0.5464
    9TMC3    H113999   1.972   3.739  13.302 -1.3602 -1.6530 -1.2921
    9TMC3    H214000   2.095   3.439  13.014  0.9786  0.3238  0.8809
    9TMC3    C714001   2.014   3.474  13.278 -0.5093 -0.4863 -0.0972
    9TMC3    C814002   2.271   3.615  12.917  0.5561 -0.0361 -0.2533
    9TMC3    O114003   1.959   3.500  13.384  0.2950  0.7578  0.0453
    9TMC3    O214004   2.330   3.717  12.880  0.0677 -0.9531 -0.1443
   10MPD2     C14005   2.719   3.368  12.923  0.7065  0.8180  0.0724
   10MPD2    C114006   2.625   3.284  12.977 -0.2556  0.0377  0.3302
   10MPD2    C214007   2.496   3.323  12.978  0.4402  0.2991 -0.4814
   10MPD2    C314008   2.451   3.446  12.926  0.0389  0.4778 -0.5705
   10MPD2    C414009   2.549   3.533  12.880 -0.2788 -0.5254  0.7685
   10MPD2    C514010   2.684   3.494  12.877  0.0453 -0.1062  0.2737
   10MPD2     H14011   2.420   3.254  13.013  0.3447  0.7313  0.1683
   10MPD2    H114012   2.529   3.633  12.844  0.7428 -0.7695 -0.5085
   10MPD2    H214013   2.819   3.328  12.916  0.9857  1.8404 -1.6914
   10MPD2    H314014   2.765   3.546  12.828 -0.4335 -0.9036 -1.3672
   10MPD2     N14015   2.319   3.485  12.936  0.1337 -0.4454 -0.1238
   10MPD2    H514016   2.249   3.419  12.969  0.0665 -0.7296 -0.8442
   10MPD2    N114017   2.646   3.157  13.035 -0.3120  0.0692  0.3611
   10MPD2    H714018   2.562   3.121  13.079  1.1056  0.2843  3.2238
   11MPD2     C14019   3.753   2.909  13.914 -0.0338  0.9917 -0.6075
   11MPD2    C114020   3.659   2.832  13.974  0.2259 -0.2539 -0.4281
   11MPD2    C214021   3.559   2.887  14.053 -0.2971 -0.2533  0.7618
   11MPD2    C314022   3.556   3.023  14.068  0.0596  0.3982 -0.1003
   11MPD2    C414023   3.658   3.103  14.018  0.5449  0.0806 -0.0897
   11MPD2    C514024   3.749   3.042  13.931  0.4892  0.3474  0.7083
   11MPD2     H14025   3.476   2.828  14.091  1.1991 -3.2313 -0.7064
   11MPD2    H114026   3.652   3.211  14.024  1.8690  0.1564  0.0301
   11MPD2    H214027   3.833   2.866  13.855 -0.3509  1.5575 -1.4470
   11MPD2    H314028   3.822   3.105  13.881 -0.1251 -1.1622 -2.0947
   11MPD2     N14029   3.448   3.086  14.139  0.4467  0.0215 -0.3475
   11MPD2    H514030   3.468   3.183  14.160  0.2544  0.2849 -1.3978
   11MPD2    N114031   3.648   2.690  13.958 -0.5474  0.6326 -0.1379
   11MPD2    H714032   3.588   2.632  14.016  1.1203 -0.0908  0.8674
    1MPD1     C14033   0.758   4.264   0.234 -0.2735 -0.1323 -0.0710
    1MPD1    C114034   0.653   4.264   0.140  0.5123  0.4286  0.2257
    1MPD1    C214035   0.694   4.257   0.011  0.6481  0.1711 -0.1644
    1MPD1    C314036   0.828   4.234  17.741 -0.5168 -0.6781 -0.1784
    1MPD1    C414037   0.925   4.231   0.076 -0.4700 -0.6933  0.0330
    1MPD1    C514038   0.888   4.252   0.202 -0.6514 -0.3701  0.2848
    1MPD1     H14039   0.615   4.237  17.698 -1.3133 -1.1257  2.3627
    1MPD1    H114040   1.029   4.223   0.046 -0.4821  0.7260 -0.3706
    1MPD1    H214041   0.744   4.270   0.341 -1.2261 -0.7602 -0.1595
    1MPD1    H314042   0.955   4.258   0.287  0.4844  0.4686 -0.6564
    1MPD1     N14043   0.881   4.202  17.606 -0.1381 -0.2408 -0.2381
    1MPD1    H514044   0.978   4.173  17.595  0.5801  1.6541  1.0049
    1MPD1    N114045   0.513   4.266   0.178 -0.2891  0.4751  0.3209
    1MPD1    H614046   0.448   4.240   0.104  1.4495  1.0949 -1.4562
    1MPD1    H714047   0.482   4.221   0.263 -1.0160 -1.6126 -1.0393
    2MPD1     C14048   0.521   4.602  16.735 -0.0205  0.3099  0.0316
    2MPD1    C114049   0.465   4.570  16.861 -0.5699 -0.1261  0.7270
    2MPD1    C214050   0.540   4.507  16.952 -0.1649  0.5264  0.4741
    2MPD1    C314051   0.655   4.450  16.916  0.5329  0.3426 -0.2564
    2MPD1    C414052   0.716   4.484  16.791  0.2142  0.7972 -0.2813
    2MPD1    C514053   0.646   4.565  16.701 -0.0423 -0.0908  0.3164
    2MPD1     H14054   0.496   4.494  17.050  0.9489 -0.1304  0.8913
    2MPD1    H114055   0.814   4.453  16.757 -0.5018 -0.6388 -1.0297
    2MPD1    H214056   0.465   4.663  16.665  1.1566 -0.1042 -1.2719
    2MPD1    H314057   0.685   4.595  16.605 -0.0010 -0.0742  0.3382
    2MPD1     N14058   0.715   4.366  17.013  0.0561 -0.6128  0.0902
    2MPD1    H514059   0.660   4.345  17.096 -1.6573  2.2370 -0.3303
    2MPD1    N114060   0.331   4.610  16.889  0.6212 -0.1132  0.4975
    2MPD1    H614061   0.263   4.557  16.833 -1.8934  2.4598  1.1206
    2MPD1    H714062   0.311   4.594  16.987 -0.4975  0.9243  0.4385
    3TMC3    C114063   0.884   4.256  17.142  0.4747  0.9773 -0.3520
    3TMC3    C214064   0.999   4.180  17.136 -0.2243 -0.9556  0.2316
    3TMC3    C314065   1.058   4.120  17.244  0.3375 -0.1408 -0.5849
    3TMC3    C414066   0.821   4.282  17.263 -0.0541  0.3607  0.1748
    3TMC3    C514067   0.878   4.223  17.374  0.3729 -0.1579  0.7715
    3TMC3    C614068   0.992   4.145  17.365 -0.0185 -0.2788  0.3062
    3TMC3     C14069   0.844   4.320  17.015  0.1834 -0.2004  0.1774
    3TMC3     O14070   0.928   4.320  16.925  0.1325  0.2563 -0.0358
    3TMC3     H14071   1.041   4.151  17.040  0.5853  0.2918  0.2201
    3TMC3    H114072   0.730   4.341  17.267  0.4428  1.0349  1.3727
    3TMC3    H214073   1.040   4.105  17.453  0.6037 -0.7492 -0.2401
    3TMC3    C714074   0.811   4.243  17.501 -0.0029 -0.7024  0.5141
    3TMC3    C814075   1.172   4.039  17.224  0.4058  0.5022  0.4263
    3TMC3    O114076   0.703   4.299  17.492  0.1197  0.4419  0.4210
    3TMC3    O214077   1.237   4.062  17.123  0.1514  0.2495  0.2220
    4MPD1     C14078   1.485   3.653  17.382  0.2807  0.9057  0.6637
    4MPD1    C114079   1.377   3.653  17.463 -0.5518 -0.0536  0.1335
    4MPD1    C214080   1.290   3.758  17.449  0.2272  0.1033  0.0742
    4MPD1    C314081   1.292   3.845  17.339  0.0681  0.3456 -0.4841
    4MPD1    C414082   1.401   3.839  17.257 -0.3832 -0.3179 -0.3914
    4MPD1    C514083   1.498   3.744  17.282  0.5114 -1.3989  0.6649
    4MPD1     H14084   1.211   3.760  17.523 -0.8660 -0.5777 -1.0830
    4MPD1    H114085   1.406   3.898  17.165  0.5548  1.1727  0.6164
    4MPD1    H214086   1.572   3.590  17.398 -0.2230  0.4002  1.3868
    4MPD1    H314087   1.582   3.726  17.217  0.9129  1.0581  0.4856
    4MPD1     N14088   1.184   3.940  17.323  0.2773  0.0916 -0.3087
    4MPD1    H514089   1.106   3.915  17.383 -0.7506  0.9148 -1.2859
    4MPD1    N114090   1.378   3.567  17.569 -0.7428  0.1943 -0.5960
    4MPD1    H614091   1.402   3.477  17.528  1.8743  1.3132 -1.5185
    4MPD1    H714092   1.283   3.556  17.604  0.0831 -2.3290  0.8616
    1TCq1    O114093   2.442   4.309  11.297  0.5083 -0.3295 -0.0249
    1TCq1    C114094   2.355   4.218  11.260  0.5546  0.1326  0.1045
    1TCq1    O214095   2.270   4.165  11.328  0.5126  0.2924 -0.1992
    1TCq1    C214096   2.318   4.244  11.119  0.7352  0.9205 -0.1857
    1TCq1    C314097   2.189   4.202  11.083 -0.6890  0.2433  0.6333
    1TCq1    C414098   2.147   4.221  10.956 -0.2062  0.6915 -0.3488
    1TCq1    C514099   2.247   4.236  10.860 -0.5345 -0.5780  0.6829
    1TCq1    C614100   2.374   4.269  10.900  0.8652 -0.8912  0.7011
    1TCq1    C714101   2.415   4.277  11.029 -0.0107  0.5609  0.9752
    1TCq1    C814102   2.476   4.260  10.802  0.8333  0.7165  0.2534
    1TCq1    O414103   2.590   4.284  10.845  0.0865  0.2413  0.1541
    1TCq1    C914104   2.020   4.173  10.926 -0.3083  0.3808 -0.1986
    1TCq1    O514105   2.001   4.124  10.810  0.8692  0.2118  0.6298
    1TCq1    O614106   1.939   4.178  11.022 -0.3786 -0.3097  0.4805
    1TCq1    H114107   2.506   4.354  11.238  1.7832 -0.6071  1.1492
    1TCq1    H214108   2.114   4.189  11.160 -0.1267  2.8069  1.5957
    1TCq1    H314109   2.213   4.242  10.757  0.3113 -0.8449  0.3925
    1TCq1    H414110   2.514   4.300  11.065  1.1429 -0.2103 -1.7220
    2MPD1     C14111   2.690   4.092  10.376 -0.0325  0.1595 -0.4224
    2MPD1    C114112   2.554   4.078  10.360  0.1047 -0.4114 -0.3994
    2MPD1    C214113   2.473   4.128  10.455  1.0175 -1.0244  0.7155
    2MPD1    C314114   2.522   4.179  10.572  0.1275  0.6076 -0.2063
    2MPD1    C414115   2.660   4.202  10.582  0.2060  0.5644 -0.2031
    2MPD1    C514116   2.746   4.157  10.485 -0.6939 -0.2114  0.4230
    2MPD1     H14117   2.365   4.122  10.449  1.0237  0.2693 -0.7848
    2MPD1    H114118   2.712   4.259  10.658 -2.0940  0.5446  1.3642
    2MPD1    H214119   2.758   4.064  10.296  1.3480 -0.8435  1.1026
    2MPD1    H314120   2.853   4.174  10.490 -0.9779  1.3783  0.9987
    2MPD1     N14121   2.435   4.208  10.678  0.0614 -0.5977 -0.5322
    2MPD1    H514122   2.344   4.162  10.678  0.1973 -0.8657 -1.2260
    2MPD1    N114123   2.500   4.038  10.239  0.1084  0.0967 -0.7901
    2MPD1    H614124   2.404   4.005  10.244  0.2285 -0.3734 -1.6606
    2MPD1    H714125   2.549   3.959  10.200  0.9151  0.4498 -0.4881
    1TMC1    C114126   1.615   3.545   1.060  0.8376  0.2744 -0.4296
    1TMC1    C214127   1.488   3.564   1.023 -0.2558  0.1404 -0.1268
    1TMC1    C314128   1.421   3.461   0.954 -0.2402 -0.5589  0.3135
    1TMC1    C414129   1.666   3.416   1.050  0.0581 -0.1637  0.3433
    1TMC1    C514130   1.594   3.313   1.000  0.1869 -0.2256  0.5700
    1TMC1    C614131   1.477   3.339   0.941  0.7634 -0.2582  0.0365
    1TMC1     C14132   1.693   3.658   1.092  0.0709  0.0431 -0.4687
    1TMC1     O14133   1.666   3.770   1.049  0.3331 -0.0398  0.2149
    1TMC1     H14134   1.441   3.662   1.018 -0.4646 -0.1458 -3.9519
    1TMC1    H114135   1.771   3.407   1.075 -0.1245 -0.9345  0.8357
    1TMC1    H214136   1.421   3.263   0.888 -1.3696 -1.7346  4.3975
    1TMC1    C714137   1.660   3.186   0.978 -0.1372  0.1372  0.5656
    1TMC1    C814138   1.274   3.471   0.941 -0.5711  0.4663  0.2443
    1TMC1    O114139   1.779   3.181   0.976  0.3803 -0.2437 -0.2276
    1TMC1    O214140   1.203   3.372   0.942  0.3282  0.4318 -0.5914
    1TMC1    O314141   1.569   3.091   0.942 -0.2459 -0.0389  0.3850
    1TMC1    H314142   1.476   3.098   0.972  0.2520  3.0387  1.1643
    1TMC1    O514143   1.239   3.598   0.906  0.1447  0.2121 -0.8371
    1TMC1    H514144   1.313   3.654   0.875 -0.9272  1.5987 -0.8490
    2MPD1     C14145   2.044   3.903   1.386  0.5639 -0.1245 -0.0044
    2MPD1    C114146   2.019   3.776   1.444 -0.3731  0.1777 -0.1641
    2MPD1    C214147   1.930   3.692   1.380 -0.0682 -0.1106  0.6528
    2MPD1    C314148   1.872   3.723   1.251  0.0520 -0.4262  0.0029
    2MPD1    C414149   1.905   3.846   1.199  0.1464 -0.1862  0.4389
    2MPD1    C514150   1.992   3.934   1.272 -0.2241 -0.6710 -0.0941
    2MPD1     H14151   1.906   3.598   1.428 -0.2361 -0.4961 -0.1931
    2MPD1    H114152   1.857   3.888   1.112  1.2370 -1.5655 -0.8241
    2MPD1    H214153   2.112   3.972   1.433 -0.7052  1.7641 -0.9111
    2MPD1    H314154   1.997   4.038   1.240  0.3304 -0.6905 -0.0695
    2MPD1     N14155   1.779   3.631   1.193 -0.3551  0.1116  0.4355
    2MPD1    H514156   1.776   3.538   1.235 -1.8572  0.6527  1.5118
    2MPD1    N114157   2.053   3.754   1.577  0.0750 -0.0752  0.1417
    2MPD1    H614158   2.141   3.803   1.594 -0.5109  0.7107  0.9362
    2MPD1    H714159   2.070   3.657   1.602  3.6275  0.3293 -0.7149
    1MPD1     C14160   4.278   4.252  12.492 -0.0183 -0.1787 -0.2383
    1MPD1    C114161   4.285   4.197  12.619  0.2936  0.8663  0.0528
    1MPD1    C214162   4.202   4.247  12.716  0.1433 -0.2079 -0.6886
    1MPD1    C314163   4.110   4.340  12.686  0.9697 -0.2743 -0.1576
    1MPD1    C414164   4.098   4.390  12.559 -0.6066 -0.1811 -0.3713
    1MPD1    C514165   4.180   4.339  12.467  0.3081  0.1285  0.0267
    1MPD1     H14166   4.204   4.221  12.821  1.1191  2.4293 -0.0507
    1MPD1    H114167   4.008   4.443  12.533 -0.5002  0.1178 -0.1237
    1MPD1    H214168   4.345   4.232  12.409 -1.5873 -1.1735 -1.2680
    1MPD1    H314169   4.168   4.366  12.362 -0.9954  0.6907  0.3242
    1MPD1     N14170   4.005   4.378  12.772  0.0131  0.0745  0.4002
    1MPD1    H514171   4.010   4.328  12.861 -3.0041  0.7246  0.9598
    1MPD1    N114172   4.400   4.123  12.654  0.2611  0.1238 -0.1472
    1MPD1    H614173   4.425   4.076  12.567  1.8172 -0.2555  0.5062
    1MPD1    H714174   4.376   4.052  12.722 -1.1050 -0.7165 -1.5209
    2MPD1     C14175   3.831   0.080  11.053 -0.4333  0.6312  1.0769
    2MPD1    C114176   3.759   0.102  11.168 -0.4522 -0.6293  0.0643
    2MPD1    C214177   3.696   4.736  11.234 -0.8896  0.7687 -0.0606
    2MPD1    C314178   3.697   4.607  11.186 -0.7225 -0.1645  0.0333
    2MPD1    C414179   3.758   4.585  11.064  0.2922 -0.4865 -0.6315
    2MPD1    C514180   3.821   4.692  11.000 -0.0636 -0.5778  0.1109
    2MPD1     H14181   3.646   0.017  11.328 -2.4453 -1.4647 -0.4059
    2MPD1    H114182   3.744   4.487  11.020 -1.6600 -0.7879  0.6450
    2MPD1    H214183   3.889   0.155  11.001  1.3036 -0.8620  0.8679
    2MPD1    H314184   3.859   4.678  10.900 -2.1286 -0.5084 -0.6902
    2MPD1     N14185   3.632   4.497  11.242 -0.3480  0.1249 -0.0200
    2MPD1    H514186   3.637   4.413  11.185  0.4044 -0.0576  0.3196
    2MPD1    N114187   3.765   0.232  11.223  0.1043 -0.2555 -0.3982
    2MPD1    H614188   3.764   0.310  11.157 -0.2023 -0.9368 -1.1933
    2MPD1    H714189   3.698   0.263  11.293  2.1405  1.9082  0.6290
    3MPD1     C14190   3.775   3.516  11.274 -0.0318 -0.4404  0.0503
    3MPD1    C114191   3.677   3.522  11.369 -0.1803  0.3457  0.3609
    3MPD1    C214192   3.642   3.642  11.413 -0.5905  0.5015 -1.0865
    3MPD1    C314193   3.681   3.762  11.349 -0.4087 -0.3638 -0.2846
    3MPD1    C414194   3.787   3.757  11.261  0.4232  0.6591 -0.1697
    3MPD1    C514195   3.827   3.636  11.230  0.0365  0.0790 -0.4425
    3MPD1     H14196   3.587   3.652  11.506 -0.4849 -1.0893 -0.8427
    3MPD1    H114197   3.836   3.844  11.218  0.2837  0.5829 -0.4882
    3MPD1    H214198   3.819   3.424  11.238 -1.4800 -1.2805  0.3983
    3MPD1    H314199   3.916   3.624  11.169 -0.9251 -0.8304 -1.6609
    3MPD1     N14200   3.606   3.882  11.382 -0.1643 -0.0880  0.3888
    3MPD1    H514201   3.556   3.879  11.470 -0.4280 -1.2709  0.1903
    3MPD1    N114202   3.653   3.402  11.436  0.2724 -0.0200  0.8489
    3MPD1    H614203   3.665   3.317  11.382 -2.9698  0.2865 -0.4076
    3MPD1    H714204   3.567   3.400  11.491 -1.7325  0.3033 -2.2626
    4MPD2     C14205   3.462   3.947  12.883  0.3062  0.7415  0.5922
    4MPD2    C114206   3.420   4.085  12.875  0.3586  0.4685 -0.0860
    4MPD2    C214207   3.305   4.118  12.810  0.3226 -0.2520 -0.3043
    4MPD2    C314208   3.238   4.019  12.742 -0.2605 -0.0439  0.3816
    4MPD2    C414209   3.278   3.888  12.749 -0.0282 -0.1373 -0.2877
    4MPD2    C514210   3.388   3.846  12.818 -0.7913 -0.4050  0.4597
    4MPD2     H14211   3.267   4.220  12.815 -0.0881 -0.4550  0.8721
    4MPD2    H114212   3.216   3.810  12.706  1.4806 -1.2558 -0.4734
    4MPD2    H214213   3.553   3.922  12.937  1.4204  0.9563 -1.1725
    4MPD2    H314214   3.411   3.741  12.824 -2.3681 -0.7309  0.9037
    4MPD2     N14215   3.132   4.063  12.652  0.0773 -0.3226 -0.8805
    4MPD2    H514216   3.114   4.163  12.659  1.7747 -0.1251  0.7814
    4MPD2    N114217   3.498   4.188  12.934 -0.4759 -0.1416  0.1817
    4MPD2    H714218   3.460   4.282  12.926  1.4302  0.7589  1.5357
    5TMC3    C114219   3.677   4.312  12.990  0.6068 -0.3030  0.0057
    5TMC3    C214220   3.793   4.333  12.927  0.0032 -0.8146 -0.2248
    5TMC3    C314221   3.800   4.456  12.857  0.5520  0.6464  0.0903
    5TMC3    C414222   3.586   4.410  13.006 -0.5221  1.0271 -0.6503
    5TMC3    C514223   3.592   4.533  12.943 -0.2477  0.4700  0.1077
    5TMC3    C614224   3.707   4.555  12.871  0.4155 -0.1307 -0.1411
    5TMC3     C14225   3.629   4.182  12.971  0.0040 -0.8282 -0.2292
    5TMC3     O14226   3.701   4.090  12.990  0.3885  0.3356  0.3076
    5TMC3     H14227   3.861   4.256  12.892 -0.7198 -0.0013 -3.4217
    5TMC3    H114228   3.500   4.391  13.069 -1.5877 -0.3307 -2.5129
    5TMC3    H214229   3.713   4.638  12.802 -0.7042  1.2233  1.4088
    5TMC3    C714230   3.471   4.559  12.879  0.4045 -0.0947  0.1232
    5TMC3    C814231   3.898   4.470  12.754  0.1015 -0.2824  1.6060
    5TMC3    O114232   3.392   4.470  12.869  0.2477  0.3854  0.2543
    5TMC3    O214233   3.879   4.547  12.661  0.2644  0.9011 -0.0146
    6TMC3    C114234   3.516   4.351  11.382  0.2506 -0.0738 -0.1426
    6TMC3    C214235   3.589   4.244  11.334 -0.5723  0.3653 -0.7069
    6TMC3    C314236   3.547   4.117  11.375 -0.0623 -0.0716 -0.3981
    6TMC3    C414237   3.428   4.337  11.490  0.0659  0.1258 -0.2926
    6TMC3    C514238   3.394   4.206  11.524  0.6499 -0.2810 -0.5245
    6TMC3    C614239   3.447   4.098  11.462  0.2059 -0.6214 -0.0892
    6TMC3     C14240   3.564   4.483  11.361  0.4082  0.0800 -0.2122
    6TMC3     O14241   3.566   4.558  11.457 -0.2534  0.2551  0.1157
    6TMC3     H14242   3.672   4.253  11.265  1.2078 -1.3185  1.1977
    6TMC3    H114243   3.366   4.414  11.534 -0.2842 -0.5071  0.3262
    6TMC3    H214244   3.417   4.001  11.499  0.5085 -0.5239  0.4225
    6TMC3    C714245   3.299   4.194  11.628 -0.0968  1.3316  0.3497
    6TMC3    C814246   3.627   4.009  11.328 -0.1816  0.2719 -0.2202
    6TMC3    O114247   3.300   4.281  11.717  0.0907 -0.1668 -0.0196
    6TMC3    O214248   3.687   4.029  11.222 -0.0141  0.0024 -0.2921
    7MPD2     C14249   3.201   0.033  12.494 -0.2182 -0.3344 -0.8593
    7MPD2    C114250   3.213   4.645  12.542  0.2072  0.7190  0.0152
    7MPD2    C214251   3.302   4.617  12.642 -0.5454  1.1512  0.0141
    7MPD2    C314252   3.384   4.713  12.704  0.1330  0.4198  0.2593
    7MPD2    C414253   3.357   0.100  12.667 -0.0492  0.7377  0.1675
    7MPD2    C514254   3.273   0.129  12.559 -0.3890  0.4007  0.5839
    7MPD2     H14255   3.308   4.514  12.673  1.0780  1.3992  0.5126
    7MPD2    H114256   3.414   0.181  12.711  0.8381  0.8082 -1.1194
    7MPD2    H214257   3.129   0.051  12.414  1.0507 -2.3488 -2.4567
    7MPD2    H314258   3.274   0.226  12.510 -1.3962 -0.3711 -0.9848
    7MPD2     N14259   3.477   4.677  12.811 -0.2159  0.2647  0.5493
    7MPD2    H514260   3.533   0.003  12.865  0.3552  1.1152 -1.1043
    7MPD2    N114261   3.132   4.544  12.487 -0.0781 -0.0010  0.3471
    7MPD2    H714262   3.084   4.564  12.400 -0.2144  0.8780  0.6226
    8TMC3    C114263   3.032   4.332  12.451  0.0418  0.9833  0.0494
    8TMC3    C214264   3.068   4.329  12.319 -0.4953 -0.3898 -0.9317
    8TMC3    C314265   3.047   4.208  12.264  0.2072 -0.2795  0.0539
    8TMC3    C414266   2.998   4.218  12.516 -0.4879  0.2353 -0.0918
    8TMC3    C514267   3.002   4.090  12.466 -0.1659  0.2550  0.3211
    8TMC3    C614268   3.022   4.085  12.330  0.3061  0.5574  0.3162
    8TMC3     C14269   3.108   4.421  12.538 -0.2625  1.4298 -0.0595
    8TMC3     O14270   3.149   4.376  12.641  0.1334 -0.0909  0.0426
    8TMC3     H14271   3.101   4.416  12.264  1.7398 -0.2517  0.6140
    8TMC3    H114272   2.964   4.238  12.617  2.2863 -2.7147  1.4391
    8TMC3    H214273   3.039   3.989  12.283 -1.4881  0.0361  0.7305
    8TMC3    C714274   3.072   3.993  12.545  0.1822  0.0819  0.1307
    8TMC3    C814275   3.069   4.200  12.122 -0.1939  0.0388  0.2172
    8TMC3    O114276   3.076   3.875  12.513  0.1135  0.1344  0.1612
    8TMC3    O214277   3.133   4.289  12.065 -0.9420 -0.0831  0.1261
    9MPD2     C14278   2.977   3.912  11.924 -0.7130 -0.0308  0.2540
    9MPD2    C114279   3.030   4.033  11.946  1.1518  0.2543  0.6785
    9MPD2    C214280   3.112   4.099  11.844 -0.3439  0.0476 -0.1351
    9MPD2    C314281   3.133   4.035  11.720 -0.3626 -0.6323 -0.2716
    9MPD2    C414282   3.064   3.922  11.698  0.5390  0.5648  0.0647
    9MPD2    C514283   2.987   3.857  11.796  0.1486 -0.3939 -0.5684
    9MPD2     H14284   3.159   4.193  11.868 -0.2372 -0.0472  0.0254
    9MPD2    H114285   3.092   3.855  11.617  0.0147 -1.2802  1.4343
    9MPD2    H214286   2.922   3.853  11.997 -0.8177  1.5502  1.4514
    9MPD2    H314287   2.972   3.751  11.784  3.4565 -1.0494  0.9684
    9MPD2     N14288   3.223   4.083  11.621  0.0109  0.4777 -0.5715
    9MPD2    H514289   3.241   4.014  11.548  0.6529 -0.5151  0.5321
    9MPD2    N114290   3.010   4.081  12.074 -0.2604  0.0877  0.7161
    9MPD2    H714291   2.951   4.022  12.132 -1.5944  0.1025 -0.6110
    1MPD1     C14292   3.746   3.513  16.677 -0.2227  0.1226 -1.2104
    1MPD1    C114293   3.793   3.517  16.546  0.0925 -0.1413 -0.9331
    1MPD1    C214294   3.777   3.410  16.462  0.7066 -0.2354 -0.2446
    1MPD1    C314295   3.736   3.291  16.518 -0.5009 -0.4430 -0.3308
    1MPD1    C414296   3.690   3.285  16.652  0.1396  0.1506  0.0653
    1MPD1    C514297   3.696   3.400  16.730 -0.2113  0.2093 -0.1613
    1MPD1     H14298   3.801   3.424  16.357  2.1413  1.8341  0.3707
    1MPD1    H114299   3.655   3.195  16.702  1.9968 -0.1298  0.8517
    1MPD1    H214300   3.749   3.600  16.742 -0.7540 -0.3613 -0.5383
    1MPD1    H314301   3.667   3.394  16.835 -4.5780  0.8878 -1.3249
    1MPD1     N14302   3.731   3.168  16.442  0.3653  0.0844  0.4399
    1MPD1    H514303   3.681   3.094  16.491  0.0935  1.5405  2.3885
    1MPD1    N114304   3.846   3.633  16.486 -0.2994 -0.2694  0.9971
    1MPD1    H614305   3.928   3.619  16.427 -1.4445  0.6450 -0.8025
    1MPD1    H714306   3.876   3.699  16.557  1.4044  0.3528 -0.2779
    2TMC2    C114307   3.631   2.913  16.070  0.1200  0.2393 -0.4561
    2TMC2    C214308   3.627   2.795  16.143 -0.0998 -0.5427 -0.0900
    2TMC2    C314309   3.678   2.792  16.272  0.4088 -0.2236  0.3566
    2TMC2    C414310   3.679   3.032  16.127  0.4605 -0.0793  0.6900
    2TMC2    C514311   3.736   3.024  16.246  0.4140 -0.5984 -1.0260
    2TMC2    C614312   3.739   2.910  16.326  0.1501 -0.1680 -0.0126
    2TMC2     C14313   3.586   2.903  15.937 -0.0270  0.5669  0.1491
    2TMC2     O14314   3.537   2.797  15.895 -0.5054  0.0242 -0.2573
    2TMC2     H14315   3.588   2.704  16.098 -0.8873 -0.7221  0.9478
    2TMC2    H114316   3.689   3.126  16.074 -0.9407  1.0243  2.3872
    2TMC2    H214317   3.788   2.920  16.422  3.1472  0.5208 -1.6253
    2TMC2    C714318   3.767   3.154  16.305  0.1183 -0.2118 -0.0553
    2TMC2    C814319   3.701   2.661  16.327  0.2523  0.1891  0.0775
    2TMC2    O114320   3.819   3.231  16.228  0.3838  0.2307  0.0931
    2TMC2    O214321   3.680   2.561  16.260  0.1767  0.1237 -0.4042
    2TMC2    O514322   3.764   2.680  16.444 -0.0402 -0.0083 -0.6408
    2TMC2    H514323   3.782   2.594  16.489  0.4427  0.2773 -0.2758
    3MPD1     C14324   3.495   3.115  15.478 -0.3440 -0.8639  0.0772
    3MPD1    C114325   3.504   3.211  15.574  0.5808  0.6046 -0.1389
    3MPD1    C214326   3.507   3.183  15.708 -0.5003 -0.0465 -0.0271
    3MPD1    C314327   3.545   3.058  15.750 -0.1806 -0.8080 -0.0742
    3MPD1    C414328   3.570   2.965  15.647 -0.7308 -0.3566 -0.3894
    3MPD1    C514329   3.535   2.987  15.512  0.4583 -0.0416  0.3914
    3MPD1     H14330   3.481   3.269  15.769  0.0124  0.6067 -0.7355
    3MPD1    H114331   3.604   2.867  15.678 -1.2318 -0.2957  0.3530
    3MPD1    H214332   3.477   3.136  15.374  0.3399  0.0389  0.1430
    3MPD1    H314333   3.543   2.908  15.438  1.5047 -0.8928  1.4084
    3MPD1     N14334   3.562   3.029  15.887  0.8218 -0.0778 -0.9617
    3MPD1    H514335   3.562   3.113  15.944  0.5483 -1.5624  1.2125
    3MPD1    N114336   3.481   3.341  15.528  1.0058  0.1069  0.0936
    3MPD1    H614337   3.509   3.358  15.432 -2.1905  2.4900 -0.4069
    3MPD1    H714338   3.528   3.410  15.587 -1.9030  0.8110  1.5812
    1TMC1    C114339   1.703   2.329  13.137  0.1475  0.0202 -0.3470
    1TMC1    C214340   1.670   2.456  13.094 -0.0362 -0.3946  0.3367
    1TMC1    C314341   1.533   2.473  13.077 -0.3951 -0.9931 -0.0510
    1TMC1    C414342   1.623   2.223  13.156 -0.7226 -0.3817  0.5681
    1TMC1    C514343   1.492   2.242  13.132 -0.0530 -0.1959  0.1384
    1TMC1    C614344   1.446   2.368  13.095 -0.6121 -0.6233  0.3883
    1TMC1     C14345   1.845   2.315  13.176  0.3288 -0.4259  0.7960
    1TMC1     O14346   1.930   2.396  13.148 -0.7074 -0.3133  0.1629
    1TMC1     H14347   1.749   2.530  13.083 -2.9941  3.2093  3.2747
    1TMC1    H114348   1.649   2.128  13.200  0.8974 -0.2367 -0.0778
    1TMC1    H214349   1.338   2.383  13.096 -0.1804  2.4744 -0.8487
    1TMC1    C714350   1.394   2.154  13.187  0.2259 -0.1899  0.1481
    1TMC1    C814351   1.477   2.588  13.134 -0.1073  0.4482 -0.3749
    1TMC1    O114352   1.312   2.176  13.271 -0.6308 -0.1574  0.5220
    1TMC1    O214353   1.399   2.571  13.227 -0.5317  0.0330 -0.1672
    1TMC1    O314354   1.455   2.034  13.178 -0.2905 -0.0120  0.4099
    1TMC1    H314355   1.508   2.030  13.096  0.4972  0.0176  0.9161
    1TMC1    O514356   1.577   2.678  13.135  0.1018 -0.5211  0.4142
    1TMC1    H514357   1.641   2.676  13.060 -0.5817 -0.7067 -0.1624
    2MPD2     C14358   2.098   2.200  13.293 -0.2994 -0.7882  0.6963
    2MPD2    C114359   1.973   2.171  13.330 -0.4309 -0.1083 -0.0514
    2MPD2    C214360   1.956   2.084  13.433  0.8440 -0.6671  0.6633
    2MPD2    C314361   2.069   2.025  13.503 -0.3276  0.4829  0.3615
    2MPD2    C414362   2.195   2.077  13.467 -0.1174  0.3242  0.2830
    2MPD2    C514363   2.205   2.168  13.364 -0.4977  0.3944 -0.1765
    2MPD2     H14364   1.854   2.058  13.462  0.8307 -0.4371  0.8188
    2MPD2    H114365   2.290   2.044  13.508  0.5438  2.4435  0.4430
    2MPD2    H214366   2.111   2.254  13.199  0.2077 -1.7619  0.2062
    2MPD2    H314367   2.306   2.191  13.332 -0.0998 -0.9828  0.0426
    2MPD2     N14368   2.050   1.923  13.598  0.1659  0.6097  0.8590
    2MPD2    H514369   1.952   1.903  13.616  0.3119  0.3054  1.3274
    2MPD2    N114370   1.857   2.220  13.274 -0.0805  0.1056 -0.4816
    2MPD2    H714371   1.771   2.175  13.305  0.5043  0.7821  2.0950
    3TCq1    O114372   2.158   1.465  14.083  0.3597 -0.1417 -0.7351
    3TCq1    C114373   2.226   1.513  13.978  0.1931 -0.2296 -0.2337
    3TCq1    O214374   2.332   1.471  13.942  0.6398  0.2841 -0.4792
    3TCq1    C214375   2.127   1.576  13.887 -0.0157 -0.2658  0.2936
    3TCq1    C314376   2.001   1.525  13.881 -0.2678 -0.2967  0.9334
    3TCq1    C414377   1.921   1.576  13.788 -0.3055 -0.3399  0.2715
    3TCq1    C514378   1.955   1.698  13.726 -1.2822  0.2935  0.1391
    3TCq1    C614379   2.086   1.748  13.745 -0.6886  0.1921 -0.8019
    3TCq1    C714380   2.181   1.677  13.813 -0.9359  0.3056  0.6650
    3TCq1    C814381   2.144   1.836  13.647 -0.0095  0.2338 -0.1650
    3TCq1    O414382   2.260   1.823  13.614  0.4449  0.2822  0.8615
    3TCq1    C914383   1.796   1.506  13.760 -0.3492 -0.4265 -0.3574
    3TCq1    O514384   1.745   1.522  13.645 -0.4042  0.1671 -0.0841
    3TCq1    O614385   1.766   1.417  13.840 -0.5959  0.0731 -0.1888
    3TCq1    H114386   2.082   1.525  14.101 -1.0470 -1.8785 -0.8470
    3TCq1    H214387   1.982   1.434  13.935  1.0464 -0.3161  1.3569
    3TCq1    H314388   1.873   1.753  13.682 -0.2170 -0.1352 -2.3770
    3TCq1    H414389   2.277   1.725  13.830 -0.5556 -0.6745  1.3282
    1MPD2     C14390   1.528   3.266  15.014  0.6556 -0.7746 -0.5172
    1MPD2    C114391   1.416   3.187  14.982 -0.6289  0.3906  0.1204
    1MPD2    C214392   1.438   3.048  14.974 -0.1718  0.9722  0.3977
    1MPD2    C314393   1.559   2.990  15.012  0.8485 -0.1070 -0.4939
    1MPD2    C414394   1.657   3.067  15.066 -0.3834  0.2087 -0.1891
    1MPD2    C514395   1.645   3.206  15.061  0.1015 -0.8636  0.3871
    1MPD2     H14396   1.362   2.977  14.946  0.1907  0.7927 -0.1349
    1MPD2    H114397   1.754   3.029  15.097 -0.5880  2.1504  2.8143
    1MPD2    H214398   1.521   3.373  15.002  1.4896 -0.5515  0.9643
    1MPD2    H314399   1.728   3.260  15.106 -0.2565  0.0434 -0.0299
    1MPD2     N14400   1.577   2.856  14.977  0.0458 -0.0704  0.1401
    1MPD2    H514401   1.503   2.822  14.916  0.4446 -2.0014  0.7323
    1MPD2    N114402   1.282   3.240  14.961 -0.1186  0.1248 -0.5851
    1MPD2    H714403   1.277   3.340  14.945  1.6215  0.1782 -0.8257
    2TMC3    C114404   1.040   3.223  14.931 -0.6611  0.5421  0.1547
    2TMC3    C214405   0.934   3.134  14.945  0.2048 -0.7707  0.4442
    2TMC3    C314406   0.833   3.128  14.846  0.8166  0.3708  0.5295
    2TMC3    C414407   1.035   3.307  14.825 -0.1988  0.2150  0.1952
    2TMC3    C514408   0.929   3.304  14.740 -0.0505  0.3058 -0.4913
    2TMC3    C614409   0.829   3.216  14.741  0.6176 -0.3019 -0.0828
    2TMC3     C14410   1.162   3.163  14.972  0.0803 -0.1677  1.1092
    2TMC3     O14411   1.144   3.046  15.002 -0.1340 -0.0358 -0.2363
    2TMC3     H14412   0.921   3.076  15.036  3.1023  0.5237  1.6709
    2TMC3    H114413   1.121   3.370  14.805 -0.5580  0.8044  0.5323
    2TMC3    H214414   0.747   3.220  14.671  0.3492 -2.0777  0.1328
    2TMC3    C714415   0.901   3.424  14.661  0.6423 -0.4985 -0.9085
    2TMC3    C814416   0.782   2.997  14.818  0.0338 -0.8397 -0.2553
    2TMC3    O114417   0.822   3.411  14.568 -0.5961 -0.4711  0.2655
    2TMC3    O214418   0.686   2.979  14.746  0.3198  0.7430 -0.1233
    3TCq1    O114419   1.560   4.091  15.144 -0.4561 -0.0466  0.0390
    3TCq1    C114420   1.520   4.154  15.030  0.4533 -0.1300 -0.8520
    3TCq1    O214421   1.562   4.264  14.997 -0.3229  0.2050  0.2397
    3TCq1    C214422   1.380   4.132  15.020 -0.3779 -0.4010  0.2529
    3TCq1    C314423   1.302   4.096  15.134 -0.3065 -0.4053  0.0839
    3TCq1    C414424   1.164   4.101  15.124 -0.1022  0.2043  0.6906
    3TCq1    C514425   1.100   4.123  15.003  0.2177 -0.5226  0.0175
    3TCq1    C614426   1.180   4.159  14.900 -0.0901 -0.1267 -0.2747
    3TCq1    C714427   1.315   4.177  14.910 -0.4943  0.0047  0.4936
    3TCq1    C814428   1.126   4.113  14.772 -0.5906  0.1370 -0.2467
    3TCq1    O414429   1.165   4.158  14.664 -0.2921  0.0049 -0.1429
    3TCq1    C914430   1.078   4.069  15.237  0.1174 -0.8486 -0.5524
    3TCq1    O514431   1.130   4.020  15.340 -0.4320 -0.3197  0.2700
    3TCq1    O614432   0.952   4.054  15.207  0.4616  0.2913 -0.4178
    3TCq1    H114433   1.508   4.012  15.166 -0.5126  0.2438  0.9622
    3TCq1    H214434   1.347   4.072  15.229 -0.4375 -0.0834  0.2269
    3TCq1    H314435   0.993   4.116  14.986 -0.1246  0.1175  1.9195
    3TCq1    H414436   1.372   4.209  14.824 -0.3226 -0.5720  0.3901
    4MPD2     C14437   1.020   3.912  14.563  0.1768 -0.5120  0.3926
    4MPD2    C114438   1.017   3.894  14.699  0.2144  0.5995 -0.3990
    4MPD2    C214439   0.977   3.768  14.745 -0.4823  0.2803 -0.2553
    4MPD2    C314440   0.959   3.666  14.660 -0.0626 -1.1677  0.4255
    4MPD2    C414441   0.956   3.694  14.521  0.5566 -0.7971  0.2271
    4MPD2    C514442   0.988   3.816  14.469 -0.8144  0.5728 -0.4502
    4MPD2     H14443   0.973   3.745  14.851 -2.7236 -1.4588 -0.7115
    4MPD2    H114444   0.944   3.620  14.443 -0.8232  0.2602 -0.5613
    4MPD2    H214445   1.055   4.007  14.524 -1.3244 -0.4689 -0.8865
    4MPD2    H314446   0.982   3.828  14.361  0.7005 -2.0801 -0.8509
    4MPD2     N14447   0.944   3.541  14.719  0.3373 -0.4553  0.1282
    4MPD2    H514448   0.997   3.533  14.805 -0.7865  1.3737  0.9854
    4MPD2    N114449   1.061   3.991  14.792  0.0347  0.8209  0.1886
    4MPD2    H714450   1.061   3.946  14.883 -0.7569  1.3882  0.4666
    5TMC2    C114451   1.441   2.542  14.877  0.2270 -0.4362  0.2785
    5TMC2    C214452   1.418   2.466  14.992  0.0976 -0.1212  0.0112
    5TMC2    C314453   1.502   2.474  15.102 -0.0476  0.8989  0.0192
    5TMC2    C414454   1.556   2.627  14.887  0.2375  0.1922  0.6287
    5TMC2    C514455   1.626   2.637  15.002  0.0126  0.4241  0.1777
    5TMC2    C614456   1.614   2.556  15.108 -0.5788 -0.0021  0.2446
    5TMC2     C14457   1.321   2.618  14.853  0.2662  0.3377 -0.2415
    5TMC2     O14458   1.338   2.740  14.849  0.5174 -0.2542 -0.4465
    5TMC2     H14459   1.333   2.401  15.009 -0.1011  0.8655  2.7948
    5TMC2    H114460   1.584   2.684  14.799  0.5710  1.0659  1.2963
    5TMC2    H214461   1.674   2.565  15.198  0.9505 -0.4389 -0.7318
    5TMC2    C714462   1.670   2.771  15.034 -0.0193  0.0128 -0.1998
    5TMC2    C814463   1.506   2.356  15.187 -0.5067  0.3242 -0.0464
    5TMC2    O114464   1.756   2.787  15.121  0.3993  0.0677  0.6046
    5TMC2    O214465   1.465   2.245  15.157 -0.2917 -0.2610 -0.0400
    5TMC2    O514466   1.498   2.405  15.312 -0.1390  0.0142 -0.2187
    5TMC2    H514467   1.503   2.502  15.303 -0.9239  0.1822  1.0968
    6MPD2     C14468   0.827   2.710  14.736 -0.9398  0.2777  0.1140
    6MPD2    C114469   0.919   2.788  14.812  0.0927  0.3462  0.8166
    6MPD2    C214470   1.047   2.734  14.837  0.1245 -0.5620  0.1684
    6MPD2    C314471   1.081   2.604  14.806  0.2192 -0.1750 -0.2355
    6MPD2    C414472   0.979   2.527  14.751 -0.4205 -0.3466 -0.0513
    6MPD2    C514473   0.855   2.577  14.710 -0.5138  0.3305 -1.1103
    6MPD2     H14474   1.118   2.794  14.892  1.3395 -0.6175 -1.3314
    6MPD2    H114475   1.000   2.423  14.730  1.6831  0.1748 -0.5172
    6MPD2    H214476   0.729   2.746  14.709 -1.0457  0.2262  0.4216
    6MPD2    H314477   0.786   2.511  14.658 -1.5950 -0.9995  2.0099
    6MPD2     N14478   1.208   2.543  14.826 -0.0104  0.2236  0.1476
    6MPD2    H514479   1.229   2.444  14.816  0.5521  0.5169 -1.4110
    6MPD2    N114480   0.891   2.917  14.856 -0.3686  0.6065  0.3829
    6MPD2    H714481   0.964   2.959  14.912 -0.3117  1.8144 -0.5890
  945NH4     N114482   0.051   0.846   1.064  0.5627 -0.0229  0.7742
  945NH4     H214483   4.691   0.825   1.081  0.3644  0.5681  0.3695
  945NH4     H314484   0.100   0.865   1.155  1.8129 -0.0392  0.1109
  945NH4     H414485   0.056   0.939   1.017  2.5040 -1.2362 -1.4065
  945NH4     H514486   0.080   0.767   1.004  0.8499  0.5768  0.1262
  946SOD     NA14487   3.258   1.376   6.115  0.3792 -0.3350 -0.4371
  947SOD     NA14488   0.807   4.192  15.151  0.2546 -0.1086 -0.1606
  948SOD     NA14489   3.378   0.346  13.270 -0.0279  0.0287  0.0363
  949SOD     NA14490   1.721   0.708  17.016 -0.3284 -0.3478 -0.1773
  950SOD     NA14491   2.805   0.536  16.077 -0.1065  0.3477 -0.2453
  951SOD     NA14492   0.791   1.604  12.755 -0.2820 -0.1304 -0.1671
  952SOD     NA14493   0.970   3.437  12.339 -0.0652 -0.1454 -0.2523
  953SOL     OW14494   0.440   2.949   2.653 -0.2926  0.5028 -0.1605
  953SOL    HW114495   0.409   2.898   2.578 -0.9610 -0.2927  0.6555
  953SOL    HW214496   0.373   3.017   2.652 -0.1264  0.6360 -1.4515
  954SOL     OW14497   2.763   3.208   8.851  0.0702 -0.0281  0.0662
  954SOL    HW114498   2.689   3.245   8.898 -1.7559  0.2567 -3.0272
  954SOL    HW214499   2.837   3.220   8.910 -0.9195 -4.3564  2.2045
  955SOL     OW14500   3.951   2.288   8.791  0.3526  0.0043 -0.2019
  955SOL    HW114501   3.866   2.245   8.789  0.6750 -0.6581  0.2772
  955SOL    HW214502   4.006   2.210   8.804 -1.1422 -0.5804  2.5622
  956SOL     OW14503   4.367   0.852   3.460  0.0692  0.2121  0.4938
  956SOL    HW114504   4.370   0.794   3.383  2.1767  1.6295 -0.5120
  956SOL    HW214505   4.317   0.797   3.520  1.0711 -1.2097  0.0251
  957SOL     OW14506   4.507   2.923   5.815  0.0318 -0.0250 -0.1831
  957SOL    HW114507   4.521   2.931   5.909 -0.5168 -0.5616 -0.0560
  957SOL    HW214508   4.444   2.851   5.817  1.8162 -1.4862  3.8801
  958SOL     OW14509   0.222   2.690  14.263  0.1843  0.3792 -0.3747
  958SOL    HW114510   0.239   2.743  14.341  2.1054  0.0320 -0.5581
  958SOL    HW214511   0.188   2.763  14.211 -1.2059  1.7069  2.3801
  959SOL     OW14512   3.035   3.558   1.774 -0.0100 -0.2126  0.3849
  959SOL    HW114513   2.987   3.609   1.840  0.3575  0.0283  0.4732
  959SOL    HW214514   2.996   3.471   1.783  0.5176 -0.6398 -1.6261
  960SOL     OW14515   2.618   0.211   1.622  0.2207  0.1390  0.6779
  960SOL    HW114516   2.652   0.122   1.632 -1.0623 -0.2284  1.8156
  960SOL    HW214517   2.568   0.192   1.542 -0.5661  1.3126  0.8914
  961SOL     OW14518   0.627   2.785   8.884  0.5687 -0.8576  0.7133
  961SOL    HW114519   0.570   2.769   8.808 -0.0716  2.4348  0.4781
  961SOL    HW214520   0.676   2.861   8.852  2.1173 -2.0012  0.3789
  962SOL     OW14521   2.372   3.363  14.413 -0.0961  0.5019  0.4471
  962SOL    HW114522   2.413   3.445  14.387  0.2138  0.3234  0.3809
  962SOL    HW214523   2.405   3.319  14.335 -2.5764  0.3090 -0.5076
  963SOL     OW14524   0.231   1.538   7.123 -0.2489 -0.7179 -0.0916
  963SOL    HW114525   0.268   1.607   7.177  0.6494 -1.5045  0.3089
  963SOL    HW214526   0.157   1.583   7.083  1.5640  0.9692 -1.5518
  964SOL     OW14527   4.583   0.590   3.878 -0.5802  0.3411 -0.4424
  964SOL    HW114528   4.508   0.614   3.931 -1.1323 -0.8399 -0.6888
  964SOL    HW214529   4.551   0.513   3.831 -0.8263 -0.2889  0.7593
  965SOL     OW14530   0.494   4.105   7.685  0.6729  0.3272 -0.0393
  965SOL    HW114531   0.506   4.084   7.593  2.4893 -0.5265  0.3898
  965SOL    HW214532   0.526   4.196   7.689 -1.0543  0.9070  0.3236
  966SOL     OW14533   3.749   3.806   9.881 -0.0061  0.4996 -0.3311
  966SOL    HW114534   3.653   3.806   9.872  0.2822  1.0425 -3.4662
  966SOL    HW214535   3.763   3.849   9.965 -0.5684 -0.0416  0.0406
  967SOL     OW14536   4.008   3.057   5.930 -0.1569 -0.1353  0.3692
  967SOL    HW114537   4.018   2.962   5.929  1.2706  0.0187 -0.7255
  967SOL    HW214538   3.919   3.056   5.964  0.3692 -0.6406  1.7608
  968SOL     OW14539   4.002   0.601  10.130 -0.3149 -0.3025  0.0801
  968SOL    HW114540   3.976   0.672  10.189 -2.0289 -1.7062  0.9902
  968SOL    HW214541   3.990   0.648  10.047 -1.0687 -1.2660 -0.3483
  969SOL     OW14542   3.077   2.879   4.457 -0.4626 -0.3880  0.4169
  969SOL    HW114543   3.058   2.843   4.371  1.3530  0.9721 -0.5647
  969SOL    HW214544   2.988   2.905   4.480 -0.6067 -0.5046 -0.0011
  970SOL     OW14545   2.105   3.417   5.871  0.6398 -0.1300  0.0422
  970SOL    HW114546   2.122   3.432   5.778  1.1494  1.2074  0.3399
  970SOL    HW214547   2.023   3.464   5.883  0.3693 -0.9447  1.3676
  971SOL     OW14548   4.014   2.457  16.151 -0.5677 -0.5494 -0.0369
  971SOL    HW114549   4.078   2.421  16.088  0.5047 -1.3965  1.5471
  971SOL    HW214550   3.932   2.423  16.116  0.3775 -2.0261 -0.8307
  972SOL     OW14551   0.990   2.170  15.804  0.4147  0.2351 -0.1975
  972SOL    HW114552   0.911   2.215  15.776 -1.4217 -3.0623 -0.3317
  972SOL    HW214553   1.040   2.143  15.727 -0.3860 -2.2620  0.1659
  973SOL     OW14554   2.018   2.865   3.513 -0.1680  0.1257  0.3492
  973SOL    HW114555   1.936   2.816   3.504  0.5966 -1.2002  0.5246
  973SOL    HW214556   2.030   2.868   3.608 -0.1340 -1.6419  0.4014
  974SOL     OW14557   2.536   0.942   2.603  0.0304 -0.1714 -1.0394
  974SOL    HW114558   2.562   1.028   2.634  0.5808 -0.9753  0.7252
  974SOL    HW214559   2.589   0.891   2.664 -1.0076  0.2457  0.2005
  975SOL     OW14560   2.860   0.584   3.517 -0.3422 -0.2060  0.0745
  975SOL    HW114561   2.874   0.675   3.543  0.7400 -0.5368  0.6665
  975SOL    HW214562   2.894   0.588   3.428  0.0030 -0.7766  0.1793
  976SOL     OW14563   4.554   0.006   3.399  0.6614 -0.5435  0.3092
  976SOL    HW114564   4.517   4.668   3.439 -0.7773 -0.3185 -0.5716
  976SOL    HW214565   4.551   4.731   3.305 -0.5158  2.8435 -0.2014
  977SOL     OW14566   2.039   3.233   3.669  0.0184  0.0876  0.9111
  977SOL    HW114567   2.072   3.192   3.749  1.3246 -0.9081 -0.1363
  977SOL    HW214568   1.980   3.301   3.701 -0.1794  0.3979 -0.0906
  978SOL     OW14569   0.567   0.294   9.175 -0.2118  0.5691  0.4555
  978SOL    HW114570   0.562   0.217   9.118  0.4811 -0.3040  1.5718
  978SOL    HW214571   0.599   0.348   9.103 -2.1916  1.4362  0.2073
  979SOL     OW14572   3.453   2.899   3.415  0.7240 -0.2334  0.6687
  979SOL    HW114573   3.364   2.865   3.429  0.8951 -0.0648  2.0765
  979SOL    HW214574   3.485   2.847   3.341  0.7623 -0.1369  0.6179
  980SOL     OW14575   0.125   1.229   8.482  0.3401  0.3260  0.2797
  980SOL    HW114576   0.214   1.195   8.482  0.4567  0.6254 -0.3497
  980SOL    HW214577   0.112   1.258   8.572 -0.0254  1.5881 -0.1784
  981SOL     OW14578   3.329   0.855   8.021  0.2055  0.3790 -0.1107
  981SOL    HW114579   3.314   0.905   7.941 -2.5359 -2.0277 -1.0833
  981SOL    HW214580   3.385   0.786   7.988 -0.2477 -0.3491  0.6321
  982SOL     OW14581   2.362   1.270  10.936  0.3067 -0.4933 -0.0432
  982SOL    HW114582   2.380   1.283  10.843  2.5013 -1.7293  0.1905
  982SOL    HW214583   2.324   1.182  10.933 -1.4702  0.2858 -0.0171
  983SOL     OW14584   4.158   4.174   5.630  0.2305 -0.3270 -0.1574
  983SOL    HW114585   4.140   4.108   5.563 -2.2249  0.3120 -0.1302
  983SOL    HW214586   4.086   4.237   5.637 -0.1081 -0.5319 -1.8039
  984SOL     OW14587   0.089   3.586  14.462  0.4476  0.3008  0.0243
  984SOL    HW114588   0.164   3.529  14.479 -0.6416 -0.2738  2.9023
  984SOL    HW214589   0.061   3.597  14.553 -0.7033 -0.0620 -0.2929
  985SOL     OW14590   1.622   1.997   2.434  0.1399  0.4301  0.8452
  985SOL    HW114591   1.546   1.947   2.403 -0.1348  1.6443 -0.4463
  985SOL    HW214592   1.692   1.969   2.375  0.4725  2.4463  0.2879
  986SOL     OW14593   3.294   1.524   4.212 -0.0267 -0.2042 -0.0579
  986SOL    HW114594   3.276   1.431   4.199 -1.4332  0.4525 -2.9397
  986SOL    HW214595   3.286   1.554   4.121 -2.7931  0.9654  0.5778
  987SOL     OW14596   1.296   1.619   0.439 -0.0967 -0.1683 -0.5895
  987SOL    HW114597   1.233   1.602   0.509  0.4071  0.3716 -0.0034
  987SOL    HW214598   1.320   1.707   0.468  2.1576 -1.5876  1.8543
  988SOL     OW14599   2.872   3.193   2.823 -0.5397  0.1395 -0.3372
  988SOL    HW114600   2.785   3.172   2.857  0.1422  0.1648  1.4379
  988SOL    HW214601   2.922   3.197   2.905  1.0189  4.1289 -1.4961
  989SOL     OW14602   3.385   3.943  10.322 -0.2483  0.2233  0.0980
  989SOL    HW114603   3.456   3.879  10.314 -0.3278  0.5096 -2.9580
  989SOL    HW214604   3.415   3.983  10.403  1.3794 -1.2178  0.2285
  990SOL     OW14605   4.487   0.469   5.083  0.2451  0.2939  0.3512
  990SOL    HW114606   4.487   0.414   5.005 -0.9465 -0.1929  0.6995
  990SOL    HW214607   4.575   0.444   5.114 -0.3949 -0.4847  1.5610
  991SOL     OW14608   3.143   3.702   7.972 -0.6051  0.1126  0.3872
  991SOL    HW114609   3.179   3.790   7.968  0.7372 -0.4326  0.4640
  991SOL    HW214610   3.057   3.708   7.930 -2.5870  0.7829  4.4598
  992SOL     OW14611   4.737   3.150   8.344 -0.4801  0.4561  0.7529
  992SOL    HW114612   0.010   3.208   8.419  0.4573 -0.5735  1.4009
  992SOL    HW214613   4.665   3.093   8.371 -0.1586  0.7807  2.3103
  993SOL     OW14614   1.238   1.163  17.444 -0.4149 -0.2799 -0.3514
  993SOL    HW114615   1.268   1.072  17.444  2.2035  0.6074  0.0807
  993SOL    HW214616   1.306   1.213  17.488 -0.3905 -1.7868  1.3151
  994SOL     OW14617   0.221   2.839   4.052 -0.0402  0.3043 -0.2544
  994SOL    HW114618   0.218   2.934   4.064 -0.5145  0.6505 -3.1872
  994SOL    HW214619   0.169   2.807   4.127  1.0151  1.6421  1.0490
  995SOL     OW14620   1.932   2.069   1.210  0.0377  0.4965 -0.1453
  995SOL    HW114621   2.004   2.018   1.174 -0.4783  0.5550 -1.2638
  995SOL    HW214622   1.980   2.149   1.231  0.9687  1.1324 -4.8110
  996SOL     OW14623   2.347   0.829   4.914 -0.5218 -1.0580  0.2226
  996SOL    HW114624   2.433   0.823   4.955 -0.3952 -1.5652 -0.1079
  996SOL    HW214625   2.327   0.735   4.919 -0.3070 -1.0451  1.2049
  997SOL     OW14626   1.041   0.552   3.602 -0.0459 -0.1310  0.0011
  997SOL    HW114627   0.985   0.621   3.637  0.7379  1.6087 -2.1796
  997SOL    HW214628   0.976   0.501   3.555 -1.1322  1.4301 -0.1904
  998SOL     OW14629   1.416   4.376   7.400 -0.1578 -0.0494 -0.3805
  998SOL    HW114630   1.472   4.300   7.413  1.0519  1.0875  1.0999
  998SOL    HW214631   1.328   4.342   7.410 -0.3427  0.3235 -0.7479
  999SOL     OW14632   0.694   0.524   6.546  0.2158 -0.3343 -0.0424
  999SOL    HW114633   0.672   0.508   6.455 -0.3020  0.3855 -0.0433
  999SOL    HW214634   0.777   0.571   6.533 -1.3612  2.4613 -0.0636
 1000SOL     OW14635   2.539   1.225   7.290  0.0608  0.0848 -0.2612
 1000SOL    HW114636   2.445   1.216   7.277  0.2972 -1.7524 -0.6217
 1000SOL    HW214637   2.567   1.252   7.203  0.4837  1.1823  0.2168
 1001SOL     OW14638   3.166   3.975   8.007  0.3788  0.6274  0.1668
 1001SOL    HW114639   3.086   3.970   8.059 -0.4826  1.7425 -1.0606
 1001SOL    HW214640   3.214   4.027   8.072 -0.6788  0.6475  0.9439
 1002SOL     OW14641   2.429   2.923   4.335  0.1970 -0.4729 -0.2736
 1002SOL    HW114642   2.380   3.005   4.322  1.5276  0.1585 -1.2704
 1002SOL    HW214643   2.378   2.883   4.405  0.2339 -0.1691 -0.0693
 1003SOL     OW14644   3.693   1.746   2.844 -0.3956 -0.3326  0.2195
 1003SOL    HW114645   3.701   1.805   2.919  0.0482  0.1031 -0.1718
 1003SOL    HW214646   3.673   1.809   2.775  0.6290  1.5224  1.5885
 1004SOL     OW14647   2.811   1.366   7.534 -0.8802  0.0385 -0.5288
 1004SOL    HW114648   2.836   1.275   7.550  2.4246  1.1391  0.6486
 1004SOL    HW214649   2.776   1.397   7.617  0.8432  1.0459 -0.1733
 1005SOL     OW14650   0.540   3.034  10.869  0.0938 -0.2076  0.3610
 1005SOL    HW114651   0.530   2.992  10.954  0.4612  0.2711  0.6319
 1005SOL    HW214652   0.510   2.960  10.814  1.8193 -0.1907 -0.6191
 1006SOL     OW14653   3.446   4.644   3.769  1.0277 -0.2324  0.2596
 1006SOL    HW114654   3.439   4.719   3.710  0.0698  1.8968  3.0578
 1006SOL    HW214655   3.537   4.661   3.795  1.5747  0.9007 -2.4285
 1007SOL     OW14656   4.653   4.510   7.385 -0.2354 -0.0974  0.1221
 1007SOL    HW114657   4.663   4.539   7.295  0.6576 -1.7809 -0.3167
 1007SOL    HW214658   4.563   4.479   7.393  0.0908 -1.1732 -0.4182
 1008SOL     OW14659   1.543   4.134   1.678  0.4356  0.1459 -0.2826
 1008SOL    HW114660   1.598   4.110   1.602  2.3104 -0.9853  1.4204
 1008SOL    HW214661   1.594   4.205   1.716 -1.8016  1.0932  0.8761
 1009SOL     OW14662   2.538   1.921  10.590  0.5992 -0.1245 -0.6401
 1009SOL    HW114663   2.503   2.009  10.580 -2.0179 -0.9041  1.6045
 1009SOL    HW214664   2.574   1.938  10.677  0.0709  2.1298 -0.8767
 1010SOL     OW14665   4.036   4.341  10.861 -0.2008  0.1004  0.0155
 1010SOL    HW114666   4.061   4.424  10.900 -0.5027  0.3187 -0.2621
 1010SOL    HW214667   3.972   4.305  10.923  1.6132 -4.1173 -0.5509
 1011SOL     OW14668   0.627   0.080   1.988  0.5003  0.1898  0.3912
 1011SOL    HW114669   0.589   0.015   2.048  0.2749 -0.5334 -0.5355
 1011SOL    HW214670   0.713   0.090   2.028  1.7070 -2.6564 -1.5195
 1012SOL     OW14671   0.493   0.091   7.419 -0.6442 -0.5664 -0.1677
 1012SOL    HW114672   0.415   0.132   7.382 -0.6327  2.7322  3.4465
 1012SOL    HW214673   0.524   0.059   7.334  0.1386 -0.9491  0.2554
 1013SOL     OW14674   1.896   3.536   8.311  0.0844 -0.1539 -0.2371
 1013SOL    HW114675   1.812   3.491   8.317 -1.9158  3.4406 -1.7392
 1013SOL    HW214676   1.913   3.570   8.399  0.6300 -0.0871 -0.3692
 1014SOL     OW14677   3.268   4.614   3.217  0.1244  0.0153  0.1961
 1014SOL    HW114678   3.282   4.535   3.164 -0.8375  0.3232 -0.5159
 1014SOL    HW214679   3.358   4.647   3.215 -0.5067  1.6772 -1.3701
 1015SOL     OW14680   1.993   4.636   4.533 -0.1240 -0.5027  0.1924
 1015SOL    HW114681   2.002   4.567   4.598 -1.4003 -0.5057  0.3574
 1015SOL    HW214682   1.902   4.661   4.545  0.3607  1.3657  0.0824
 1016SOL     OW14683   1.397   2.042   5.143  1.1983 -0.1135  0.0584
 1016SOL    HW114684   1.460   1.995   5.197  1.1892  1.6992  1.6567
 1016SOL    HW214685   1.445   2.125   5.138  0.1734  0.5281  0.8319
 1017SOL     OW14686   2.808   0.223   3.035 -0.5080 -0.3675 -0.4680
 1017SOL    HW114687   2.899   0.195   3.043 -0.7702 -0.4545  2.3184
 1017SOL    HW214688   2.752   0.153   3.001 -1.1403  1.1657 -2.5745
 1018SOL     OW14689   1.589   1.257  13.720 -0.1708  0.0990 -0.0918
 1018SOL    HW114690   1.621   1.181  13.768  0.2869  0.6488  0.4605
 1018SOL    HW214691   1.644   1.330  13.748 -1.8216  1.0163  0.7704
 1019SOL     OW14692   3.081   1.453   5.408  0.2366 -0.4016 -0.3032
 1019SOL    HW114693   3.139   1.529   5.411  0.9596 -0.9933  0.5709
 1019SOL    HW214694   3.156   1.394   5.392  0.9021  0.5201 -0.5997
 1020SOL     OW14695   1.476   2.147   7.590  0.6665 -0.2403 -0.7062
 1020SOL    HW114696   1.461   2.242   7.585 -0.8673 -0.5131 -1.4541
 1020SOL    HW214697   1.452   2.107   7.507 -2.2901  0.8876 -0.4339
 1021SOL     OW14698   3.495   3.213   4.715 -0.3549 -0.1226 -0.0004
 1021SOL    HW114699   3.411   3.250   4.743 -1.3010 -0.6417 -2.1874
 1021SOL    HW214700   3.485   3.202   4.621 -0.1636  1.1047 -0.1618
 1022SOL     OW14701   3.132   1.460   5.924 -0.1683 -0.2757 -0.6213
 1022SOL    HW114702   3.192   1.420   5.861 -2.3484  0.8190 -3.3880
 1022SOL    HW214703   3.107   1.539   5.877  0.4454  0.6772  0.6753
 1023SOL     OW14704   3.475   2.132   4.947  0.6646 -0.6064 -0.5021
 1023SOL    HW114705   3.565   2.152   4.920  1.0406 -0.4301  0.8845
 1023SOL    HW214706   3.428   2.186   4.883 -1.3365  0.3607  1.8005
 1024SOL     OW14707   3.522   3.626   3.654 -0.2472 -0.3053 -0.4812
 1024SOL    HW114708   3.441   3.588   3.620 -2.5881  1.5668  3.0203
 1024SOL    HW214709   3.553   3.553   3.707 -0.9437 -0.3280 -0.0992
 1025SOL     OW14710   3.566   3.646   6.382 -0.0196  0.4623  0.1816
 1025SOL    HW114711   3.568   3.724   6.327 -1.4089 -1.6175 -2.7990
 1025SOL    HW214712   3.523   3.671   6.465 -4.1175 -1.6765 -1.3174
 1026SOL     OW14713   4.096   1.130  11.648 -0.4020 -0.0995  0.0356
 1026SOL    HW114714   4.071   1.037  11.646  0.8218 -0.4278  0.3183
 1026SOL    HW214715   4.148   1.127  11.567 -1.6646 -0.9266 -0.7553
 1027SOL     OW14716   3.192   3.834   7.673  0.1677  0.1063  0.1187
 1027SOL    HW114717   3.186   3.889   7.595  2.8905 -1.4396 -1.1315
 1027SOL    HW214718   3.269   3.874   7.714 -0.1813 -0.9048  1.7521
 1028SOL     OW14719   1.022   2.037   7.006 -0.2188 -0.5737 -0.2015
 1028SOL    HW114720   1.013   2.073   7.094  0.6156 -1.8998  0.4367
 1028SOL    HW214721   0.998   2.116   6.958 -1.1390 -1.2847 -0.9187
 1029SOL     OW14722   1.306   1.282   3.162 -0.1485 -0.0026 -0.3049
 1029SOL    HW114723   1.376   1.285   3.227 -1.0489  0.8371  0.6312
 1029SOL    HW214724   1.235   1.224   3.191 -1.4928  0.7945 -1.9913
 1030SOL     OW14725   2.705   0.179   2.470 -0.1843 -0.2130 -0.2272
 1030SOL    HW114726   2.763   0.131   2.529  0.5851 -1.4000 -1.9290
 1030SOL    HW214727   2.747   0.179   2.384  0.1240 -0.4737 -0.0806
 1031SOL     OW14728   2.514   4.224   8.780  0.2163 -0.3604  0.3394
 1031SOL    HW114729   2.486   4.303   8.827 -0.4195 -0.9899  1.0158
 1031SOL    HW214730   2.599   4.247   8.742  1.3146 -0.2090  2.8572
 1032SOL     OW14731   0.316   1.392   6.904  0.2159  0.0946  0.2018
 1032SOL    HW114732   0.373   1.463   6.873  0.3915  0.8287  2.2026
 1032SOL    HW214733   0.281   1.434   6.982  1.7588 -1.8696  1.9464
 1033SOL     OW14734   0.810   1.456   2.048 -0.3579  0.4349 -0.2340
 1033SOL    HW114735   0.773   1.526   2.101 -2.0881 -0.3790 -0.3831
 1033SOL    HW214736   0.732   1.419   2.007  0.2329 -1.2751  0.2271
 1034SOL     OW14737   1.177   3.566  16.782 -0.9681 -0.2679  0.2473
 1034SOL    HW114738   1.167   3.507  16.708  1.6851 -0.3087 -0.0875
 1034SOL    HW214739   1.142   3.651  16.753  2.1341  0.5457 -1.0471
 1035SOL     OW14740   0.469   4.278   6.033 -0.1405 -0.6008  0.6940
 1035SOL    HW114741   0.524   4.330   6.091  0.0655  0.8983 -0.8643
 1035SOL    HW214742   0.536   4.253   5.970  0.0915  0.3323  0.5818
 1036SOL     OW14743   4.444   2.750  16.695 -1.0413  0.0978 -0.1668
 1036SOL    HW114744   4.407   2.838  16.708  0.1485  0.6297 -0.4059
 1036SOL    HW214745   4.490   2.776  16.615 -0.3732 -2.7182 -0.6829
 1037SOL     OW14746   2.677   0.445   5.770  0.0880  0.4918 -0.2085
 1037SOL    HW114747   2.642   0.429   5.858  0.8170 -4.0121 -0.7273
 1037SOL    HW214748   2.612   0.410   5.709 -0.4703  0.6941  0.2754
 1038SOL     OW14749   4.503   2.143   4.666  0.3323 -0.1494  0.4444
 1038SOL    HW114750   4.455   2.140   4.749  0.2083 -2.7020  0.2778
 1038SOL    HW214751   4.594   2.146   4.694  0.1688 -2.8185  1.2812
 1039SOL     OW14752   0.918   1.910   4.147  0.0323 -0.6461 -0.1510
 1039SOL    HW114753   0.927   1.878   4.236 -3.1362 -0.5440  0.2099
 1039SOL    HW214754   0.840   1.965   4.159 -0.5992 -0.8601 -3.2051
 1040SOL     OW14755   1.976   1.153   7.904 -0.1090  0.0125  0.2268
 1040SOL    HW114756   2.059   1.193   7.878  1.0617 -3.1645 -0.9330
 1040SOL    HW214757   1.939   1.210   7.971  0.8296 -0.8172  1.4585
 1041SOL     OW14758   2.228   0.220   6.507 -0.2447 -0.3149 -0.0322
 1041SOL    HW114759   2.219   0.131   6.474 -0.2916  1.3624 -4.5691
 1041SOL    HW214760   2.196   0.212   6.597  1.3837 -2.1453  0.3929
 1042SOL     OW14761   4.199   2.093   8.825  0.0016  0.2356  0.2089
 1042SOL    HW114762   4.157   2.007   8.815 -2.2170  1.4055 -0.6106
 1042SOL    HW214763   4.179   2.111   8.917  0.3362 -0.6835  0.4677
 1043SOL     OW14764   1.430   3.737   1.325  0.3813  0.2146  0.2510
 1043SOL    HW114765   1.433   3.766   1.416 -2.4898  0.2368  0.3466
 1043SOL    HW214766   1.427   3.642   1.338  0.3910  0.2553  0.5503
 1044SOL     OW14767   2.347   4.518   8.205 -0.3959 -0.0330 -0.1748
 1044SOL    HW114768   2.386   4.451   8.262 -1.6277 -0.1843  0.4846
 1044SOL    HW214769   2.302   4.570   8.270  0.0374 -0.8081  0.7409
 1045SOL     OW14770   4.640   1.779   0.778 -0.0416  0.1449  0.1096
 1045SOL    HW114771   4.549   1.807   0.771  0.4509  1.4547 -1.0380
 1045SOL    HW214772   4.654   1.780   0.873 -2.2140 -2.2904  0.4496
 1046SOL     OW14773   3.934   2.523   3.649 -0.0751 -0.0935 -0.1833
 1046SOL    HW114774   3.897   2.488   3.568  1.2813 -0.1118 -0.7966
 1046SOL    HW214775   4.010   2.567   3.611 -0.1197 -0.0203 -0.1872
 1047SOL     OW14776   1.385   1.725   7.228  0.2284  0.1215  0.0040
 1047SOL    HW114777   1.320   1.776   7.180 -0.0604  0.4177  0.7127
 1047SOL    HW214778   1.439   1.687   7.159 -1.6795 -1.6803 -0.4691
 1048SOL     OW14779   1.257   1.676   2.511 -0.0381  0.5648 -0.1739
 1048SOL    HW114780   1.234   1.646   2.599  0.8660  2.0637  0.5657
 1048SOL    HW214781   1.210   1.605   2.466 -1.1012  0.6037  0.8573
 1049SOL     OW14782   0.763   0.484   8.112 -0.3691  0.0171 -0.3389
 1049SOL    HW114783   0.753   0.522   8.199  0.1338  0.0654 -0.3025
 1049SOL    HW214784   0.685   0.435   8.087 -0.6891  0.5888 -0.4622
 1050SOL     OW14785   0.255   0.803   0.266  0.9193 -0.5104  0.2144
 1050SOL    HW114786   0.282   0.817   0.357 -0.8571  2.0062  0.3417
 1050SOL    HW214787   0.291   0.871   0.209  0.1558 -0.6078 -0.3735
 1051SOL     OW14788   2.358   3.128   1.566 -0.2057  0.6715  0.1165
 1051SOL    HW114789   2.395   3.074   1.496 -0.9253  1.3144 -0.7750
 1051SOL    HW214790   2.346   3.069   1.640  0.3853 -0.7729 -0.9179
 1052SOL     OW14791   3.179   4.301  14.801  0.1215 -0.0668 -0.2224
 1052SOL    HW114792   3.102   4.267  14.754 -1.6720 -1.5236  3.6791
 1052SOL    HW214793   3.132   4.320  14.883  0.6684  1.8582 -0.3787
 1053SOL     OW14794   0.849   2.650   1.482  0.2125  0.2911 -0.3675
 1053SOL    HW114795   0.918   2.696   1.530  1.8961 -1.5101 -1.0332
 1053SOL    HW214796   0.787   2.639   1.555  0.1571  0.6377 -0.3634
 1054SOL     OW14797   0.207   0.952   6.081 -0.5132 -0.4713 -0.4955
 1054SOL    HW114798   0.119   0.941   6.046 -1.0966  1.6850  0.3524
 1054SOL    HW214799   0.198   0.897   6.159 -0.1187  0.5042  0.2407
 1055SOL     OW14800   3.871   1.045   6.223 -0.4025  0.1642 -0.4989
 1055SOL    HW114801   3.830   0.959   6.217 -0.8438  0.2289  1.5603
 1055SOL    HW214802   3.795   1.101   6.205  0.9517  2.4997  1.1738
 1056SOL     OW14803   3.069   1.298  14.210 -0.3952 -0.8464  0.4725
 1056SOL    HW114804   3.147   1.286  14.263  0.2831  1.1319 -0.1020
 1056SOL    HW214805   3.023   1.217  14.232 -1.2521 -0.9713 -1.7882
 1057SOL     OW14806   2.691   3.377   4.468  0.0767  0.5455 -0.1670
 1057SOL    HW114807   2.692   3.336   4.555  0.2260 -0.0080 -0.4248
 1057SOL    HW214808   2.626   3.324   4.423  0.4859 -0.4920  0.4448
 1058SOL     OW14809   4.388   0.627   7.099 -0.2711  0.2810 -0.8017
 1058SOL    HW114810   4.344   0.635   7.184 -1.1471 -1.2159 -1.1133
 1058SOL    HW214811   4.380   0.720   7.078 -2.4554  0.3755  0.3645
 1059SOL     OW14812   3.383   2.982  16.290  0.1311  0.4900 -0.1644
 1059SOL    HW114813   3.295   2.979  16.326  1.1464 -1.6025  2.1664
 1059SOL    HW214814   3.404   3.070  16.321  1.9980 -0.3742  1.0767
 1060SOL     OW14815   3.086   4.440  10.011  0.3113 -0.6444 -0.6346
 1060SOL    HW114816   3.081   4.474   9.922  0.6302 -0.1358 -0.4570
 1060SOL    HW214817   2.992   4.424  10.017  0.2509 -0.5641 -1.3732
 1061SOL     OW14818   0.522   1.365   7.367 -0.2554 -0.2034  0.1209
 1061SOL    HW114819   0.432   1.350   7.338  0.1185 -2.6523  0.2185
 1061SOL    HW214820   0.552   1.281   7.331 -2.5952 -1.3792  0.8712
 1062SOL     OW14821   4.325   3.214   3.496  0.5506  0.4114 -0.3655
 1062SOL    HW114822   4.281   3.276   3.554 -0.2320 -0.9387  0.4880
 1062SOL    HW214823   4.292   3.238   3.410 -0.8715 -0.8770 -0.1792
 1063SOL     OW14824   0.286   4.526   3.814 -0.3828 -0.2956  0.0588
 1063SOL    HW114825   0.329   4.610   3.826 -1.1096 -0.0058  0.6257
 1063SOL    HW214826   0.362   4.477   3.785 -0.2170  0.1198 -0.2003
 1064SOL     OW14827   1.291   4.389  14.590  0.4085  0.0643 -0.3127
 1064SOL    HW114828   1.279   4.471  14.638 -1.1541  0.9783 -2.2483
 1064SOL    HW214829   1.249   4.324  14.646 -0.7607  0.2505 -0.9728
 1065SOL     OW14830   2.339   0.626  14.243 -0.2108 -0.2849 -0.4396
 1065SOL    HW114831   2.251   0.661  14.253  0.6435  1.6944  0.1684
 1065SOL    HW214832   2.398   0.701  14.247  1.8073 -1.7970 -1.3214
 1066SOL     OW14833   1.515   2.058  14.943 -0.3524  0.5398 -0.3173
 1066SOL    HW114834   1.550   2.136  14.899  2.7824 -0.2531  0.7287
 1066SOL    HW214835   1.450   2.093  15.003  1.5154  1.2504  1.3057
 1067SOL     OW14836   2.978   1.337   1.944 -0.3634 -0.2147 -0.0162
 1067SOL    HW114837   2.958   1.249   1.976  0.8525 -1.1481 -1.8605
 1067SOL    HW214838   2.900   1.390   1.960  0.3447  0.8418 -0.0705
 1068SOL     OW14839   1.250   4.269   1.702  0.2082  0.0658  0.3118
 1068SOL    HW114840   1.314   4.332   1.735  2.0682 -1.0279 -1.2046
 1068SOL    HW214841   1.306   4.227   1.636  0.4460  1.1852 -0.2151
 1069SOL     OW14842   1.722   0.491   9.436 -0.1649  0.4180 -0.0261
 1069SOL    HW114843   1.626   0.487   9.441 -0.0399 -0.0875  1.9878
 1069SOL    HW214844   1.736   0.427   9.367 -1.4761 -0.4200  0.4761
 1070SOL     OW14845   0.188   0.443   6.430  0.2485  0.9825  0.5772
 1070SOL    HW114846   0.099   0.477   6.435  0.8707  2.4502  1.4514
 1070SOL    HW214847   0.228   0.506   6.490 -0.6692 -0.3907  2.6533
 1071SOL     OW14848   0.804   0.958   8.788  0.1552 -0.0990 -0.5248
 1071SOL    HW114849   0.802   0.964   8.883  0.0064  0.4289 -0.5645
 1071SOL    HW214850   0.762   1.037   8.753  1.4105 -0.7801 -3.6125
 1072SOL     OW14851   0.682   0.785   0.093  0.3370 -0.2545 -0.3330
 1072SOL    HW114852   0.679   0.756   0.002 -0.8386  4.9003 -1.9416
 1072SOL    HW214853   0.773   0.764   0.111  0.3159  0.0865  0.1664
 1073SOL     OW14854   3.691   0.598   1.124  0.1828 -0.0232 -0.3224
 1073SOL    HW114855   3.764   0.645   1.083  1.7173 -3.4598 -1.5631
 1073SOL    HW214856   3.668   0.649   1.201  1.2789  0.8187 -0.5564
 1074SOL     OW14857   1.926   0.527   2.619 -0.1844  0.3544 -0.6614
 1074SOL    HW114858   1.941   0.617   2.649  1.1085 -0.3691  0.8194
 1074SOL    HW214859   1.851   0.499   2.671  0.5546 -3.0573 -1.4187
 1075SOL     OW14860   3.365   3.538  11.733  0.8549  0.3466 -0.1198
 1075SOL    HW114861   3.343   3.551  11.641 -0.9036  0.6910  0.3572
 1075SOL    HW214862   3.352   3.444  11.733 -2.3642  0.7786 -1.4129
 1076SOL     OW14863   4.662   1.164   6.048 -0.1844  0.4473 -0.5420
 1076SOL    HW114864   4.682   1.081   6.004  0.0461 -0.7888  1.8931
 1076SOL    HW214865   4.684   1.137   6.138 -0.2195  1.5216 -0.2123
 1077SOL     OW14866   2.722   4.324   9.169 -0.2361 -0.5455 -0.3320
 1077SOL    HW114867   2.649   4.367   9.124 -0.1171  1.4687  1.3743
 1077SOL    HW214868   2.796   4.363   9.122  0.0684  0.2239  0.7822
 1078SOL     OW14869   0.480   0.947   2.609  0.1574  0.3563  0.0432
 1078SOL    HW114870   0.467   1.042   2.611  0.1637  0.2696  4.6065
 1078SOL    HW214871   0.568   0.957   2.645  0.6562 -0.4532 -0.9545
 1079SOL     OW14872   0.814   1.576  10.050  0.3042 -0.2396 -0.0608
 1079SOL    HW114873   0.832   1.649   9.991  0.6242 -1.3743 -1.3616
 1079SOL    HW214874   0.797   1.616  10.136  2.5478 -0.7843  0.6440
 1080SOL     OW14875   0.111   0.110   0.317  0.0967  0.0652  0.7310
 1080SOL    HW114876   0.022   0.080   0.298  0.8330 -0.2703 -2.1604
 1080SOL    HW214877   0.107   0.078   0.407  0.7825 -0.6909  0.4850
 1081SOL     OW14878   3.757   3.773  13.373  0.4988  0.0707 -0.0937
 1081SOL    HW114879   3.743   3.764  13.467  4.3993 -0.6705  0.4293
 1081SOL    HW214880   3.820   3.845  13.380  0.4848  0.1000 -0.2869
 1082SOL     OW14881   3.702   0.622   4.526 -0.0348  0.1852 -0.3917
 1082SOL    HW114882   3.794   0.645   4.518  0.1127 -0.1603  0.3097
 1082SOL    HW214883   3.698   0.527   4.537 -1.5861  0.0732 -1.8770
 1083SOL     OW14884   1.954   0.928  11.008  0.3785  0.0228  0.0494
 1083SOL    HW114885   1.865   0.953  11.034  0.7557  1.1577  0.2601
 1083SOL    HW214886   1.963   0.843  11.051  1.6422 -0.8919 -2.0252
 1084SOL     OW14887   1.822   1.845   2.251 -0.4260  0.1013 -0.0995
 1084SOL    HW114888   1.769   1.868   2.175 -0.7146  3.6701  1.1909
 1084SOL    HW214889   1.912   1.827   2.223 -0.5497 -0.8216  0.0850
 1085SOL     OW14890   3.458   0.127   4.026 -0.3628  0.3710  0.2726
 1085SOL    HW114891   3.384   0.096   3.974  0.6531 -2.2774  0.4101
 1085SOL    HW214892   3.532   0.103   3.971 -1.8291  0.8563 -1.9054
 1086SOL     OW14893   1.431   1.024  15.996  0.3416  0.4843 -0.1961
 1086SOL    HW114894   1.401   1.114  16.006  0.9614  0.5912  0.7457
 1086SOL    HW214895   1.353   0.978  16.025 -0.0414  2.2341  1.5285
 1087SOL     OW14896   1.566   3.242   8.015  0.3353  0.3714 -0.0675
 1087SOL    HW114897   1.547   3.312   7.953 -0.4147  3.1096  3.2923
 1087SOL    HW214898   1.652   3.274   8.042  0.2477 -1.3029  2.2346
 1088SOL     OW14899   0.960   3.975   5.769  0.0577 -0.4347 -0.3051
 1088SOL    HW114900   1.036   4.028   5.746  1.0098 -1.6663 -0.0288
 1088SOL    HW214901   0.975   3.952   5.861 -1.1628 -0.6655 -0.1681
 1089SOL     OW14902   1.490   0.128  13.477 -0.1742 -0.2909 -0.2702
 1089SOL    HW114903   1.527   0.177  13.551 -0.2665  1.2398 -1.2490
 1089SOL    HW214904   1.410   0.094  13.516  0.2243 -0.5086  0.3628
 1090SOL     OW14905   3.072   2.591  16.963  0.3434 -0.7121 -0.1501
 1090SOL    HW114906   3.079   2.660  17.029  0.5323  1.1753 -2.1329
 1090SOL    HW214907   3.009   2.624  16.899  0.2512  0.9017  0.7538
 1091SOL     OW14908   3.522   1.088  14.536 -0.0474  0.6208 -0.2555
 1091SOL    HW114909   3.443   1.093  14.590  0.0051 -1.1102 -0.0342
 1091SOL    HW214910   3.552   1.179  14.537  0.9207  0.2729  1.1293
 1092SOL     OW14911   1.593   2.439   7.552 -0.6103 -1.1411 -0.0003
 1092SOL    HW114912   1.605   2.457   7.459 -1.1017 -2.1614 -0.2608
 1092SOL    HW214913   1.573   2.527   7.585 -1.8605 -0.2050 -3.3332
 1093SOL     OW14914   3.876   0.420  12.834  0.1847 -0.0931  0.1156
 1093SOL    HW114915   3.869   0.372  12.917  0.2956  1.8389  1.2385
 1093SOL    HW214916   3.895   0.341  12.783 -1.3546 -0.6869  0.4712
 1094SOL     OW14917   2.023   0.833   1.917  0.0437  0.5688  0.2974
 1094SOL    HW114918   2.027   0.800   2.007  0.8692  1.5518  0.6261
 1094SOL    HW214919   1.954   0.779   1.879 -0.2406  1.1555 -0.0165
 1095SOL     OW14920   2.712   0.127  14.968 -0.1965 -0.7312  0.4233
 1095SOL    HW114921   2.771   0.113  14.893 -2.6143  1.2184 -1.8526
 1095SOL    HW214922   2.652   0.052  14.966 -2.1152  0.8110 -0.7115
 1096SOL     OW14923   1.033   3.507  17.612  0.0744  0.4942 -0.1192
 1096SOL    HW114924   1.076   3.577  17.661  1.3903  0.1400 -0.7542
 1096SOL    HW214925   1.011   3.559  17.535  0.3908 -1.1388 -1.3197
 1097SOL     OW14926   0.453   2.914  11.482  0.1285 -0.1143  0.0505
 1097SOL    HW114927   0.505   2.931  11.561 -0.0650 -0.9424  0.3637
 1097SOL    HW214928   0.367   2.876  11.501 -0.1543 -0.2604 -1.5132
 1098SOL     OW14929   4.283   2.134   2.595 -0.1537 -0.4968  0.1177
 1098SOL    HW114930   4.347   2.113   2.527  0.7006 -1.6016  1.2593
 1098SOL    HW214931   4.279   2.057   2.651  0.8145 -1.4805 -1.1666
 1099SOL     OW14932   1.666   0.041   8.768 -0.4035  0.0044 -0.3848
 1099SOL    HW114933   1.616   4.705   8.798 -2.0847  0.5693 -1.7513
 1099SOL    HW214934   1.735   0.001   8.716  0.0804  1.2963 -0.7215
 1100SOL     OW14935   1.428   3.611   2.319 -0.2253  0.2594 -0.3759
 1100SOL    HW114936   1.418   3.534   2.262  0.1902 -0.6534  0.7702
 1100SOL    HW214937   1.381   3.683   2.276 -2.1762 -0.7636  0.0346
 1101SOL     OW14938   1.834   3.125   1.420 -0.1025 -0.0208 -0.4194
 1101SOL    HW114939   1.928   3.111   1.432  0.2133  0.4985 -2.4451
 1101SOL    HW214940   1.808   3.042   1.461 -0.7756 -0.1630 -1.1319
 1102SOL     OW14941   4.549   2.629   3.149  0.0750 -0.2581  0.3396
 1102SOL    HW114942   4.577   2.621   3.240  2.0068 -0.0725 -0.2451
 1102SOL    HW214943   4.623   2.592   3.101 -1.8295 -0.2561 -2.6003
 1103SOL     OW14944   2.400   2.979   6.743 -0.5494  0.4938  0.8223
 1103SOL    HW114945   2.369   3.069   6.750 -0.3498  0.6785 -0.6783
 1103SOL    HW214946   2.468   2.988   6.677 -1.2369 -0.1250  0.0095
 1104SOL     OW14947   0.049   3.637  10.389  0.2358 -0.2399  0.4249
 1104SOL    HW114948   0.088   3.679  10.313  0.7929  0.4535  1.0855
 1104SOL    HW214949   4.735   3.707  10.427  2.4888  1.4440  0.5519
 1105SOL     OW14950   3.694   2.683   2.723 -0.6599  0.3622  0.7149
 1105SOL    HW114951   3.774   2.631   2.721  0.0278  1.4950 -1.4799
 1105SOL    HW214952   3.713   2.727   2.805 -0.1997  0.0451  0.7771
 1106SOL     OW14953   2.996   0.437   6.288 -0.1111  0.1477 -0.3289
 1106SOL    HW114954   3.040   0.465   6.208 -0.2544  1.3664  0.0168
 1106SOL    HW214955   3.004   0.342   6.283  0.8555  0.1978  0.2655
 1107SOL     OW14956   2.298   4.078  14.457 -0.3389  0.6346  0.0532
 1107SOL    HW114957   2.338   4.039  14.379 -1.0470  0.9997 -0.4900
 1107SOL    HW214958   2.228   4.015  14.472  0.2663  0.6895  3.1015
 1108SOL     OW14959   0.573   4.510  11.903  0.9704 -0.2504  0.2116
 1108SOL    HW114960   0.558   4.464  11.820 -0.6860  0.2279  0.2593
 1108SOL    HW214961   0.553   4.601  11.879  2.2346  0.1291  0.5920
 1109SOL     OW14962   3.452   3.764   7.427 -0.0599  0.0309  0.0096
 1109SOL    HW114963   3.448   3.860   7.422  2.6604  0.0954 -0.7845
 1109SOL    HW214964   3.359   3.749   7.409 -0.2220  0.6075  0.3657
 1110SOL     OW14965   0.216   2.159   1.596  0.2489 -0.2854  0.5245
 1110SOL    HW114966   0.305   2.186   1.574 -0.2833  0.9837 -0.0858
 1110SOL    HW214967   0.158   2.173   1.521  0.3181  0.1273  0.5497
 1111SOL     OW14968   1.064   4.538   0.418  0.4116 -0.3043 -0.9077
 1111SOL    HW114969   0.972   4.518   0.434  0.5428 -0.4696 -0.3822
 1111SOL    HW214970   1.075   4.631   0.437  0.5919 -0.6223  0.5509
 1112SOL     OW14971   2.252   2.049   8.977 -0.3744 -0.1468 -0.1343
 1112SOL    HW114972   2.307   1.993   8.922 -0.7773  0.5152 -1.2133
 1112SOL    HW214973   2.216   1.987   9.040  2.9646 -1.0296  0.8905
 1113SOL     OW14974   2.030   4.376  16.112 -0.4525 -0.9424  0.3638
 1113SOL    HW114975   1.979   4.440  16.061  2.1309  0.7992 -0.0266
 1113SOL    HW214976   2.106   4.363  16.056  0.2296  1.1423  0.8162
 1114SOL     OW14977   1.775   0.250   0.773  0.0484  0.0043 -0.3711
 1114SOL    HW114978   1.796   0.343   0.769 -0.3870  0.2054  1.7555
 1114SOL    HW214979   1.679   0.257   0.776  0.0651 -0.3723  1.2340
 1115SOL     OW14980   1.897   1.183   3.076  0.0578  0.3295  0.1688
 1115SOL    HW114981   1.855   1.230   3.004 -2.5984 -1.4799  0.5500
 1115SOL    HW214982   1.949   1.256   3.109 -0.1632  0.0519  1.1346
 1116SOL     OW14983   4.016   1.577   9.078 -0.3283  0.0858 -0.0915
 1116SOL    HW114984   3.985   1.596   9.167  0.1770 -2.1441  0.5438
 1116SOL    HW214985   4.065   1.655   9.052  0.9660 -0.3327  1.0883
 1117SOL     OW14986   1.321   2.271   1.656  0.1197  0.0779  0.4773
 1117SOL    HW114987   1.371   2.226   1.588  0.8887 -1.6214  2.1748
 1117SOL    HW214988   1.336   2.221   1.736 -0.5580  1.0331  1.1971
 1118SOL     OW14989   0.640   1.460   2.668  0.0962  0.0311 -0.4661
 1118SOL    HW114990   0.571   1.503   2.618  0.8307  1.0892 -0.5723
 1118SOL    HW214991   0.696   1.533   2.695  1.3352 -1.1831  0.2693
 1119SOL     OW14992   2.900   2.344   7.582 -0.3351  0.3328 -0.0392
 1119SOL    HW114993   2.933   2.267   7.535 -0.8414  0.1722 -0.1258
 1119SOL    HW214994   2.808   2.320   7.584 -0.7137  2.0138  1.6361
 1120SOL     OW14995   1.659   0.673   1.932 -0.5982  0.4011 -0.5949
 1120SOL    HW114996   1.631   0.762   1.951 -0.8096  0.1589  0.2356
 1120SOL    HW214997   1.576   0.626   1.936  1.0795 -2.4763  0.5719
 1121SOL     OW14998   0.385   0.102   0.341  0.2904  0.3218 -0.7988
 1121SOL    HW114999   0.380   0.154   0.421  1.7944 -1.4620  0.4619
 1121SOL    HW215000   0.292   0.085   0.330  1.5349 -3.6029 -4.9119
 1122SOL     OW15001   4.161   3.894   7.802 -0.1008  0.0191 -0.2637
 1122SOL    HW115002   4.222   3.874   7.731  1.0876 -1.5147  1.1639
 1122SOL    HW215003   4.135   3.807   7.835  0.6457  0.2496  0.9590
 1123SOL     OW15004   2.594   1.592   6.938  0.0190  0.3398  0.4457
 1123SOL    HW115005   2.570   1.543   6.859  2.0445  1.4152 -0.8519
 1123SOL    HW215006   2.662   1.649   6.902 -1.0601  1.3001 -0.0552
 1124SOL     OW15007   0.592   3.628  17.380  0.1516  0.0045 -0.0254
 1124SOL    HW115008   0.643   3.576  17.442 -0.7593  0.9045  1.4960
 1124SOL    HW215009   0.545   3.560  17.332  4.1651 -1.0094 -2.5459
 1125SOL     OW15010   2.333   0.940   8.145 -0.2297 -0.0786  0.2330
 1125SOL    HW115011   2.321   0.957   8.052 -3.7946  0.9378  0.8610
 1125SOL    HW215012   2.253   0.963   8.193  0.1032 -1.0914  1.2850
 1126SOL     OW15013   2.566   1.814   4.645  0.4674  0.2082  0.2257
 1126SOL    HW115014   2.619   1.879   4.692  0.6590 -1.1214  1.8466
 1126SOL    HW215015   2.506   1.874   4.601  1.1540  1.9526  1.6530
 1127SOL     OW15016   0.694   4.001  15.064  0.1116  0.1596  0.0755
 1127SOL    HW115017   0.647   4.000  14.980 -2.2242  2.1136  1.3437
 1127SOL    HW215018   0.758   3.932  15.049  1.3799  1.8647 -2.5009
 1128SOL     OW15019   3.243   4.378   6.175 -0.1157 -0.0038 -0.0732
 1128SOL    HW115020   3.276   4.295   6.210  0.7197 -0.7488 -2.6482
 1128SOL    HW215021   3.152   4.351   6.169 -0.1062  0.1490 -0.9917
 1129SOL     OW15022   1.693   3.865   2.958  0.2114  0.1236 -0.0325
 1129SOL    HW115023   1.646   3.863   3.042  1.0494 -1.8277  0.3979
 1129SOL    HW215024   1.632   3.815   2.903  0.8246 -0.3463 -0.2834
 1130SOL     OW15025   4.178   0.407   0.537  0.0391  0.2268  0.2121
 1130SOL    HW115026   4.215   0.491   0.510  1.0497  0.3834  2.0690
 1130SOL    HW215027   4.086   0.428   0.554  0.6514  3.4276 -0.4984
 1131SOL     OW15028   2.341   4.410   9.848  0.0674  0.2294 -0.2919
 1131SOL    HW115029   2.419   4.365   9.816  1.0499  1.1057  0.8600
 1131SOL    HW215030   2.362   4.502   9.829 -1.9069  0.7767  0.0619
 1132SOL     OW15031   4.078   1.092   6.026  0.0210 -0.0197 -0.2444
 1132SOL    HW115032   4.028   1.064   6.103 -1.5877 -2.6357 -2.2741
 1132SOL    HW215033   4.116   1.169   6.069 -1.1859  0.2748  0.2809
 1133SOL     OW15034   2.037   2.992  16.971  0.4572  0.0276  0.1434
 1133SOL    HW115035   2.010   3.053  17.040 -0.1571 -2.4985  2.1223
 1133SOL    HW215036   1.981   2.919  16.998  0.2309 -0.3543 -1.3240
 1134SOL     OW15037   2.055   1.734  15.438 -0.3287  0.4175 -0.2952
 1134SOL    HW115038   1.961   1.718  15.446 -0.5936  1.8547 -0.5151
 1134SOL    HW215039   2.068   1.821  15.476 -0.0039 -0.8650  2.5772
 1135SOL     OW15040   1.848   2.728   7.202 -0.1336  0.5003 -0.4223
 1135SOL    HW115041   1.875   2.691   7.118  0.7187 -0.4656  0.2712
 1135SOL    HW215042   1.929   2.769   7.232 -0.5338  0.2024  1.1045
 1136SOL     OW15043   3.940   1.511   7.320  0.0788 -0.4253  0.1751
 1136SOL    HW115044   4.013   1.471   7.272  1.3165  0.4621  1.3089
 1136SOL    HW215045   3.958   1.605   7.317 -1.7684 -0.1275 -1.2039
 1137SOL     OW15046   1.005   4.662   4.304  0.2939  0.3207  0.2278
 1137SOL    HW115047   1.066   4.673   4.231 -0.8616  0.2393 -0.7641
 1137SOL    HW215048   0.948   4.599   4.260 -0.6019  2.8437 -2.2395
 1138SOL     OW15049   4.635   1.417   8.429 -0.4072  0.4122 -0.0365
 1138SOL    HW115050   4.711   1.415   8.487 -0.2331  0.8119 -0.2518
 1138SOL    HW215051   4.668   1.382   8.347 -0.5083 -1.5358  0.7400
 1139SOL     OW15052   4.542   1.583   1.371  0.4144 -0.6315 -0.1195
 1139SOL    HW115053   4.617   1.641   1.360  0.7998 -1.2239 -0.6415
 1139SOL    HW215054   4.515   1.568   1.280 -0.6955  0.5408  0.0315
 1140SOL     OW15055   1.555   0.284   8.763  0.2127  0.2704  0.1663
 1140SOL    HW115056   1.474   0.247   8.798 -0.7232  0.2761 -1.9651
 1140SOL    HW215057   1.598   0.199   8.776 -0.4913  0.1992  1.9507
 1141SOL     OW15058   2.231   3.399   8.612 -0.3064 -0.0039 -0.0829
 1141SOL    HW115059   2.297   3.428   8.674  0.7779 -1.7733 -0.4177
 1141SOL    HW215060   2.282   3.403   8.531 -0.4008 -1.7856 -0.2432
 1142SOL     OW15061   1.444   4.273   0.838 -0.1986  0.3881 -0.4779
 1142SOL    HW115062   1.355   4.238   0.849  0.1592  0.0940  1.6045
 1142SOL    HW215063   1.491   4.247   0.918  0.3027  1.9735 -0.2551
 1143SOL     OW15064   1.071   2.708  17.006 -0.2766 -0.2848 -0.2492
 1143SOL    HW115065   1.164   2.690  16.991 -0.4672  0.9572 -2.8720
 1143SOL    HW215066   1.044   2.616  17.013  0.0415 -0.1749  2.2762
 1144SOL     OW15067   2.594   2.610   8.430  0.0731  0.3999  0.4502
 1144SOL    HW115068   2.600   2.564   8.514  1.4126  1.5332  0.9789
 1144SOL    HW215069   2.546   2.542   8.383  3.0920 -0.1912 -1.8013
 1145SOL     OW15070   2.461   2.693   1.169  0.6093 -0.1488 -0.0408
 1145SOL    HW115071   2.453   2.738   1.253  0.8342 -0.5806  0.2102
 1145SOL    HW215072   2.556   2.681   1.166  0.5776 -0.2488 -0.6330
 1146SOL     OW15073   1.232   4.553   9.040 -0.4349  0.0969  0.0041
 1146SOL    HW115074   1.170   4.603   9.092  1.1623  0.5764  1.4496
 1146SOL    HW215075   1.181   4.528   8.963 -1.6241 -0.7989  1.0897
 1147SOL     OW15076   1.375   4.388   3.877 -0.3574 -0.3924 -0.3885
 1147SOL    HW115077   1.377   4.463   3.817  0.2207  0.2833  0.4704
 1147SOL    HW215078   1.285   4.360   3.866  0.0784 -1.4767 -1.1708
 1148SOL     OW15079   2.394   3.400   7.323  0.4130  0.1549 -0.8148
 1148SOL    HW115080   2.384   3.377   7.230 -0.0541  0.2236 -0.7788
 1148SOL    HW215081   2.443   3.323   7.350 -3.3874 -2.0120 -0.1420
 1149SOL     OW15082   1.802   3.509   2.977  0.6857  0.5030 -0.2935
 1149SOL    HW115083   1.752   3.551   2.906  3.0337  1.8844 -1.1382
 1149SOL    HW215084   1.774   3.417   2.978  2.0802  0.1011  0.6619
 1150SOL     OW15085   1.431   4.326   5.620  0.1401  0.1352  0.4009
 1150SOL    HW115086   1.488   4.355   5.692  0.8209  0.7751 -0.3913
 1150SOL    HW215087   1.351   4.367   5.651  0.0914  1.0346 -0.9170
 1151SOL     OW15088   3.727   0.030  12.555  0.1287  0.0346  0.5761
 1151SOL    HW115089   3.802   4.713  12.571  0.0850  0.0120  0.6956
 1151SOL    HW215090   3.651   4.733  12.600 -0.4262  0.1809 -0.2323
 1152SOL     OW15091   0.050   3.892  10.807 -0.5420 -0.2766 -0.4926
 1152SOL    HW115092   4.708   3.842  10.805  0.3831 -1.7397 -1.6203
 1152SOL    HW215093   0.087   3.848  10.883  1.1409  3.2087  0.6770
 1153SOL     OW15094   1.972   3.114   2.122 -0.2863  0.0028  0.4842
 1153SOL    HW115095   1.930   3.069   2.195 -0.8564  0.4408  0.4296
 1153SOL    HW215096   1.901   3.134   2.061 -0.5047 -4.1546 -0.6027
 1154SOL     OW15097   0.790   1.593   8.133 -0.4674 -0.0584 -0.0484
 1154SOL    HW115098   0.808   1.503   8.103  2.0291  0.7194 -0.9067
 1154SOL    HW215099   0.765   1.569   8.222 -0.5671 -0.6721 -0.2381
 1155SOL     OW15100   4.031   3.750   7.444 -0.2713 -0.3500  0.1562
 1155SOL    HW115101   4.049   3.832   7.397 -0.9437  1.5032  3.1307
 1155SOL    HW215102   3.939   3.734   7.419 -0.4830  0.9804  0.0846
 1156SOL     OW15103   3.910   4.589   7.910  0.2870 -0.1321 -0.0028
 1156SOL    HW115104   3.817   4.568   7.917  0.1139  0.5023 -0.3853
 1156SOL    HW215105   3.948   4.518   7.961  0.2264  0.3739  0.7516
 1157SOL     OW15106   1.757   4.720   5.842 -0.5070  0.3188  0.3756
 1157SOL    HW115107   1.695   0.050   5.860  1.6142  1.6766  2.5330
 1157SOL    HW215108   1.711   4.676   5.770  0.1910 -1.0185  0.7290
 1158SOL     OW15109   0.027   2.729  16.745  0.1245 -0.2442 -0.3005
 1158SOL    HW115110   0.037   2.660  16.811 -1.8635 -0.9948 -0.7834
 1158SOL    HW215111   4.685   2.701  16.704 -0.5542  1.4093 -0.0766
 1159SOL     OW15112   4.017   1.276   7.001  0.4463  0.6931  0.5631
 1159SOL    HW115113   4.094   1.329   6.983  1.4413 -1.2140 -0.8876
 1159SOL    HW215114   3.941   1.333   7.007  0.6549  0.8002  2.1721
 1160SOL     OW15115   0.671   3.347   4.798 -0.1623 -0.1100 -0.1653
 1160SOL    HW115116   0.686   3.357   4.704  1.2872  1.4379  0.2378
 1160SOL    HW215117   0.718   3.423   4.832  1.4339 -2.2541  2.3959
 1161SOL     OW15118   0.610   1.273   4.504  0.5919 -0.5554  0.4201
 1161SOL    HW115119   0.690   1.305   4.462  0.0315 -0.2849 -0.4599
 1161SOL    HW215120   0.653   1.239   4.582 -0.2150 -0.8809  0.7135
 1162SOL     OW15121   1.814   1.162   7.019  0.3444 -0.1405  0.3564
 1162SOL    HW115122   1.738   1.126   6.973  0.6253  1.1094 -1.1026
 1162SOL    HW215123   1.769   1.230   7.070 -1.9867 -0.4204 -1.3546
 1163SOL     OW15124   4.582   4.013  11.385 -0.4092  0.5152  0.1848
 1163SOL    HW115125   4.645   3.949  11.420  0.4140  0.6510 -1.0480
 1163SOL    HW215126   4.637   4.075  11.338 -0.1775 -0.6294 -1.0607
 1164SOL     OW15127   0.875   2.275   6.945  0.3773  0.4195  0.1673
 1164SOL    HW115128   0.798   2.332   6.938 -0.6833 -1.1125 -0.5302
 1164SOL    HW215129   0.952   2.328   6.968  1.1951 -1.6321  2.1537
 1165SOL     OW15130   3.197   3.731   8.891 -0.3493  0.2706  0.3160
 1165SOL    HW115131   3.170   3.640   8.882  0.3073 -0.0082  1.1781
 1165SOL    HW215132   3.250   3.747   8.813  0.6336  1.4700  1.2430
 1166SOL     OW15133   0.857   1.383   7.813 -0.0070 -0.5478  0.5600
 1166SOL    HW115134   0.949   1.409   7.819 -0.1164 -0.3042  1.2084
 1166SOL    HW215135   0.871   1.299   7.769  0.7646 -1.7654  3.1579
 1167SOL     OW15136   2.467   0.401  16.357  0.4675 -0.2437 -0.0405
 1167SOL    HW115137   2.433   0.389  16.446 -1.7165 -0.7608 -0.9595
 1167SOL    HW215138   2.540   0.340  16.352  1.2029  0.3976  2.5420
 1168SOL     OW15139   4.412   1.987   5.839 -0.4142  0.1281 -0.1512
 1168SOL    HW115140   4.455   1.910   5.876  0.5518  2.0608  2.6544
 1168SOL    HW215141   4.321   1.983   5.868 -0.8393 -0.2056 -1.5137
 1169SOL     OW15142   1.100   3.938  11.117 -0.4747 -0.2006  0.1823
 1169SOL    HW115143   1.073   3.970  11.203  1.7738  1.2278  0.3547
 1169SOL    HW215144   1.173   3.997  11.097  2.0524 -2.0509  4.0549
 1170SOL     OW15145   0.034   1.519  11.039 -0.0893 -0.4637  0.5133
 1170SOL    HW115146   4.681   1.506  11.055 -0.4500  2.2099  0.4738
 1170SOL    HW215147   0.043   1.538  10.946 -0.9088 -2.2168  0.0717
 1171SOL     OW15148   3.726   0.830   5.699  0.0784  0.3451  0.6718
 1171SOL    HW115149   3.814   0.806   5.669  0.2590  0.7235  0.8981
 1171SOL    HW215150   3.736   0.808   5.792  1.5478 -2.3992 -0.1199
 1172SOL     OW15151   2.930   2.055   2.003 -0.0584 -0.2131  0.1572
 1172SOL    HW115152   2.881   2.137   2.009  2.2827  1.3029 -1.4786
 1172SOL    HW215153   2.881   2.002   2.066  0.9598 -1.1483  0.1562
 1173SOL     OW15154   0.717   2.096   2.792 -0.2378 -0.5149  0.2148
 1173SOL    HW115155   0.710   2.001   2.805  3.5083 -0.9151 -0.6307
 1173SOL    HW215156   0.779   2.120   2.861  0.2128 -0.8669 -0.0683
 1174SOL     OW15157   0.049   4.145   0.626 -0.4848  0.2533 -0.3406
 1174SOL    HW115158   0.137   4.110   0.617 -0.9426 -0.0264 -3.6712
 1174SOL    HW215159   0.045   4.134   0.722  1.1074  1.4712 -0.1382
 1175SOL     OW15160   1.093   4.404   8.052  0.1686  0.3205  0.3034
 1175SOL    HW115161   1.095   4.416   8.147  0.5057 -1.1573  0.4887
 1175SOL    HW215162   1.185   4.388   8.028 -0.3723 -1.9047 -0.3611
 1176SOL     OW15163   1.951   2.815   2.358 -0.4355  0.4092 -0.4850
 1176SOL    HW115164   1.895   2.862   2.419 -0.5938 -0.6389  0.1739
 1176SOL    HW215165   2.014   2.886   2.348 -1.0084  0.5574 -3.0469
 1177SOL     OW15166   3.860   1.298  10.008 -0.0710  0.4370 -0.3406
 1177SOL    HW115167   3.821   1.369   9.956  1.0685 -1.6234 -4.0039
 1177SOL    HW215168   3.940   1.340  10.038 -0.3366  0.9064 -0.2821
 1178SOL     OW15169   4.027   4.054   1.274  0.1128  0.2781 -0.1435
 1178SOL    HW115170   4.105   4.026   1.323 -1.3362  0.3613  2.2253
 1178SOL    HW215171   3.995   4.131   1.320 -0.4821 -1.5349  2.4919
 1179SOL     OW15172   2.985   0.450   7.863 -0.2158 -0.0562  0.1436
 1179SOL    HW115173   3.027   0.410   7.787 -1.6116 -0.9360 -0.1660
 1179SOL    HW215174   2.923   0.379   7.876 -2.0504  1.5004 -0.0383
 1180SOL     OW15175   4.234   3.396   8.582 -0.5915  0.3283  0.1724
 1180SOL    HW115176   4.185   3.477   8.595 -0.6195  0.2739  0.4036
 1180SOL    HW215177   4.165   3.338   8.613 -0.5144  0.6187  0.8850
 1181SOL     OW15178   0.728   1.156   4.723  0.7609  0.3743 -0.1987
 1181SOL    HW115179   0.732   1.082   4.663 -0.8733  0.5191 -0.5010
 1181SOL    HW215180   0.810   1.148   4.772  0.4629 -0.1404  0.2231
 1182SOL     OW15181   3.895   1.472  13.619 -0.2458 -0.3443 -0.2386
 1182SOL    HW115182   3.837   1.402  13.588 -0.3633 -0.7317  0.8425
 1182SOL    HW215183   3.892   1.461  13.714  0.3120  2.9031  0.1404
 1183SOL     OW15184   3.249   1.306   5.108  0.1620 -0.0521 -0.6973
 1183SOL    HW115185   3.267   1.288   5.200 -2.2984 -0.2206 -0.2584
 1183SOL    HW215186   3.197   1.386   5.111  0.9400  0.3720  1.4291
 1184SOL     OW15187   0.537   0.096   7.118 -0.5045  0.1232 -0.1415
 1184SOL    HW115188   0.483   0.161   7.073  1.0860  0.0110 -2.2460
 1184SOL    HW215189   0.508   0.018   7.071  2.2805 -1.3752  0.6079
 1185SOL     OW15190   1.389   3.202   5.640  0.3021  0.0688  0.5998
 1185SOL    HW115191   1.314   3.159   5.599 -1.2075 -0.6808  4.1813
 1185SOL    HW215192   1.452   3.190   5.569 -0.7409 -0.9040 -0.1688
 1186SOL     OW15193   2.678   3.509   8.583  0.4374  0.4728 -0.3340
 1186SOL    HW115194   2.742   3.532   8.651 -0.4594 -1.5326  1.1949
 1186SOL    HW215195   2.740   3.512   8.511  0.0103  0.0875 -0.7204
 1187SOL     OW15196   2.920   4.092   9.072  0.0336 -0.4354  0.0549
 1187SOL    HW115197   2.919   4.186   9.056  1.5246 -0.4146  0.0562
 1187SOL    HW215198   2.925   4.061   8.981 -0.4105  0.5729 -0.3122
 1188SOL     OW15199   3.010   1.493   3.587 -0.0118  0.0574 -0.7750
 1188SOL    HW115200   2.977   1.574   3.625 -0.2857 -0.9751  1.1808
 1188SOL    HW215201   3.005   1.432   3.661 -1.6427  2.1261  0.7958
 1189SOL     OW15202   2.897   2.089  11.064  0.1350  0.4233 -0.1070
 1189SOL    HW115203   2.806   2.069  11.085 -0.1448 -0.6216 -2.3657
 1189SOL    HW215204   2.917   2.128  11.150  1.8481 -0.7671  0.0394
 1190SOL     OW15205   0.307   2.015   7.351 -0.0487 -0.2278 -0.3464
 1190SOL    HW115206   0.379   2.058   7.396  0.9424 -1.8698 -0.3713
 1190SOL    HW215207   0.324   2.044   7.261 -1.2568 -0.9937 -0.8243
 1191SOL     OW15208   3.985   3.976  13.360  0.6053 -0.7041 -0.7189
 1191SOL    HW115209   4.047   4.033  13.404 -1.4258 -0.5859  2.0297
 1191SOL    HW215210   4.040   3.925  13.301 -0.3583 -0.6737 -1.6552
 1192SOL     OW15211   2.899   2.976  11.854  0.0727 -0.8610 -0.0598
 1192SOL    HW115212   2.811   2.974  11.817  0.0798  1.9471 -0.1926
 1192SOL    HW215213   2.949   2.964  11.773  2.6359  1.8032  1.1190
 1193SOL     OW15214   0.413   1.147   0.391  0.1411 -0.2068 -0.1254
 1193SOL    HW115215   0.409   1.059   0.429 -1.0117 -0.6871 -1.3863
 1193SOL    HW215216   0.480   1.138   0.323  1.1198 -1.8558  1.0525
 1194SOL     OW15217   4.723   1.171  14.539 -0.5361  0.0246  0.2454
 1194SOL    HW115218   4.685   1.200  14.456 -2.0299 -1.4413  0.4408
 1194SOL    HW215219   0.071   1.138  14.519 -0.2178  0.9188  0.1293
 1195SOL     OW15220   2.189   2.458   1.082 -0.2805  0.0600 -0.1110
 1195SOL    HW115221   2.249   2.404   1.029  0.7496 -0.2213  1.3215
 1195SOL    HW215222   2.246   2.502   1.146  0.7752  1.1919 -1.8346
 1196SOL     OW15223   2.652   0.916   8.675 -0.4382  0.0742  0.1652
 1196SOL    HW115224   2.744   0.937   8.690  0.0482 -1.9602  0.0540
 1196SOL    HW215225   2.655   0.825   8.705 -1.3600  0.0864  0.3009
 1197SOL     OW15226   4.092   4.316   6.835  0.0166 -0.4661 -0.6565
 1197SOL    HW115227   4.024   4.252   6.852 -0.9458  0.8745  0.4440
 1197SOL    HW215228   4.159   4.302   6.902  0.9032 -0.3618 -1.5164
 1198SOL     OW15229   4.140   2.028   5.121 -0.4156  0.2432  0.0953
 1198SOL    HW115230   4.157   2.053   5.212  1.2397  0.5884 -0.3110
 1198SOL    HW215231   4.123   1.935   5.136 -1.5894  0.0129 -2.6918
 1199SOL     OW15232   0.903   1.973   8.320 -0.1356  0.0882 -0.5695
 1199SOL    HW115233   0.823   1.938   8.280 -0.3574 -2.7663  2.3274
 1199SOL    HW215234   0.891   2.067   8.311 -1.0707  0.1208  0.9979
 1200SOL     OW15235   0.694   0.013   1.455 -0.0834 -0.1922 -0.0435
 1200SOL    HW115236   0.708   4.664   1.423 -0.0494 -0.3474  0.4128
 1200SOL    HW215237   0.740   0.002   1.538 -3.2957  0.3703  1.8262
 1201SOL     OW15238   1.915   2.498   1.635  0.2033 -0.2347  0.0031
 1201SOL    HW115239   1.891   2.525   1.723  0.6258  1.7898 -0.4948
 1201SOL    HW215240   1.998   2.456   1.656  1.3694  0.7282 -2.6732
 1202SOL     OW15241   0.251   0.993  14.523  0.2568 -0.1747 -0.4194
 1202SOL    HW115242   0.286   1.074  14.561 -1.3438 -0.4332  1.6405
 1202SOL    HW215243   0.291   0.929  14.583 -0.3355  0.4153  0.6087
 1203SOL     OW15244   3.378   2.261   7.670 -0.1989  0.0254 -0.3161
 1203SOL    HW115245   3.362   2.311   7.750  2.0464  1.1442 -0.5654
 1203SOL    HW215246   3.429   2.191   7.711 -0.2847 -0.9665 -1.8918
 1204SOL     OW15247   1.997   0.596   4.297 -0.5325 -0.0061  0.9886
 1204SOL    HW115248   2.039   0.660   4.354  3.4069 -1.0704 -0.7048
 1204SOL    HW215249   1.984   0.519   4.353 -0.1546 -0.5577  0.3225
 1205SOL     OW15250   0.529   2.821  15.661 -0.4680 -0.8784 -0.4902
 1205SOL    HW115251   0.601   2.770  15.624  0.2397  0.4904 -1.0341
 1205SOL    HW215252   0.468   2.812  15.588 -0.0182 -2.8958 -0.6026
 1206SOL     OW15253   3.763   4.292  13.577 -0.0386  0.1594  1.1032
 1206SOL    HW115254   3.759   4.298  13.482 -0.1311 -0.2898  1.0761
 1206SOL    HW215255   3.725   4.204  13.583 -0.1675  0.0921 -0.8170
 1207SOL     OW15256   1.779   3.017   6.101 -0.4052  0.4812  0.1926
 1207SOL    HW115257   1.821   2.953   6.044  0.5948  1.3928 -0.0978
 1207SOL    HW215258   1.853   3.042   6.156  0.0367  1.1352 -0.6970
 1208SOL     OW15259   4.368   3.868   3.836 -0.1452  0.3733  0.5695
 1208SOL    HW115260   4.425   3.897   3.765 -1.3786 -0.4034 -0.7459
 1208SOL    HW215261   4.318   3.948   3.853 -0.2128  0.3331  0.5599
 1209SOL     OW15262   3.097   3.223   1.318  0.0528  0.2806 -0.0727
 1209SOL    HW115263   3.006   3.249   1.333 -0.5827 -1.0675 -1.5603
 1209SOL    HW215264   3.097   3.152   1.381  0.2776 -1.6989 -2.3273
 1210SOL     OW15265   1.972   0.256   4.800  0.6627 -0.2406  0.1743
 1210SOL    HW115266   2.040   0.204   4.757  0.4197 -2.5751  2.6777
 1210SOL    HW215267   2.018   0.286   4.879  2.1571  0.5588 -0.9897
 1211SOL     OW15268   3.955   3.672  14.711  0.0973 -0.5171  0.2233
 1211SOL    HW115269   3.953   3.579  14.736  0.0006 -0.4976  0.2904
 1211SOL    HW215270   3.878   3.705  14.758 -0.8827 -0.6295 -1.3044
 1212SOL     OW15271   1.848   3.847   5.224 -0.3124  0.0237  0.2463
 1212SOL    HW115272   1.755   3.849   5.199 -0.3025  0.8560  0.2800
 1212SOL    HW215273   1.887   3.906   5.160 -0.6567 -0.6944 -0.6444
 1213SOL     OW15274   4.279   3.496   0.320 -0.2628 -0.4751 -0.9594
 1213SOL    HW115275   4.306   3.571   0.374 -0.0948 -1.2922  0.0999
 1213SOL    HW215276   4.337   3.491   0.245  1.9045  1.5830  0.5882
 1214SOL     OW15277   0.057   0.841  11.202 -0.5867  0.6587 -0.5627
 1214SOL    HW115278   0.026   0.827  11.292  1.2867 -0.6489 -0.1170
 1214SOL    HW215279   0.008   0.770  11.160  0.2709  0.3004 -0.9579
 1215SOL     OW15280   2.574   4.174   7.776 -0.4281 -0.2120 -0.2365
 1215SOL    HW115281   2.584   4.133   7.690 -2.2531 -0.4633 -0.3160
 1215SOL    HW215282   2.481   4.162   7.794 -0.5254 -0.1397 -0.6825
 1216SOL     OW15283   3.027   1.998  14.297 -0.3867 -0.7324 -0.2370
 1216SOL    HW115284   3.003   2.091  14.287  0.0974 -0.4780  1.1157
 1216SOL    HW215285   3.118   2.015  14.321 -0.9237  0.4032  1.0264
 1217SOL     OW15286   1.045   2.538   0.165 -0.2604  0.2254  0.2699
 1217SOL    HW115287   1.038   2.594   0.088  0.0595 -1.8677 -1.3090
 1217SOL    HW215288   1.061   2.451   0.126  1.5276  0.7813 -0.2409
 1218SOL     OW15289   4.502   3.571   8.358  0.0624  0.0812 -0.4357
 1218SOL    HW115290   4.572   3.637   8.365  2.5711 -2.8632  2.2635
 1218SOL    HW215291   4.517   3.533   8.445  2.1192  0.9299 -0.4014
 1219SOL     OW15292   1.625   0.391   7.054  0.0638  0.2772 -0.2124
 1219SOL    HW115293   1.611   0.306   7.011 -0.2421  0.6672 -0.8767
 1219SOL    HW215294   1.657   0.452   6.988  0.6240 -0.2475 -0.4245
 1220SOL     OW15295   2.687   1.500   0.441  0.0586 -0.2589  0.7407
 1220SOL    HW115296   2.728   1.433   0.494  1.9421 -0.0065 -0.3984
 1220SOL    HW215297   2.664   1.569   0.504  2.6785 -0.3167  1.7333
 1221SOL     OW15298   0.300   3.715  10.668  0.7729  0.6183  0.2561
 1221SOL    HW115299   0.246   3.651  10.713  1.2680 -0.4075 -0.6299
 1221SOL    HW215300   0.392   3.689  10.675  1.0914  1.6321 -0.0841
 1222SOL     OW15301   2.308   2.077   1.226 -0.1424 -0.0678 -1.0761
 1222SOL    HW115302   2.262   2.093   1.309  0.5614 -2.7849 -0.1285
 1222SOL    HW215303   2.391   2.124   1.225  1.8429 -3.4809  0.8337
 1223SOL     OW15304   2.141   3.968   5.364 -0.4593  0.0863  0.3114
 1223SOL    HW115305   2.222   4.017   5.378 -0.9553  0.8454  0.5167
 1223SOL    HW215306   2.114   4.021   5.288 -0.2505 -1.1149 -0.5979
 1224SOL     OW15307   3.579   1.519   9.479 -0.1362  0.2087 -0.2891
 1224SOL    HW115308   3.532   1.541   9.559  0.0342 -0.7401  0.0660
 1224SOL    HW215309   3.520   1.454   9.442 -0.7942  1.2308 -1.0257
 1225SOL     OW15310   2.590   3.509   3.527  0.0478  0.2204  0.4371
 1225SOL    HW115311   2.548   3.472   3.450  3.0027 -1.7218 -0.2227
 1225SOL    HW215312   2.540   3.462   3.595 -2.0895  1.4900 -0.2587
 1226SOL     OW15313   2.399   1.826   4.323  0.7109  0.1547  0.1217
 1226SOL    HW115314   2.383   1.855   4.413  1.3923 -0.3423  0.3961
 1226SOL    HW215315   2.313   1.840   4.283  0.3282 -0.5345  0.7044
 1227SOL     OW15316   3.684   4.387   4.424  0.0969  0.2505  0.1329
 1227SOL    HW115317   3.713   4.431   4.504 -1.3136 -2.8254  2.3456
 1227SOL    HW215318   3.637   4.309   4.454  0.0317 -0.2382 -1.2367
 1228SOL     OW15319   0.494   0.986   8.132  0.5805  0.3254  0.0429
 1228SOL    HW115320   0.562   1.014   8.072 -0.3670 -0.8258 -1.5721
 1228SOL    HW215321   0.544   0.985   8.213 -0.8270  1.5698  0.9291
 1229SOL     OW15322   2.494   3.326   3.193 -0.0233 -0.3936  0.0277
 1229SOL    HW115323   2.477   3.410   3.235  2.1103 -1.2365  2.5900
 1229SOL    HW215324   2.455   3.276   3.265 -2.3254  0.8622 -0.3609
 1230SOL     OW15325   2.876   1.687   3.741 -0.1452  0.0571 -0.0713
 1230SOL    HW115326   2.932   1.757   3.776 -2.4059  1.1311  1.3702
 1230SOL    HW215327   2.813   1.712   3.809  0.8081  0.8220  0.5378
 1231SOL     OW15328   2.780   4.655   5.179  0.0456  0.8891 -0.1425
 1231SOL    HW115329   2.855   4.702   5.142 -0.0861  1.4757  0.3275
 1231SOL    HW215330   2.797   4.651   5.273 -0.0599  1.6617 -0.0839
 1232SOL     OW15331   0.354   3.271  15.692  0.0048 -0.5699 -0.2385
 1232SOL    HW115332   0.323   3.243  15.778 -1.8833 -1.5460 -1.2338
 1232SOL    HW215333   0.272   3.314  15.667 -0.0731 -0.1446  0.7562
 1233SOL     OW15334   2.212   1.574  15.608 -0.0416 -0.0564  0.6820
 1233SOL    HW115335   2.221   1.631  15.531  2.9363  1.3612  2.0726
 1233SOL    HW215336   2.183   1.631  15.679  0.5108 -1.0967  1.7452
 1234SOL     OW15337   4.265   0.410   2.289  0.3975 -0.4898  0.5137
 1234SOL    HW115338   4.328   0.472   2.326  0.4646  0.7433 -1.6773
 1234SOL    HW215339   4.187   0.433   2.340 -1.3537  0.7175 -2.6652
 1235SOL     OW15340   3.437   0.102   8.327 -0.7743  0.0733 -0.5725
 1235SOL    HW115341   3.385   0.181   8.321  1.1295  1.3806 -0.0609
 1235SOL    HW215342   3.372   0.034   8.310 -1.6381  0.9089 -0.5842
 1236SOL     OW15343   2.392   0.358  12.757 -0.4931  0.2544 -0.2096
 1236SOL    HW115344   2.383   0.293  12.826  0.1568 -0.6830 -1.0076
 1236SOL    HW215345   2.385   0.296  12.684 -3.6232  0.2346  0.0870
 1237SOL     OW15346   3.220   3.567   3.679 -0.1345 -0.1157  0.1409
 1237SOL    HW115347   3.130   3.581   3.648  0.6521 -0.0013 -2.1446
 1237SOL    HW215348   3.224   3.618   3.760 -2.3258 -0.3139  0.3701
 1238SOL     OW15349   0.211   4.187   7.401  0.2228  0.2301  0.1493
 1238SOL    HW115350   0.262   4.226   7.472 -0.1288  1.5394 -0.3186
 1238SOL    HW215351   0.204   4.260   7.340 -2.0124 -0.2743 -0.1895
 1239SOL     OW15352   0.763   1.803   6.394  0.2659 -0.2804  0.1572
 1239SOL    HW115353   0.793   1.864   6.462  1.2210  0.0005 -0.5056
 1239SOL    HW215354   0.851   1.776   6.367  0.1901 -1.6853  1.2945
 1240SOL     OW15355   1.732   1.735   4.928  1.0673  0.4269 -0.2308
 1240SOL    HW115356   1.757   1.663   4.870 -0.2847  0.4507 -0.8583
 1240SOL    HW215357   1.661   1.696   4.980  1.3983  1.1053  0.7239
 1241SOL     OW15358   1.526   1.924   7.428  0.7108 -0.2137 -0.3734
 1241SOL    HW115359   1.499   1.902   7.338 -1.3648 -0.3820  0.3042
 1241SOL    HW215360   1.610   1.878   7.440  2.1692  2.6700  0.3528
 1242SOL     OW15361   1.730   1.103   5.045 -0.4693  0.3692 -0.1214
 1242SOL    HW115362   1.806   1.161   5.051  1.4479 -2.2313  0.5592
 1242SOL    HW215363   1.668   1.157   4.994 -0.9372 -1.1554 -1.1730
 1243SOL     OW15364   2.132   0.474  11.467 -0.0323 -0.1981 -0.0171
 1243SOL    HW115365   2.055   0.422  11.444 -0.3061  0.3461 -0.3361
 1243SOL    HW215366   2.176   0.421  11.534 -0.4938 -1.0072 -0.3560
 1244SOL     OW15367   0.383   1.701   8.264  0.2747  0.2665  0.3008
 1244SOL    HW115368   0.344   1.740   8.185 -2.8804 -1.6166  0.9077
 1244SOL    HW215369   0.427   1.625   8.225  0.3024  0.8299 -0.7886
 1245SOL     OW15370   3.540   3.737   8.938  0.5396 -0.1141 -0.0204
 1245SOL    HW115371   3.597   3.690   8.876 -1.9208 -0.4761 -1.9928
 1245SOL    HW215372   3.479   3.665   8.949 -2.0695  2.3670  1.4286
 1246SOL     OW15373   2.928   0.271   1.402  0.3013  0.0294  0.1329
 1246SOL    HW115374   2.914   0.354   1.357  0.8875  0.3902  0.6235
 1246SOL    HW215375   2.873   0.206   1.358  0.2749  0.8064 -0.9952
 1247SOL     OW15376   3.534   0.759  13.587  0.0417 -0.1514  0.1348
 1247SOL    HW115377   3.573   0.821  13.649 -0.1519  0.5560 -0.4515
 1247SOL    HW215378   3.468   0.818  13.550  0.0273 -0.0520  0.3173
 1248SOL     OW15379   2.689   0.144   5.042 -0.0564  0.0318  0.0572
 1248SOL    HW115380   2.665   0.212   5.104  0.3910  1.1435 -0.9930
 1248SOL    HW215381   2.724   0.078   5.102 -0.6965 -0.3094  0.0662
 1249SOL     OW15382   1.961   2.714   5.141  0.1816  0.3665  0.3382
 1249SOL    HW115383   2.006   2.654   5.200  1.9443  1.5210  0.1799
 1249SOL    HW215384   2.028   2.775   5.111  0.4944  1.0715  2.4662
 1250SOL     OW15385   0.515   1.870   8.918  0.2366  0.8364  0.0150
 1250SOL    HW115386   0.584   1.885   8.853 -0.3954 -1.0825 -1.0871
 1250SOL    HW215387   0.562   1.891   8.998  0.3462 -2.0710  0.7016
 1251SOL     OW15388   1.265   1.134   7.839 -0.3019  0.6425  0.2018
 1251SOL    HW115389   1.359   1.152   7.845 -0.4314  1.5734 -0.5734
 1251SOL    HW215390   1.243   1.223   7.812 -0.6081  0.4096 -0.3190
 1252SOL     OW15391   1.437   4.474   4.177 -0.5336 -0.0268  0.1745
 1252SOL    HW115392   1.480   4.454   4.094 -0.4207  1.0189 -0.0147
 1252SOL    HW215393   1.372   4.538   4.149 -1.6430 -1.8024 -1.3907
 1253SOL     OW15394   2.756   4.349   8.740  0.2547 -0.5830 -0.6606
 1253SOL    HW115395   2.805   4.319   8.816  2.7009 -0.3147 -2.1491
 1253SOL    HW215396   2.810   4.314   8.670  1.6603  1.0922 -0.4138
 1254SOL     OW15397   3.942   0.207   8.512  0.2972  0.4573  0.2243
 1254SOL    HW115398   3.888   0.285   8.522 -0.5357 -0.0809 -0.0702
 1254SOL    HW215399   4.020   0.233   8.561  0.8240 -1.3178  0.3649
 1255SOL     OW15400   2.462   2.158   4.871 -0.4646  0.2463  0.1488
 1255SOL    HW115401   2.491   2.184   4.783  0.4677 -0.9469  0.1073
 1255SOL    HW215402   2.493   2.068   4.880  0.2639  0.7442  2.5670
 1256SOL     OW15403   2.082   2.284   2.617  0.1451  0.0330 -0.6616
 1256SOL    HW115404   2.082   2.343   2.542  0.7771  2.7803  1.4676
 1256SOL    HW215405   2.000   2.240   2.597  0.4041 -1.0080  0.5544
 1257SOL     OW15406   2.561   1.534  11.650 -0.0620 -0.3029 -0.6833
 1257SOL    HW115407   2.475   1.509  11.684 -0.4478  1.3578 -0.4727
 1257SOL    HW215408   2.618   1.501  11.719 -0.5040 -2.5148 -1.3631
 1258SOL     OW15409   1.289   1.550   3.161  0.0276  0.4655  0.0043
 1258SOL    HW115410   1.303   1.457   3.182 -0.8894  0.4068  0.3612
 1258SOL    HW215411   1.212   1.559   3.216  0.3261  4.2222 -0.1794
 1259SOL     OW15412   0.856   0.316   3.924 -0.0585 -0.6110  0.0479
 1259SOL    HW115413   0.803   0.313   3.844  2.3000  0.3974 -1.5507
 1259SOL    HW215414   0.943   0.348   3.901 -0.4310  1.0756  1.0221
 1260SOL     OW15415   4.303   2.256   6.179 -0.0954  0.2536 -0.3341
 1260SOL    HW115416   4.374   2.201   6.145 -0.1493 -1.1692  1.8673
 1260SOL    HW215417   4.257   2.288   6.101  2.0474 -1.0766 -2.1697
 1261SOL     OW15418   3.538   2.480   4.067 -0.2147  0.2102 -0.1070
 1261SOL    HW115419   3.562   2.427   3.991  0.0729 -2.3802  1.8190
 1261SOL    HW215420   3.617   2.534   4.064  0.0695 -0.0567  2.1699
 1262SOL     OW15421   0.491   0.520   5.929  0.1422 -0.3481 -0.0035
 1262SOL    HW115422   0.519   0.449   5.870  0.3053 -0.0663 -0.2684
 1262SOL    HW215423   0.482   0.595   5.870  0.1705 -0.3138  0.0362
 1263SOL     OW15424   2.787   4.458  10.762  0.2539 -0.4493 -0.1850
 1263SOL    HW115425   2.712   4.413  10.802  0.0845 -1.7684 -1.9557
 1263SOL    HW215426   2.739   4.512  10.700 -0.7360 -0.8801  0.1935
 1264SOL     OW15427   0.273   4.393   2.968 -0.2558  0.3264 -0.0471
 1264SOL    HW115428   0.215   4.464   2.996  0.2753  0.1653  1.4197
 1264SOL    HW215429   0.218   4.327   3.011 -0.8921  1.2540  0.5439
 1265SOL     OW15430   3.216   3.253  15.403  0.1854 -0.5027 -0.6916
 1265SOL    HW115431   3.263   3.236  15.485 -0.4990 -0.4079 -0.2848
 1265SOL    HW215432   3.148   3.315  15.428  1.2575  0.4738 -0.2166
 1266SOL     OW15433   2.319   0.554  13.834  0.3442 -0.0819 -0.3701
 1266SOL    HW115434   2.307   0.620  13.765  0.4910  0.3620  0.0290
 1266SOL    HW215435   2.260   0.482  13.813  1.3084 -0.2000 -2.6879
 1267SOL     OW15436   3.622   2.979   7.329  0.1272 -0.2926 -0.1681
 1267SOL    HW115437   3.703   3.018   7.296 -0.0563  0.4913  0.3283
 1267SOL    HW215438   3.585   2.924   7.259 -2.0211  0.8822  0.0623
 1268SOL     OW15439   1.334   4.314   2.431  0.3908 -0.1431 -0.0859
 1268SOL    HW115440   1.419   4.349   2.405  0.4120  1.4410  2.0693
 1268SOL    HW215441   1.329   4.349   2.520 -1.8852 -2.5829  0.7473
 1269SOL     OW15442   0.856   4.298   9.164 -0.7691 -0.3366  0.4774
 1269SOL    HW115443   0.800   4.376   9.170  0.4314  0.7260 -2.2543
 1269SOL    HW215444   0.868   4.273   9.255  2.0421  0.2815  0.2762
 1270SOL     OW15445   0.542   1.826   5.362  1.2781 -0.6043 -0.0030
 1270SOL    HW115446   0.474   1.766   5.331 -1.1451  2.4674 -0.5391
 1270SOL    HW215447   0.587   1.836   5.278 -1.4097 -2.3093 -1.6496
 1271SOL     OW15448   0.847   4.401   2.703  0.0164  0.3803 -0.3460
 1271SOL    HW115449   0.798   4.320   2.717 -0.5986  1.0597  1.4933
 1271SOL    HW215450   0.936   4.377   2.730  0.0530  1.2997  0.3342
 1272SOL     OW15451   0.674   2.231   8.869  0.1033 -0.7891  0.1535
 1272SOL    HW115452   0.588   2.218   8.829  0.0410 -0.9945  0.3567
 1272SOL    HW215453   0.724   2.269   8.796 -0.1676 -0.2905  0.2271
 1273SOL     OW15454   3.513   1.244   1.256 -0.0823 -0.0285  0.1898
 1273SOL    HW115455   3.581   1.308   1.277 -0.7772  1.5148 -2.2607
 1273SOL    HW215456   3.542   1.165   1.300  1.5718  1.4152  1.6999
 1274SOL     OW15457   3.814   2.475   2.064  0.2152 -0.1561 -0.1397
 1274SOL    HW115458   3.901   2.441   2.085  0.1035 -1.8745 -2.4652
 1274SOL    HW215459   3.784   2.417   1.994  0.4934 -1.1138  0.5242
 1275SOL     OW15460   4.073   3.437   8.181 -0.3460 -0.1127 -0.0053
 1275SOL    HW115461   4.051   3.474   8.267 -1.1613  1.3596 -0.8531
 1275SOL    HW215462   4.007   3.368   8.171  0.1012 -0.5054 -0.2125
 1276SOL     OW15463   4.191   1.478   7.237 -0.0736 -0.1826 -0.3673
 1276SOL    HW115464   4.219   1.435   7.156  0.7613  0.0090 -0.1743
 1276SOL    HW215465   4.271   1.526   7.258 -0.5870 -0.0350  1.2188
 1277SOL     OW15466   1.726   1.152   2.100  0.0806  0.3250 -0.0733
 1277SOL    HW115467   1.721   1.076   2.159 -0.5587  0.7346  0.4019
 1277SOL    HW215468   1.634   1.162   2.074  0.0334  1.8329  0.6688
 1278SOL     OW15469   1.948   3.695   6.884 -0.4656 -0.4049  0.1044
 1278SOL    HW115470   1.886   3.759   6.917 -0.2710  0.0144 -0.3403
 1278SOL    HW215471   2.000   3.749   6.824 -1.7652  0.8659  0.1246
 1279SOL     OW15472   2.390   4.212   5.311 -0.6187 -0.7512 -0.5878
 1279SOL    HW115473   2.477   4.251   5.304 -0.9516 -0.6951 -3.9590
 1279SOL    HW215474   2.386   4.208   5.407  0.2090 -1.1739 -0.5633
 1280SOL     OW15475   0.680   3.690  12.603 -0.3712 -0.2044  0.6310
 1280SOL    HW115476   0.755   3.691  12.662 -0.9034 -1.4853  1.3227
 1280SOL    HW215477   0.675   3.781  12.572  0.5371 -0.1752  0.5542
 1281SOL     OW15478   2.205   1.445   7.195 -0.1630  0.2290  0.0233
 1281SOL    HW115479   2.213   1.527   7.243  1.9953 -1.8962  3.2825
 1281SOL    HW215480   2.132   1.456   7.134  1.2336  0.7730 -1.5811
 1282SOL     OW15481   1.592   1.849   6.870 -0.0485  0.1071 -0.0399
 1282SOL    HW115482   1.651   1.776   6.888 -0.9852 -0.3176  1.2888
 1282SOL    HW215483   1.502   1.824   6.892 -0.2825  1.1881  0.2548
 1283SOL     OW15484   4.690   4.027   5.896 -0.2581  0.1375  0.2925
 1283SOL    HW115485   4.631   4.102   5.888  0.6346  0.2874 -4.6217
 1283SOL    HW215486   4.690   4.009   5.990 -0.7407 -3.5578 -0.4367
 1284SOL     OW15487   0.109   4.611  10.956 -0.4460 -0.0429 -0.2965
 1284SOL    HW115488   0.194   4.584  10.920 -0.4723 -0.9912  0.3758
 1284SOL    HW215489   0.060   4.531  10.975 -0.6713 -0.5096 -2.8534
 1285SOL     OW15490   0.997   2.499   6.486 -0.1115  0.0051 -0.4078
 1285SOL    HW115491   0.911   2.524   6.520 -0.1076 -0.2735 -0.1967
 1285SOL    HW215492   1.020   2.449   6.564 -0.5376 -1.9643 -1.5472
 1286SOL     OW15493   2.469   4.507   9.577  0.4522 -0.6632 -0.7370
 1286SOL    HW115494   2.457   4.487   9.484 -1.2019 -0.8236 -0.4876
 1286SOL    HW215495   2.546   4.454   9.598 -0.2998 -0.5665  2.2302
 1287SOL     OW15496   3.369   1.008   9.987  0.1533  0.6028  0.0732
 1287SOL    HW115497   3.331   0.968   9.909  1.7216  1.6010 -1.1992
 1287SOL    HW215498   3.461   1.008   9.962  0.3663 -0.4904  0.8869
 1288SOL     OW15499   4.535   3.775   2.643  0.3284 -0.4879  0.0701
 1288SOL    HW115500   4.507   3.849   2.695  0.9193 -0.2845  0.0970
 1288SOL    HW215501   4.622   3.751   2.674  0.0919 -2.2554 -0.6096
 1289SOL     OW15502   1.371   2.542  10.282 -0.4815 -0.0854  0.2502
 1289SOL    HW115503   1.374   2.480  10.356 -0.1762 -0.8499 -0.3947
 1289SOL    HW215504   1.465   2.531  10.264 -0.3626 -1.2538  1.4976
 1290SOL     OW15505   4.592   2.693  12.914 -0.1449  0.4147 -0.7967
 1290SOL    HW115506   4.525   2.752  12.878  2.0246  1.3368 -3.2585
 1290SOL    HW215507   4.578   2.712  13.007 -2.3160 -1.8054 -0.6873
 1291SOL     OW15508   1.881   0.227   7.623  0.3430  0.4495 -0.4740
 1291SOL    HW115509   1.816   0.171   7.667 -0.9563  1.2013 -1.4251
 1291SOL    HW215510   1.847   0.255   7.538  0.2706  0.8957 -0.2977
 1292SOL     OW15511   3.288   2.054   6.505 -0.1687 -0.0613 -0.3346
 1292SOL    HW115512   3.296   2.115   6.578 -0.4420  0.3480 -0.6500
 1292SOL    HW215513   3.374   2.013   6.513 -1.2283 -2.0790  0.7559
 1293SOL     OW15514   2.044   2.718   4.163  0.1363 -0.1102 -0.0151
 1293SOL    HW115515   2.133   2.685   4.154  1.4281  3.0438  1.5200
 1293SOL    HW215516   2.009   2.712   4.074  0.6827  0.2795 -0.2542
 1294SOL     OW15517   0.984   1.340  15.552 -0.5863 -0.1780  0.1788
 1294SOL    HW115518   1.018   1.370  15.636  3.1298 -1.9883 -0.6876
 1294SOL    HW215519   1.037   1.261  15.542 -0.9739 -0.4547  0.3174
 1295SOL     OW15520   4.102   1.219   3.035 -0.0517 -0.2198 -0.8273
 1295SOL    HW115521   4.095   1.291   2.973 -0.0699 -0.2563 -0.8677
 1295SOL    HW215522   4.178   1.241   3.088  0.4769 -1.6262 -0.9957
 1296SOL     OW15523   4.036   2.497   1.797  0.4871  0.2735 -0.2859
 1296SOL    HW115524   3.968   2.449   1.843  1.2998 -1.4788 -0.9244
 1296SOL    HW215525   4.038   2.457   1.710  0.5538 -0.8229  0.2305
 1297SOL     OW15526   1.415   3.230   7.249 -0.1638  0.1017 -0.3614
 1297SOL    HW115527   1.380   3.141   7.239  2.3400 -0.6966 -1.9382
 1297SOL    HW215528   1.374   3.275   7.175  0.5456 -0.4290 -1.0732
 1298SOL     OW15529   2.756   2.196   6.581 -0.7843 -0.0060 -0.0913
 1298SOL    HW115530   2.783   2.190   6.489 -2.1285 -1.8057 -0.3652
 1298SOL    HW215531   2.664   2.170   6.578 -0.1314 -2.2320 -0.4915
 1299SOL     OW15532   3.209   3.351   0.153  0.1135 -0.1248 -0.0168
 1299SOL    HW115533   3.225   3.265   0.115  0.3919 -0.4267  0.7812
 1299SOL    HW215534   3.298   3.381   0.172  0.8063 -1.5528 -1.0288
 1300SOL     OW15535   3.680   3.718   4.844  0.0816 -0.0271 -0.1789
 1300SOL    HW115536   3.620   3.695   4.915 -0.5238 -1.0363 -1.0184
 1300SOL    HW215537   3.758   3.667   4.867  0.4910  0.3823 -0.6832
 1301SOL     OW15538   4.442   3.365   2.429 -0.5144  0.3728 -0.0454
 1301SOL    HW115539   4.365   3.380   2.374 -1.0172 -2.4227 -0.0893
 1301SOL    HW215540   4.442   3.271   2.442 -2.1905  0.3171 -0.4462
 1302SOL     OW15541   3.147   2.827   3.936 -0.1221 -0.2621 -0.4774
 1302SOL    HW115542   3.219   2.777   3.975 -1.9207 -2.1905  0.4285
 1302SOL    HW215543   3.191   2.851   3.856  0.6304  0.7800  0.2562
 1303SOL     OW15544   1.875   0.399   3.709  0.4598  0.3327  0.0831
 1303SOL    HW115545   1.938   0.420   3.640  0.5883 -0.7053 -0.1273
 1303SOL    HW215546   1.903   0.442   3.789 -1.8487  0.2486  0.9303
 1304SOL     OW15547   1.140   0.101   9.707  0.2339 -0.0605 -0.3208
 1304SOL    HW115548   1.052   0.137   9.712  0.0141 -0.7457  0.6779
 1304SOL    HW215549   1.122   0.024   9.760  0.2365 -0.3488 -0.7350
 1305SOL     OW15550   0.204   3.042   3.290  0.1433  0.0902 -0.2681
 1305SOL    HW115551   0.154   2.964   3.265  0.0793 -0.4450  1.5257
 1305SOL    HW215552   0.239   3.081   3.209  1.5124  3.1791  1.8277
 1306SOL     OW15553   3.777   3.444   1.462  0.7445 -0.5584 -0.5160
 1306SOL    HW115554   3.781   3.489   1.377  2.1812 -2.9290 -1.7293
 1306SOL    HW215555   3.694   3.476   1.498  1.8691  3.0002 -1.0839
 1307SOL     OW15556   1.901   1.258   6.159 -0.4644  1.0280  1.1485
 1307SOL    HW115557   1.903   1.168   6.190  2.6311  0.8681  0.4277
 1307SOL    HW215558   1.813   1.268   6.123  0.5806  0.8846 -1.3953
 1308SOL     OW15559   3.189   2.827   3.471  0.0812 -0.4739  0.5396
 1308SOL    HW115560   3.227   2.741   3.458 -0.2322 -0.5423  0.0872
 1308SOL    HW215561   3.100   2.816   3.439 -0.1163  1.6521  0.3106
 1309SOL     OW15562   4.650   0.858  10.770  0.0609 -0.4163  0.4122
 1309SOL    HW115563   4.637   0.822  10.682  1.1408 -2.8809  1.2654
 1309SOL    HW215564   4.734   0.900  10.758 -0.7255  0.6527 -1.4119
 1310SOL     OW15565   4.471   3.705   1.470  0.5411  0.5596 -0.2967
 1310SOL    HW115566   4.549   3.759   1.457 -0.2861  2.1839  1.3964
 1310SOL    HW215567   4.509   3.618   1.477 -1.3114 -0.0571  2.2024
 1311SOL     OW15568   2.023   2.617  10.082 -0.3254  0.7097 -0.7507
 1311SOL    HW115569   2.105   2.646  10.121 -0.3651  0.4517 -0.4834
 1311SOL    HW215570   1.967   2.594  10.156  0.2796  0.3950 -0.3940
 1312SOL     OW15571   3.192   0.069   6.863 -0.6778 -0.6944  0.0056
 1312SOL    HW115572   3.268   0.084   6.807 -0.4561  1.4007  0.8844
 1312SOL    HW215573   3.121   0.049   6.802 -0.8831  0.8884 -0.2628
 1313SOL     OW15574   3.927   2.386   7.927  0.3627 -0.4150 -0.5257
 1313SOL    HW115575   4.010   2.351   7.958  0.1167 -2.1051 -1.7426
 1313SOL    HW215576   3.903   2.325   7.857  2.7022 -0.8975 -0.8992
 1314SOL     OW15577   4.351   2.382   7.371  0.6867  0.0479  0.7177
 1314SOL    HW115578   4.285   2.365   7.304  0.4866  0.1561  0.8863
 1314SOL    HW215579   4.326   2.319   7.439 -0.3124 -1.7955 -1.3337
 1315SOL     OW15580   0.953   1.222   9.009 -0.8823 -0.3103 -0.5752
 1315SOL    HW115581   0.929   1.135   9.041  3.7881 -1.6652 -0.7757
 1315SOL    HW215582   0.881   1.280   9.033 -0.2550 -0.0245  0.6393
 1316SOL     OW15583   2.726   3.607   5.565 -0.1720  0.4182 -0.0168
 1316SOL    HW115584   2.743   3.541   5.498 -0.6243  0.7132 -0.4123
 1316SOL    HW215585   2.689   3.674   5.509 -2.1439 -0.4254  0.2580
 1317SOL     OW15586   0.243   4.076   3.731  0.0268  0.2913 -0.3924
 1317SOL    HW115587   0.302   4.127   3.786 -0.9720 -0.2645  1.1700
 1317SOL    HW215588   0.280   3.989   3.747  2.4324  1.3302 -0.3908
 1318SOL     OW15589   2.383   4.399   8.978  0.3049 -0.2442  1.0140
 1318SOL    HW115590   2.341   4.475   8.939  1.4711 -0.5693 -0.8550
 1318SOL    HW215591   2.433   4.448   9.044 -0.0707  0.9049  0.4454
 1319SOL     OW15592   0.417   2.511   5.584  0.1613 -0.4902 -0.0564
 1319SOL    HW115593   0.367   2.583   5.622 -0.3764  0.1575 -1.9586
 1319SOL    HW215594   0.347   2.446   5.576 -0.7441  0.4896 -0.0710
 1320SOL     OW15595   4.360   3.309   1.092 -0.0367 -0.8121  0.1852
 1320SOL    HW115596   4.282   3.255   1.079 -0.8497  0.7196 -1.3748
 1320SOL    HW215597   4.359   3.334   1.185  0.2852 -0.4755  0.0963
 1321SOL     OW15598   3.309   2.932   6.324  0.6350 -0.2058  0.6523
 1321SOL    HW115599   3.292   3.007   6.382  0.4716 -1.4031  2.1604
 1321SOL    HW215600   3.239   2.868   6.338 -0.4021  1.0592  1.3028
 1322SOL     OW15601   2.040   0.748  15.325  0.4612  0.2541 -0.5944
 1322SOL    HW115602   2.031   0.700  15.407  1.5234 -1.1999 -1.3285
 1322SOL    HW215603   1.970   0.710  15.272  2.1081  1.1114 -3.3947
 1323SOL     OW15604   2.433   3.701   5.812 -0.1013 -0.1861 -0.1873
 1323SOL    HW115605   2.437   3.701   5.908  0.7907  2.3204 -0.2151
 1323SOL    HW215606   2.509   3.751   5.783 -0.5086  0.3944 -0.2457
 1324SOL     OW15607   2.400   2.032   3.171  0.0823  0.2039 -0.3224
 1324SOL    HW115608   2.367   1.976   3.241  2.0698 -0.3542  0.1437
 1324SOL    HW215609   2.447   1.966   3.120 -0.3551 -0.8895  0.6814
 1325SOL     OW15610   3.947   4.548   0.661  0.0732 -0.0071  0.0643
 1325SOL    HW115611   3.880   4.592   0.713  0.2276  0.6516 -0.2969
 1325SOL    HW215612   3.949   4.466   0.712 -2.8614 -1.0946 -1.5965
 1326SOL     OW15613   0.937   0.290   2.752  0.0624  0.1745 -0.0125
 1326SOL    HW115614   0.894   0.375   2.763  1.0354  0.4122  2.0029
 1326SOL    HW215615   0.949   0.262   2.842  0.9907  0.6093  0.0045
 1327SOL     OW15616   3.489   3.853   9.881  0.6978  0.5694 -0.6244
 1327SOL    HW115617   3.490   3.914   9.954 -1.8196  0.1117 -0.2116
 1327SOL    HW215618   3.414   3.887   9.831  0.0275  0.1053  0.0753
 1328SOL     OW15619   3.602   3.866   6.229 -0.4011  0.2078  0.4383
 1328SOL    HW115620   3.693   3.848   6.249 -0.6005 -0.5814  0.6465
 1328SOL    HW215621   3.596   3.957   6.259 -2.1961  0.0848  0.5061
 1329SOL     OW15622   4.289   3.543  14.158  0.6617 -0.1203 -0.1690
 1329SOL    HW115623   4.250   3.562  14.073  1.4492  0.2164 -0.4603
 1329SOL    HW215624   4.263   3.607  14.224 -2.0647 -1.3824 -0.0181
 1330SOL     OW15625   1.045   3.591  14.194 -0.5261 -0.1999 -0.6307
 1330SOL    HW115626   0.988   3.526  14.234 -1.6430  1.2673  0.1076
 1330SOL    HW215627   0.980   3.653  14.162 -2.1993 -0.3823  2.4360
 1331SOL     OW15628   2.620   0.767   7.504 -0.2677 -0.4075  0.1346
 1331SOL    HW115629   2.602   0.858   7.527  1.0930 -0.7342  2.4815
 1331SOL    HW215630   2.701   0.773   7.454 -0.8654 -2.9987 -1.1372
 1332SOL     OW15631   2.816   0.960   5.116 -0.4663 -0.4925  0.1905
 1332SOL    HW115632   2.894   1.001   5.079  0.0289 -0.0324  1.7266
 1332SOL    HW215633   2.806   1.030   5.181  0.5712  2.5557 -2.9678
 1333SOL     OW15634   2.384   1.539  13.072  0.0752  0.4541 -0.4550
 1333SOL    HW115635   2.310   1.574  13.022  0.4595  0.4490 -1.0198
 1333SOL    HW215636   2.393   1.459  13.020  0.6807  1.6178 -2.1372
 1334SOL     OW15637   1.059   0.723  13.125 -0.3410  0.0314  0.0879
 1334SOL    HW115638   1.131   0.779  13.097  2.0731 -2.5741  1.1168
 1334SOL    HW215639   0.994   0.776  13.171 -1.0651 -0.0318 -0.8539
 1335SOL     OW15640   3.435   1.800   2.964 -0.3759 -0.3547  0.1773
 1335SOL    HW115641   3.506   1.745   2.997 -0.0147 -0.3269 -0.5386
 1335SOL    HW215642   3.371   1.736   2.994 -0.3062  0.4218  1.9836
 1336SOL     OW15643   2.040   1.050   9.697  0.0362  0.5053  0.4254
 1336SOL    HW115644   1.986   0.998   9.757 -0.7587  1.4404  0.5171
 1336SOL    HW215645   2.025   1.139   9.727  0.5896  1.4027 -2.0134
 1337SOL     OW15646   4.717   3.359   4.494  0.1232 -0.0602  0.1972
 1337SOL    HW115647   4.723   3.293   4.562  1.5724  0.5984  0.7145
 1337SOL    HW215648   4.718   3.439   4.546  1.0494  0.4884 -0.6449
 1338SOL     OW15649   2.208   2.034  17.487  0.1650 -0.5886 -0.1380
 1338SOL    HW115650   2.187   1.942  17.502 -2.6490  0.5485  2.8149
 1338SOL    HW215651   2.296   2.035  17.449 -0.5956 -0.4011 -1.9029
 1339SOL     OW15652   1.822   2.807  14.363 -0.0948 -0.1302 -0.3252
 1339SOL    HW115653   1.887   2.742  14.335  2.4712  0.8807  3.2612
 1339SOL    HW215654   1.871   2.873  14.413 -0.5796  1.5451 -2.0386
 1340SOL     OW15655   3.826   3.381  13.356 -0.5838 -0.1830  0.5123
 1340SOL    HW115656   3.877   3.301  13.368  1.2215  0.8756 -0.0609
 1340SOL    HW215657   3.742   3.343  13.332  0.4005 -1.0829 -1.5875
 1341SOL     OW15658   2.733   2.999   4.580 -0.2839 -0.2974  0.0444
 1341SOL    HW115659   2.718   3.083   4.624  1.5077 -0.1078  0.2851
 1341SOL    HW215660   2.748   2.941   4.655  2.1331  1.1478  0.6913
 1342SOL     OW15661   2.881   2.804   6.813 -0.6102 -0.1520 -0.0757
 1342SOL    HW115662   2.904   2.885   6.858 -0.2274 -0.4928  0.3540
 1342SOL    HW215663   2.868   2.747   6.890  0.8732  1.7368  1.5860
 1343SOL     OW15664   4.367   2.421  13.337 -0.1977  0.1149  0.0287
 1343SOL    HW115665   4.388   2.455  13.424  1.9061 -0.9735 -0.0436
 1343SOL    HW215666   4.424   2.344  13.333 -0.8239 -0.4054  1.2056
 1344SOL     OW15667   0.150   1.106  15.238 -0.1898 -0.1468  0.2486
 1344SOL    HW115668   0.212   1.068  15.301  1.0431  0.1325 -0.8145
 1344SOL    HW215669   0.216   1.133  15.175 -0.3533  0.8059  0.4850
 1345SOL     OW15670   1.421   3.757   0.776  0.3920  0.4920  0.3687
 1345SOL    HW115671   1.498   3.704   0.753 -1.5464 -0.7691 -3.2443
 1345SOL    HW215672   1.415   3.811   0.697 -1.4188  0.0841  0.2294
 1346SOL     OW15673   0.490   1.750  11.728 -0.3792 -0.4931  0.0967
 1346SOL    HW115674   0.486   1.844  11.711  0.4965 -0.4354  0.2037
 1346SOL    HW215675   0.583   1.746  11.749 -0.4770  1.2208  0.8669
 1347SOL     OW15676   2.120   2.516  11.486 -0.0746 -0.9181  0.1225
 1347SOL    HW115677   2.210   2.485  11.479  0.0159 -0.7149  0.3706
 1347SOL    HW215678   2.128   2.591  11.545 -0.1763 -1.2787  0.5885
 1348SOL     OW15679   4.295   1.913   7.160  0.6748  0.0842 -0.3844
 1348SOL    HW115680   4.281   1.875   7.073 -1.9236  1.0433 -0.3672
 1348SOL    HW215681   4.302   1.831   7.209 -0.2685 -0.8542 -1.8340
 1349SOL     OW15682   1.300   0.938  15.754  0.6157 -0.0108  0.0822
 1349SOL    HW115683   1.250   0.873  15.704  1.7092  1.5317 -3.0127
 1349SOL    HW215684   1.282   0.913  15.844 -0.1651 -0.3373 -0.1662
 1350SOL     OW15685   1.106   1.873  14.592 -0.2412 -1.2913  0.6019
 1350SOL    HW115686   1.082   1.785  14.563 -0.3412 -1.1059  0.1217
 1350SOL    HW215687   1.063   1.919  14.520 -1.2876 -0.6080  1.6627
 1351SOL     OW15688   2.986   3.678   3.574 -0.2350  0.0244 -0.0511
 1351SOL    HW115689   2.943   3.663   3.658 -0.3916  0.1200 -0.1141
 1351SOL    HW215690   2.969   3.769   3.553  0.1816 -0.0925 -0.9026
 1352SOL     OW15691   4.523   3.002   9.296 -0.2609 -0.0591 -0.5952
 1352SOL    HW115692   4.452   2.959   9.248 -1.0476 -0.9904  1.3670
 1352SOL    HW215693   4.508   3.094   9.277 -0.9012  0.3593  1.9834
 1353SOL     OW15694   3.093   2.105   6.919 -0.0966 -0.6040 -0.5397
 1353SOL    HW115695   3.027   2.143   6.976 -0.4630  0.6327 -1.7787
 1353SOL    HW215696   3.088   2.164   6.843  0.2061  0.8558  0.5737
 1354SOL     OW15697   4.073   4.170   4.434  0.2685 -0.0182  0.3704
 1354SOL    HW115698   4.022   4.167   4.515  0.0519  1.0935  0.2778
 1354SOL    HW215699   4.052   4.261   4.413  3.0525  0.3966 -0.6099
 1355SOL     OW15700   2.446   0.592   5.264 -0.5589  0.2356  0.0101
 1355SOL    HW115701   2.369   0.628   5.308  0.7548  0.6674  1.9545
 1355SOL    HW215702   2.400   0.555   5.188 -3.3719  1.6099  1.0435
 1356SOL     OW15703   0.060   1.788  10.765  0.2532 -0.3347 -0.4246
 1356SOL    HW115704   0.027   1.829  10.846  0.4055 -2.9882  0.9817
 1356SOL    HW215705   0.147   1.827  10.760  0.2831 -0.4972 -1.1577
 1357SOL     OW15706   3.545   2.044   9.231  0.4683 -0.0244 -0.7341
 1357SOL    HW115707   3.616   2.065   9.170 -0.0472 -2.0888 -2.0260
 1357SOL    HW215708   3.597   2.000   9.298 -0.6796 -0.0467  0.1351
 1358SOL     OW15709   3.842   2.607   5.149 -0.3889 -0.0988 -0.4239
 1358SOL    HW115710   3.901   2.593   5.075 -0.0952 -1.5830  0.1107
 1358SOL    HW215711   3.773   2.662   5.109 -2.0952 -0.6479  1.7727
 1359SOL     OW15712   3.318   3.459   2.074 -0.1742 -0.6322  0.1538
 1359SOL    HW115713   3.334   3.547   2.040  2.8334 -0.0756  2.9979
 1359SOL    HW215714   3.287   3.476   2.163  0.0240 -0.5486  0.2069
 1360SOL     OW15715   3.101   2.428  14.359 -0.0589  0.1786 -0.3261
 1360SOL    HW115716   3.172   2.461  14.414 -1.4818 -0.4417  1.8814
 1360SOL    HW215717   3.093   2.499  14.295  0.1098 -0.5378 -1.1346
 1361SOL     OW15718   0.362   2.922   7.473  0.1894 -0.0377  0.2710
 1361SOL    HW115719   0.347   2.878   7.557 -1.0602  1.7015  0.9607
 1361SOL    HW215720   0.457   2.927   7.464 -0.1367 -0.0781 -3.2019
 1362SOL     OW15721   2.245   0.935   3.805  0.3630  0.8332 -0.3141
 1362SOL    HW115722   2.260   0.932   3.900 -0.0359 -0.8780 -0.2937
 1362SOL    HW215723   2.318   0.987   3.772  0.6904  0.0938 -0.7698
 1363SOL     OW15724   0.856   1.629   1.048  0.6851  0.1505  0.3797
 1363SOL    HW115725   0.820   1.670   1.126  1.9141  0.2067  0.9113
 1363SOL    HW215726   0.783   1.591   0.998  2.5338 -0.9556 -1.4795
 1364SOL     OW15727   2.724   2.984   8.245 -0.1791 -0.5036  0.0942
 1364SOL    HW115728   2.755   2.934   8.320  0.2800  0.0757  0.2859
 1364SOL    HW215729   2.650   3.029   8.287 -2.4031 -1.6457 -2.5703
 1365SOL     OW15730   3.741   0.392   8.495 -0.1497  0.7038 -0.1734
 1365SOL    HW115731   3.669   0.396   8.558  0.3188  2.6848  0.2302
 1365SOL    HW215732   3.797   0.469   8.500  1.2195 -0.3027  0.0639
 1366SOL     OW15733   0.640   4.447   4.267 -0.4245  0.2742 -0.2003
 1366SOL    HW115734   0.579   4.505   4.221 -1.6054 -1.4739 -0.8360
 1366SOL    HW215735   0.711   4.436   4.204  0.7928 -0.3796  1.2649
 1367SOL     OW15736   1.352   2.582   3.824  0.0471 -0.1887  0.1780
 1367SOL    HW115737   1.382   2.517   3.888  0.2321  1.5954  1.8976
 1367SOL    HW215738   1.416   2.577   3.752  0.6270  0.7693  0.6238
 1368SOL     OW15739   1.378   3.690   4.024 -1.0095 -0.3146 -0.1660
 1368SOL    HW115740   1.457   3.671   4.075 -1.2554 -2.4512 -0.5770
 1368SOL    HW215741   1.376   3.608   3.974 -0.5483 -0.9279  0.8234
 1369SOL     OW15742   1.558   3.176   5.423  0.2367 -0.2832 -0.1133
 1369SOL    HW115743   1.569   3.271   5.420 -1.4613 -0.1275 -1.4909
 1369SOL    HW215744   1.648   3.149   5.410  1.3961  2.9352  1.0711
 1370SOL     OW15745   0.849   3.913   2.475  0.4033  0.2759 -0.6674
 1370SOL    HW115746   0.775   3.882   2.526  1.4900 -0.4469  0.4709
 1370SOL    HW215747   0.809   3.910   2.388  1.4885 -1.1541 -1.1126
 1371SOL     OW15748   1.640   1.446   2.014 -1.0593  0.0859 -0.0107
 1371SOL    HW115749   1.623   1.407   1.928 -2.3384  2.0276 -0.6480
 1371SOL    HW215750   1.582   1.522   2.014 -0.9102  0.2131  1.2952
 1372SOL     OW15751   2.145   4.697   3.721  0.1809  0.5823 -0.4692
 1372SOL    HW115752   2.113   0.023   3.661  1.4781  2.0322  0.4474
 1372SOL    HW215753   2.173   0.017   3.790 -0.9846 -0.0544  0.5705
 1373SOL     OW15754   1.713   3.177   0.380  0.1219 -0.0501  0.1189
 1373SOL    HW115755   1.671   3.182   0.466 -0.3552 -0.5455 -0.0896
 1373SOL    HW215756   1.769   3.100   0.389 -0.9929 -0.9283 -0.5966
 1374SOL     OW15757   2.922   2.770   8.852 -0.2145 -0.7654  0.0433
 1374SOL    HW115758   2.859   2.832   8.815 -1.1381 -0.9004  1.3988
 1374SOL    HW215759   2.964   2.742   8.771 -0.9510 -1.8793  0.0385
 1375SOL     OW15760   2.567   2.418   5.500  0.3445 -0.3324 -0.1153
 1375SOL    HW115761   2.582   2.327   5.474  0.6973 -0.5433  0.8441
 1375SOL    HW215762   2.483   2.423   5.545 -1.0659 -1.1329 -2.6642
 1376SOL     OW15763   2.513   2.733   6.892  0.1655 -0.5730  0.2716
 1376SOL    HW115764   2.565   2.667   6.938  2.0335 -0.0834 -1.1304
 1376SOL    HW215765   2.568   2.811   6.901 -0.4951 -0.0712 -0.0401
 1377SOL     OW15766   0.999   0.273   6.184 -0.2811 -0.0418 -0.2393
 1377SOL    HW115767   1.004   0.368   6.195  0.4921 -0.0478 -0.5911
 1377SOL    HW215768   1.071   0.252   6.126 -0.3070  0.4510 -0.4462
 1378SOL     OW15769   2.474   2.197   6.553 -0.3861 -0.2691 -0.0446
 1378SOL    HW115770   2.424   2.125   6.515  1.1947 -1.8458  0.8382
 1378SOL    HW215771   2.404   2.256   6.584 -0.7505 -0.3907 -0.6419
 1379SOL     OW15772   2.684   3.527   0.918 -0.5383  0.1885 -0.1545
 1379SOL    HW115773   2.675   3.506   1.010 -0.1265  2.4550  0.4143
 1379SOL    HW215774   2.602   3.489   0.886 -0.9485  0.6904  0.3060
 1380SOL     OW15775   3.621   4.552   7.912 -0.3914 -1.1059  0.2760
 1380SOL    HW115776   3.579   4.487   7.855  1.1313 -2.5388  0.7944
 1380SOL    HW215777   3.550   4.616   7.921  0.6473  0.4492 -2.7041
 1381SOL     OW15778   4.046   1.285   5.566  0.3145 -0.4042  0.1628
 1381SOL    HW115779   4.133   1.252   5.543  0.5077 -1.0542  1.8290
 1381SOL    HW215780   4.010   1.226   5.631 -0.9400 -0.0117 -0.1769
 1382SOL     OW15781   2.422   0.184   2.980  0.3420  0.0003 -0.6615
 1382SOL    HW115782   2.387   0.206   3.066  1.7549  0.9318 -0.3236
 1382SOL    HW215783   2.354   0.206   2.916  0.8693  2.2704 -0.4402
 1383SOL     OW15784   0.638   4.507   4.519  0.6317  0.3502  0.6006
 1383SOL    HW115785   0.655   4.460   4.438 -0.6018 -2.1200  1.7787
 1383SOL    HW215786   0.666   4.591   4.483  0.3887  0.0210 -0.3515
 1384SOL     OW15787   3.126   2.452   8.079 -0.0897  0.2336  0.0949
 1384SOL    HW115788   3.094   2.433   7.991  1.2222  0.6913 -0.4887
 1384SOL    HW215789   3.081   2.531   8.108 -2.6486 -0.6811 -1.4359
 1385SOL     OW15790   1.985   3.096   3.239  0.3304  0.2794 -0.1750
 1385SOL    HW115791   1.899   3.087   3.198  0.3564  0.4629 -0.2704
 1385SOL    HW215792   2.014   3.007   3.223 -0.6152  0.0236 -0.4406
 1386SOL     OW15793   4.111   4.586   8.321  0.6085 -0.1836  0.3604
 1386SOL    HW115794   4.124   4.656   8.386  0.1118 -0.7805  1.1009
 1386SOL    HW215795   4.015   4.590   8.315  0.7414  0.0425 -1.7228
 1387SOL     OW15796   0.628   4.149   2.749 -0.1001  0.6090 -0.3942
 1387SOL    HW115797   0.668   4.109   2.826  0.6752 -1.6360 -1.9560
 1387SOL    HW215798   0.561   4.198   2.796 -0.7839 -0.1021 -0.6269
 1388SOL     OW15799   1.830   0.396   7.932 -0.3104 -0.2110  0.1370
 1388SOL    HW115800   1.922   0.370   7.942 -0.6012 -1.5017 -0.6097
 1388SOL    HW215801   1.837   0.491   7.947  0.5925  0.0774 -2.1093
 1389SOL     OW15802   3.344   3.564   6.888 -0.1396  0.5429 -0.2218
 1389SOL    HW115803   3.355   3.556   6.982  1.5963 -1.1604 -0.5643
 1389SOL    HW215804   3.249   3.578   6.882 -0.2521  0.1009  0.5554
 1390SOL     OW15805   2.657   1.858   5.425 -0.0607  0.5947  0.5016
 1390SOL    HW115806   2.732   1.913   5.448 -0.9689  1.8523  0.4136
 1390SOL    HW215807   2.692   1.830   5.340 -1.9547 -1.8327  0.5102
 1391SOL     OW15808   1.057   3.967   8.090  0.1854  0.0589  0.0894
 1391SOL    HW115809   1.040   4.009   8.174 -0.8033  0.9309 -0.5519
 1391SOL    HW215810   1.018   4.033   8.033 -0.2041 -1.0697 -0.9710
 1392SOL     OW15811   3.268   1.211  15.676 -0.2661 -0.3983  0.6204
 1392SOL    HW115812   3.219   1.163  15.609 -0.5706  2.9460 -1.5216
 1392SOL    HW215813   3.346   1.220  15.622 -0.0043 -0.2960  1.0139
 1393SOL     OW15814   1.273   3.448   3.326  0.9571 -0.4052 -0.0327
 1393SOL    HW115815   1.346   3.464   3.267  0.8995 -1.0851 -0.2881
 1393SOL    HW215816   1.233   3.532   3.303 -0.1630 -0.5340  1.4050
 1394SOL     OW15817   3.418   2.353  17.672 -0.4271  0.2361 -0.1319
 1394SOL    HW115818   3.369   2.411  17.730  0.3924 -2.5562  3.3043
 1394SOL    HW215819   3.374   2.269  17.683 -1.6199  0.9837  0.9245
 1395SOL     OW15820   0.898   1.902   1.421  0.5206 -0.2471  0.4622
 1395SOL    HW115821   0.879   1.994   1.437  2.9588  0.3204  0.1961
 1395SOL    HW215822   0.874   1.867   1.507 -2.1343 -0.6713 -0.4700
 1396SOL     OW15823   1.576   3.168   4.393 -0.0945  0.2628 -0.2041
 1396SOL    HW115824   1.559   3.108   4.321 -0.5060 -2.4619  2.1613
 1396SOL    HW215825   1.598   3.104   4.461 -0.2739 -0.9736 -1.3233
 1397SOL     OW15826   3.989   0.000   7.224  0.7446 -0.1440  0.1824
 1397SOL    HW115827   4.008   4.710   7.313  1.1239 -0.9330 -0.1686
 1397SOL    HW215828   4.008   4.663   7.172  1.6451  1.6268 -2.0988
 1398SOL     OW15829   3.462   2.053   4.609  0.2968  0.3378  0.4552
 1398SOL    HW115830   3.556   2.061   4.592  0.6373 -1.4590  1.4913
 1398SOL    HW215831   3.440   2.134   4.655  1.1974  0.3270  0.8991
 1399SOL     OW15832   4.601   2.469   6.531 -0.5804  0.4019  0.0128
 1399SOL    HW115833   4.552   2.392   6.501 -0.0521  0.3328 -0.6774
 1399SOL    HW215834   4.690   2.434   6.528 -0.3836  0.8736  0.4049
 1400SOL     OW15835   1.076   2.469   2.056 -0.0483 -0.8421 -0.7221
 1400SOL    HW115836   1.095   2.465   2.150  0.2076 -1.3462 -0.7989
 1400SOL    HW215837   1.108   2.385   2.024  0.5261 -0.1576 -1.9530
 1401SOL     OW15838   3.509   3.253   2.783  0.7010  0.9865  0.1559
 1401SOL    HW115839   3.538   3.168   2.817  1.8787  1.5856  0.6324
 1401SOL    HW215840   3.593   3.274   2.743 -0.4491  3.3260 -1.0008
 1402SOL     OW15841   4.223   1.844   8.059 -0.0851 -0.0414  0.1039
 1402SOL    HW115842   4.287   1.790   8.013  0.4955 -2.4253  3.7428
 1402SOL    HW215843   4.269   1.897   8.124 -2.5587 -0.7401  2.4227
 1403SOL     OW15844   0.405   2.814  16.153  0.2582 -0.2954  0.8806
 1403SOL    HW115845   0.371   2.725  16.165  2.3667 -1.2511 -0.3273
 1403SOL    HW215846   0.483   2.824  16.206  0.5033  0.0727  0.4495
 1404SOL     OW15847   4.199   3.143   5.247  0.0781 -0.3768  0.5579
 1404SOL    HW115848   4.208   3.230   5.287  1.9714 -0.9120  1.2916
 1404SOL    HW215849   4.106   3.153   5.224  0.3310 -0.6357 -0.5724
 1405SOL     OW15850   1.138   0.130  16.319  0.2843  0.0186 -0.4091
 1405SOL    HW115851   1.099   0.092  16.240  0.5785  1.2971 -1.1653
 1405SOL    HW215852   1.219   0.080  16.329  1.5404  2.3211  0.7867
 1406SOL     OW15853   2.706   2.454  17.356  0.1695  0.3959 -0.6181
 1406SOL    HW115854   2.721   2.436  17.449  0.9539 -0.1296 -0.8467
 1406SOL    HW215855   2.611   2.454  17.346 -0.0205 -0.0677  1.2771
 1407SOL     OW15856   3.785   3.255  17.199 -0.5497  0.2099  0.6500
 1407SOL    HW115857   3.809   3.165  17.176  2.9835  1.3835 -0.1921
 1407SOL    HW215858   3.700   3.267  17.156  0.5156 -1.6670 -2.0271
 1408SOL     OW15859   2.847   2.368   2.441 -0.1772  0.2310 -0.2677
 1408SOL    HW115860   2.885   2.292   2.484  0.8011 -0.2754 -1.9975
 1408SOL    HW215861   2.763   2.328   2.417  0.0620 -0.1600 -0.4684
 1409SOL     OW15862   1.740   1.886   3.147  0.7752  0.0268 -1.0075
 1409SOL    HW115863   1.701   1.798   3.150 -3.8142  2.1623  1.6149
 1409SOL    HW215864   1.784   1.888   3.062 -0.8162  1.3952 -1.7803
 1410SOL     OW15865   1.472   1.501   7.402  0.4055  0.3532  0.3666
 1410SOL    HW115866   1.564   1.516   7.380  0.7215  0.8108  2.0055
 1410SOL    HW215867   1.428   1.563   7.342 -1.4151 -0.7376  0.5713
 1411SOL     OW15868   0.523   2.062  12.638 -0.0134  0.1234 -0.0575
 1411SOL    HW115869   0.497   2.041  12.728  1.1886  0.7573  0.4450
 1411SOL    HW215870   0.478   1.990  12.593 -1.1912  1.6191 -1.2589
 1412SOL     OW15871   2.800   1.723  17.136 -0.9170  0.6105  0.0545
 1412SOL    HW115872   2.777   1.689  17.049 -1.3131 -2.4453  1.3356
 1412SOL    HW215873   2.719   1.718  17.187 -0.4217 -1.5152  0.6448
 1413SOL     OW15874   0.268   0.852  16.844 -0.8108  0.3800 -0.4213
 1413SOL    HW115875   0.299   0.929  16.891 -0.9290 -0.4601  1.0334
 1413SOL    HW215876   0.255   0.887  16.756  0.1848 -2.3181 -1.6785
 1414SOL     OW15877   4.300   4.668   6.374 -0.2570  0.1818 -0.1223
 1414SOL    HW115878   4.339   4.692   6.290  1.2226 -2.1348 -0.1001
 1414SOL    HW215879   4.217   4.715   6.379 -0.0380  0.4550  1.1071
 1415SOL     OW15880   0.739   3.290   3.427 -0.6340 -0.6623  0.1025
 1415SOL    HW115881   0.799   3.255   3.361  0.8118  0.7245  0.6720
 1415SOL    HW215882   0.653   3.268   3.392 -1.0145 -0.1897  0.7307
 1416SOL     OW15883   2.798   3.622   7.350  0.0425 -0.8879 -0.4204
 1416SOL    HW115884   2.785   3.527   7.349  1.3602 -1.0999  1.7185
 1416SOL    HW215885   2.872   3.625   7.411 -1.5566  3.7204  1.3073
 1417SOL     OW15886   3.869   0.002   4.464 -0.4320  0.0021  0.1922
 1417SOL    HW115887   3.843   0.024   4.375 -0.6525  0.6203  0.4136
 1417SOL    HW215888   3.946   0.058   4.469 -0.9783  1.0204 -2.7587
 1418SOL     OW15889   1.884   4.040   8.797 -0.3641  0.4470 -0.3558
 1418SOL    HW115890   1.932   3.976   8.851 -2.7375  0.3057  1.5778
 1418SOL    HW215891   1.863   4.101   8.868 -2.5161 -0.4805 -0.1922
 1419SOL     OW15892   1.681   2.861  16.312  0.2103 -0.8139  0.5690
 1419SOL    HW115893   1.697   2.934  16.252 -0.5392 -0.3479  0.9450
 1419SOL    HW215894   1.602   2.824  16.273  1.3076 -0.1151 -2.3556
 1420SOL     OW15895   1.532   1.352  14.998  0.0859 -0.3969 -0.0520
 1420SOL    HW115896   1.502   1.437  14.966  0.6267  0.3658  1.4862
 1420SOL    HW215897   1.563   1.374  15.086  1.7712 -0.8728 -0.5399
 1421SOL     OW15898   3.092   2.789   0.641 -0.5583  0.1351  0.3592
 1421SOL    HW115899   3.168   2.818   0.590 -0.1754 -0.9951  0.2720
 1421SOL    HW215900   3.134   2.742   0.713 -1.2414 -0.9772  0.0422
 1422SOL     OW15901   3.064   3.628  12.841 -0.2066 -0.2502  0.4407
 1422SOL    HW115902   3.093   3.700  12.896 -0.7571  1.3231 -1.3316
 1422SOL    HW215903   3.028   3.572  12.910 -0.1534  0.6574  1.2133
 1423SOL     OW15904   4.548   3.475  11.533  0.0711  0.5181 -0.3986
 1423SOL    HW115905   4.611   3.404  11.539 -0.3697  0.2137  0.6003
 1423SOL    HW215906   4.461   3.434  11.535 -0.0248  0.8470  1.8029
 1424SOL     OW15907   1.099   0.360   3.785  0.0614 -0.4171  0.2794
 1424SOL    HW115908   1.171   0.325   3.733 -1.2103 -0.1545 -1.6869
 1424SOL    HW215909   1.080   0.438   3.733 -2.4444 -0.5716  0.9422
 1425SOL     OW15910   1.918   1.315   2.187  0.4782  0.2547 -0.7116
 1425SOL    HW115911   1.992   1.276   2.140 -0.3839 -1.1325 -0.8922
 1425SOL    HW215912   1.841   1.275   2.147  0.8177 -2.6433  1.5471
 1426SOL     OW15913   1.489   2.509   4.689  0.0731 -0.0340  0.0227
 1426SOL    HW115914   1.450   2.422   4.681 -1.4142  0.6971 -0.6824
 1426SOL    HW215915   1.567   2.504   4.744 -1.7661  2.1853  2.8046
 1427SOL     OW15916   3.589   1.556   3.977 -0.0884 -0.0024 -0.7195
 1427SOL    HW115917   3.580   1.472   4.021  0.7094 -0.2861 -1.1183
 1427SOL    HW215918   3.550   1.620   4.038  0.0206  0.7062 -1.3903
 1428SOL     OW15919   2.630   2.544   3.400  0.1721  0.1487 -0.4043
 1428SOL    HW115920   2.725   2.557   3.404  0.4976 -1.8656 -1.5385
 1428SOL    HW215921   2.609   2.528   3.308 -2.8649 -2.8755  0.8038
 1429SOL     OW15922   4.394   0.921   4.718  0.1960 -0.1867 -0.1197
 1429SOL    HW115923   4.315   0.915   4.772 -0.0728 -0.6101 -0.5587
 1429SOL    HW215924   4.371   0.987   4.653 -0.1646 -0.7758 -0.5933
 1430SOL     OW15925   3.802   1.569   5.207 -0.3181  0.0346  0.6285
 1430SOL    HW115926   3.754   1.624   5.269 -0.8819  1.9479 -1.5186
 1430SOL    HW215927   3.727   1.514   5.183  0.0483 -1.2870  2.4626
 1431SOL     OW15928   1.062   3.018   7.010  0.8660 -0.3335  0.1656
 1431SOL    HW115929   1.087   3.064   7.091  0.0380  2.0208 -0.9121
 1431SOL    HW215930   1.144   2.978   6.982  0.9056 -0.1895  0.0766
 1432SOL     OW15931   3.627   1.372   5.190  0.3880 -0.1050  0.1455
 1432SOL    HW115932   3.557   1.311   5.212  1.3525 -0.6250  1.8133
 1432SOL    HW215933   3.705   1.321   5.211  0.7453 -0.2666 -1.6185
 1433SOL     OW15934   4.328   1.404  10.909 -0.3628 -0.2102  0.4516
 1433SOL    HW115935   4.293   1.473  10.853  1.6858  0.0171 -0.5656
 1433SOL    HW215936   4.356   1.349  10.835  2.1890  0.8047  0.6494
 1434SOL     OW15937   3.713   0.497   4.192  0.0740 -0.0656 -0.5222
 1434SOL    HW115938   3.646   0.516   4.258  1.7918  2.6112  0.4273
 1434SOL    HW215939   3.661   0.464   4.118  0.6077 -2.0407 -0.0039
 1435SOL     OW15940   1.071   2.799   5.489  0.4287 -0.4588 -0.5062
 1435SOL    HW115941   0.996   2.791   5.548  0.4427 -0.2297 -0.4593
 1435SOL    HW215942   1.110   2.714   5.469  0.4168 -0.5252 -0.2446
 1436SOL     OW15943   4.359   1.406   0.581  0.0822  0.3654  0.4185
 1436SOL    HW115944   4.311   1.488   0.572  0.2652  0.3993 -0.1954
 1436SOL    HW215945   4.377   1.387   0.489  2.2754 -0.2917  0.9837
 1437SOL     OW15946   1.741   3.819   6.981 -0.2986  0.0913 -0.5905
 1437SOL    HW115947   1.673   3.876   6.944  1.5940  0.6945 -3.1678
 1437SOL    HW215948   1.754   3.861   7.066 -2.1227 -2.3910  0.9051
 1438SOL     OW15949   0.284   1.027   7.288  0.1313 -0.0617  0.5151
 1438SOL    HW115950   0.274   1.114   7.249  0.9552 -0.8982 -1.5661
 1438SOL    HW215951   0.368   0.998   7.253 -0.1024  1.0477 -0.9701
 1439SOL     OW15952   1.205   1.965  13.392 -0.4371  0.4621 -0.0831
 1439SOL    HW115953   1.293   1.930  13.407  0.9038  3.2354 -1.4475
 1439SOL    HW215954   1.222   2.054  13.359 -0.0608  1.4558  2.7596
 1440SOL     OW15955   3.203   3.027   5.301 -0.0980 -0.6689 -0.5276
 1440SOL    HW115956   3.236   3.016   5.212  1.1346  0.8934 -0.2639
 1440SOL    HW215957   3.191   2.933   5.318  0.3208 -0.7161 -0.4938
 1441SOL     OW15958   0.609   0.902   4.522 -0.2953 -1.4655 -0.0194
 1441SOL    HW115959   0.704   0.907   4.526 -0.4810  0.5392  1.9028
 1441SOL    HW215960   0.612   0.813   4.487 -0.0409 -1.8465  0.9954
 1442SOL     OW15961   3.217   2.812  10.480  0.2637  0.5092 -0.5161
 1442SOL    HW115962   3.280   2.827  10.409  0.9288 -0.8297 -0.2167
 1442SOL    HW215963   3.157   2.885  10.469 -0.2316  0.2354  0.3922
 1443SOL     OW15964   0.830   0.079   9.206  0.3296 -0.3937  0.5563
 1443SOL    HW115965   0.782   0.046   9.283 -1.3776 -0.5148 -0.5540
 1443SOL    HW215966   0.757   0.090   9.145  1.2404  0.6551 -0.3407
 1444SOL     OW15967   1.800   3.415   7.360 -0.5558  0.2776 -0.3109
 1444SOL    HW115968   1.763   3.456   7.281  0.5441 -0.4610 -1.2117
 1444SOL    HW215969   1.891   3.442   7.347 -0.5322  1.0443  1.4999
 1445SOL     OW15970   4.488   1.213  10.711  0.3409  0.4428  0.4995
 1445SOL    HW115971   4.581   1.222  10.693  0.7034 -1.6099  1.2969
 1445SOL    HW215972   4.439   1.229  10.631  0.3587  0.3994  0.4798
 1446SOL     OW15973   4.668   2.291   4.344 -0.4177  0.4186  0.4394
 1446SOL    HW115974   0.010   2.310   4.389 -1.3619  2.3243  1.3547
 1446SOL    HW215975   4.636   2.382   4.339 -0.4568  0.2267 -2.6752
 1447SOL     OW15976   4.348   3.794   8.517 -0.3386  0.1611  0.5128
 1447SOL    HW115977   4.348   3.731   8.444  2.5219 -1.0247  1.5273
 1447SOL    HW215978   4.284   3.747   8.570  0.3363 -1.5340 -0.1751
 1448SOL     OW15979   2.012   1.265   5.235  0.3696  0.4950 -0.1672
 1448SOL    HW115980   2.107   1.269   5.238  0.1154  4.8914  2.1571
 1448SOL    HW215981   1.996   1.265   5.141  0.1197  1.9089 -0.1217
 1449SOL     OW15982   2.086   4.714   8.238  0.5121 -0.1908 -0.0483
 1449SOL    HW115983   1.995   4.730   8.262  0.4351 -0.1269 -0.3851
 1449SOL    HW215984   2.124   4.677   8.318  0.0134  0.9530  0.7152
 1450SOL     OW15985   3.434   2.102   8.690  0.4560  0.0785  0.5964
 1450SOL    HW115986   3.506   2.146   8.644  0.3112 -1.2337 -0.9068
 1450SOL    HW215987   3.376   2.178   8.692 -0.4603 -0.6541  1.2796
 1451SOL     OW15988   0.966   3.358   8.408 -0.6518  0.1653  0.5484
 1451SOL    HW115989   0.969   3.264   8.428 -0.6079 -0.3826 -1.9261
 1451SOL    HW215990   0.873   3.379   8.404 -0.7614 -0.0421  1.9959
 1452SOL     OW15991   0.438   3.633  11.402  0.6016  0.0474 -0.9599
 1452SOL    HW115992   0.355   3.664  11.365 -0.8744  1.1126  3.2712
 1452SOL    HW215993   0.473   3.713  11.440 -0.9596  0.3949 -0.2560
 1453SOL     OW15994   1.156   2.702   3.966 -0.0906 -0.6498 -0.3591
 1453SOL    HW115995   1.071   2.715   3.924 -1.6103  2.0266  3.5058
 1453SOL    HW215996   1.211   2.649   3.909  1.0666  0.3604 -0.1934
 1454SOL     OW15997   4.245   0.675   1.509  0.0247  0.2294  0.0895
 1454SOL    HW115998   4.230   0.580   1.506  1.9112 -0.1834  2.9822
 1454SOL    HW215999   4.158   0.708   1.527 -0.0102 -0.7615  1.8101
 1455SOL     OW16000   0.354   0.864  17.235  0.1068  0.0595  0.0669
 1455SOL    HW116001   0.354   0.913  17.153  0.2728  0.4935  0.3273
 1455SOL    HW216002   0.283   0.908  17.283 -0.5017  1.2829 -1.9707
 1456SOL     OW16003   1.470   0.432   9.396  0.0399 -0.0332  0.6225
 1456SOL    HW116004   1.410   0.371   9.352  1.2940 -1.0939  0.3786
 1456SOL    HW216005   1.418   0.448   9.475  1.4253 -0.3767  1.5984
 1457SOL     OW16006   0.541   3.326   7.296  0.1962 -0.5797  0.4067
 1457SOL    HW116007   0.605   3.276   7.348  1.5202  0.4055 -0.2861
 1457SOL    HW216008   0.460   3.303   7.342 -1.4527  1.0703 -1.7261
 1458SOL     OW16009   3.317   3.491   4.826 -0.9192 -0.5105 -0.1453
 1458SOL    HW116010   3.250   3.559   4.836  0.1470  0.4686  0.3180
 1458SOL    HW216011   3.276   3.435   4.760 -1.1405 -1.1513  0.5358
 1459SOL     OW16012   1.844   4.419   6.576  0.0594 -0.2506 -0.6591
 1459SOL    HW116013   1.869   4.404   6.485  1.6943  2.5107 -0.6502
 1459SOL    HW216014   1.928   4.445   6.613 -0.6542  0.8585  0.1913
 1460SOL     OW16015   2.389   3.571   6.961  0.0615  0.0677 -0.2569
 1460SOL    HW116016   2.443   3.556   7.039 -2.1324  0.6099  1.3620
 1460SOL    HW216017   2.348   3.485   6.956 -0.2180  0.2434 -1.0480
 1461SOL     OW16018   1.786   3.277   6.597  0.3886  0.2077  0.1218
 1461SOL    HW116019   1.866   3.242   6.558  0.7857 -1.2025  2.1630
 1461SOL    HW216020   1.742   3.209   6.648 -1.0942 -0.0348 -1.4991
 1462SOL     OW16021   4.665   4.364   9.724 -0.0855 -0.2471  0.3868
 1462SOL    HW116022   4.602   4.291   9.731 -0.9189  0.4525  0.2377
 1462SOL    HW216023   4.653   4.396   9.814 -0.7172 -0.4080  0.3638
 1463SOL     OW16024   0.892   1.135  16.651  0.3097  0.2237  0.3312
 1463SOL    HW116025   0.986   1.127  16.663  0.3263 -1.1391 -0.7617
 1463SOL    HW216026   0.880   1.059  16.595 -1.0116 -0.2379  1.2411
 1464SOL     OW16027   1.700   4.492   6.187 -0.3754 -0.3421 -0.4076
 1464SOL    HW116028   1.694   4.413   6.240  0.9895 -0.2893 -0.1636
 1464SOL    HW216029   1.618   4.494   6.138 -0.0268 -1.7250 -1.0567
 1465SOL     OW16030   2.766   2.310   6.322 -0.4001 -0.5773  0.6967
 1465SOL    HW116031   2.844   2.292   6.270  0.4564  0.1289  1.7184
 1465SOL    HW216032   2.703   2.279   6.257  0.6026  0.6071 -0.8332
 1466SOL     OW16033   3.831   3.030  13.127 -0.5625 -0.6021  0.1380
 1466SOL    HW116034   3.769   2.958  13.131 -0.2375 -0.7436  2.3353
 1466SOL    HW216035   3.860   3.011  13.037 -0.0182  0.8045  0.0119
 1467SOL     OW16036   4.469   0.576   2.890  0.2010 -0.2679  0.0550
 1467SOL    HW116037   4.388   0.626   2.898  0.7058  0.3170  1.6194
 1467SOL    HW216038   4.510   0.630   2.823 -0.0186 -0.0449  0.1029
 1468SOL     OW16039   0.589   4.465  14.538 -0.2998  0.7071  0.3687
 1468SOL    HW116040   0.625   4.503  14.458  0.4517 -1.2833 -0.2367
 1468SOL    HW216041   0.650   4.483  14.610 -0.0376 -0.4680  0.4337
 1469SOL     OW16042   4.092   4.013   1.733  0.4796  0.1421  0.3642
 1469SOL    HW116043   4.111   3.955   1.807  1.2265 -0.3661 -0.2299
 1469SOL    HW216044   4.138   3.971   1.661  1.4689 -0.1763  1.1829
 1470SOL     OW16045   0.611   0.486  13.685 -0.2360 -0.0841  0.0509
 1470SOL    HW116046   0.590   0.467  13.594 -0.2142 -1.5182  0.3469
 1470SOL    HW216047   0.539   0.444  13.732 -0.1156 -1.8879 -1.3633
 1471SOL     OW16048   4.190   3.143  14.787  0.1416 -0.3922  0.1112
 1471SOL    HW116049   4.268   3.101  14.750 -0.4573 -1.5145  0.1155
 1471SOL    HW216050   4.197   3.232  14.751 -0.5322 -0.9381 -1.3764
 1472SOL     OW16051   4.008   4.057  10.365  0.6468 -0.9450  0.1431
 1472SOL    HW116052   4.008   4.139  10.414  0.3825 -0.4995 -0.6237
 1472SOL    HW216053   4.023   4.087  10.276  0.9754 -0.2963  0.4194
 1473SOL     OW16054   2.686   4.025  12.664  0.6681 -0.1436 -0.2240
 1473SOL    HW116055   2.747   3.953  12.679  0.5691  0.2916  2.1312
 1473SOL    HW216056   2.611   3.981  12.703  0.7281 -0.7114 -0.7417
 1474SOL     OW16057   4.152   0.776   6.484 -0.4037 -0.3018 -0.4095
 1474SOL    HW116058   4.201   0.846   6.528 -0.2842  0.2103 -1.3676
 1474SOL    HW216059   4.092   0.747   6.553 -1.9980  2.3361 -0.6938
 1475SOL     OW16060   2.956   0.856   3.507 -0.1431 -0.0408  0.0650
 1475SOL    HW116061   3.037   0.817   3.474 -0.4833  0.5949 -1.4907
 1475SOL    HW216062   2.921   0.902   3.431 -1.0317 -1.8628 -0.6190
 1476SOL     OW16063   3.064   3.060  17.525  0.6681 -0.8644 -0.3453
 1476SOL    HW116064   3.111   3.055  17.442 -0.1943  1.0270 -0.9521
 1476SOL    HW216065   2.971   3.044  17.508  0.1699  3.4461 -1.6782
 1477SOL     OW16066   3.988   2.144  10.114  0.8207 -0.3435 -0.2146
 1477SOL    HW116067   3.894   2.130  10.103  1.2592 -1.7622 -2.2583
 1477SOL    HW216068   3.987   2.186  10.200 -5.2107  1.3046 -1.0723
 1478SOL     OW16069   4.360   4.445   6.539 -0.5684  0.3068  0.3197
 1478SOL    HW116070   4.270   4.426   6.567  0.2652 -2.7028  0.9393
 1478SOL    HW216071   4.344   4.516   6.477 -0.9458 -0.0359  0.0296
 1479SOL     OW16072   0.562   1.882   2.534  0.2749  0.3591  0.0390
 1479SOL    HW116073   0.609   1.846   2.609 -0.6970  3.2783  2.0579
 1479SOL    HW216074   0.475   1.846   2.554  0.2705 -0.3116 -1.2242
 1480SOL     OW16075   2.259   0.766   4.187  1.2765  0.4020  0.3730
 1480SOL    HW116076   2.245   0.787   4.279  1.8418 -0.4527  0.6547
 1480SOL    HW216077   2.181   0.808   4.149  0.3628 -1.3516  0.3027
 1481SOL     OW16078   2.132   0.427   6.351 -0.0792  0.4395 -0.4043
 1481SOL    HW116079   2.037   0.420   6.352 -0.2022  2.5460  2.2892
 1481SOL    HW216080   2.166   0.356   6.405  2.6866  2.2941  0.2908
 1482SOL     OW16081   1.832   0.086   4.126 -0.5897  0.4172 -0.0145
 1482SOL    HW116082   1.879   0.106   4.044 -1.1091 -0.7887 -0.6021
 1482SOL    HW216083   1.868   0.000   4.147 -0.1264  0.5382 -0.2895
 1483SOL     OW16084   0.485   0.441   0.928 -0.0946 -0.1629 -0.2733
 1483SOL    HW116085   0.512   0.516   0.981 -2.5496  1.1269 -0.9046
 1483SOL    HW216086   0.468   0.372   0.993  0.8385  0.7613  0.9517
 1484SOL     OW16087   3.577   3.648  10.615 -0.4966  0.1155  0.1325
 1484SOL    HW116088   3.504   3.591  10.639 -2.2723  2.3324 -0.0485
 1484SOL    HW216089   3.633   3.651  10.693 -1.7722  3.7709  0.9007
 1485SOL     OW16090   0.483   1.655   6.166  0.1028 -0.3328  0.5594
 1485SOL    HW116091   0.575   1.633   6.181  0.2916 -0.5563 -1.0248
 1485SOL    HW216092   0.490   1.751   6.167  2.0655 -0.4747  0.2169
 1486SOL     OW16093   0.484   3.229   3.326  0.6603  0.4325  0.1365
 1486SOL    HW116094   0.433   3.209   3.247 -0.8572 -1.1198  1.5060
 1486SOL    HW216095   0.432   3.298   3.369 -1.7235 -1.7613  0.8025
 1487SOL     OW16096   2.526   2.098   9.518 -0.1143  0.1325 -0.8494
 1487SOL    HW116097   2.477   2.047   9.453 -0.2945  0.0362 -0.6341
 1487SOL    HW216098   2.518   2.035   9.589 -0.5823  0.6328 -0.4585
 1488SOL     OW16099   1.731   0.380   8.450  0.2210 -0.0036  0.2450
 1488SOL    HW116100   1.801   0.340   8.501  0.9086 -0.5098 -1.1037
 1488SOL    HW216101   1.657   0.368   8.509 -1.7227  1.3858 -1.8806
 1489SOL     OW16102   1.620   0.443   5.012 -0.4269  0.0065 -0.0941
 1489SOL    HW116103   1.625   0.534   5.042 -1.6048  0.4269 -1.1663
 1489SOL    HW216104   1.531   0.420   5.041 -0.9980  2.1678 -0.1383
 1490SOL     OW16105   0.297   1.239  14.647  0.4799  0.2347 -0.2364
 1490SOL    HW116106   0.313   1.307  14.582  1.0358 -0.6734 -1.0433
 1490SOL    HW216107   0.325   1.284  14.727 -0.6742 -2.1201  1.5159
 1491SOL     OW16108   0.494   1.629   3.825  0.2657 -0.4391 -0.2558
 1491SOL    HW116109   0.411   1.613   3.869  0.1631 -0.1581 -0.3490
 1491SOL    HW216110   0.556   1.640   3.898 -0.7344  1.3603  0.2939
 1492SOL     OW16111   2.237   4.360   6.478 -0.0410 -0.6778 -0.0872
 1492SOL    HW116112   2.156   4.406   6.458  0.3781  0.8015  1.6499
 1492SOL    HW216113   2.231   4.360   6.574  1.5376  0.6500  0.0078
 1493SOL     OW16114   0.438   2.699   2.439 -0.1358  0.0202 -0.2004
 1493SOL    HW116115   0.523   2.662   2.463 -1.1849  0.0008  3.5064
 1493SOL    HW216116   0.394   2.619   2.410 -0.5171 -0.5571  1.9537
 1494SOL     OW16117   1.080   4.201   5.412 -0.0813 -0.4788  0.1433
 1494SOL    HW116118   1.033   4.273   5.369 -0.1148 -1.1604 -0.9469
 1494SOL    HW216119   1.172   4.224   5.409 -0.1964 -0.1100 -0.5871
 1495SOL     OW16120   1.475   0.063   5.760 -0.6437  0.3457 -0.1128
 1495SOL    HW116121   1.400   0.019   5.800  0.9970 -1.3233  1.1082
 1495SOL    HW216122   1.490   0.134   5.823 -3.0205  1.3498 -0.6436
 1496SOL     OW16123   0.272   0.591   5.571 -0.1244  0.1538  0.6411
 1496SOL    HW116124   0.197   0.595   5.512  0.7255 -1.9736 -0.5945
 1496SOL    HW216125   0.352   0.576   5.520 -0.2801  2.1973 -0.1843
 1497SOL     OW16126   1.143   0.418  17.238  0.2088  0.1267  0.4088
 1497SOL    HW116127   1.099   0.423  17.153 -0.3240  0.4011  0.6996
 1497SOL    HW216128   1.221   0.369  17.211 -0.4461 -0.9855  0.5207
 1498SOL     OW16129   3.308   2.592   3.449 -0.2810  0.3897 -0.2965
 1498SOL    HW116130   3.385   2.535   3.458 -1.2232 -1.2367 -2.5610
 1498SOL    HW216131   3.240   2.530   3.477  0.7165 -1.3623 -1.7840
 1499SOL     OW16132   3.603   1.710  10.099 -0.2089 -0.0740  0.3369
 1499SOL    HW116133   3.507   1.715  10.097 -0.2690 -1.0679  0.9869
 1499SOL    HW216134   3.617   1.638  10.160  1.7882  0.5058  0.5560
 1500SOL     OW16135   3.878   0.379   9.693 -0.4857  0.0219  0.3632
 1500SOL    HW116136   3.942   0.346   9.756  1.6304  0.1166 -1.7799
 1500SOL    HW216137   3.936   0.428   9.635 -1.2720  0.2582 -0.2259
 1501SOL     OW16138   4.694   4.231   7.770  0.5813 -0.2058 -0.1503
 1501SOL    HW116139   4.688   4.315   7.724  2.9191 -0.7983 -1.5649
 1501SOL    HW216140   0.048   4.228   7.788  0.8302  1.5892 -1.1672
 1502SOL     OW16141   0.201   1.777   5.694  0.1907  0.6397 -0.0214
 1502SOL    HW116142   0.191   1.852   5.753 -2.1880 -1.4681  2.3065
 1502SOL    HW216143   0.110   1.752   5.678  0.5309 -1.2463  0.9269
 1503SOL     OW16144   2.235   3.353  10.618  0.2430  0.0287 -0.1145
 1503SOL    HW116145   2.171   3.307  10.564  1.2691 -0.9950 -0.4575
 1503SOL    HW216146   2.194   3.342  10.704 -2.4314 -1.3653 -1.5467
 1504SOL     OW16147   3.486   3.887  16.004 -0.1913  0.0923  0.4821
 1504SOL    HW116148   3.530   3.943  16.069 -0.8563 -2.0617  2.7999
 1504SOL    HW216149   3.525   3.922  15.924  0.5353  1.9875  1.6581
 1505SOL     OW16150   1.514   4.169  11.904  0.1894 -0.0019  0.3916
 1505SOL    HW116151   1.589   4.223  11.928  0.0815 -0.0751  0.9029
 1505SOL    HW216152   1.501   4.112  11.980  0.7357  1.1055  1.3046
 1506SOL     OW16153   2.132   0.566  12.794  0.4657 -0.4883 -0.3826
 1506SOL    HW116154   2.186   0.494  12.826 -1.5842 -0.5168  2.9753
 1506SOL    HW216155   2.202   0.618  12.754  0.6696 -0.9058 -0.5601
 1507SOL     OW16156   1.330   1.168  12.952 -0.6028  0.5638 -0.3782
 1507SOL    HW116157   1.395   1.116  12.904  0.2558  0.5894  0.7459
 1507SOL    HW216158   1.398   1.225  12.988 -1.4998  0.4231  1.5352
 1508SOL     OW16159   4.551   3.006   6.964  0.1074 -0.1474  0.3930
 1508SOL    HW116160   4.493   2.933   6.985  1.7284 -1.3618  0.6908
 1508SOL    HW216161   4.605   3.014   7.043  1.4086  1.2407 -0.6402
 1509SOL     OW16162   4.585   3.812  14.864 -0.1569 -0.4118 -0.0738
 1509SOL    HW116163   4.530   3.886  14.836  1.1025  1.1279  1.4905
 1509SOL    HW216164   4.545   3.777  14.943  1.9104 -1.8852  0.3112
 1510SOL     OW16165   1.445   0.089   9.983  0.4855 -0.0034  0.5782
 1510SOL    HW116166   1.506   0.047  10.043 -2.5526 -2.4752  1.9411
 1510SOL    HW216167   1.421   0.015   9.928 -2.1886 -0.1343  1.9155
 1511SOL     OW16168   0.290   3.237  11.057 -0.5064 -0.5353 -0.5722
 1511SOL    HW116169   0.198   3.235  11.033 -1.2739 -0.2913  2.3624
 1511SOL    HW216170   0.301   3.321  11.100 -1.1668 -0.7507 -0.0039
 1512SOL     OW16171   4.282   1.667   2.331  0.2159  0.3441  0.2520
 1512SOL    HW116172   4.218   1.633   2.269  1.8654  2.1628 -2.4402
 1512SOL    HW216173   4.359   1.621   2.296  0.9372  0.4347  1.7208
 1513SOL     OW16174   3.267   2.560   0.035  0.2487  0.2322 -0.2213
 1513SOL    HW116175   3.217   2.491   0.078 -0.0708  0.7478  0.2360
 1513SOL    HW216176   3.325   2.582   0.108 -1.6085  1.9662  0.7251
 1514SOL     OW16177   1.847   1.330  16.155 -0.7738 -0.5067  0.0837
 1514SOL    HW116178   1.896   1.361  16.079 -1.2786  1.9630  0.7699
 1514SOL    HW216179   1.922   1.294  16.203 -0.2442  0.6924  0.1558
 1515SOL     OW16180   0.902   0.833   3.148 -0.3556 -0.1256 -0.3553
 1515SOL    HW116181   0.929   0.857   3.236 -0.0155 -0.2265 -0.4324
 1515SOL    HW216182   0.837   0.899   3.123 -2.3671 -1.7263  0.7470
 1516SOL     OW16183   3.595   2.683   8.010 -0.2151 -0.0612 -0.6996
 1516SOL    HW116184   3.506   2.716   7.998 -0.8539 -1.4948  0.1247
 1516SOL    HW216185   3.589   2.615   7.943  1.2130  0.4567 -1.3654
 1517SOL     OW16186   4.417   4.005  14.765 -0.0996  0.3282  0.1433
 1517SOL    HW116187   4.347   4.056  14.806 -2.0087 -2.1267 -0.0996
 1517SOL    HW216188   4.406   4.025  14.671  0.6294  0.1664  0.0264
 1518SOL     OW16189   0.616   2.999   3.940 -0.3874 -0.3177 -0.3820
 1518SOL    HW116190   0.527   3.030   3.953 -0.4925 -1.4604  1.7186
 1518SOL    HW216191   0.596   2.911   3.972 -0.4598 -0.6593 -1.3679
 1519SOL     OW16192   3.854   1.638   3.947 -0.1386 -0.6190 -0.2034
 1519SOL    HW116193   3.886   1.550   3.928  0.8757  0.0950 -1.8589
 1519SOL    HW216194   3.760   1.627   3.959 -0.2956 -0.8985 -1.6272
 1520SOL     OW16195   0.768   3.237   0.064  0.4050  0.5278 -0.1351
 1520SOL    HW116196   0.672   3.233   0.062  0.4026 -0.7540  1.6016
 1520SOL    HW216197   0.792   3.158   0.113 -2.0773 -0.6544 -0.8302
 1521SOL     OW16198   0.053   0.032  12.963 -0.2552 -0.2256  0.1047
 1521SOL    HW116199   0.142   0.039  12.996  0.5586  1.4476 -2.4301
 1521SOL    HW216200   4.735   0.088  13.014  0.3296  1.8964 -1.5984
 1522SOL     OW16201   3.207   0.097  10.565  0.0446  0.3987  0.0058
 1522SOL    HW116202   3.188   0.123  10.656 -1.0095 -1.9897  0.4680
 1522SOL    HW216203   3.162   0.013  10.559  2.2653 -0.9562  2.2927
 1523SOL     OW16204   3.792   3.028   6.070 -0.2444 -0.3865 -0.6016
 1523SOL    HW116205   3.759   3.072   6.149  1.5313 -0.3179  0.0872
 1523SOL    HW216206   3.783   2.936   6.096 -0.9985 -0.0586  0.3173
 1524SOL     OW16207   3.159   3.384  12.110  0.3710  0.1765 -0.5946
 1524SOL    HW116208   3.096   3.316  12.085  0.6301 -2.0598  4.8548
 1524SOL    HW216209   3.121   3.470  12.095 -1.2011 -0.0442  2.0175
 1525SOL     OW16210   3.158   2.056   0.321  0.1563  0.0423 -0.2491
 1525SOL    HW116211   3.082   2.089   0.274  0.0622  0.2122  0.0210
 1525SOL    HW216212   3.166   1.982   0.261 -1.1039 -0.4530  0.1955
 1526SOL     OW16213   0.093   0.311   2.015 -0.5350 -0.3172 -0.2165
 1526SOL    HW116214   0.150   0.372   2.063 -1.5807 -0.7188  1.5356
 1526SOL    HW216215   0.155   0.238   2.017 -0.1419  0.0877  2.1468
 1527SOL     OW16216   2.197   1.737   3.030  0.0502  0.2537  0.2795
 1527SOL    HW116217   2.242   1.707   3.109  1.4097  0.2393 -0.5041
 1527SOL    HW216218   2.263   1.736   2.962  0.6271 -1.0901  0.8579
 1528SOL     OW16219   2.764   4.584   7.185 -0.0461 -0.1572 -0.0300
 1528SOL    HW116220   2.701   4.518   7.213 -0.3554  0.4830  0.7745
 1528SOL    HW216221   2.751   4.657   7.246  0.9497  0.2690 -0.3235
 1529SOL     OW16222   3.887   4.210  10.674 -0.2389 -0.5009 -0.3445
 1529SOL    HW116223   3.958   4.245  10.727  0.1972  0.6224 -1.6777
 1529SOL    HW216224   3.819   4.239  10.735  0.6559  2.7394 -0.9041
 1530SOL     OW16225   3.531   0.141  15.428  0.6626 -0.2995 -0.5381
 1530SOL    HW116226   3.607   0.195  15.406 -0.8002  0.9724 -2.5407
 1530SOL    HW216227   3.457   0.199  15.410  0.4732 -0.7358 -1.2044
 1531SOL     OW16228   1.435   2.382   8.799  0.2045  0.6149  0.3621
 1531SOL    HW116229   1.348   2.369   8.835  0.3928 -0.7397  0.3004
 1531SOL    HW216230   1.481   2.320   8.855 -1.0800  0.7981  1.6033
 1532SOL     OW16231   1.843   0.341   2.213 -0.0459  0.5582 -0.6103
 1532SOL    HW116232   1.771   0.397   2.242  0.2311  1.0681 -0.9157
 1532SOL    HW216233   1.823   0.333   2.120  2.9177 -0.1499 -1.1816
 1533SOL     OW16234   4.116   4.516  11.079  0.1937  0.5255 -0.1610
 1533SOL    HW116235   4.162   4.581  11.133  3.8211 -2.7378  0.6761
 1533SOL    HW216236   4.042   4.502  11.138 -0.6823  0.0717 -1.3654
 1534SOL     OW16237   2.500   1.713   6.084 -0.1407  0.2726  0.0340
 1534SOL    HW116238   2.456   1.629   6.067 -0.8882  0.4011  1.3092
 1534SOL    HW216239   2.431   1.767   6.122 -1.0156  0.3578 -1.6828
 1535SOL     OW16240   0.072   0.727   3.885  0.3936  0.2386  0.0588
 1535SOL    HW116241   0.003   0.662   3.875  0.1795  0.6860 -1.3892
 1535SOL    HW216242   0.124   0.691   3.813  0.2432 -1.0953  0.6396
 1536SOL     OW16243   2.385   1.875   5.190 -0.0490  0.2302 -0.6220
 1536SOL    HW116244   2.459   1.935   5.181  1.4961 -1.1764  2.6241
 1536SOL    HW216245   2.435   1.795   5.204  1.4465  1.7884  2.8863
 1537SOL     OW16246   0.185   2.640   4.355 -0.4722  0.1533 -0.3121
 1537SOL    HW116247   0.218   2.610   4.440 -1.6769  0.9792  0.4516
 1537SOL    HW216248   0.247   2.596   4.297 -0.5599 -0.5337  0.1104
 1538SOL     OW16249   1.485   3.549  12.988 -0.2534  0.1448 -0.3550
 1538SOL    HW116250   1.492   3.456  13.008  2.0851  0.2430 -0.6887
 1538SOL    HW216251   1.420   3.567  13.056 -0.2543  0.2197 -0.3756
 1539SOL     OW16252   2.303   0.953   7.328 -0.6346 -0.3594  0.0237
 1539SOL    HW116253   2.374   0.952   7.264 -0.8978 -0.7637 -0.2643
 1539SOL    HW216254   2.298   1.048   7.339 -1.2345 -0.2643 -1.0780
 1540SOL     OW16255   1.484   2.107  11.151  0.8559 -0.4060 -0.3541
 1540SOL    HW116256   1.496   2.054  11.072  1.8210  0.3082 -0.6867
 1540SOL    HW216257   1.452   2.043  11.215  1.1934 -1.1068 -0.8766
 1541SOL     OW16258   1.698   1.236   9.768  0.1747  0.0632 -0.0659
 1541SOL    HW116259   1.659   1.159   9.809 -0.4857  0.3494 -0.1530
 1541SOL    HW216260   1.709   1.208   9.677 -2.6653  4.0873 -1.6509
 1542SOL     OW16261   2.275   4.594   2.179 -0.4139  0.1489 -0.6567
 1542SOL    HW116262   2.355   4.637   2.210 -0.9815  0.6311  0.1497
 1542SOL    HW216263   2.244   4.662   2.119 -2.0240  0.4277  0.4773
 1543SOL     OW16264   2.019   3.438   3.975  0.4455  0.3656 -0.2151
 1543SOL    HW116265   1.992   3.528   3.963 -1.7720 -0.4995 -1.7072
 1543SOL    HW216266   2.083   3.432   3.905  0.3502 -2.5398 -0.0832
 1544SOL     OW16267   2.143   3.700  16.572  0.0037  0.3910  0.1942
 1544SOL    HW116268   2.176   3.687  16.483 -0.5315  1.4757 -0.1534
 1544SOL    HW216269   2.220   3.677  16.624 -1.2773 -1.9659  1.0323
 1545SOL     OW16270   2.340   0.491  15.959  0.2736  0.5396  0.1150
 1545SOL    HW116271   2.361   0.574  16.002  0.7932  0.3228  0.2795
 1545SOL    HW216272   2.286   0.522  15.886 -1.0339 -0.5865  0.6028
 1546SOL     OW16273   0.677   1.002   5.472  0.1637 -0.3817 -0.0471
 1546SOL    HW116274   0.603   0.947   5.449 -0.9187  0.7293  0.7927
 1546SOL    HW216275   0.649   1.084   5.431 -3.3404 -1.8418 -0.5662
 1547SOL     OW16276   1.823   3.114  12.032 -0.1896 -0.5667 -0.4895
 1547SOL    HW116277   1.884   3.119  11.958  1.4550 -1.0448  0.8295
 1547SOL    HW216278   1.756   3.176  12.003 -1.7557 -1.0151  2.2283
 1548SOL     OW16279   3.267   2.394   8.307 -0.1665 -0.1089  0.8751
 1548SOL    HW116280   3.271   2.479   8.264  0.9315 -0.0673  1.0602
 1548SOL    HW216281   3.212   2.346   8.244  2.4810 -0.4499 -1.2006
 1549SOL     OW16282   0.883   0.942   4.489 -0.0960  0.4650 -0.3462
 1549SOL    HW116283   0.898   0.904   4.575  0.4044 -1.7256 -1.3983
 1549SOL    HW216284   0.962   0.994   4.474 -1.2847  2.0363 -1.2298
 1550SOL     OW16285   0.512   1.230  15.380 -0.1759 -0.0308 -0.1696
 1550SOL    HW116286   0.539   1.144  15.346 -2.0327 -0.7616  0.1835
 1550SOL    HW216287   0.591   1.252  15.430 -1.8297  2.1523  1.4679
 1551SOL     OW16288   4.115   3.670   6.956  0.7038  0.2432  0.1762
 1551SOL    HW116289   4.184   3.625   7.004 -0.7971 -1.0869  1.0706
 1551SOL    HW216290   4.044   3.608   6.974 -1.2649  2.2728 -0.5757
 1552SOL     OW16291   1.832   4.072   9.264  0.8270  0.1609  0.1518
 1552SOL    HW116292   1.806   4.088   9.354 -1.0323 -1.2191 -0.1426
 1552SOL    HW216293   1.924   4.091   9.281  1.3159 -2.1279  0.1190
 1553SOL     OW16294   3.274   2.933   9.550 -0.5866  0.3288 -0.3736
 1553SOL    HW116295   3.285   3.028   9.554  0.8717  0.0818  1.2159
 1553SOL    HW216296   3.238   2.923   9.462 -0.1465  0.7660 -0.6006
 1554SOL     OW16297   3.422   1.578   3.312 -0.1522  0.3335  0.0981
 1554SOL    HW116298   3.462   1.604   3.395  1.8633 -0.5976 -0.6030
 1554SOL    HW216299   3.499   1.547   3.265 -0.5423  0.1900 -0.4431
 1555SOL     OW16300   3.327   3.605   5.518  0.4337 -0.3401  0.7197
 1555SOL    HW116301   3.316   3.530   5.460 -0.9492  0.6825 -0.3470
 1555SOL    HW216302   3.337   3.686   5.467 -3.3087  1.9561  3.6136
 1556SOL     OW16303   4.534   2.391   0.620 -0.1015  0.2608  0.0085
 1556SOL    HW116304   4.624   2.373   0.592  0.3868  0.0624  1.7388
 1556SOL    HW216305   4.512   2.298   0.630  0.3052 -0.0177 -1.6258
 1557SOL     OW16306   1.295   2.211   6.598 -0.4620  0.0654  0.5879
 1557SOL    HW116307   1.275   2.227   6.506  0.1490  0.0584  0.4511
 1557SOL    HW216308   1.293   2.115   6.596 -0.1461  0.0394  1.5725
 1558SOL     OW16309   2.481   1.730   1.510 -0.5826  0.3703 -0.3406
 1558SOL    HW116310   2.400   1.780   1.499 -1.2341 -1.0334 -2.0337
 1558SOL    HW216311   2.466   1.648   1.462  1.7235 -0.4745  0.3844
 1559SOL     OW16312   3.728   3.712   1.944  0.4167 -0.2702  0.2930
 1559SOL    HW116313   3.688   3.719   1.857  0.1643 -0.4281  0.3974
 1559SOL    HW216314   3.675   3.779   1.988 -1.3594 -0.3179 -1.7598
 1560SOL     OW16315   0.033   2.052  12.062 -0.5646  0.0876  0.5290
 1560SOL    HW116316   0.048   1.959  12.073 -0.7640  0.2903  2.5464
 1560SOL    HW216317   4.678   2.048  12.051 -0.6291 -0.4703  1.3141
 1561SOL     OW16318   3.675   2.073   5.261  0.7996 -0.2323  0.3395
 1561SOL    HW116319   3.758   2.057   5.305  1.1455 -1.7217 -0.8542
 1561SOL    HW216320   3.680   2.164   5.233 -0.7930 -0.4173 -0.5309
 1562SOL     OW16321   3.340   0.117   5.212 -0.2111  0.3644  0.0783
 1562SOL    HW116322   3.277   0.189   5.225 -0.3876  0.2529 -0.1481
 1562SOL    HW216323   3.380   0.143   5.129 -1.3505 -0.8408 -0.8392
 1563SOL     OW16324   3.554   0.183   0.152  0.7630 -0.0670 -0.2992
 1563SOL    HW116325   3.469   0.170   0.109  0.8736  0.1797 -0.5944
 1563SOL    HW216326   3.522   0.180   0.242  2.0552 -0.3718  0.1439
 1564SOL     OW16327   1.883   2.584   7.520 -0.1718 -0.9283 -0.1682
 1564SOL    HW116328   1.879   2.626   7.606  2.6387  1.7724 -1.3656
 1564SOL    HW216329   1.871   2.490   7.534  2.8734 -1.0660  1.5372
 1565SOL     OW16330   3.319   3.532   7.813 -0.1511  0.4502 -0.2134
 1565SOL    HW116331   3.400   3.577   7.789 -0.6157  0.0117 -2.5302
 1565SOL    HW216332   3.266   3.599   7.855  0.1680  0.2487  0.5152
 1566SOL     OW16333   3.011   0.262   7.638  0.1160 -0.1570  0.8703
 1566SOL    HW116334   3.029   0.170   7.657 -1.0437  0.0058  2.8407
 1566SOL    HW216335   3.068   0.290   7.567  0.0557 -0.3773  0.7355
 1567SOL     OW16336   4.305   0.536   5.580  0.1498  0.0442 -0.2857
 1567SOL    HW116337   4.284   0.447   5.606  2.3820  0.0335  1.4276
 1567SOL    HW216338   4.312   0.521   5.485  1.7448  0.5563 -0.2492
 1568SOL     OW16339   0.691   2.577   2.770  0.1303 -0.0124 -0.1945
 1568SOL    HW116340   0.776   2.543   2.798 -0.1853 -2.3110 -1.9978
 1568SOL    HW216341   0.641   2.599   2.848 -0.3864 -2.0424  0.0431
 1569SOL     OW16342   1.791   1.117   7.724  0.0487  0.2005 -0.1212
 1569SOL    HW116343   1.782   1.199   7.676  0.3457  1.7054  2.3978
 1569SOL    HW216344   1.851   1.147   7.793 -3.0857  3.6332  1.1001
 1570SOL     OW16345   4.562   4.186   1.459  0.1546  0.3885  0.4662
 1570SOL    HW116346   4.508   4.261   1.483  1.8889  1.7160  0.2691
 1570SOL    HW216347   4.625   4.240   1.411  0.4744 -0.3957  0.0053
 1571SOL     OW16348   1.839   1.643   1.777  0.1247  0.3035  0.4345
 1571SOL    HW116349   1.888   1.604   1.705  0.6917 -0.9690  1.5121
 1571SOL    HW216350   1.880   1.728   1.791  1.0417 -0.5637  3.0623
 1572SOL     OW16351   2.257   1.856   1.453  0.3269  0.2635 -0.0189
 1572SOL    HW116352   2.253   1.834   1.360 -1.4416  1.9154 -0.3127
 1572SOL    HW216353   2.179   1.903   1.482 -1.2676 -0.3775 -3.3060
 1573SOL     OW16354   3.917   2.813  14.611 -0.9564  0.2449 -0.6458
 1573SOL    HW116355   3.940   2.873  14.540  0.6992 -0.2395 -0.5259
 1573SOL    HW216356   3.888   2.882  14.671  2.1895  0.0128  1.1584
 1574SOL     OW16357   2.240   0.804   9.687  0.0127  0.0678 -0.3084
 1574SOL    HW116358   2.273   0.879   9.637 -1.0106  0.1678 -0.8451
 1574SOL    HW216359   2.219   0.848   9.769 -1.4262 -0.8139 -0.1885
 1575SOL     OW16360   2.283   1.265   3.784  0.1929 -0.1261  0.0475
 1575SOL    HW116361   2.371   1.256   3.748  0.0883  1.6052 -0.6451
 1575SOL    HW216362   2.251   1.317   3.710  0.8262 -0.4175 -0.4302
 1576SOL     OW16363   2.628   1.612   0.923 -0.2122 -0.2698  0.1091
 1576SOL    HW116364   2.722   1.621   0.933  0.1668 -0.8587 -2.8239
 1576SOL    HW216365   2.593   1.590   1.009 -2.9527 -0.2590 -0.9939
 1577SOL     OW16366   2.465   2.455   4.835  0.0677 -0.1932  0.1206
 1577SOL    HW116367   2.511   2.385   4.789 -0.3985 -0.9635  0.8332
 1577SOL    HW216368   2.535   2.518   4.850 -0.4234  0.2963  0.3323
 1578SOL     OW16369   2.640   2.650  16.667  0.4317  0.1905  0.1791
 1578SOL    HW116370   2.559   2.700  16.671 -0.1452 -0.8681  1.4117
 1578SOL    HW216371   2.608   2.573  16.620  1.0670 -0.3768  0.6681
 1579SOL     OW16372   1.320   3.337   7.027  0.4551 -0.1725 -0.1038
 1579SOL    HW116373   1.375   3.390   6.969 -0.4859 -0.1128 -0.9281
 1579SOL    HW216374   1.241   3.390   7.035  2.2731  2.6126 -0.3749
 1580SOL     OW16375   2.761   0.917   5.802  0.7147 -0.7349  0.1194
 1580SOL    HW116376   2.761   0.880   5.890  0.2395  0.1108  0.4800
 1580SOL    HW216377   2.720   1.002   5.820  0.3129 -0.5086 -1.8996
 1581SOL     OW16378   4.340   2.035   3.122  0.0770 -0.0104  0.0846
 1581SOL    HW116379   4.318   1.948   3.088 -0.2495  0.3816 -0.7115
 1581SOL    HW216380   4.432   2.021   3.143  0.8142  0.6256 -2.8332
 1582SOL     OW16381   0.834   0.090   7.351  0.2015  0.0599  0.2949
 1582SOL    HW116382   0.779   0.158   7.312 -1.0739 -1.0264  0.1908
 1582SOL    HW216383   0.810   0.097   7.444  0.3071 -0.3301  0.3554
 1583SOL     OW16384   3.360   1.151   4.908 -0.0516 -0.1096  0.4732
 1583SOL    HW116385   3.284   1.110   4.867 -0.0729 -0.3676  0.7816
 1583SOL    HW216386   3.328   1.208   4.978 -3.3308 -0.3521 -0.8173
 1584SOL     OW16387   1.053   2.866   4.955 -0.2004  0.1542 -0.2648
 1584SOL    HW116388   1.006   2.849   5.037  1.4712 -1.4617  0.3512
 1584SOL    HW216389   1.137   2.893   4.993 -0.8089 -0.7792  1.7783
 1585SOL     OW16390   0.733   2.023  15.923  0.2048 -0.2796  0.1101
 1585SOL    HW116391   0.662   1.968  15.891  0.8594 -1.1532  0.1761
 1585SOL    HW216392   0.685   2.075  15.987 -0.8335 -0.5111 -0.4805
 1586SOL     OW16393   2.594   3.303  17.067  0.3489  0.4930 -0.6867
 1586SOL    HW116394   2.559   3.215  17.079 -0.8050  1.2244  1.3786
 1586SOL    HW216395   2.627   3.324  17.154 -1.9210  0.9292  0.0625
 1587SOL     OW16396   0.750   1.623   4.902 -0.7144 -0.4469 -0.3926
 1587SOL    HW116397   0.680   1.628   4.837 -0.3889  0.0358 -0.7016
 1587SOL    HW216398   0.708   1.661   4.979 -0.7662 -0.5239 -0.3818
 1588SOL     OW16399   0.607   2.765   4.271 -0.0174 -0.0076  0.1089
 1588SOL    HW116400   0.661   2.769   4.192 -2.1911  0.8204 -1.3153
 1588SOL    HW216401   0.617   2.858   4.294  2.1708 -0.3725  0.6339
 1589SOL     OW16402   1.800   0.993   1.544 -0.3615 -0.3071 -0.4307
 1589SOL    HW116403   1.840   1.028   1.624 -2.0604 -1.2704  0.8563
 1589SOL    HW216404   1.728   1.050   1.516  0.2905 -0.0545 -1.5936
 1590SOL     OW16405   4.093   3.938   4.251  0.4419  0.0913  0.0895
 1590SOL    HW116406   4.106   4.004   4.319  0.2708 -1.1475  1.3302
 1590SOL    HW216407   4.124   3.859   4.297 -1.2697 -0.2607  0.6311
 1591SOL     OW16408   2.985   1.715  15.952  0.6524  0.0440 -0.2115
 1591SOL    HW116409   2.974   1.767  16.032 -0.2563 -1.5276  0.6914
 1591SOL    HW216410   2.899   1.677  15.933  1.0648  0.0608 -2.0785
 1592SOL     OW16411   4.463   1.260   6.833  0.1915  0.8694  0.5447
 1592SOL    HW116412   4.455   1.173   6.795 -1.1007  0.7105  1.1931
 1592SOL    HW216413   4.524   1.245   6.906  0.0271  4.5596  1.4455
 1593SOL     OW16414   3.656   3.288   0.802 -0.2024  0.1721 -0.2898
 1593SOL    HW116415   3.688   3.198   0.796  1.4737  0.7414  0.0679
 1593SOL    HW216416   3.707   3.313   0.879  1.2810 -1.7309 -0.6478
 1594SOL     OW16417   3.170   0.498  12.673  0.1687 -0.2204  0.4828
 1594SOL    HW116418   3.089   0.516  12.626  2.0964 -1.4084 -3.3790
 1594SOL    HW216419   3.171   0.561  12.745  3.0363 -1.5796  1.6670
 1595SOL     OW16420   0.600   2.574   3.768 -0.5748  0.3501  0.6378
 1595SOL    HW116421   0.530   2.611   3.821 -2.7366 -1.5071 -0.9123
 1595SOL    HW216422   0.633   2.511   3.831 -0.2195  1.3673  1.4627
 1596SOL     OW16423   4.120   0.459  10.344 -0.2489  0.2564 -0.1472
 1596SOL    HW116424   4.055   0.499  10.287 -2.3549 -0.4192  1.7563
 1596SOL    HW216425   4.068   0.389  10.384 -1.5622  2.2832  1.7009
 1597SOL     OW16426   1.186   0.038   3.816 -0.1124 -0.2045  0.1116
 1597SOL    HW116427   1.277   0.011   3.805 -0.3719 -0.6610 -0.8783
 1597SOL    HW216428   1.181   0.111   3.754 -1.2678  0.1206  0.5785
 1598SOL     OW16429   3.338   2.185  12.060 -0.4228 -0.0699 -0.8554
 1598SOL    HW116430   3.391   2.126  12.006  1.3761  0.0191  0.8263
 1598SOL    HW216431   3.400   2.195  12.132  0.0888  3.5947 -1.8381
 1599SOL     OW16432   1.055   2.611   2.617  0.7062  0.5730  0.3103
 1599SOL    HW116433   1.095   2.677   2.560 -1.9813  1.6094 -0.4132
 1599SOL    HW216434   1.022   2.662   2.691  0.9622  0.3470  0.5791
 1600SOL     OW16435   4.290   1.426  14.955  0.2874 -0.0631  0.1367
 1600SOL    HW116436   4.332   1.340  14.949  0.8336  0.2326 -0.2755
 1600SOL    HW216437   4.300   1.449  15.047 -1.1464 -0.5479  0.4224
 1601SOL     OW16438   0.835   3.756   8.231  0.1541  0.0404 -0.2870
 1601SOL    HW116439   0.812   3.721   8.317 -0.0032  0.5660 -0.1128
 1601SOL    HW216440   0.925   3.731   8.212 -0.0247 -0.3272 -0.6495
 1602SOL     OW16441   3.680   2.897   6.951 -0.2205  0.1770  0.1965
 1602SOL    HW116442   3.674   2.811   6.910 -1.1831  0.2898  0.1073
 1602SOL    HW216443   3.616   2.904   7.022 -0.7965  0.4984 -0.3491
 1603SOL     OW16444   4.659   1.588  12.798  0.4774  0.6310 -0.5261
 1603SOL    HW116445   4.689   1.671  12.762  0.7141 -0.3882 -2.6652
 1603SOL    HW216446   4.661   1.528  12.723  0.0561  1.9651 -1.5948
 1604SOL     OW16447   0.218   4.476   8.729 -0.6888 -0.1544  0.5773
 1604SOL    HW116448   0.215   4.553   8.786 -0.0762 -0.1231  0.5683
 1604SOL    HW216449   0.191   4.518   8.648 -1.2391 -0.6306  0.5094
 1605SOL     OW16450   3.202   3.316   7.968 -0.2758  0.2660  0.3055
 1605SOL    HW116451   3.260   3.388   7.942  0.9537 -1.0020 -0.4584
 1605SOL    HW216452   3.271   3.259   8.002  2.7149  2.6021 -1.9140
 1606SOL     OW16453   3.716   2.976   6.433  0.0238  0.3001  0.1411
 1606SOL    HW116454   3.714   3.037   6.507  1.5733  0.1122  0.3471
 1606SOL    HW216455   3.805   2.945   6.452  1.1716  2.4456 -1.7668
 1607SOL     OW16456   4.454   3.136  16.112  0.5323 -0.1522 -0.0188
 1607SOL    HW116457   4.518   3.074  16.147 -2.6028 -2.8920  0.8923
 1607SOL    HW216458   4.436   3.088  16.031  0.6573 -0.7752  0.3236
 1608SOL     OW16459   0.360   0.445   1.976  0.1073 -0.4464  0.6273
 1608SOL    HW116460   0.434   0.448   1.915 -0.6226 -2.4835 -0.3322
 1608SOL    HW216461   0.293   0.410   1.918 -1.8158  1.1935  1.8610
 1609SOL     OW16462   0.257   2.345  16.322  0.0532 -0.7797 -0.3701
 1609SOL    HW116463   0.336   2.293  16.333  1.3579  1.3250  0.2915
 1609SOL    HW216464   0.185   2.296  16.361  0.1802  0.8028  1.8589
 1610SOL     OW16465   1.398   1.744  14.676 -0.7232  0.3044  0.2738
 1610SOL    HW116466   1.338   1.803  14.629 -0.0957 -0.2007 -1.1521
 1610SOL    HW216467   1.433   1.695  14.601  0.1671  2.4582 -0.7251
 1611SOL     OW16468   2.176   0.185   8.585 -0.3405 -0.5485 -0.1526
 1611SOL    HW116469   2.143   0.215   8.500 -2.3390 -1.7774  0.1991
 1611SOL    HW216470   2.262   0.148   8.562 -0.0252  0.2122 -0.1960
 1612SOL     OW16471   4.542   2.278   3.027  0.2693 -0.1480  0.4929
 1612SOL    HW116472   4.493   2.312   3.101 -1.8457 -0.8579 -0.5733
 1612SOL    HW216473   4.563   2.187   3.049 -1.4787 -0.5330  0.6066
 1613SOL     OW16474   2.013   0.230   5.693  0.0028 -0.3898 -0.1404
 1613SOL    HW116475   2.020   0.136   5.711  1.2976 -0.1784  0.4948
 1613SOL    HW216476   1.924   0.242   5.726  0.3888 -1.5001  1.2939
 1614SOL     OW16477   2.324   0.294   4.765  0.0152  0.5962  0.3438
 1614SOL    HW116478   2.392   0.351   4.729 -1.1460  0.9698 -1.2549
 1614SOL    HW216479   2.325   0.225   4.698 -0.2510 -0.6588  1.6416
 1615SOL     OW16480   0.499   3.214  11.308 -0.1428 -0.7305  0.3938
 1615SOL    HW116481   0.433   3.272  11.270  2.9150  2.1555 -0.6053
 1615SOL    HW216482   0.445   3.155  11.360 -0.0444  0.4577  1.8469
 1616SOL     OW16483   1.171   4.062   9.063 -0.0996 -0.3843 -0.1147
 1616SOL    HW116484   1.171   4.141   9.117  0.5755 -0.0292 -0.6258
 1616SOL    HW216485   1.265   4.047   9.053 -0.3756 -0.9327 -1.8348
 1617SOL     OW16486   0.309   3.628   1.682  0.4748  0.1782 -0.1092
 1617SOL    HW116487   0.266   3.645   1.766 -1.7465 -1.8352 -0.8413
 1617SOL    HW216488   0.388   3.679   1.702 -0.5997  1.2476  1.4491
 1618SOL     OW16489   2.985   2.276   6.072 -0.1644  0.0934 -0.3597
 1618SOL    HW116490   3.012   2.352   6.124  0.4362  0.2819 -0.9543
 1618SOL    HW216491   3.044   2.278   5.997 -0.6225  0.5620 -0.7116
 1619SOL     OW16492   0.833   3.011   8.711 -0.2229 -0.1040  0.0758
 1619SOL    HW116493   0.921   3.048   8.703 -0.9727  1.8459  0.7999
 1619SOL    HW216494   0.776   3.086   8.727 -0.6955 -0.4360 -0.0379
 1620SOL     OW16495   0.091   2.811   4.941 -0.0174  0.4558  0.1428
 1620SOL    HW116496   0.137   2.830   5.023 -0.3701 -1.3891  0.7837
 1620SOL    HW216497   0.087   2.716   4.953 -2.2109  0.6983  1.2215
 1621SOL     OW16498   4.069   0.094   9.480  0.2211 -0.3755  0.3455
 1621SOL    HW116499   4.109   0.096   9.393  1.3245 -1.1897  0.8379
 1621SOL    HW216500   4.110   0.171   9.521  1.3747 -1.3033  0.9416
 1622SOL     OW16501   4.642   1.827   3.356  0.3943  0.6184 -0.0268
 1622SOL    HW116502   4.666   1.769   3.428  0.0307 -0.9819 -1.1927
 1622SOL    HW216503   4.624   1.767   3.283  1.2350  0.0248  0.2589
 1623SOL     OW16504   4.558   0.780  16.964 -0.2836  0.2789  0.3406
 1623SOL    HW116505   4.613   0.750  17.036  0.3843  0.0755 -0.2537
 1623SOL    HW216506   4.483   0.824  17.004 -0.3456  0.5934 -0.1237
 1624SOL     OW16507   3.246   0.308   6.451 -0.2482  0.5878 -0.6820
 1624SOL    HW116508   3.181   0.302   6.521  2.6854 -1.0904  1.9291
 1624SOL    HW216509   3.267   0.215   6.464 -1.8675  0.3969  0.6690
 1625SOL     OW16510   3.138   0.876   6.503 -0.2216 -0.3011  0.2223
 1625SOL    HW116511   3.103   0.939   6.566  0.1829 -1.3115  1.4430
 1625SOL    HW216512   3.095   0.793   6.525 -2.6646  0.9533  0.2004
 1626SOL     OW16513   0.023   2.466   3.926 -1.0508  0.5566 -0.6490
 1626SOL    HW116514   0.014   2.390   3.869  1.2232 -0.1122 -0.1308
 1626SOL    HW216515   4.705   2.433   3.994  0.9329 -1.2622  0.1757
 1627SOL     OW16516   1.343   0.155   6.499  0.2996  0.0704 -0.0715
 1627SOL    HW116517   1.259   0.185   6.532  1.0069 -0.8375  2.5526
 1627SOL    HW216518   1.372   0.239   6.462 -1.1067  0.2750 -0.6961
 1628SOL     OW16519   0.259   0.439   4.596 -0.7866 -0.4278  0.2085
 1628SOL    HW116520   0.326   0.403   4.654 -0.3897  1.0611  0.6789
 1628SOL    HW216521   0.315   0.465   4.523 -0.5759 -1.1873  0.1062
 1629SOL     OW16522   2.553   4.145   6.510 -0.0677  0.2492  0.8004
 1629SOL    HW116523   2.637   4.148   6.555 -0.6840  2.7012  1.7991
 1629SOL    HW216524   2.495   4.136   6.586 -0.3853 -0.5855  0.4634
 1630SOL     OW16525   3.911   1.676  11.336  0.1183 -0.0570 -0.1979
 1630SOL    HW116526   3.855   1.643  11.266  0.9196  0.5453 -1.1323
 1630SOL    HW216527   3.838   1.710  11.388  0.4116 -0.9080  0.7622
 1631SOL     OW16528   2.718   4.104  16.777 -0.2658 -0.0947  0.3415
 1631SOL    HW116529   2.678   4.148  16.853  0.6316  2.3777 -0.6302
 1631SOL    HW216530   2.783   4.057  16.829 -0.9470 -0.0498  1.2475
 1632SOL     OW16531   0.512   4.501  15.523 -0.5387 -0.3001  0.1858
 1632SOL    HW116532   0.421   4.521  15.502 -0.4501  0.6727  0.7592
 1632SOL    HW216533   0.495   4.435  15.590  0.3706  0.1001  0.8078
 1633SOL     OW16534   0.226   3.009   1.582 -0.0122  0.6717 -0.1045
 1633SOL    HW116535   0.299   3.070   1.573  0.5612  0.2762  1.7115
 1633SOL    HW216536   0.242   2.937   1.522 -1.5625  0.2670 -0.0512
 1634SOL     OW16537   3.549   4.259   2.305 -0.2690 -0.6072  0.1037
 1634SOL    HW116538   3.638   4.225   2.293 -0.2230 -0.7348  0.8210
 1634SOL    HW216539   3.548   4.255   2.400  1.7329 -0.1870  0.1292
 1635SOL     OW16540   0.652   2.632   7.212  0.5110 -0.3736 -0.1361
 1635SOL    HW116541   0.739   2.645   7.174 -0.6227  1.6362 -2.0694
 1635SOL    HW216542   0.605   2.713   7.192  0.2300 -0.0023  2.0694
 1636SOL     OW16543   3.734   0.243   5.212 -0.1172  0.0749  0.2001
 1636SOL    HW116544   3.820   0.278   5.236 -0.2746  0.8815 -0.4259
 1636SOL    HW216545   3.737   0.159   5.258 -1.1093 -0.1440 -0.1465
 1637SOL     OW16546   4.384   3.727   6.346 -0.3057 -0.0628 -0.9738
 1637SOL    HW116547   4.368   3.821   6.337 -1.4284 -0.5131 -3.7670
 1637SOL    HW216548   4.478   3.723   6.327  0.0493  0.1915  0.7879
 1638SOL     OW16549   4.050   4.518   4.518  0.7120  0.2362  0.1458
 1638SOL    HW116550   4.020   4.494   4.605  1.5122 -0.4719  0.2202
 1638SOL    HW216551   3.981   4.579   4.491  0.9942  0.3369 -0.3458
 1639SOL     OW16552   1.301   0.028   4.638 -0.6608 -0.1889 -0.2489
 1639SOL    HW116553   1.388   0.058   4.665 -0.2322 -1.7715  0.1091
 1639SOL    HW216554   1.328   4.721   4.559  0.8416  2.8797 -1.5419
 1640SOL     OW16555   4.511   3.989   3.640  0.4123 -0.0427  0.2085
 1640SOL    HW116556   4.554   3.982   3.555  0.0397  0.0412  0.0116
 1640SOL    HW216557   4.583   4.031   3.688 -0.4965  1.5329  0.2029
 1641SOL     OW16558   1.813   0.825   3.776  0.1163  0.3759 -0.1032
 1641SOL    HW116559   1.789   0.814   3.684  1.7604 -0.0410 -0.4822
 1641SOL    HW216560   1.905   0.798   3.771  0.2334  0.5120  1.5061
 1642SOL     OW16561   1.563   1.393  13.500  0.7856 -0.2582  0.1680
 1642SOL    HW116562   1.631   1.449  13.537  1.9989 -1.2384 -0.5796
 1642SOL    HW216563   1.554   1.342  13.580  2.2678  1.3505  1.3657
 1643SOL     OW16564   2.136   1.602   6.691  0.2495  0.6513 -0.2330
 1643SOL    HW116565   2.220   1.643   6.673  1.1750 -0.8354  0.7758
 1643SOL    HW216566   2.095   1.659   6.756  0.1856 -0.9325  1.1321
 1644SOL     OW16567   1.140   4.289   0.640 -0.4560  0.0247  0.3505
 1644SOL    HW116568   1.147   4.317   0.549 -0.4068  0.6274  0.5412
 1644SOL    HW216569   1.173   4.369   0.682  1.2673  0.2733 -1.4952
 1645SOL     OW16570   2.983   3.480   4.037 -0.1086  0.5505 -0.5235
 1645SOL    HW116571   3.078   3.469   4.030 -0.2863 -1.4792  0.1669
 1645SOL    HW216572   2.980   3.442   4.125  1.2285 -1.2585 -1.2524
 1646SOL     OW16573   4.435   1.311   6.074 -0.4298  0.3132 -0.6459
 1646SOL    HW116574   4.491   1.358   6.013 -0.8947 -0.4949 -1.7016
 1646SOL    HW216575   4.477   1.225   6.082 -0.9378  0.1840  0.6724
 1647SOL     OW16576   4.238   4.286   3.139  0.0990  0.1143  0.0712
 1647SOL    HW116577   4.160   4.336   3.162 -0.0374  0.3826 -0.9609
 1647SOL    HW216578   4.240   4.306   3.045 -0.0749 -1.5259 -0.2745
 1648SOL     OW16579   2.871   3.314  13.639  0.6675  0.6519 -0.6490
 1648SOL    HW116580   2.841   3.240  13.587 -0.1138 -0.9048  2.0012
 1648SOL    HW216581   2.931   3.264  13.695 -0.3629  1.0667  0.8349
 1649SOL     OW16582   2.788   0.242   9.169  0.8454  0.1420 -0.7292
 1649SOL    HW116583   2.713   0.294   9.200  1.2435  0.6011 -0.5221
 1649SOL    HW216584   2.811   0.209   9.256  0.6195  3.2345  0.5160
 1650SOL     OW16585   1.163   2.259   3.755 -0.2314  0.4045 -0.3526
 1650SOL    HW116586   1.073   2.250   3.787 -0.0021 -2.9835 -0.6616
 1650SOL    HW216587   1.156   2.338   3.701 -0.0232  1.0632  0.5946
 1651SOL     OW16588   2.651   4.233   3.009 -0.0514 -0.2212 -0.1080
 1651SOL    HW116589   2.682   4.206   2.923 -1.3810 -1.1315 -0.3134
 1651SOL    HW216590   2.741   4.234   3.041 -0.1150  1.5572 -0.0073
 1652SOL     OW16591   3.103   2.302  15.224  0.0370  0.3505 -0.2305
 1652SOL    HW116592   3.132   2.221  15.267 -0.2324 -0.5237 -1.6964
 1652SOL    HW216593   3.141   2.362  15.289  0.9523 -1.8662  1.2735
 1653SOL     OW16594   0.123   3.743   1.864  0.4206 -0.7981 -0.1504
 1653SOL    HW116595   0.078   3.751   1.780 -0.7224  2.7853  0.8145
 1653SOL    HW216596   0.066   3.690   1.919  0.8825 -0.0428  1.0598
 1654SOL     OW16597   3.042   0.189   2.830  0.2166 -0.2090  0.7137
 1654SOL    HW116598   2.953   0.222   2.833  0.3654  0.3018 -0.6283
 1654SOL    HW216599   3.071   0.194   2.739  0.9874 -0.7120  0.9309
 1655SOL     OW16600   2.258   0.546   2.679  0.1315 -0.5647  0.6323
 1655SOL    HW116601   2.208   0.621   2.646 -0.3092 -1.6469 -1.1624
 1655SOL    HW216602   2.324   0.592   2.731 -0.8424 -1.9550  3.0729
 1656SOL     OW16603   3.290   2.637   4.076  0.3177 -0.2007  0.3877
 1656SOL    HW116604   3.329   2.723   4.090 -1.7211  0.8182 -0.2490
 1656SOL    HW216605   3.369   2.584   4.067  1.3229  1.6902 -2.0880
 1657SOL     OW16606   0.314   1.991  16.200 -0.1273  0.5642 -0.0523
 1657SOL    HW116607   0.338   2.064  16.142  0.8252 -0.6822 -1.2136
 1657SOL    HW216608   0.338   2.023  16.287 -1.2386 -1.7837  1.1050
 1658SOL     OW16609   3.076   0.723   8.020  0.3269 -0.3733 -0.1711
 1658SOL    HW116610   3.161   0.730   8.063  0.2888  2.1097 -0.5162
 1658SOL    HW216611   3.039   0.643   8.057 -0.1154  1.0058  2.4199
 1659SOL     OW16612   0.811   3.327   4.012 -0.5649  0.1742 -0.3308
 1659SOL    HW116613   0.855   3.337   3.927 -1.0310  0.0456 -0.5868
 1659SOL    HW216614   0.860   3.251   4.043  0.4282  1.6166  1.6655
 1660SOL     OW16615   0.517   1.897   3.782  0.0382 -0.9731  0.0079
 1660SOL    HW116616   0.580   1.912   3.853 -0.3096 -1.0446  0.3335
 1660SOL    HW216617   0.511   1.802   3.774 -0.2164 -0.8255 -1.6873
 1661SOL     OW16618   2.462   1.644  13.525 -0.3475  0.7788 -0.0242
 1661SOL    HW116619   2.456   1.567  13.582  1.4682  0.5677 -0.1086
 1661SOL    HW216620   2.424   1.710  13.583  1.3651  0.7829  1.1040
 1662SOL     OW16621   1.723   0.597   1.143 -0.3083  0.1595 -0.4443
 1662SOL    HW116622   1.747   0.559   1.228 -3.9278  1.9270  1.3897
 1662SOL    HW216623   1.730   0.690   1.166  2.1184 -0.0045 -0.5590
 1663SOL     OW16624   1.520   3.550   1.620 -0.3675 -0.5882  0.2234
 1663SOL    HW116625   1.594   3.544   1.681 -0.5235  0.8423  0.5433
 1663SOL    HW216626   1.542   3.634   1.580  0.9156 -0.7745  0.5363
 1664SOL     OW16627   1.396   4.194   4.832  0.4171  0.2982 -0.2144
 1664SOL    HW116628   1.344   4.237   4.900  1.5492  1.8134 -0.3278
 1664SOL    HW216629   1.467   4.162   4.888 -0.2105 -1.4408 -0.3892
 1665SOL     OW16630   4.510   3.365   5.436  0.7109  0.5444 -0.0170
 1665SOL    HW116631   4.585   3.328   5.391  0.4832 -2.2515  1.8539
 1665SOL    HW216632   4.496   3.299   5.504 -1.8537  1.5872  0.4924
 1666SOL     OW16633   0.333   3.505   2.308  0.0171 -0.0443  0.4677
 1666SOL    HW116634   0.273   3.432   2.293  0.0941  0.0436 -0.2782
 1666SOL    HW216635   0.350   3.523   2.215 -2.2003 -0.1964  0.0345
 1667SOL     OW16636   4.656   3.274   6.628  0.0385 -0.0902 -0.4438
 1667SOL    HW116637   4.689   3.230   6.549 -0.0382  1.0023 -1.1023
 1667SOL    HW216638   4.708   3.355   6.620 -1.9060  1.2526  0.4590
 1668SOL     OW16639   2.045   1.713   6.010  0.0640 -0.0576 -0.7717
 1668SOL    HW116640   1.957   1.729   5.976  0.7119  1.8227 -1.5407
 1668SOL    HW216641   2.018   1.634   6.057 -4.4763  1.5613 -0.6091
 1669SOL     OW16642   2.002   4.348  13.276 -0.1877  0.1031 -0.0226
 1669SOL    HW116643   1.993   4.280  13.343 -1.2750 -0.2019 -0.4800
 1669SOL    HW216644   1.981   4.423  13.333  0.2759  0.3982 -0.2384
 1670SOL     OW16645   3.389   3.884   4.349  0.0137 -0.2137 -0.0313
 1670SOL    HW116646   3.376   3.847   4.437  3.1417  2.5399  1.5755
 1670SOL    HW216647   3.463   3.942   4.364  0.4460 -0.7540 -0.1179
 1671SOL     OW16648   2.399   3.039   7.215  0.0801 -0.9032  0.3569
 1671SOL    HW116649   2.398   3.111   7.152  0.0952 -1.1601  0.0638
 1671SOL    HW216650   2.305   3.036   7.231  0.0839  0.6184  0.7106
 1672SOL     OW16651   3.273   2.662   5.672 -0.3097 -0.1655 -0.2454
 1672SOL    HW116652   3.337   2.662   5.601  2.1737  1.7210  2.0166
 1672SOL    HW216653   3.314   2.718   5.737  0.9910 -0.0814 -1.1438
 1673SOL     OW16654   0.296   2.472   1.494 -0.5979 -0.2432  0.3189
 1673SOL    HW116655   0.367   2.412   1.518  1.1356  1.3174 -0.9106
 1673SOL    HW216656   0.278   2.463   1.400 -1.5745 -1.7804  0.6389
 1674SOL     OW16657   2.998   3.507  15.355  0.0865 -0.2558 -0.8256
 1674SOL    HW116658   2.925   3.556  15.393  0.3253 -1.0246  0.6136
 1674SOL    HW216659   3.058   3.519  15.429 -2.7312  0.4582  1.3237
 1675SOL     OW16660   1.059   2.900   8.011  0.1099  0.9766 -0.3478
 1675SOL    HW116661   1.027   2.821   8.055 -1.2979  1.9144  0.3158
 1675SOL    HW216662   1.153   2.887   8.019  0.0586 -0.2153 -1.6132
 1676SOL     OW16663   4.200   4.460   9.236  0.1256  0.4934  0.3431
 1676SOL    HW116664   4.118   4.467   9.186 -0.2125 -0.3123  0.7779
 1676SOL    HW216665   4.207   4.367   9.257 -0.7802  0.5649  0.9704
 1677SOL     OW16666   3.975   3.398  14.000 -0.1480  0.8218  0.0595
 1677SOL    HW116667   3.885   3.425  14.019 -0.5516  0.5911 -1.5272
 1677SOL    HW216668   3.984   3.413  13.906  3.3742  0.2644  0.3066
 1678SOL     OW16669   1.748   3.829   1.840 -0.5068 -0.3135  0.3221
 1678SOL    HW116670   1.781   3.916   1.817 -3.6197  0.5346 -0.8115
 1678SOL    HW216671   1.682   3.851   1.906  0.0525  0.3941  0.6539
 1679SOL     OW16672   0.358   2.390  12.819  0.0709  0.6172  0.3697
 1679SOL    HW116673   0.344   2.484  12.806  1.3428  1.0318  1.9688
 1679SOL    HW216674   0.425   2.395  12.887 -0.1249  2.7195  0.4329
 1680SOL     OW16675   2.931   0.711  17.654 -0.5358 -0.2756 -0.1929
 1680SOL    HW116676   2.865   0.695  17.722 -2.1315  4.2562 -0.6615
 1680SOL    HW216677   2.913   0.656  17.577 -2.7283  1.0992 -0.6609
 1681SOL     OW16678   0.366   0.991   5.872 -0.6386 -0.2722  0.0265
 1681SOL    HW116679   0.308   1.030   5.807 -0.6580 -1.4719 -0.6733
 1681SOL    HW216680   0.308   0.991   5.948  0.3654 -1.3563  0.7970
 1682SOL     OW16681   3.697   1.298   4.038  0.1610  0.1209 -0.1149
 1682SOL    HW116682   3.734   1.368   4.093  1.0485 -1.0142  0.7526
 1682SOL    HW216683   3.679   1.232   4.105 -0.4706 -0.0484 -0.4592
 1683SOL     OW16684   0.098   4.321   6.988 -0.0813 -0.0187  0.2592
 1683SOL    HW116685   0.039   4.262   7.035  0.4192 -0.3954  0.4109
 1683SOL    HW216686   0.039   4.387   6.951  2.6270  3.0386  1.3331
 1684SOL     OW16687   1.179   0.181   5.984  0.6766 -0.1815 -0.5320
 1684SOL    HW116688   1.220   0.100   5.953 -0.2130 -0.2447 -1.5576
 1684SOL    HW216689   1.148   0.223   5.903 -1.1038  0.0973  0.3066
 1685SOL     OW16690   0.755   3.860   4.950  0.4521  0.1575  0.0249
 1685SOL    HW116691   0.783   3.904   4.870 -0.2921 -0.2147 -0.4340
 1685SOL    HW216692   0.705   3.926   4.998  2.3064  0.9502  0.8683
 1686SOL     OW16693   3.850   1.558   9.763  0.0834 -0.0226 -0.3111
 1686SOL    HW116694   3.833   1.633   9.819  0.3955 -1.5109  1.7519
 1686SOL    HW216695   3.765   1.514   9.764  0.9783 -1.7482 -0.4558
 1687SOL     OW16696   3.476   3.142   6.987 -0.1176 -0.3593 -0.4033
 1687SOL    HW116697   3.522   3.198   7.050  0.5509 -1.8563  0.4216
 1687SOL    HW216698   3.500   3.185   6.905  0.3037 -1.5111 -0.8722
 1688SOL     OW16699   2.583   3.474   1.166  0.3206 -0.4276  0.6564
 1688SOL    HW116700   2.576   3.459   1.260 -1.1059 -1.5913  0.3701
 1688SOL    HW216701   2.537   3.396   1.133 -1.5615  1.4549 -1.1825
 1689SOL     OW16702   2.420   2.809  13.571 -0.1292 -0.2182  0.5316
 1689SOL    HW116703   2.459   2.775  13.652  1.1717 -1.5593 -0.6361
 1689SOL    HW216704   2.338   2.761  13.561 -0.3181 -0.1400  1.7040
 1690SOL     OW16705   3.342   4.001   4.664 -1.0241  0.3115 -0.1871
 1690SOL    HW116706   3.397   3.923   4.662 -0.4181  0.6892  1.3409
 1690SOL    HW216707   3.258   3.978   4.625 -1.4582  1.1097  0.2815
 1691SOL     OW16708   2.023   1.508   8.992  0.7582  0.3192  0.4442
 1691SOL    HW116709   2.076   1.468   9.061  1.7953  1.7824  0.5051
 1691SOL    HW216710   1.936   1.515   9.029  0.8732 -0.6228  0.8983
 1692SOL     OW16711   0.942   0.025   5.384 -0.2934 -0.2526  0.4660
 1692SOL    HW116712   0.922   4.720   5.466  0.9113 -1.0381  0.3099
 1692SOL    HW216713   1.022   4.721   5.357  0.1567  1.9879 -1.8449
 1693SOL     OW16714   4.474   2.566  15.870 -0.6565 -0.3248  0.0452
 1693SOL    HW116715   4.522   2.502  15.817 -1.7625 -0.1019 -1.2362
 1693SOL    HW216716   4.456   2.645  15.819 -3.7005 -1.6373 -0.9474
 1694SOL     OW16717   3.172   0.495   7.498 -0.5615  0.3231 -0.5744
 1694SOL    HW116718   3.247   0.455   7.542 -0.6457 -0.5462 -1.2258
 1694SOL    HW216719   3.211   0.511   7.412 -2.6968 -0.3045 -1.6674
 1695SOL     OW16720   1.985   0.851   9.502  0.4186  0.6994  0.1690
 1695SOL    HW116721   1.945   0.793   9.566  1.7714 -0.0634  0.3114
 1695SOL    HW216722   1.989   0.935   9.548 -1.9863  0.6141  0.5410
 1696SOL     OW16723   0.722   1.015   2.706  0.3309  0.3521  0.1807
 1696SOL    HW116724   0.788   1.040   2.641  0.9727  0.6107  0.9271
 1696SOL    HW216725   0.740   1.089   2.764  1.6047 -0.6003  1.0095
 1697SOL     OW16726   1.297   2.918   7.754  0.7868 -0.0316  0.0961
 1697SOL    HW116727   1.300   2.856   7.826  2.4947 -1.9639 -1.6420
 1697SOL    HW216728   1.391   2.917   7.738  1.0675  0.5084  1.7369
 1698SOL     OW16729   2.529   1.921  13.628 -0.4850  0.4570  0.6049
 1698SOL    HW116730   2.440   1.904  13.657 -0.7027 -0.7075 -0.7254
 1698SOL    HW216731   2.573   1.872  13.697  0.7806 -0.2558 -0.6923
 1699SOL     OW16732   2.252   3.841   4.475  0.3561  0.5995  0.2723
 1699SOL    HW116733   2.342   3.869   4.459 -0.8778  3.0829 -2.4531
 1699SOL    HW216734   2.275   3.759   4.518  1.6392  0.3998 -0.7925
 1700SOL     OW16735   3.405   2.589  14.138  0.2942 -0.1772  0.0610
 1700SOL    HW116736   3.342   2.591  14.066 -0.1716 -0.1011  0.4674
 1700SOL    HW216737   3.362   2.663  14.180  3.4692  1.5465  0.2193
 1701SOL     OW16738   0.038   1.719   9.413  0.4332 -0.3944  0.3541
 1701SOL    HW116739   4.739   1.760   9.489 -0.3238 -0.7142  0.1394
 1701SOL    HW216740   0.128   1.688   9.428  1.6866  1.5127 -3.0611
 1702SOL     OW16741   1.881   3.224   0.102 -0.4491 -0.3233 -0.1483
 1702SOL    HW116742   1.976   3.233   0.090 -0.6736  2.3423  0.1955
 1702SOL    HW216743   1.883   3.139   0.147 -0.4727 -0.7794 -1.0004
 1703SOL     OW16744   3.204   2.239  11.742  0.5539 -0.0334 -0.4450
 1703SOL    HW116745   3.293   2.271  11.729  0.3978  0.4495 -0.3202
 1703SOL    HW216746   3.161   2.294  11.808  0.7396  1.7615 -1.8270
 1704SOL     OW16747   3.464   0.494   6.259 -0.0607 -0.6699 -0.0265
 1704SOL    HW116748   3.414   0.554   6.314 -0.2468  0.7397 -1.7526
 1704SOL    HW216749   3.501   0.435   6.324 -1.1234 -1.5565 -0.2203
 1705SOL     OW16750   0.112   3.786  16.960  0.5346 -0.4584  0.1654
 1705SOL    HW116751   0.181   3.810  16.898  1.2220 -0.3214  0.9918
 1705SOL    HW216752   0.031   3.784  16.910  2.1771  0.3185 -2.5561
 1706SOL     OW16753   1.072   2.162   6.065  0.1495  0.4516 -0.1512
 1706SOL    HW116754   1.071   2.222   6.140 -1.6194 -0.9453  0.9351
 1706SOL    HW216755   1.163   2.133   6.076  0.2815  0.4650 -1.2559
 1707SOL     OW16756   3.795   3.794  12.366  0.3057  0.3118  0.1355
 1707SOL    HW116757   3.829   3.784  12.455 -2.1565 -0.4616  0.9925
 1707SOL    HW216758   3.765   3.703  12.356  0.9095  0.2042 -0.6705
 1708SOL     OW16759   3.034   0.121  10.795 -0.6969 -0.0749  0.2392
 1708SOL    HW116760   3.045   0.028  10.815 -1.7122 -0.8723 -2.9996
 1708SOL    HW216761   2.950   0.129  10.750 -0.8169 -1.9569  0.1303
 1709SOL     OW16762   0.622   2.359   7.277 -0.1432 -0.0778  0.1170
 1709SOL    HW116763   0.714   2.372   7.301 -0.4507  1.8506  0.1918
 1709SOL    HW216764   0.583   2.442   7.252 -2.2712 -0.7073  1.3665
 1710SOL     OW16765   3.677   1.281   3.252 -0.0937  0.3932  0.2446
 1710SOL    HW116766   3.711   1.367   3.273 -0.7802  0.0060  2.8978
 1710SOL    HW216767   3.756   1.227   3.245 -0.9740 -0.7156 -1.2314
 1711SOL     OW16768   0.425   0.970  10.769  0.0788  0.6237  0.1844
 1711SOL    HW116769   0.437   0.984  10.863  2.3281 -0.3028  0.0406
 1711SOL    HW216770   0.455   0.881  10.754 -0.0692  0.5538  0.3053
 1712SOL     OW16771   4.026   2.954  12.480 -0.0477 -0.4215 -0.3045
 1712SOL    HW116772   3.977   2.877  12.509 -0.9515  1.0100  1.9268
 1712SOL    HW216773   3.973   3.029  12.505  1.0579  0.4169 -0.4642
 1713SOL     OW16774   3.685   2.097   3.900 -0.2673  0.5637 -0.8233
 1713SOL    HW116775   3.727   2.017   3.930 -0.6397  0.4373 -0.6341
 1713SOL    HW216776   3.694   2.148   3.981  1.8847 -1.6953  0.3319
 1714SOL     OW16777   4.428   2.709   1.159 -0.4670  0.1674  0.1990
 1714SOL    HW116778   4.515   2.716   1.199 -0.6246 -1.3912  0.8159
 1714SOL    HW216779   4.456   2.692   1.069 -0.3173 -1.0317  0.4590
 1715SOL     OW16780   1.390   3.091  17.175 -0.2701  0.5207 -0.0659
 1715SOL    HW116781   1.373   3.185  17.166  0.4607  0.5727 -0.9741
 1715SOL    HW216782   1.478   3.073  17.142 -0.9091 -1.1642 -0.8367
 1716SOL     OW16783   2.140   4.119   6.659 -0.4720  0.2779 -1.0138
 1716SOL    HW116784   2.087   4.165   6.724 -0.3353 -1.3541  0.2593
 1716SOL    HW216785   2.086   4.122   6.580 -1.7510  0.9472 -0.1003
 1717SOL     OW16786   0.088   2.037   6.940 -0.4771  0.4125 -0.4523
 1717SOL    HW116787   0.007   1.993   6.966 -0.6773  1.1473  0.1579
 1717SOL    HW216788   0.055   2.106   6.883  2.4224 -0.5251 -3.2756
 1718SOL     OW16789   1.863   1.893   9.066  0.0761  0.2908  0.2202
 1718SOL    HW116790   1.779   1.927   9.034 -0.0973 -0.2515  0.1080
 1718SOL    HW216791   1.894   1.874   8.978  1.1569 -0.2038  0.7098
 1719SOL     OW16792   4.551   3.944   7.764  0.5391 -0.0833  0.7837
 1719SOL    HW116793   4.517   4.009   7.825  2.7845  1.4574  0.4048
 1719SOL    HW216794   4.605   4.003   7.711 -0.7675 -1.3226 -1.9257
 1720SOL     OW16795   3.270   0.262   1.662 -0.1203 -0.2776  0.1665
 1720SOL    HW116796   3.296   0.308   1.741 -2.3111 -0.3540  0.9349
 1720SOL    HW216797   3.281   0.169   1.680  0.6410  0.0367  1.3131
 1721SOL     OW16798   1.395   2.238   1.950  0.4803  0.1643 -0.4826
 1721SOL    HW116799   1.407   2.333   1.955 -0.6767  0.4115 -2.2106
 1721SOL    HW216800   1.301   2.232   1.962  0.4869  0.9530 -0.0570
 1722SOL     OW16801   1.409   0.576  14.478 -1.0028 -0.1043 -0.1140
 1722SOL    HW116802   1.501   0.556  14.460  0.1438  0.8334  4.9398
 1722SOL    HW216803   1.392   0.625  14.397  0.6111  2.5763  1.1478
 1723SOL     OW16804   0.231   2.428   2.017  0.1705 -0.0447  0.0314
 1723SOL    HW116805   0.139   2.441   2.041 -0.4026 -0.6354 -1.8646
 1723SOL    HW216806   0.262   2.519   2.019  1.0391 -0.3406 -0.3649
 1724SOL     OW16807   1.119   3.273   9.986 -0.0333  0.2333 -0.0910
 1724SOL    HW116808   1.139   3.258   9.894 -0.1398 -0.9773  0.0869
 1724SOL    HW216809   1.059   3.201  10.004 -0.7371  1.2265  1.5758
 1725SOL     OW16810   2.096   3.122   5.713  0.1605 -0.0467  0.1518
 1725SOL    HW116811   2.039   3.197   5.726  2.0724  1.1728  1.6085
 1725SOL    HW216812   2.031   3.054   5.695  0.9882 -1.4608  2.5730
 1726SOL     OW16813   2.418   1.963   2.648 -0.0201  0.2936 -0.2109
 1726SOL    HW116814   2.410   2.042   2.594 -3.0465  0.4820  0.5228
 1726SOL    HW216815   2.349   1.911   2.607 -0.7649  2.5904 -1.8686
 1727SOL     OW16816   3.164   3.138   4.882  0.3371  0.1144 -0.0628
 1727SOL    HW116817   3.157   3.204   4.813 -0.1437 -1.3565 -1.4199
 1727SOL    HW216818   3.233   3.187   4.926 -0.1804  0.4175  0.4065
 1728SOL     OW16819   0.602   3.933  12.506  0.2056  0.1904  0.0346
 1728SOL    HW116820   0.626   4.025  12.495  0.8061  0.2116  1.5705
 1728SOL    HW216821   0.522   3.946  12.556  0.9902  0.1676  1.2852
 1729SOL     OW16822   0.820   2.314   0.587  0.2468 -0.6419  0.2387
 1729SOL    HW116823   0.908   2.288   0.562 -0.0503 -1.9863  0.5593
 1729SOL    HW216824   0.832   2.400   0.546 -1.3890 -0.5770 -0.1427
 1730SOL     OW16825   3.472   2.649  15.662 -0.2570  0.2045  0.0864
 1730SOL    HW116826   3.383   2.682  15.674  0.0142 -0.8396  5.0820
 1730SOL    HW216827   3.514   2.697  15.734 -0.2004 -2.6925  1.9527
 1731SOL     OW16828   3.210   2.819  14.486  0.4135  0.1077 -0.3223
 1731SOL    HW116829   3.191   2.833  14.579  0.5888  3.1188 -0.7282
 1731SOL    HW216830   3.224   2.725  14.475 -0.6114 -0.1078  0.2028
 1732SOL     OW16831   3.222   3.790  17.521 -0.1291 -0.0753  0.5824
 1732SOL    HW116832   3.131   3.759  17.525 -0.0049 -0.2030  2.6675
 1732SOL    HW216833   3.208   3.873  17.477  0.6404  0.5191  1.4592
 1733SOL     OW16834   1.950   4.288  15.648  0.7316  0.3180  0.1966
 1733SOL    HW116835   1.983   4.372  15.614 -1.2410  0.4705 -1.3119
 1733SOL    HW216836   1.981   4.217  15.591 -0.9830 -0.4325  0.2029
 1734SOL     OW16837   0.050   0.590   8.966  0.2351  0.2891 -0.0186
 1734SOL    HW116838   0.110   0.531   9.012 -1.0342 -0.3538  0.8319
 1734SOL    HW216839   0.102   0.669   8.952 -0.4599  1.0765  1.7830
 1735SOL     OW16840   0.195   1.568   2.375 -0.0055 -0.1030 -0.4595
 1735SOL    HW116841   0.171   1.504   2.442  1.1302  0.5667  0.6019
 1735SOL    HW216842   0.217   1.510   2.302  1.1840 -0.6530  0.3424
 1736SOL     OW16843   1.809   2.453   8.213  0.2396  0.5470  0.0344
 1736SOL    HW116844   1.898   2.441   8.181 -0.1790 -0.9684 -0.5316
 1736SOL    HW216845   1.807   2.384   8.279  1.0587  0.0579 -0.4539
 1737SOL     OW16846   4.009   3.632   8.888  0.5971  1.0553  0.2440
 1737SOL    HW116847   3.946   3.677   8.833 -0.9721 -1.5633 -0.1093
 1737SOL    HW216848   4.004   3.541   8.859  0.2560  0.4949  2.0436
 1738SOL     OW16849   4.215   4.082   3.886 -0.1249 -0.1847 -0.0677
 1738SOL    HW116850   4.172   4.132   3.955 -0.3227 -0.1815 -0.1920
 1738SOL    HW216851   4.262   4.150   3.837 -2.3585  0.2232 -1.6741
 1739SOL     OW16852   4.125   0.526   5.063  0.3794 -0.8213 -0.4520
 1739SOL    HW116853   4.034   0.503   5.045 -0.4144 -0.3696  2.9758
 1739SOL    HW216854   4.166   0.451   5.020 -0.8606 -1.0297 -1.2891
 1740SOL     OW16855   4.209   3.315  17.614  0.2412 -0.4012 -0.0507
 1740SOL    HW116856   4.202   3.231  17.569  0.3610  0.9532 -2.6527
 1740SOL    HW216857   4.268   3.358  17.551  1.8536 -1.0304  1.0420
 1741SOL     OW16858   4.510   4.249   2.118 -0.0154 -0.7410 -0.0002
 1741SOL    HW116859   4.477   4.286   2.200 -0.9493 -2.0158  0.2067
 1741SOL    HW216860   4.551   4.320   2.070 -0.7627 -0.2608  0.0633
 1742SOL     OW16861   0.029   1.220  17.416  0.0123 -0.1565 -0.1471
 1742SOL    HW116862   0.062   1.274  17.489  1.8882 -1.9214  0.3254
 1742SOL    HW216863   4.688   1.191  17.457  0.7551  1.7117  2.6641
 1743SOL     OW16864   3.292   2.927   1.927 -0.0054 -0.3232  0.1351
 1743SOL    HW116865   3.311   2.867   1.999  0.7148 -0.6935 -0.3657
 1743SOL    HW216866   3.294   3.012   1.971 -0.5869 -0.2720  0.0614
 1744SOL     OW16867   3.711   0.019  10.624 -0.2070  0.2302 -0.3032
 1744SOL    HW116868   3.641   4.731  10.684  0.1022  1.1824  0.5135
 1744SOL    HW216869   3.680   4.720  10.543  2.6018 -0.9466 -0.7906
 1745SOL     OW16870   1.149   1.791   7.079 -0.2277  0.0512  0.3469
 1745SOL    HW116871   1.077   1.844   7.046 -1.3573 -1.5790  0.1974
 1745SOL    HW216872   1.110   1.758   7.160 -1.2903 -2.8024 -1.3655
 1746SOL     OW16873   4.639   3.699   5.904 -0.9398 -0.0756 -0.2945
 1746SOL    HW116874   4.728   3.707   5.938 -1.3952  1.6333  0.5124
 1746SOL    HW216875   4.647   3.605   5.883 -1.0195  0.0588 -0.9398
 1747SOL     OW16876   1.928   3.281  10.741  0.6346  0.5236 -0.3391
 1747SOL    HW116877   1.867   3.243  10.678  0.6749  0.5588 -0.3987
 1747SOL    HW216878   1.938   3.216  10.811  0.1599  1.5389  0.6821
 1748SOL     OW16879   1.314   3.961   7.495 -0.3620 -0.7407 -0.1456
 1748SOL    HW116880   1.340   3.886   7.442  0.5617  1.3384 -2.6342
 1748SOL    HW216881   1.294   3.926   7.583 -1.0477  0.9722  0.3777
 1749SOL     OW16882   3.927   1.998   3.228 -0.0066 -0.0550 -0.4751
 1749SOL    HW116883   3.866   2.021   3.298  0.9780  0.1452  0.3177
 1749SOL    HW216884   3.995   1.946   3.271 -0.3572  0.7444  1.0572
 1750SOL     OW16885   1.773   1.114   3.827  0.6253 -0.6281  0.6429
 1750SOL    HW116886   1.791   1.020   3.821 -0.0914 -0.6755 -0.7966
 1750SOL    HW216887   1.863   1.142   3.842  0.2710 -0.2375  2.0123
 1751SOL     OW16888   1.625   3.595   0.725 -0.1736  0.0314  0.0347
 1751SOL    HW116889   1.605   3.524   0.663 -1.0585  0.5405 -0.2700
 1751SOL    HW216890   1.716   3.589   0.753  0.0347  1.7149 -0.2901
 1752SOL     OW16891   3.002   1.858   4.700 -0.2112 -0.1775  0.5402
 1752SOL    HW116892   3.090   1.892   4.687 -0.6150  0.3309 -0.8501
 1752SOL    HW216893   3.006   1.764   4.682 -0.7107 -0.1779  0.4150
 1753SOL     OW16894   1.629   0.227   2.023  0.0005  0.3468 -0.0282
 1753SOL    HW116895   1.575   0.186   2.091  0.5666 -1.6058 -0.7673
 1753SOL    HW216896   1.556   0.261   1.971 -0.3069  0.5696  0.5404
 1754SOL     OW16897   1.392   4.066   3.554 -0.4171  0.3567  0.1736
 1754SOL    HW116898   1.450   4.063   3.630  0.0340  1.9391 -0.1067
 1754SOL    HW216899   1.325   4.008   3.588 -2.6417  2.6927 -0.2551
 1755SOL     OW16900   0.130   2.877   3.608 -0.6115  0.0322  0.2292
 1755SOL    HW116901   0.100   2.838   3.690  3.0462 -3.0822  0.0815
 1755SOL    HW216902   0.196   2.811   3.588  0.2032  0.8480  0.2454
 1756SOL     OW16903   1.742   1.560   6.693 -0.3717  0.0697 -0.2707
 1756SOL    HW116904   1.703   1.477   6.720  0.0912  0.0456  0.3216
 1756SOL    HW216905   1.783   1.595   6.772  1.7554 -1.1071 -0.8653
 1757SOL     OW16906   2.647   3.001   5.270  0.4067 -0.4555 -0.3433
 1757SOL    HW116907   2.708   3.070   5.297 -1.2192  1.1170 -0.6277
 1757SOL    HW216908   2.651   2.947   5.349  2.5387 -0.0440 -0.1575
 1758SOL     OW16909   2.766   3.353  17.265  0.0273 -0.1852  0.3101
 1758SOL    HW116910   2.778   3.435  17.313  1.8780 -0.7562  0.8154
 1758SOL    HW216911   2.791   3.288  17.331  1.4851  0.6865  0.6182
 1759SOL     OW16912   1.603   4.134   1.062 -0.4921  0.1014  0.2295
 1759SOL    HW116913   1.606   4.093   1.148  1.0060 -0.4400 -0.0754
 1759SOL    HW216914   1.697   4.134   1.045 -0.6933  0.8542 -0.9080
 1760SOL     OW16915   1.493   0.378   5.757 -0.3332  0.4457 -0.0050
 1760SOL    HW116916   1.437   0.382   5.680  1.8099 -0.9945 -1.6302
 1760SOL    HW216917   1.497   0.473   5.770 -0.0831  0.4698 -0.2580
 1761SOL     OW16918   3.900   4.121  12.532  0.6056  0.0159 -0.1434
 1761SOL    HW116919   3.904   4.179  12.456 -0.4171 -0.6686 -0.7202
 1761SOL    HW216920   3.812   4.139  12.565  1.2841  0.2168  1.5145
 1762SOL     OW16921   0.852   3.525   1.661  0.1406 -0.3578  0.4498
 1762SOL    HW116922   0.790   3.465   1.704 -1.7554  2.1568  1.1849
 1762SOL    HW216923   0.821   3.521   1.571  1.7611 -1.4177 -0.0535
 1763SOL     OW16924   2.079   0.442   7.021 -0.0433 -0.2029  0.4011
 1763SOL    HW116925   2.173   0.434   7.035  0.1493  0.3895 -0.4980
 1763SOL    HW216926   2.049   0.479   7.104  3.0817 -2.5741  2.5889
 1764SOL     OW16927   2.760   2.717  17.378 -0.2636 -0.6696 -0.1115
 1764SOL    HW116928   2.748   2.622  17.383  1.0258 -0.7887  0.7103
 1764SOL    HW216929   2.852   2.725  17.403 -0.2237  0.6803 -0.6800
 1765SOL     OW16930   3.492   2.078   2.940  0.3439 -0.2196 -0.5301
 1765SOL    HW116931   3.516   2.103   2.851  1.6679 -0.7762 -0.3257
 1765SOL    HW216932   3.470   1.986   2.925  3.0837 -1.5372  3.4729
 1766SOL     OW16933   0.295   2.056  14.689 -0.1509  0.2032 -0.1873
 1766SOL    HW116934   0.320   2.008  14.611  0.9066  0.6612 -0.1252
 1766SOL    HW216935   0.267   1.986  14.748 -4.6145  0.1166 -2.3894
 1767SOL     OW16936   4.320   2.282  14.018  0.1313  0.2701  0.3784
 1767SOL    HW116937   4.326   2.204  13.963 -0.6779 -0.5554  1.4544
 1767SOL    HW216938   4.285   2.350  13.961  0.2490 -2.2272 -2.6725
 1768SOL     OW16939   0.045   3.397  14.736  0.4448  0.1688  0.2055
 1768SOL    HW116940   0.101   3.362  14.667  1.4169  0.2811  0.9288
 1768SOL    HW216941   0.062   3.490  14.727 -0.2283  0.3494  0.8339
 1769SOL     OW16942   1.306   0.493  16.851  0.1932  0.2663 -0.2551
 1769SOL    HW116943   1.253   0.497  16.772 -1.9384 -0.7092  1.1236
 1769SOL    HW216944   1.238   0.513  16.915  1.7377  0.2063  1.3999
 1770SOL     OW16945   4.131   3.654   2.892 -0.0776 -0.0343 -0.5189
 1770SOL    HW116946   4.151   3.659   2.799  1.2486 -0.7615 -0.2794
 1770SOL    HW216947   4.051   3.604   2.878  0.5272 -0.8419 -1.0731
 1771SOL     OW16948   0.514   0.370   5.258 -0.1194  0.3359 -0.0860
 1771SOL    HW116949   0.434   0.340   5.301  0.8265  1.0063  2.1561
 1771SOL    HW216950   0.570   0.295   5.279 -2.0636 -1.3749 -1.1058
 1772SOL     OW16951   0.757   1.592   9.065  0.1499 -0.0782  0.4197
 1772SOL    HW116952   0.772   1.516   9.119  2.0081  0.9115  1.2729
 1772SOL    HW216953   0.772   1.660   9.130  0.2159 -0.0233  0.3477
 1773SOL     OW16954   4.542   1.876   0.307  0.1419 -0.3085  0.1149
 1773SOL    HW116955   4.498   1.903   0.226  0.6674 -1.1811 -0.4563
 1773SOL    HW216956   4.617   1.832   0.267 -0.5720 -0.4531 -1.0760
 1774SOL     OW16957   1.297   1.755   6.161  0.4024  0.2184  0.9194
 1774SOL    HW116958   1.299   1.672   6.209  0.8866  0.2466  0.9460
 1774SOL    HW216959   1.214   1.795   6.188  0.8779  2.1921 -0.5423
 1775SOL     OW16960   1.831   3.357   9.048  0.7702 -0.5936  0.3881
 1775SOL    HW116961   1.843   3.345   9.142 -2.0288  0.9040  0.9300
 1775SOL    HW216962   1.750   3.308   9.035  1.1201 -0.7437 -1.2891
 1776SOL     OW16963   0.203   3.198   8.103 -0.0136 -0.1425 -0.2228
 1776SOL    HW116964   0.161   3.113   8.111  0.0031 -0.2412 -1.0864
 1776SOL    HW216965   0.137   3.233   8.044  0.0656 -2.1481 -1.5310
 1777SOL     OW16966   2.152   1.295   4.778  0.0354  0.2336 -0.1434
 1777SOL    HW116967   2.245   1.273   4.776  0.1691  0.9753 -2.2263
 1777SOL    HW216968   2.152   1.360   4.707  0.9025  0.4508  0.0563
 1778SOL     OW16969   1.696   1.556  11.553  0.3209 -0.3155 -0.0371
 1778SOL    HW116970   1.636   1.563  11.479  0.8083 -3.2863 -0.7137
 1778SOL    HW216971   1.778   1.524  11.516 -0.1801 -1.0850 -0.4872
 1779SOL     OW16972   1.728   3.450   4.727  0.5521 -0.7524 -0.1524
 1779SOL    HW116973   1.783   3.464   4.651  0.5600 -0.2884 -0.0616
 1779SOL    HW216974   1.763   3.521   4.781  0.0941 -0.9056  0.3521
 1780SOL     OW16975   4.447   2.325   2.100 -0.1284  1.1045 -0.0692
 1780SOL    HW116976   4.525   2.270   2.111 -1.9744 -1.9401 -1.9379
 1780SOL    HW216977   4.437   2.365   2.186 -0.8698 -0.3486  0.5179
 1781SOL     OW16978   1.470   0.841   7.951  0.3823 -0.0660  0.9230
 1781SOL    HW116979   1.436   0.930   7.960 -1.4290 -0.7121  0.6087
 1781SOL    HW216980   1.557   0.870   7.924  0.7682 -1.5280  0.6338
 1782SOL     OW16981   0.627   3.423  13.739  0.0787  0.3129 -0.1574
 1782SOL    HW116982   0.615   3.401  13.646 -2.9957  1.2455  0.0418
 1782SOL    HW216983   0.705   3.479  13.739 -0.7543  1.4593 -0.0452
 1783SOL     OW16984   0.956   0.401   7.944 -0.3611 -0.1636 -0.2768
 1783SOL    HW116985   0.906   0.436   8.017 -0.4366 -0.9572  0.0544
 1783SOL    HW216986   0.905   0.321   7.931 -2.2707  1.1543 -0.8810
 1784SOL     OW16987   0.345   0.320  14.791  0.0507 -0.6725  0.2800
 1784SOL    HW116988   0.420   0.322  14.732 -0.4522  0.8151 -0.3083
 1784SOL    HW216989   0.309   0.237  14.758  0.8827 -0.7322 -0.4626
 1785SOL     OW16990   1.080   2.119   4.185  0.4636  0.8837 -0.3926
 1785SOL    HW116991   1.046   2.041   4.141  0.6543 -0.0530  1.0967
 1785SOL    HW216992   1.082   2.097   4.278  1.3755 -0.1837 -0.6661
 1786SOL     OW16993   2.192   2.025   5.945 -1.0729 -0.2997 -0.4016
 1786SOL    HW116994   2.207   1.939   5.905 -0.9140  0.9298 -2.9786
 1786SOL    HW216995   2.239   2.069   5.875 -1.4533 -0.0257 -0.4869
 1787SOL     OW16996   4.626   0.798   3.088 -0.0114  0.1185 -0.0671
 1787SOL    HW116997   4.678   0.849   3.026  1.3698  1.7411  2.4201
 1787SOL    HW216998   4.564   0.753   3.031  0.5617 -0.1033 -0.5026
 1788SOL     OW16999   0.385   2.163   4.051  0.0500 -0.2854 -0.0128
 1788SOL    HW117000   0.347   2.105   3.985 -0.9029  1.9637 -1.4171
 1788SOL    HW217001   0.410   2.242   4.004 -1.6635  0.0733 -0.3357
 1789SOL     OW17002   2.218   1.904   1.883 -0.5079  0.3136 -0.6453
 1789SOL    HW117003   2.212   1.830   1.823 -2.8646  0.3838 -0.4737
 1789SOL    HW217004   2.311   1.928   1.875 -1.3948  2.9952 -3.0076
 1790SOL     OW17005   1.363   2.523   1.942  0.1895  0.3057 -0.1072
 1790SOL    HW117006   1.288   2.578   1.921  1.7603  1.2737 -3.1744
 1790SOL    HW217007   1.414   2.537   1.863 -1.4832 -1.3726 -1.5016
 1791SOL     OW17008   0.320   3.468  11.586  0.0249  0.1748  0.2349
 1791SOL    HW117009   0.281   3.384  11.565  0.1759  0.4045 -0.9762
 1791SOL    HW217010   0.342   3.516  11.506  0.3593  1.7551  1.2600
 1792SOL     OW17011   1.663   3.187   8.291  0.0806 -0.5018 -0.2033
 1792SOL    HW117012   1.667   3.276   8.255  2.7253 -0.3474  0.4418
 1792SOL    HW217013   1.584   3.148   8.254  0.2658 -0.7598 -0.3337
 1793SOL     OW17014   0.693   0.715  13.482  0.2544 -0.1906  0.0609
 1793SOL    HW117015   0.664   0.645  13.541 -0.6173 -1.5850 -2.0006
 1793SOL    HW217016   0.608   0.743  13.449 -0.3845 -0.2698  1.6500
 1794SOL     OW17017   3.908   4.345  13.261  0.2295 -0.1465 -0.2230
 1794SOL    HW117018   3.941   4.309  13.179 -1.1050 -0.2826 -0.6975
 1794SOL    HW217019   3.829   4.292  13.269  0.4087 -0.3965 -0.1431
 1795SOL     OW17020   4.300   0.995   2.980  0.1733  0.2289  0.2228
 1795SOL    HW117021   4.307   1.087   3.008  0.0293  0.2552  0.1756
 1795SOL    HW217022   4.338   1.018   2.895  1.9053  1.6865  1.3763
 1796SOL     OW17023   3.495   4.689   2.084  0.4492  0.1522  0.5466
 1796SOL    HW117024   3.446   4.628   2.140 -1.9571  0.2616 -1.4326
 1796SOL    HW217025   3.509   0.021   2.144  1.2219  0.3675  0.1060
 1797SOL     OW17026   4.073   3.892  13.983  0.1011 -0.5788 -0.1972
 1797SOL    HW117027   4.168   3.902  13.989 -0.1079  0.4787  1.2571
 1797SOL    HW217028   4.054   3.929  14.069 -0.5797  0.6111 -0.8429
 1798SOL     OW17029   1.458   0.972   3.298 -0.5253  0.1920 -0.3847
 1798SOL    HW117030   1.467   0.923   3.215  0.3236  0.1382 -0.2568
 1798SOL    HW217031   1.450   0.900   3.361 -0.7340  0.2512 -0.3414
 1799SOL     OW17032   3.749   2.257   7.759 -0.3891  0.0867  0.6641
 1799SOL    HW117033   3.722   2.348   7.773  0.4094  0.2310  1.2823
 1799SOL    HW217034   3.714   2.211   7.834  0.3716 -0.2457  0.8147
 1800SOL     OW17035   0.512   2.790   2.000  0.3437  0.3110  0.2044
 1800SOL    HW117036   0.533   2.697   2.007  0.7249  0.4255  0.6052
 1800SOL    HW217037   0.460   2.789   1.919  1.5535  0.3889 -0.5790
 1801SOL     OW17038   1.374   1.216   9.526 -0.0201  0.1579 -0.2271
 1801SOL    HW117039   1.312   1.201   9.597  0.5352 -1.8253 -0.1631
 1801SOL    HW217040   1.321   1.256   9.458  1.2404  0.7556 -0.8596
 1802SOL     OW17041   4.735   2.881   7.468  0.2633 -0.1132 -0.3865
 1802SOL    HW117042   0.029   2.832   7.543  3.8322  0.1606 -1.8249
 1802SOL    HW217043   4.692   2.954   7.513  1.5909 -0.6525  1.7305
 1803SOL     OW17044   3.738   4.341   9.056 -0.1332  0.5831  0.1955
 1803SOL    HW117045   3.772   4.265   9.102 -1.0678 -0.6186 -1.1104
 1803SOL    HW217046   3.648   4.317   9.038  0.1137 -1.2356  1.3886
 1804SOL     OW17047   3.340   1.578   7.039  0.1206  0.5606 -0.3352
 1804SOL    HW117048   3.274   1.619   7.095 -1.3767 -0.7566 -1.1144
 1804SOL    HW217049   3.403   1.543   7.101 -0.7058  2.8581  1.7730
 1805SOL     OW17050   1.520   1.327   4.979  0.5932 -0.9032  0.0954
 1805SOL    HW117051   1.524   1.279   4.896 -4.0435 -2.4229  0.7696
 1805SOL    HW217052   1.611   1.358   4.976  0.1350  0.5803  2.0138
 1806SOL     OW17053   2.986   2.500  15.014 -0.1571  0.0693  0.0831
 1806SOL    HW117054   2.907   2.516  15.065  0.7652  1.6513  1.0086
 1806SOL    HW217055   3.013   2.419  15.058  0.2458  0.4802  0.5920
 1807SOL     OW17056   2.259   3.955  17.115 -0.0852  0.0618  0.2490
 1807SOL    HW117057   2.164   3.950  17.118 -0.0682  1.5117  2.8864
 1807SOL    HW217058   2.284   3.922  17.201  0.8002  1.0085  0.3619
 1808SOL     OW17059   0.275   0.120   9.316  0.0443  0.2724 -0.3877
 1808SOL    HW117060   0.204   0.176   9.285  1.5727  0.9937 -2.5802
 1808SOL    HW217061   0.227   0.065   9.377  1.2026  0.5584  0.7892
 1809SOL     OW17062   3.913   3.800   4.092 -0.1474 -0.1944 -0.5115
 1809SOL    HW117063   3.844   3.824   4.154  1.8005  0.5402  1.3734
 1809SOL    HW217064   3.991   3.838   4.132 -0.6202 -0.8915  1.0674
 1810SOL     OW17065   2.948   2.708  17.706  0.6129 -0.5578 -0.2354
 1810SOL    HW117066   2.854   2.723  17.698  0.3181 -2.4371 -0.3938
 1810SOL    HW217067   2.942   2.674   0.036  0.6174  1.1556  0.4282
 1811SOL     OW17068   4.514   0.062   5.481  0.2908 -0.2223  0.1417
 1811SOL    HW117069   4.519   4.740   5.553 -0.8609 -0.5823 -0.0819
 1811SOL    HW217070   4.527   0.002   5.407 -0.0999  0.3381 -0.3874
 1812SOL     OW17071   3.050   1.699  12.934 -0.5942  0.1805  0.1376
 1812SOL    HW117072   3.058   1.787  12.898 -1.3408  0.1850 -0.0091
 1812SOL    HW217073   3.007   1.711  13.019  2.0538 -1.2093  1.6789
 1813SOL     OW17074   2.419   0.025   8.589 -0.3428  0.3327  0.1143
 1813SOL    HW117075   2.488   0.091   8.584 -1.6674  1.7308  0.1681
 1813SOL    HW217076   2.462   4.685   8.618 -0.7123 -0.0742 -0.4670
 1814SOL     OW17077   1.498   3.585  16.566  0.4335 -0.1960 -0.0217
 1814SOL    HW117078   1.410   3.621  16.579  1.2056  1.8917 -0.6265
 1814SOL    HW217079   1.494   3.508  16.622  0.1037 -0.0204  0.1982
 1815SOL     OW17080   1.581   0.293  12.573  0.1641 -0.0371  0.7468
 1815SOL    HW117081   1.598   0.374  12.621  0.1981 -0.3616  1.2819
 1815SOL    HW217082   1.617   0.319  12.488 -0.6389  1.5352  0.8759
 1816SOL     OW17083   0.244   1.750   7.308 -0.2507 -0.3377  0.3822
 1816SOL    HW117084   0.170   1.723   7.363 -1.8675  1.7168 -0.7714
 1816SOL    HW217085   0.234   1.844   7.318 -0.8303 -0.3362 -0.2458
 1817SOL     OW17086   0.990   3.856   7.469 -0.3089  0.9735 -0.3805
 1817SOL    HW117087   1.072   3.810   7.452  0.2373  2.1733 -1.0049
 1817SOL    HW217088   0.987   3.915   7.393  1.6500  1.1085 -0.3538
 1818SOL     OW17089   2.245   4.243   3.276  0.3596  0.5555  0.1902
 1818SOL    HW117090   2.196   4.326   3.277  1.6150  1.3233 -1.5525
 1818SOL    HW217091   2.290   4.246   3.192 -0.1799  1.5617 -0.0657
 1819SOL     OW17092   4.377   0.622   4.112 -0.1542 -0.0166 -0.3558
 1819SOL    HW117093   4.435   0.614   4.187  1.3473 -1.9029 -1.7192
 1819SOL    HW217094   4.351   0.713   4.124 -1.4184 -0.5416  0.7570
 1820SOL     OW17095   1.969   3.885   0.032 -0.1411 -0.4548 -0.3033
 1820SOL    HW117096   1.880   3.869   0.000 -0.5325 -0.0163  0.5594
 1820SOL    HW217097   1.969   3.850   0.121  2.7555 -2.7389 -1.2099
 1821SOL     OW17098   0.776   2.790  10.738  0.3598  0.1031 -0.1137
 1821SOL    HW117099   0.772   2.862  10.675 -1.5363 -1.1778 -1.4574
 1821SOL    HW217100   0.783   2.833  10.823  1.8539 -1.0686  0.3569
 1822SOL     OW17101   3.304   1.288  14.367 -0.1674  0.1566 -0.0357
 1822SOL    HW117102   3.374   1.237  14.326  1.3186  1.5579  0.7538
 1822SOL    HW217103   3.352   1.356  14.415 -0.7537  0.6013 -0.0811
 1823SOL     OW17104   0.805   2.484   5.723 -0.1491  0.3207 -0.1214
 1823SOL    HW117105   0.747   2.423   5.677 -0.3462  0.4661 -0.0628
 1823SOL    HW217106   0.773   2.565   5.684 -0.9640 -0.5559 -1.2847
 1824SOL     OW17107   1.379   1.264   8.156 -1.2150 -0.2290  0.5584
 1824SOL    HW117108   1.461   1.214   8.151  0.0600  1.8459  0.6707
 1824SOL    HW217109   1.393   1.324   8.082  1.8336  0.9708  2.0914
 1825SOL     OW17110   0.193   0.584  12.641  0.0877 -0.1008 -0.1015
 1825SOL    HW117111   0.147   0.602  12.723 -0.4660 -0.8925 -0.2389
 1825SOL    HW217112   0.144   0.514  12.599 -0.0360  0.3992 -0.7930
 1826SOL     OW17113   3.741   1.013  12.480  0.6738  0.4656  0.7211
 1826SOL    HW117114   3.800   1.081  12.448  0.1486  1.2421  1.4154
 1826SOL    HW217115   3.759   0.938  12.423 -0.6968  0.2246  0.6109
 1827SOL     OW17116   4.673   2.733   4.656  0.7480  0.1551  0.2578
 1827SOL    HW117117   4.620   2.782   4.592  0.5911 -0.9898 -0.4996
 1827SOL    HW217118   4.717   2.805   4.701  1.3780  1.0950 -1.8282
 1828SOL     OW17119   2.959   2.171  10.609 -0.1733  0.4488  0.0646
 1828SOL    HW117120   2.925   2.083  10.594  0.2048  0.2383  0.4422
 1828SOL    HW217121   2.879   2.218  10.632 -0.0815  1.1998 -1.1437
 1829SOL     OW17122   2.740   3.242  15.520 -0.4390  0.0410 -0.5035
 1829SOL    HW117123   2.723   3.301  15.593 -1.6312  2.4570 -2.7399
 1829SOL    HW217124   2.700   3.292  15.450 -3.5088 -1.6778  0.0273
 1830SOL     OW17125   2.728   2.951   8.746  0.4637  0.0330  0.4834
 1830SOL    HW117126   2.632   2.950   8.746  0.4611  1.4807 -0.6141
 1830SOL    HW217127   2.744   3.023   8.807  1.5188  0.1260  0.0983
 1831SOL     OW17128   0.827   0.169   8.558  0.2110  0.1355  0.5693
 1831SOL    HW117129   0.896   0.236   8.552 -0.6446  0.9689 -0.0547
 1831SOL    HW217130   0.758   0.206   8.613 -0.8764 -0.1667 -0.5781
 1832SOL     OW17131   2.917   4.389   4.558  0.5341  0.1525  0.5097
 1832SOL    HW117132   2.999   4.399   4.607  0.1467  1.5703  0.8597
 1832SOL    HW217133   2.948   4.321   4.498 -1.4724 -0.9810  0.7680
 1833SOL     OW17134   4.601   2.387   7.273 -0.0093 -0.2787 -0.2113
 1833SOL    HW117135   4.506   2.394   7.288 -0.0154  0.3189 -0.5384
 1833SOL    HW217136   4.636   2.431   7.350  2.3019 -1.7908 -0.4172
 1834SOL     OW17137   2.686   1.470   3.716  0.2641 -0.2127  0.0774
 1834SOL    HW117138   2.628   1.514   3.778 -0.5868 -1.8717  0.4496
 1834SOL    HW217139   2.769   1.514   3.734  0.4842 -1.7601  2.8394
 1835SOL     OW17140   0.978   1.529   8.452 -0.4271 -0.0625  0.4091
 1835SOL    HW117141   1.005   1.526   8.544  2.2149  0.3436 -0.3595
 1835SOL    HW217142   1.057   1.517   8.401 -1.5189 -3.1105 -0.5781
 1836SOL     OW17143   0.805   2.454   8.729  0.1294  0.0070  0.2377
 1836SOL    HW117144   0.710   2.442   8.726  0.4008 -1.1791 -3.7125
 1836SOL    HW217145   0.823   2.464   8.823  3.6930 -0.5182 -0.3933
 1837SOL     OW17146   1.026   3.666  11.064 -0.1016 -0.0656 -0.1514
 1837SOL    HW117147   1.048   3.759  11.059  1.6517 -0.4927 -0.5446
 1837SOL    HW217148   1.010   3.656  11.158  0.5303 -1.8841 -0.2209
 1838SOL     OW17149   2.317   1.556   2.592  0.0103  0.3323 -0.2349
 1838SOL    HW117150   2.271   1.623   2.643 -0.4299 -0.3260  0.2346
 1838SOL    HW217151   2.247   1.494   2.575  1.7028 -1.4718 -0.5978
 1839SOL     OW17152   4.417   0.938   3.882 -0.1140  0.4586 -0.1491
 1839SOL    HW117153   4.506   0.904   3.871 -0.6376 -0.3591 -1.8117
 1839SOL    HW217154   4.384   0.902   3.800 -0.2471 -2.2077  1.0619
 1840SOL     OW17155   0.266   1.380   2.752  0.1864 -0.4557 -0.4480
 1840SOL    HW117156   0.319   1.459   2.757 -0.2439 -0.3015  1.3685
 1840SOL    HW217157   0.200   1.406   2.687 -0.4881  0.2858  0.5475
 1841SOL     OW17158   0.132   4.410   5.427  0.9573 -0.3825 -0.0081
 1841SOL    HW117159   0.131   4.314   5.428 -1.7150 -0.3775 -2.5539
 1841SOL    HW217160   0.182   4.438   5.504 -2.0509  1.8458  1.1334
 1842SOL     OW17161   2.123   0.311   2.663 -0.1264  0.5897 -0.4833
 1842SOL    HW117162   2.151   0.403   2.665 -1.0216  0.9365 -3.8771
 1842SOL    HW217163   2.072   0.309   2.582  3.3517 -1.2976 -2.6238
 1843SOL     OW17164   2.936   0.973   1.506  0.5846 -0.0974  0.0980
 1843SOL    HW117165   3.001   0.967   1.576  1.5810 -0.9824 -0.9072
 1843SOL    HW217166   2.947   0.891   1.459  1.6637 -0.5466  1.1318
 1844SOL     OW17167   2.785   4.716   5.666  0.8320  0.4661  0.2393
 1844SOL    HW117168   2.715   4.665   5.706  0.6822  0.8553  0.4784
 1844SOL    HW217169   2.839   4.728   5.744  3.4105  0.7498 -1.5737
 1845SOL     OW17170   2.465   1.850   7.472 -0.3236  0.0126  0.1899
 1845SOL    HW117171   2.385   1.858   7.524 -0.0012 -0.5752  0.7644
 1845SOL    HW217172   2.529   1.905   7.517  0.5336 -0.6230 -0.2600
 1846SOL     OW17173   3.179   2.025   1.931  0.0622 -0.8518  0.8253
 1846SOL    HW117174   3.100   2.077   1.943  0.8406  0.2227  1.2317
 1846SOL    HW217175   3.179   2.011   1.836  0.2353 -2.0477  1.0005
 1847SOL     OW17176   2.856   2.212   8.538  0.1349  0.7085 -0.6722
 1847SOL    HW117177   2.860   2.237   8.630  1.4173 -0.0997 -0.5045
 1847SOL    HW217178   2.764   2.187   8.525 -0.6284  2.4412  1.4159
 1848SOL     OW17179   0.603   2.321   4.291  0.0243  0.0635  0.2662
 1848SOL    HW117180   0.511   2.301   4.275 -0.4743  1.0984  1.8389
 1848SOL    HW217181   0.593   2.392   4.355  0.3571  1.0488 -0.7698
 1849SOL     OW17182   1.245   2.643  14.088 -0.7511  0.2844  0.4214
 1849SOL    HW117183   1.338   2.652  14.112 -0.3907 -0.2542 -0.7669
 1849SOL    HW217184   1.246   2.561  14.038 -0.7796  0.3250  0.3550
 1850SOL     OW17185   3.525   3.132   4.175 -0.3803  0.3391  0.1898
 1850SOL    HW117186   3.470   3.126   4.097 -0.8720  1.9147  0.4126
 1850SOL    HW217187   3.583   3.207   4.161  1.7688 -1.5834 -1.1675
 1851SOL     OW17188   2.164   3.839   7.731  0.4825  0.0022 -0.0321
 1851SOL    HW117189   2.173   3.851   7.826  2.8443 -2.4864  0.0486
 1851SOL    HW217190   2.253   3.811   7.708 -0.4096 -3.6525  0.9379
 1852SOL     OW17191   4.321   1.627  14.189 -0.3518  0.6760 -0.5776
 1852SOL    HW117192   4.332   1.721  14.172  2.9493  0.5804  0.9960
 1852SOL    HW217193   4.371   1.592  14.115 -0.8150 -0.7559 -0.2040
 1853SOL     OW17194   1.505   1.787   3.396 -0.1412  0.3591  0.1103
 1853SOL    HW117195   1.525   1.694   3.400 -1.2693  0.1625  1.1398
 1853SOL    HW217196   1.414   1.789   3.367 -0.9890 -1.5482  2.7314
 1854SOL     OW17197   3.994   1.651   9.370 -0.3654  0.0103 -0.1633
 1854SOL    HW117198   4.040   1.612   9.445  1.3015  2.3428  0.0153
 1854SOL    HW217199   3.909   1.669   9.410 -0.2299  0.8687 -0.2824
 1855SOL     OW17200   1.541   2.014   6.439 -0.1875 -0.7856  1.0834
 1855SOL    HW117201   1.584   2.087   6.483  2.1380 -2.3468  1.4088
 1855SOL    HW217202   1.575   1.942   6.494  0.8352 -1.2218 -0.1346
 1856SOL     OW17203   0.546   3.978   1.118  0.1331 -0.1830  0.0057
 1856SOL    HW117204   0.550   4.074   1.125  1.5604 -0.2695  0.3867
 1856SOL    HW217205   0.640   3.968   1.133  0.0703  0.7245  1.0659
 1857SOL     OW17206   3.410   0.766  13.141 -0.1144 -0.3091 -0.4318
 1857SOL    HW117207   3.428   0.798  13.229  1.6482 -2.1284 -0.1230
 1857SOL    HW217208   3.391   0.853  13.106 -0.1266  0.4390  1.4243
 1858SOL     OW17209   1.419   3.556   3.111 -0.5912 -0.1954 -0.0268
 1858SOL    HW117210   1.489   3.616   3.139  0.9605 -0.6306 -2.9012
 1858SOL    HW217211   1.402   3.588   3.022 -0.1463 -1.4470 -0.5554
 1859SOL     OW17212   1.034   2.050  16.425 -0.3016  0.5379 -0.1581
 1859SOL    HW117213   1.075   2.132  16.450  1.8797 -0.5837 -0.1129
 1859SOL    HW217214   0.959   2.077  16.372 -1.3781 -0.9888  0.5615
 1860SOL     OW17215   4.447   4.132   7.921 -0.2612 -0.1613 -0.8601
 1860SOL    HW117216   4.355   4.152   7.938 -0.6136 -0.7679 -2.0311
 1860SOL    HW217217   4.484   4.207   7.875 -2.4014  2.1561  1.2035
 1861SOL     OW17218   2.008   3.590   5.297  0.8512  0.1585  0.0378
 1861SOL    HW117219   1.962   3.672   5.280  0.6530 -0.3091 -1.6119
 1861SOL    HW217220   2.085   3.606   5.243  0.6151 -2.8012 -1.1820
 1862SOL     OW17221   2.638   4.512  15.055  0.2914  0.5321 -0.2133
 1862SOL    HW117222   2.656   4.463  14.975 -0.1548 -1.8560  1.1203
 1862SOL    HW217223   2.647   4.448  15.126 -0.0132 -0.1927 -0.8341
 1863SOL     OW17224   3.345   2.320  13.097  0.2524 -0.3888 -0.4454
 1863SOL    HW117225   3.438   2.313  13.116  0.3089  0.2375 -0.4852
 1863SOL    HW217226   3.320   2.388  13.160 -1.0658 -1.7837  0.5203
 1864SOL     OW17227   0.615   0.775   4.991  0.1092  0.5573 -0.5077
 1864SOL    HW117228   0.680   0.771   4.921  2.2024 -0.5819  1.5013
 1864SOL    HW217229   0.642   0.697   5.039  0.3797  0.4196 -0.8821
 1865SOL     OW17230   3.746   3.609   7.101 -0.8536 -0.4124  0.3901
 1865SOL    HW117231   3.760   3.686   7.156 -2.2897  0.7192 -0.8657
 1865SOL    HW217232   3.746   3.537   7.165 -0.4276  0.7876  1.7486
 1866SOL     OW17233   3.730   4.643  15.239  0.5045  0.8825 -0.0802
 1866SOL    HW117234   3.677   4.722  15.252 -0.7818  0.3265 -1.9566
 1866SOL    HW217235   3.755   4.648  15.147  0.7705 -0.1782 -0.0685
 1867SOL     OW17236   2.051   2.672   4.546  0.8156  0.7672  0.4473
 1867SOL    HW117237   2.022   2.614   4.475  2.0962 -0.5675  1.0081
 1867SOL    HW217238   2.056   2.608   4.617 -1.4075  2.2471  1.9179
 1868SOL     OW17239   4.294   3.803   2.145 -0.0555  0.3108 -0.1849
 1868SOL    HW117240   4.216   3.748   2.157 -0.3983  0.5926 -1.1660
 1868SOL    HW217241   4.339   3.780   2.227  1.5552 -0.6709 -1.3520
 1869SOL     OW17242   4.566   3.450   1.676 -0.0678 -0.7679 -0.2177
 1869SOL    HW117243   4.616   3.393   1.617  0.5786 -0.5619  0.1314
 1869SOL    HW217244   4.591   3.408   1.758 -1.5953 -2.5107 -0.6367
 1870SOL     OW17245   2.529   3.911   7.056  0.0174 -0.0352 -0.3586
 1870SOL    HW117246   2.603   3.850   7.066 -0.4179 -0.3869  0.6353
 1870SOL    HW217247   2.535   3.947   7.144  3.2119  0.3364 -0.7255
 1871SOL     OW17248   1.801   4.227   3.820  0.5259  0.2806  0.4777
 1871SOL    HW117249   1.792   4.310   3.866  4.7525  1.2738 -0.4765
 1871SOL    HW217250   1.887   4.244   3.781  0.9493 -1.1210  0.7805
 1872SOL     OW17251   2.446   3.333   6.395 -0.0842  0.1415 -0.1035
 1872SOL    HW117252   2.426   3.427   6.389 -0.7509  0.0856  1.1799
 1872SOL    HW217253   2.540   3.340   6.381  0.4413 -5.2675  0.7217
 1873SOL     OW17254   1.027   0.250   3.003 -0.2931 -0.3170 -0.3512
 1873SOL    HW117255   1.123   0.255   3.001 -0.3394  0.6608 -0.0029
 1873SOL    HW217256   1.013   0.167   3.050 -0.9600 -1.0743 -1.8820
 1874SOL     OW17257   3.011   0.631   6.508 -0.4244 -0.0861  0.6283
 1874SOL    HW117258   3.014   0.582   6.426  0.6861  0.6023  0.2654
 1874SOL    HW217259   2.932   0.597   6.550 -0.0678  0.5004  1.7729
 1875SOL     OW17260   0.104   4.336   1.766  0.0637 -0.0236 -0.0805
 1875SOL    HW117261   0.064   4.261   1.721 -0.9116 -0.1601  1.0028
 1875SOL    HW217262   0.089   4.301   1.855 -0.7794  0.4398 -0.0434
 1876SOL     OW17263   4.449   1.001  11.643 -0.3732  0.1824  0.5790
 1876SOL    HW117264   4.380   0.970  11.702  1.0162 -1.7002  1.1933
 1876SOL    HW217265   4.424   1.091  11.623  1.1552 -0.7234 -5.4589
 1877SOL     OW17266   4.649   4.454   9.993  0.1758 -0.3122 -0.1703
 1877SOL    HW117267   4.719   4.425  10.051 -0.3275 -2.3480 -0.5726
 1877SOL    HW217268   4.601   4.513  10.050 -1.3470 -0.2248 -1.5575
 1878SOL     OW17269   1.574   3.808   3.209  0.3056 -0.3157 -0.0902
 1878SOL    HW117270   1.601   3.784   3.297  0.9225 -1.5153 -0.6028
 1878SOL    HW217271   1.484   3.840   3.217 -0.1361 -1.8896  1.3091
 1879SOL     OW17272   0.849   1.163   4.077 -0.3185 -0.4547  0.2045
 1879SOL    HW117273   0.835   1.072   4.052 -2.4153 -0.5266  1.5990
 1879SOL    HW217274   0.770   1.184   4.127 -0.2694 -0.0125  0.0969
 1880SOL     OW17275   0.082   0.075  17.670  0.6846  0.5354  0.3752
 1880SOL    HW117276   0.126   0.003  17.714 -0.5150 -1.5171 -1.8139
 1880SOL    HW217277   0.072   0.032  17.586 -3.0888  0.6583  0.7534
 1881SOL     OW17278   2.538   2.268   3.190  0.5955  0.1608  0.3127
 1881SOL    HW117279   2.503   2.179   3.200 -2.4917  1.1734 -1.5950
 1881SOL    HW217280   2.458   2.315   3.165 -0.2087 -0.6024  1.4275
 1882SOL     OW17281   3.178   0.832  10.906  0.2892  0.3348 -0.0018
 1882SOL    HW117282   3.203   0.918  10.940 -3.9338  0.7382  1.9782
 1882SOL    HW217283   3.086   0.834  10.930  0.6525  1.9551  1.2388
 1883SOL     OW17284   3.980   1.726  10.570  0.2096  0.0137 -0.3559
 1883SOL    HW117285   3.913   1.794  10.560 -0.1835 -0.3635 -0.2887
 1883SOL    HW217286   4.066   1.764  10.553  0.6351 -0.2713  1.1588
 1884SOL     OW17287   3.157   3.560  12.571 -0.3709 -0.1722 -0.0290
 1884SOL    HW117288   3.135   3.467  12.578  0.6871 -0.3363  1.0374
 1884SOL    HW217289   3.142   3.586  12.662 -0.9227  3.8585 -1.2508
 1885SOL     OW17290   3.441   2.353   6.942 -0.3648 -0.1674  0.2541
 1885SOL    HW117291   3.442   2.300   7.022  0.8031 -0.4203  0.0669
 1885SOL    HW217292   3.415   2.439   6.973  2.1865  0.4688  0.5738
 1886SOL     OW17293   2.424   1.412  13.696 -0.3070  0.0957  0.3598
 1886SOL    HW117294   2.361   1.388  13.627  1.5613  1.1712 -1.7060
 1886SOL    HW217295   2.367   1.398  13.772  1.4640  2.3194  2.0945
 1887SOL     OW17296   2.980   4.692   5.428  0.1041 -0.2518 -0.2005
 1887SOL    HW117297   3.059   4.674   5.479  0.8528  3.8413  0.0952
 1887SOL    HW217298   2.925   4.717   5.502  1.4798  0.6280  0.5344
 1888SOL     OW17299   1.556   2.612   8.696 -0.0351  0.5760  0.2214
 1888SOL    HW117300   1.507   2.536   8.726 -0.6492 -0.1853 -2.7436
 1888SOL    HW217301   1.523   2.682   8.753  0.1119  0.3708  0.5600
 1889SOL     OW17302   3.687   2.826   3.537  0.8989  0.0964 -0.4633
 1889SOL    HW117303   3.606   2.858   3.496 -0.1043 -0.8967  0.7520
 1889SOL    HW217304   3.736   2.808   3.456 -0.1888  3.4360 -1.8601
 1890SOL     OW17305   4.640   1.958  16.382  0.6597  0.0209  0.1477
 1890SOL    HW117306   4.690   1.877  16.393  1.7012  0.5610 -0.6025
 1890SOL    HW217307   4.549   1.929  16.388  0.4861  0.4496 -0.3505
 1891SOL     OW17308   2.570   0.523   6.553 -0.7283 -0.1027  0.5212
 1891SOL    HW117309   2.492   0.557   6.510 -0.8902 -1.2661 -0.1083
 1891SOL    HW217310   2.550   0.432   6.575  0.6796 -0.4147  0.5303
 1892SOL     OW17311   3.281   0.015   8.018 -0.2045 -0.3967 -0.6886
 1892SOL    HW117312   3.294   4.715   8.104 -1.6786 -1.7529 -1.0887
 1892SOL    HW217313   3.198   0.063   8.018  0.0842  0.1067 -1.7308
 1893SOL     OW17314   1.294   3.284   3.592 -0.0636 -0.2884  0.5045
 1893SOL    HW117315   1.239   3.320   3.661  1.6293  1.9233  0.6656
 1893SOL    HW217316   1.293   3.360   3.535  2.6050 -0.2372  0.5177
 1894SOL     OW17317   1.288   3.980  10.630 -0.0588 -0.1216 -0.1406
 1894SOL    HW117318   1.342   3.923  10.575  0.8676 -0.3088  0.9651
 1894SOL    HW217319   1.245   3.923  10.693 -1.1484  0.0482 -0.7340
 1895SOL     OW17320   1.278   3.654   9.529 -0.6193  0.0242 -0.2096
 1895SOL    HW117321   1.270   3.738   9.574  0.6894  0.2724 -0.4418
 1895SOL    HW217322   1.241   3.588   9.588 -1.0019 -1.8747 -2.6088
 1896SOL     OW17323   3.197   1.781   2.406  0.5796 -0.7930 -0.9362
 1896SOL    HW117324   3.271   1.822   2.451 -0.3033 -0.3708  0.1208
 1896SOL    HW217325   3.168   1.852   2.349  2.3176  0.2774 -0.4799
 1897SOL     OW17326   3.969   2.101  14.453  0.2299  0.5349  0.5639
 1897SOL    HW117327   3.963   2.180  14.507  1.2018  0.4624  0.7809
 1897SOL    HW217328   3.877   2.084  14.429  0.1714 -0.2044  1.2952
 1898SOL     OW17329   3.357   1.792   9.238 -0.4211 -0.1903  0.1689
 1898SOL    HW117330   3.357   1.697   9.238  0.0005 -0.1863  1.3985
 1898SOL    HW217331   3.447   1.824   9.231 -0.2276 -1.4217 -3.1097
 1899SOL     OW17332   0.256   0.712   9.491  0.5838  0.0870 -0.2385
 1899SOL    HW117333   0.309   0.665   9.427 -0.6356 -1.6203  0.0002
 1899SOL    HW217334   0.221   0.788   9.444 -1.3412  0.0151  1.0637
 1900SOL     OW17335   0.615   3.231   8.516 -0.2697  0.0697 -0.4520
 1900SOL    HW117336   0.674   3.245   8.591  0.9194  2.5748 -1.8625
 1900SOL    HW217337   0.623   3.320   8.482 -0.0808 -0.1583 -0.9959
 1901SOL     OW17338   1.799   2.598   2.210  0.1443 -0.3334 -0.3463
 1901SOL    HW117339   1.842   2.641   2.285  0.7673 -1.3563 -0.1161
 1901SOL    HW217340   1.796   2.508   2.242 -2.8535  0.1013  0.5970
 1902SOL     OW17341   2.090   4.442  16.930 -0.5032 -0.0215 -0.3595
 1902SOL    HW117342   2.082   4.526  16.885 -1.6859 -0.6969 -1.3991
 1902SOL    HW217343   2.024   4.385  16.891 -0.0539  0.0407 -1.2045
 1903SOL     OW17344   0.761   4.718   1.720  0.2307 -0.0575 -0.5356
 1903SOL    HW117345   0.699   0.050   1.728 -2.0992 -1.9069 -1.9652
 1903SOL    HW217346   0.723   4.655   1.781  1.2786 -0.0339  0.1425
 1904SOL     OW17347   0.103   1.108   1.743  0.2674 -0.3777  0.0666
 1904SOL    HW117348   0.021   1.076   1.704 -1.0435  1.6471  1.2100
 1904SOL    HW217349   0.100   1.202   1.724  0.9429  0.1679  2.7145
 1905SOL     OW17350   4.619   2.178   2.242 -0.1601 -0.4657  0.7978
 1905SOL    HW117351   4.603   2.240   2.314  0.8077  0.9576 -0.2274
 1905SOL    HW217352   4.709   2.204   2.222 -1.0179  0.0516 -2.2552
 1906SOL     OW17353   3.787   2.536   4.037 -0.9480 -0.1823  0.1952
 1906SOL    HW117354   3.867   2.586   4.022 -0.8535 -0.0946  0.9757
 1906SOL    HW217355   3.732   2.561   3.962  0.3741  1.6085 -0.1797
 1907SOL     OW17356   2.549   4.311   8.115  0.2532  0.8052  0.1511
 1907SOL    HW117357   2.500   4.364   8.052 -3.4777 -3.3089 -0.3829
 1907SOL    HW217358   2.477   4.253   8.139  0.4678 -0.1982 -1.6597
 1908SOL     OW17359   0.200   4.518   1.590  0.1102  0.1830  0.3161
 1908SOL    HW117360   0.166   4.466   1.663 -2.2635  1.3033  0.0154
 1908SOL    HW217361   0.290   4.485   1.591 -0.5534 -1.7474 -4.6307
 1909SOL     OW17362   3.971   0.689   2.894 -0.9900  0.0266  0.3045
 1909SOL    HW117363   3.934   0.613   2.939 -2.1439  1.2782  1.4525
 1909SOL    HW217364   3.897   0.749   2.898 -0.2833  0.7063  2.9758
 1910SOL     OW17365   3.811   3.586   2.382 -0.0345  0.3143  0.1880
 1910SOL    HW117366   3.757   3.509   2.404 -0.8068  0.7568 -0.1516
 1910SOL    HW217367   3.885   3.550   2.334 -1.5018  1.5282 -2.9328
 1911SOL     OW17368   4.410   2.579   6.316  0.6162  0.4420 -0.2465
 1911SOL    HW117369   4.411   2.534   6.400  0.7098  1.3593  0.2486
 1911SOL    HW217370   4.317   2.564   6.300  0.7771 -2.4643  1.5233
 1912SOL     OW17371   1.739   3.005  17.372 -0.0704 -0.1285  0.1289
 1912SOL    HW117372   1.669   3.008  17.437 -0.5005  1.4128 -0.3922
 1912SOL    HW217373   1.707   2.932  17.320 -0.6140  0.4342 -0.3277
 1913SOL     OW17374   4.494   3.234   5.937 -0.1466 -0.0506 -0.0995
 1913SOL    HW117375   4.401   3.232   5.915 -0.3323 -0.6336  0.7477
 1913SOL    HW217376   4.487   3.201   6.026 -0.2871  1.5790  0.4916
 1914SOL     OW17377   2.684   3.810   7.680 -0.2710 -0.6213  0.1770
 1914SOL    HW117378   2.756   3.815   7.742 -0.6579 -1.2058  0.6692
 1914SOL    HW217379   2.708   3.727   7.638 -2.6340 -0.9543 -0.5154
 1915SOL     OW17380   3.136   1.010   5.973 -0.8077 -0.1109 -0.4158
 1915SOL    HW117381   3.218   0.987   5.930 -0.9447  1.1627 -1.3495
 1915SOL    HW217382   3.103   1.066   5.904  1.3844  1.2436 -0.3809
 1916SOL     OW17383   0.296   0.831   3.659 -0.4815 -0.0088 -0.1279
 1916SOL    HW117384   0.350   0.810   3.582  0.4477  2.6809 -0.1994
 1916SOL    HW217385   0.265   0.742   3.673  0.5679 -0.5206 -1.0853
 1917SOL     OW17386   0.314   2.689   3.537  0.0613  0.3258  0.2915
 1917SOL    HW117387   0.363   2.737   3.470 -0.4492 -0.7428 -0.8297
 1917SOL    HW217388   0.370   2.612   3.547  0.8884  0.8972  0.0680
 1918SOL     OW17389   0.142   2.850   2.406  0.5395 -0.0144 -0.4084
 1918SOL    HW117390   0.100   2.817   2.327  2.0853 -3.6844  0.3040
 1918SOL    HW217391   0.115   2.942   2.410 -0.3327 -0.2399 -1.1648
 1919SOL     OW17392   3.501   4.306  10.067  0.5277  0.0800  0.0135
 1919SOL    HW117393   3.531   4.373  10.004 -0.4394 -0.3392 -0.8910
 1919SOL    HW217394   3.471   4.365  10.136  1.0882 -1.1020  1.2574
 1920SOL     OW17395   3.497   0.369  11.056  0.0990 -0.0123  0.2979
 1920SOL    HW117396   3.404   0.390  11.070 -0.2345  0.2371 -2.2754
 1920SOL    HW217397   3.545   0.412  11.126  3.3000 -0.1416 -1.8050
 1921SOL     OW17398   0.859   0.890   9.325 -0.0283  0.4331 -0.3036
 1921SOL    HW117399   0.821   0.926   9.405  0.1710 -1.1113  0.4868
 1921SOL    HW217400   0.860   0.796   9.345 -0.1393  0.4226 -0.3444
 1922SOL     OW17401   0.937   3.423  14.011 -0.3583 -0.0472  0.0412
 1922SOL    HW117402   0.926   3.391  14.101 -0.4457  1.7798  0.6792
 1922SOL    HW217403   0.848   3.456  13.997 -0.9252 -0.2404  3.0160
 1923SOL     OW17404   1.879   4.164   3.519 -0.0771 -0.0282  0.0282
 1923SOL    HW117405   1.802   4.138   3.468 -0.5212  1.6014 -0.1508
 1923SOL    HW217406   1.945   4.098   3.499  0.9542  0.1032  3.0200
 1924SOL     OW17407   4.126   2.820   1.596  0.4222 -0.1294  0.2250
 1924SOL    HW117408   4.221   2.823   1.607  0.5641 -0.7977 -0.7956
 1924SOL    HW217409   4.111   2.767   1.517 -0.0549  1.0796 -0.4948
 1925SOL     OW17410   1.262   3.295  11.613  0.2898 -0.4733  0.2150
 1925SOL    HW117411   1.168   3.280  11.612  0.0718  0.9304 -0.8033
 1925SOL    HW217412   1.270   3.356  11.539  0.8242 -0.6795  0.0985
 1926SOL     OW17413   4.074   2.607   2.451  0.0731  0.5523  0.2193
 1926SOL    HW117414   4.152   2.663   2.451  2.2508 -2.5082  0.0546
 1926SOL    HW217415   4.087   2.564   2.367  0.1470 -2.2140  1.6638
 1927SOL     OW17416   1.023   2.974  11.423  0.0105 -0.8204  0.3433
 1927SOL    HW117417   0.930   2.958  11.408 -0.0175 -1.3825  1.0887
 1927SOL    HW217418   1.041   3.049  11.366 -0.7236 -0.6637  0.3096
 1928SOL     OW17419   0.404   3.727   1.334 -0.1501 -0.4811 -0.5906
 1928SOL    HW117420   0.482   3.725   1.389 -0.6434 -0.5276  0.1055
 1928SOL    HW217421   0.431   3.782   1.261 -0.3649 -1.1669 -1.1895
 1929SOL     OW17422   3.610   2.175   7.433 -0.0576 -0.2003 -0.5512
 1929SOL    HW117423   3.675   2.160   7.501  0.2133  4.9090  0.3110
 1929SOL    HW217424   3.561   2.246   7.476  0.3016  1.1053 -2.2539
 1930SOL     OW17425   1.463   2.162  12.265 -0.1726  0.6529 -0.1661
 1930SOL    HW117426   1.550   2.146  12.230  0.1591  0.1101  0.9127
 1930SOL    HW217427   1.480   2.216  12.343  3.7235 -1.9157  0.7298
 1931SOL     OW17428   0.446   1.844  12.479 -0.2378  1.0220 -0.2333
 1931SOL    HW117429   0.413   1.909  12.417  1.2299  0.4947 -1.5982
 1931SOL    HW217430   0.368   1.834  12.533 -1.5465  2.3374 -1.8793
 1932SOL     OW17431   2.257   1.806   5.793 -0.3212 -0.2149 -0.5506
 1932SOL    HW117432   2.244   1.720   5.832 -0.9158 -0.9436 -2.3214
 1932SOL    HW217433   2.219   1.797   5.705  1.7638 -4.2610 -1.0559
 1933SOL     OW17434   3.294   3.213   1.931  0.3268 -0.6261  0.3829
 1933SOL    HW117435   3.305   3.298   1.974  0.4575  0.4639 -1.8232
 1933SOL    HW217436   3.380   3.173   1.943  1.3016  1.1625 -0.5956
 1934SOL     OW17437   3.600   0.237  16.085  0.1975 -0.1797 -0.3759
 1934SOL    HW117438   3.525   0.205  16.136 -0.2076  1.2399 -0.0698
 1934SOL    HW217439   3.671   0.218  16.146 -1.1477 -1.8950  0.6807
 1935SOL     OW17440   1.476   2.493   6.443 -0.2783  0.1822  0.5047
 1935SOL    HW117441   1.409   2.445   6.394 -2.9774  0.7108  3.6857
 1935SOL    HW217442   1.549   2.482   6.382  0.5037 -0.0425  1.4791
 1936SOL     OW17443   1.689   1.225  12.444 -0.3103  0.3834 -0.4669
 1936SOL    HW117444   1.688   1.232  12.348 -0.9051 -1.7908 -0.6216
 1936SOL    HW217445   1.642   1.146  12.468 -0.5875 -0.1288 -2.7395
 1937SOL     OW17446   1.019   4.599   1.752  0.3841  0.0765 -0.0300
 1937SOL    HW117447   1.058   4.669   1.804 -1.8562  0.5183  1.0432
 1937SOL    HW217448   0.946   4.652   1.721  0.6739  0.2031 -0.4816
 1938SOL     OW17449   2.268   1.438   8.663 -0.3813 -0.6590 -0.1620
 1938SOL    HW117450   2.339   1.493   8.697  0.2159 -1.5668  0.0600
 1938SOL    HW217451   2.244   1.394   8.744 -0.1025 -0.1470  0.1980
 1939SOL     OW17452   0.444   4.177   6.459 -0.7840  0.4859 -0.1109
 1939SOL    HW117453   0.524   4.168   6.406 -0.7973  0.7854 -0.1838
 1939SOL    HW217454   0.439   4.106   6.523 -0.5811  1.1159  0.6000
 1940SOL     OW17455   4.537   2.423   7.003 -0.7366  0.1106 -0.0594
 1940SOL    HW117456   4.540   2.333   6.972  1.7355  0.1407  0.1009
 1940SOL    HW217457   4.541   2.432   7.098 -2.2280 -1.0264  0.1159
 1941SOL     OW17458   3.028   4.183   4.151 -0.0300 -0.0703 -0.0097
 1941SOL    HW117459   3.042   4.209   4.242  2.4632  0.5160 -0.5471
 1941SOL    HW217460   2.945   4.136   4.151 -0.6550  1.0612 -0.7337
 1942SOL     OW17461   2.744   1.609   4.706  0.2811 -0.3594 -0.2928
 1942SOL    HW117462   2.674   1.675   4.707  1.4924  0.9279  0.0141
 1942SOL    HW217463   2.736   1.579   4.615 -2.0179  0.9063 -0.5297
 1943SOL     OW17464   3.484   0.812  15.284  0.1587  0.7328 -0.0157
 1943SOL    HW117465   3.533   0.743  15.328 -0.1619 -0.2892 -1.2740
 1943SOL    HW217466   3.500   0.791  15.192  2.0619  0.5061  0.3730
 1944SOL     OW17467   2.732   0.621   1.565  0.2632 -0.4982 -0.2603
 1944SOL    HW117468   2.779   0.563   1.625 -0.4533 -1.2291 -0.3964
 1944SOL    HW217469   2.652   0.573   1.544 -0.0594 -0.3469  0.6360
 1945SOL     OW17470   2.586   2.471   8.649  0.0436  0.1524  0.4139
 1945SOL    HW117471   2.523   2.411   8.689  0.3691 -0.9173 -0.7004
 1945SOL    HW217472   2.667   2.446   8.693 -0.1588  1.2981  1.4551
 1946SOL     OW17473   3.681   0.614  15.301 -0.4171 -0.1106  0.1436
 1946SOL    HW117474   3.741   0.675  15.260  1.5280 -1.4064  1.0156
 1946SOL    HW217475   3.690   0.537  15.244 -2.3096  0.1745 -0.5248
 1947SOL     OW17476   4.129   3.604   5.310 -0.4251  0.1838  0.2169
 1947SOL    HW117477   4.036   3.624   5.323 -0.7061 -1.2736  0.5534
 1947SOL    HW217478   4.160   3.694   5.305 -2.5398  0.9721  1.1673
 1948SOL     OW17479   1.513   0.797   4.870 -0.2957  0.1667  0.3272
 1948SOL    HW117480   1.567   0.854   4.816 -0.5661  1.0532  0.9837
 1948SOL    HW217481   1.518   0.834   4.958 -1.1830 -0.4379  0.6379
 1949SOL     OW17482   4.256   0.098   2.558  0.6020 -0.0017 -0.2169
 1949SOL    HW117483   4.339   0.067   2.521  0.2855 -0.5598 -0.4696
 1949SOL    HW217484   4.209   0.092   2.475  1.6223  3.3568 -1.0434
 1950SOL     OW17485   0.359   3.132   3.909 -0.4977  0.5280  0.3296
 1950SOL    HW117486   0.292   3.187   3.950 -0.7371  0.1372  0.4703
 1950SOL    HW217487   0.318   3.115   3.824  0.7895  0.2340 -0.2329
 1951SOL     OW17488   3.827   4.567  13.575 -0.1304  0.3820 -0.2076
 1951SOL    HW117489   3.804   4.475  13.584  2.2999 -0.2664 -0.5748
 1951SOL    HW217490   3.919   4.570  13.547 -1.0541 -0.8491 -3.3042
 1952SOL     OW17491   1.223   2.463  13.363  0.1783 -0.7304  0.2011
 1952SOL    HW117492   1.253   2.381  13.323  2.7927  1.3540 -2.1751
 1952SOL    HW217493   1.273   2.524  13.308  0.0213 -2.3895 -1.8036
 1953SOL     OW17494   3.790   4.089   7.042  0.3726  0.1576 -0.0924
 1953SOL    HW117495   3.764   4.159   7.102  1.2353  0.2858  0.1393
 1953SOL    HW217496   3.798   4.145   6.964  3.1071  0.8331  0.6732
 1954SOL     OW17497   3.425   2.542   2.978 -0.2434 -0.5634  0.1411
 1954SOL    HW117498   3.394   2.522   2.889 -0.3428 -2.4513  0.6070
 1954SOL    HW217499   3.490   2.472   2.982 -0.9818 -1.2782 -0.2353
 1955SOL     OW17500   2.367   2.388   5.697  0.2593 -0.2407  0.3000
 1955SOL    HW117501   2.295   2.450   5.705 -0.1453 -0.7725  0.8412
 1955SOL    HW217502   2.327   2.304   5.721  1.4500 -0.3906  1.7525
 1956SOL     OW17503   4.415   1.647   7.992  0.5318 -0.0860 -0.4299
 1956SOL    HW117504   4.395   1.555   7.973  0.1341 -0.1483  0.2790
 1956SOL    HW217505   4.447   1.639   8.082 -0.2534 -2.0628 -0.3284
 1957SOL     OW17506   1.416   3.826   5.720  0.1640 -0.6313  0.5603
 1957SOL    HW117507   1.487   3.767   5.744  1.5696  1.5219  1.6635
 1957SOL    HW217508   1.472   3.899   5.695 -0.2508 -0.9859 -1.3778
 1958SOL     OW17509   4.248   1.906   2.751  0.5109 -0.4334  0.3186
 1958SOL    HW117510   4.155   1.914   2.730  0.3085  0.4676  1.5514
 1958SOL    HW217511   4.250   1.844   2.824  0.8962 -0.7234  0.0633
 1959SOL     OW17512   0.339   2.377   4.806  0.1206  0.4332  0.1426
 1959SOL    HW117513   0.371   2.315   4.871 -1.5845  0.2927  0.8435
 1959SOL    HW217514   0.419   2.382   4.753 -1.5973  2.3576 -2.3243
 1960SOL     OW17515   4.236   2.386   1.287  0.0834 -0.4885  0.4158
 1960SOL    HW117516   4.331   2.385   1.298  0.1549  0.6904 -0.1246
 1960SOL    HW217517   4.215   2.478   1.267  2.1492 -0.6395 -2.4377
 1961SOL     OW17518   4.207   2.600   7.624 -0.2992  0.6153 -0.8384
 1961SOL    HW117519   4.287   2.567   7.581 -0.6130 -0.8067 -0.3395
 1961SOL    HW217520   4.136   2.567   7.568  0.3216  0.0412 -1.2962
 1962SOL     OW17521   1.424   0.234   2.716  0.3999 -0.2704 -0.2853
 1962SOL    HW117522   1.347   0.264   2.668  1.2368  1.0235 -0.8288
 1962SOL    HW217523   1.491   0.303   2.710  0.2438 -0.2610 -2.0277
 1963SOL     OW17524   1.341   2.956   9.848 -0.2134  0.3530  0.0727
 1963SOL    HW117525   1.350   2.889   9.780 -1.6628  2.6965 -2.4145
 1963SOL    HW217526   1.299   2.899   9.913 -1.2978  0.4957 -0.5038
 1964SOL     OW17527   4.535   0.504   3.474  0.2245 -0.9420 -0.4086
 1964SOL    HW117528   4.469   0.452   3.429 -0.3220 -0.6582  0.0626
 1964SOL    HW217529   4.515   0.501   3.568  0.2354  1.7371 -0.3019
 1965SOL     OW17530   3.788   4.737   7.631  0.2277 -0.0881  0.3533
 1965SOL    HW117531   3.717   0.018   7.569  1.5363 -0.7460 -1.3603
 1965SOL    HW217532   3.739   4.730   7.713 -1.0092 -0.4101 -0.4001
 1966SOL     OW17533   1.795   1.561  17.745 -0.2080 -0.3969  0.1170
 1966SOL    HW117534   1.840   1.477  17.751  1.5094  0.6138  1.5748
 1966SOL    HW217535   1.757   1.553  17.658  2.5308 -2.6997 -0.8685
 1967SOL     OW17536   3.882   1.534  12.844 -0.2824 -0.3111 -0.1555
 1967SOL    HW117537   3.906   1.476  12.917  1.9866  2.9060  1.6475
 1967SOL    HW217538   3.967   1.557  12.807  0.8679 -3.3042  0.6233
 1968SOL     OW17539   0.959   1.987   2.364 -0.2588  0.5196 -0.0458
 1968SOL    HW117540   0.895   2.007   2.432 -0.0973 -2.4319  0.9632
 1968SOL    HW217541   0.921   1.913   2.317  0.8038  0.2262 -0.4387
 1969SOL     OW17542   2.779   1.454   5.651 -0.6452  0.4285  0.6985
 1969SOL    HW117543   2.853   1.486   5.599 -2.3791  0.3713 -1.7778
 1969SOL    HW217544   2.722   1.530   5.644 -1.8358 -0.5472 -0.1173
 1970SOL     OW17545   4.428   4.226  17.461 -0.0500  0.1695  0.0896
 1970SOL    HW117546   4.343   4.270  17.462 -0.9943 -1.6416 -0.7300
 1970SOL    HW217547   4.486   4.302  17.455  0.0514 -0.0704 -2.0733
 1971SOL     OW17548   3.895   3.757  10.336 -0.0572 -0.4529 -0.4813
 1971SOL    HW117549   3.911   3.851  10.338 -2.2408 -0.0895 -0.4913
 1971SOL    HW217550   3.886   3.738  10.243 -1.3218  0.8236 -0.6077
 1972SOL     OW17551   1.718   0.111   9.794 -0.4267 -0.0998 -0.0607
 1972SOL    HW117552   1.669   0.075   9.868  0.7992 -1.1648  0.2345
 1972SOL    HW217553   1.696   0.201   9.820 -1.2418 -0.5116  0.6538
 1973SOL     OW17554   2.769   4.084   7.933  0.6852  0.3787  0.1162
 1973SOL    HW117555   2.724   4.017   7.986 -0.2441  1.4453  0.6706
 1973SOL    HW217556   2.702   4.109   7.869  0.3490 -3.5921 -1.0623
 1974SOL     OW17557   1.583   2.092  16.605  0.0912  0.0792 -0.1899
 1974SOL    HW117558   1.610   2.142  16.529 -0.0238  1.1674  0.4928
 1974SOL    HW217559   1.630   2.011  16.583 -3.1977 -1.5422 -1.3444
 1975SOL     OW17560   0.692   0.947   9.532 -0.7221  0.0258  0.2834
 1975SOL    HW117561   0.613   0.897   9.552 -1.5316  0.8317 -0.9817
 1975SOL    HW217562   0.714   0.990   9.614 -1.6033  0.6476  0.1892
 1976SOL     OW17563   3.778   2.744   6.152 -0.2339 -0.0223 -0.0202
 1976SOL    HW117564   3.704   2.735   6.212  1.1876 -0.9997  1.5882
 1976SOL    HW217565   3.831   2.666   6.168  1.4649  0.8283 -1.6637
 1977SOL     OW17566   4.563   3.729  10.749  0.0650  0.2273  0.2806
 1977SOL    HW117567   4.490   3.767  10.798 -0.0055 -1.4915  1.5333
 1977SOL    HW217568   4.539   3.636  10.758 -1.6089  0.7538  1.2027
 1978SOL     OW17569   3.300   3.803   3.548 -0.2847  0.3024  0.0578
 1978SOL    HW117570   3.322   3.753   3.627  0.4749  0.8118  0.1601
 1978SOL    HW217571   3.280   3.895   3.564 -2.0064 -0.3073  1.4056
 1979SOL     OW17572   4.130   2.008   5.895  0.0914  0.2380  0.2448
 1979SOL    HW117573   4.059   1.945   5.902  0.9231 -0.9486 -2.0504
 1979SOL    HW217574   4.085   2.071   5.839  1.0689 -0.0926 -0.9062
 1980SOL     OW17575   2.968   1.512  15.333 -0.2061  0.5445  0.2974
 1980SOL    HW117576   2.881   1.473  15.320 -0.3605  1.5140 -1.6272
 1980SOL    HW217577   2.960   1.551  15.420 -1.1545 -0.0556  0.4776
 1981SOL     OW17578   2.850   2.618   6.440 -0.1183  0.0286 -0.5620
 1981SOL    HW117579   2.841   2.525   6.457 -0.1435 -0.0163 -0.8254
 1981SOL    HW217580   2.930   2.633   6.491 -0.5847  1.6307 -0.2763
 1982SOL     OW17581   2.528   1.082   6.942  0.3416 -0.4067  0.3053
 1982SOL    HW117582   2.448   1.107   6.895 -0.3466 -2.5539  0.3247
 1982SOL    HW217583   2.539   1.158   6.999 -1.8885 -0.1816  0.4404
 1983SOL     OW17584   0.480   4.567  11.102  0.3610  0.2606 -0.1290
 1983SOL    HW117585   0.412   4.578  11.036 -1.1335  2.9069  1.8313
 1983SOL    HW217586   0.544   4.620  11.055  0.1038  0.7410  0.0609
 1984SOL     OW17587   2.398   2.524   4.465  0.2805  0.0305 -0.1931
 1984SOL    HW117588   2.336   2.481   4.405 -0.7010 -0.1826  0.9677
 1984SOL    HW217589   2.480   2.476   4.451  0.5551  0.0390  1.4367
 1985SOL     OW17590   4.399   4.575   9.377  0.1368  0.4039 -0.1322
 1985SOL    HW117591   4.339   4.550   9.306 -0.0899 -0.0994  0.2439
 1985SOL    HW217592   4.372   4.664   9.401 -0.8612  0.9480 -3.2432
 1986SOL     OW17593   0.145   4.652   7.812  0.2840  0.1866  0.1721
 1986SOL    HW117594   0.078   4.606   7.761  0.6928 -0.4130  0.1704
 1986SOL    HW217595   0.212   4.586   7.792  0.1733  0.2543 -0.4435
 1987SOL     OW17596   3.033   3.099   9.286 -0.1853 -0.2135  0.5927
 1987SOL    HW117597   3.013   3.154   9.363  0.7097 -0.8659  1.2831
 1987SOL    HW217598   2.958   3.045   9.263 -0.4298  0.6890 -0.7604
 1988SOL     OW17599   1.585   4.544  13.732  0.3205  0.1111  0.0643
 1988SOL    HW117600   1.537   4.485  13.790 -0.5414  0.9080  0.1598
 1988SOL    HW217601   1.649   4.583  13.791  1.1605 -1.7676  0.3707
 1989SOL     OW17602   4.568   4.507   5.067 -0.0555  0.1009 -0.3032
 1989SOL    HW117603   4.559   4.414   5.047  1.8049 -0.0237 -0.5286
 1989SOL    HW217604   4.614   4.526   4.984  0.9560  0.9870  0.4524
 1990SOL     OW17605   1.316   2.948   4.984  0.1818  0.0220 -0.0948
 1990SOL    HW117606   1.318   2.952   4.888 -0.5744  1.4823 -0.0459
 1990SOL    HW217607   1.376   2.874   4.997  1.8522  0.8591 -3.0143
 1991SOL     OW17608   1.048   3.019   7.765 -0.1105 -0.1022 -0.4415
 1991SOL    HW117609   1.008   2.998   7.850 -1.8552 -0.3221 -1.3114
 1991SOL    HW217610   1.136   2.984   7.779 -0.0382  1.3325  2.8226
 1992SOL     OW17611   1.695   3.971  17.152 -0.1327  0.0386 -0.4466
 1992SOL    HW117612   1.626   4.001  17.091  1.4540  1.3244 -1.6143
 1992SOL    HW217613   1.673   4.012  17.236  0.7957 -0.9860  0.2936
 1993SOL     OW17614   4.361   2.741   8.230  0.3859  0.5624 -0.0658
 1993SOL    HW117615   4.385   2.649   8.239  1.3584  0.6826 -1.4686
 1993SOL    HW217616   4.292   2.759   8.295  0.4468 -0.8978  0.3892
 1994SOL     OW17617   1.857   3.242  15.438 -0.0896  0.4361  0.1529
 1994SOL    HW117618   1.909   3.163  15.425 -1.3616 -0.7371  2.1715
 1994SOL    HW217619   1.775   3.209  15.401 -0.7256 -0.1540  2.0656
 1995SOL     OW17620   2.253   4.062  15.585 -0.6862  0.2316 -0.7270
 1995SOL    HW117621   2.169   4.031  15.620  0.7009 -1.6234  0.9271
 1995SOL    HW217622   2.251   4.156  15.602 -0.4293  0.1267 -0.1229
 1996SOL     OW17623   1.442   4.158   4.214  0.5014  0.4284  0.2789
 1996SOL    HW117624   1.492   4.143   4.135 -0.8758  2.4826 -0.9919
 1996SOL    HW217625   1.449   4.253   4.224  0.4021  0.3663  0.9702
 1997SOL     OW17626   2.658   0.174   8.513 -0.2199  0.1670  0.6023
 1997SOL    HW117627   2.649   0.190   8.419  1.0150  1.0778  0.6370
 1997SOL    HW217628   2.655   0.264   8.546 -0.0556 -0.8676  3.4342
 1998SOL     OW17629   3.414   1.249   6.009  0.0181 -0.9893  0.4634
 1998SOL    HW117630   3.505   1.261   6.038 -0.1620  3.1161 -0.6702
 1998SOL    HW217631   3.433   1.232   5.917  1.2765  2.1208  0.1335
 1999SOL     OW17632   3.172   3.854   6.063  0.0078 -0.5969 -0.3708
 1999SOL    HW117633   3.121   3.896   5.994 -1.4068  0.1813  1.1479
 1999SOL    HW217634   3.156   3.761   6.044  0.4719 -0.6676 -0.4034
 2000SOL     OW17635   1.388   1.515   0.790  0.0304  0.6781  0.1970
 2000SOL    HW117636   1.344   1.501   0.874 -0.3901 -1.2608 -0.3278
 2000SOL    HW217637   1.475   1.545   0.816  0.8061 -0.8224 -0.6469
 2001SOL     OW17638   1.795   4.329   7.311 -0.1153  0.0329 -0.5789
 2001SOL    HW117639   1.713   4.355   7.353  1.1367  1.1605  1.2004
 2001SOL    HW217640   1.866   4.342   7.375  0.5893  2.3476 -1.8213
 2002SOL     OW17641   4.532   1.881   8.671  0.3663  0.4414  0.2860
 2002SOL    HW117642   4.498   1.805   8.624  0.5799  1.5652 -1.6865
 2002SOL    HW217643   4.616   1.843   8.693  0.5098  0.1233 -0.8293
 2003SOL     OW17644   2.050   0.884  14.766 -0.4690 -0.4091  0.4646
 2003SOL    HW117645   1.997   0.964  14.759 -2.3763 -1.5641  1.7088
 2003SOL    HW217646   2.088   0.886  14.678 -2.1903  1.6529 -0.2453
 2004SOL     OW17647   0.545   0.467   8.934  0.1368 -0.4379 -0.6743
 2004SOL    HW117648   0.545   0.563   8.925 -0.4384 -0.2174  1.6976
 2004SOL    HW217649   0.460   0.429   8.916 -0.7809  1.3015  0.0141
 2005SOL     OW17650   2.296   4.517   0.746 -0.6001  0.5012  0.6072
 2005SOL    HW117651   2.334   4.434   0.771  1.0176  0.4105 -2.1256
 2005SOL    HW217652   2.202   4.516   0.766 -1.2241  3.3514 -2.0812
 2006SOL     OW17653   4.348   2.326   7.730 -0.6124  0.3804 -0.1334
 2006SOL    HW117654   4.273   2.296   7.679 -0.8695 -0.2840  0.6323
 2006SOL    HW217655   4.406   2.251   7.745  0.4483  1.1054 -0.6080
 2007SOL     OW17656   4.339   1.237   5.455  0.0231 -0.2072  0.1690
 2007SOL    HW117657   4.418   1.219   5.505 -0.1297 -0.3027  0.3744
 2007SOL    HW217658   4.336   1.158   5.400 -0.5483 -0.1689  0.1469
 2008SOL     OW17659   4.103   3.182  16.701 -0.0276  0.0539 -0.2389
 2008SOL    HW117660   4.072   3.141  16.621 -0.9155 -2.7699  1.5432
 2008SOL    HW217661   4.106   3.275  16.678  1.9892  0.1237  0.2637
 2009SOL     OW17662   3.191   1.750   6.731  0.2082 -0.0768 -0.0029
 2009SOL    HW117663   3.215   1.788   6.816  0.5904 -0.1458 -0.0764
 2009SOL    HW217664   3.153   1.664   6.751  4.0545 -1.2780  2.2009
 2010SOL     OW17665   4.292   4.056   2.013  0.0670 -0.0323 -0.0852
 2010SOL    HW117666   4.331   4.063   2.100  1.5161  1.1974 -0.8296
 2010SOL    HW217667   4.297   3.962   1.999  2.0018 -0.1308  1.3286
 2011SOL     OW17668   4.017   0.069   6.400  0.3727 -0.1075 -0.3254
 2011SOL    HW117669   3.998   0.101   6.312  0.4330  0.6896 -0.0562
 2011SOL    HW217670   3.941   0.013   6.414 -0.9736  1.6772 -0.4308
 2012SOL     OW17671   2.633   3.085   1.321 -0.1459  0.6897  0.4527
 2012SOL    HW117672   2.671   3.114   1.238  1.5676  1.3612  1.4804
 2012SOL    HW217673   2.706   3.063   1.378 -0.5191 -1.9531 -0.0944
 2013SOL     OW17674   4.411   4.383   7.335 -0.1680  0.5383  0.2840
 2013SOL    HW117675   4.364   4.345   7.409 -0.8289 -1.2999 -1.0724
 2013SOL    HW217676   4.448   4.304   7.296  0.4184  1.8259 -1.7647
 2014SOL     OW17677   2.705   2.794   5.030  0.0279 -0.0259  0.0852
 2014SOL    HW117678   2.700   2.768   5.122 -0.6305 -0.7815 -0.1708
 2014SOL    HW217679   2.797   2.823   5.035 -0.0721  0.1242  1.0205
 2015SOL     OW17680   2.465   0.730   8.047 -0.0705 -0.3771  0.1106
 2015SOL    HW117681   2.413   0.788   8.102 -0.4838  0.2471 -0.9600
 2015SOL    HW217682   2.544   0.782   8.031 -0.4031 -0.3188 -1.2768
 2016SOL     OW17683   0.692   0.645  10.391 -0.0397  0.9894 -0.1077
 2016SOL    HW117684   0.637   0.705  10.441  0.4211  0.7784  0.6666
 2016SOL    HW217685   0.676   0.567  10.443  1.0444  0.4393 -0.5846
 2017SOL     OW17686   3.153   3.774   5.696  0.4292 -0.4611  0.6068
 2017SOL    HW117687   3.116   3.755   5.611  1.2318 -0.1366  0.1837
 2017SOL    HW217688   3.240   3.795   5.661  1.7203 -1.2473  3.3144
 2018SOL     OW17689   0.480   0.865   9.665 -0.5331 -0.3161 -0.2169
 2018SOL    HW117690   0.385   0.873   9.654 -0.4236  1.7826  0.4084
 2018SOL    HW217691   0.492   0.903   9.752  0.6450  0.1478 -0.5915
 2019SOL     OW17692   3.671   3.206   6.244  0.4878 -0.2078 -0.3921
 2019SOL    HW117693   3.628   3.138   6.297 -1.3016 -0.0248 -1.6255
 2019SOL    HW217694   3.601   3.271   6.253  2.4806  1.8940 -0.1771
 2020SOL     OW17695   2.551   4.427   2.430  0.2353  0.1285  0.3504
 2020SOL    HW117696   2.553   4.482   2.351 -0.3344 -1.1259 -0.5480
 2020SOL    HW217697   2.564   4.495   2.496 -0.0598  1.4197 -0.9110
 2021SOL     OW17698   3.269   2.948   5.035  0.8091  0.4298  0.0043
 2021SOL    HW117699   3.354   2.914   5.006  1.0712  0.6349  0.5171
 2021SOL    HW217700   3.240   3.023   4.983 -2.5839 -0.2126  1.0224
 2022SOL     OW17701   0.458   2.414   1.817  0.2895  0.0994 -0.0937
 2022SOL    HW117702   0.502   2.435   1.899 -0.0994  0.8862 -0.0869
 2022SOL    HW217703   0.373   2.389   1.853 -0.2597  0.9627 -0.8164
 2023SOL     OW17704   2.313   1.794   6.608  0.1329  0.1130 -0.0288
 2023SOL    HW117705   2.372   1.819   6.679 -0.9975 -1.2140  1.3748
 2023SOL    HW217706   2.314   1.872   6.552 -2.0905 -0.4368 -0.8438
 2024SOL     OW17707   3.949   4.065   3.349 -0.6851  0.3640  0.0562
 2024SOL    HW117708   3.854   4.070   3.340 -0.3763  2.9377 -1.7803
 2024SOL    HW217709   3.974   4.154   3.371  1.4239 -0.1987 -0.0081
 2025SOL     OW17710   1.347   3.321   4.399 -0.4236 -0.4647  0.1538
 2025SOL    HW117711   1.425   3.276   4.431  0.1527  0.6233  0.2856
 2025SOL    HW217712   1.373   3.413   4.401  1.7782 -1.0758  0.0382
 2026SOL     OW17713   0.635   3.196   7.723  0.8768  0.4103 -0.2721
 2026SOL    HW117714   0.687   3.236   7.793 -1.2382 -1.8788  2.6287
 2026SOL    HW217715   0.543   3.216   7.738  0.5387 -0.5205 -1.1062
 2027SOL     OW17716   4.480   1.572   3.455 -0.2523 -0.0637 -0.2626
 2027SOL    HW117717   4.486   1.501   3.391 -0.2536 -0.6079  0.3438
 2027SOL    HW217718   4.413   1.623   3.409 -1.6464 -0.1633  1.6698
 2028SOL     OW17719   2.286   0.967   5.557  0.1944 -0.3197  0.2180
 2028SOL    HW117720   2.225   1.039   5.543  1.8241  0.9677 -0.2127
 2028SOL    HW217721   2.263   0.929   5.471  2.0717 -0.8298 -0.0604
 2029SOL     OW17722   4.041   4.491  11.361 -0.3159  0.1473  0.3834
 2029SOL    HW117723   4.022   4.581  11.389  1.8475  1.2710 -1.6945
 2029SOL    HW217724   3.984   4.440  11.418  2.5389 -1.5776  1.6981
 2030SOL     OW17725   1.484   3.573   4.647 -0.7166 -0.1140  0.1527
 2030SOL    HW117726   1.562   3.542   4.693 -1.2030  0.5608  1.4034
 2030SOL    HW217727   1.504   3.665   4.631  1.7354 -0.5464  0.6379
 2031SOL     OW17728   0.805   1.268   7.067  0.5178 -0.6205 -0.0326
 2031SOL    HW117729   0.782   1.337   7.004  0.7980 -1.1622 -0.7260
 2031SOL    HW217730   0.865   1.315   7.124 -1.0910  0.2369  0.9549
 2032SOL     OW17731   1.485   1.836   4.108  0.0948 -0.2466 -0.1472
 2032SOL    HW117732   1.487   1.932   4.114  1.8071 -0.2372 -0.8092
 2032SOL    HW217733   1.570   1.815   4.148  0.3747 -0.3603 -0.8009
 2033SOL     OW17734   0.914   4.664   5.634  0.1385  0.4386 -0.4207
 2033SOL    HW117735   0.870   4.579   5.642  0.0554  0.5429  0.2491
 2033SOL    HW217736   0.909   4.685   5.727  1.5695  0.2728 -0.3112
 2034SOL     OW17737   2.829   3.895   7.366  0.2446 -0.4312  0.0411
 2034SOL    HW117738   2.830   3.801   7.352  0.0995 -0.5061  0.5252
 2034SOL    HW217739   2.918   3.902   7.401 -0.1884 -2.7741  1.5905
 2035SOL     OW17740   0.011   0.977   2.018  0.1468  0.2259  0.7105
 2035SOL    HW117741   4.714   0.889   2.020 -0.4162  0.3949 -3.3389
 2035SOL    HW217742   0.093   0.960   1.973 -0.7072  0.8672 -1.0752
 2036SOL     OW17743   4.380   2.321   6.713  0.5467 -0.3201 -0.6036
 2036SOL    HW117744   4.316   2.350   6.647  1.6857  0.7125 -1.2671
 2036SOL    HW217745   4.342   2.252   6.766 -1.7390  0.3963 -1.3100
 2037SOL     OW17746   1.819   0.102   6.495  0.3847 -0.5878 -0.0161
 2037SOL    HW117747   1.742   0.058   6.459  1.4169 -1.5379 -1.0588
 2037SOL    HW217748   1.811   0.059   6.580 -0.5102  3.0393  1.7202
 2038SOL     OW17749   1.733   1.539   4.153  0.2646  0.2636 -0.0127
 2038SOL    HW117750   1.775   1.555   4.069 -2.5038 -0.2434 -1.4806
 2038SOL    HW217751   1.652   1.507   4.114 -1.7120  2.0540  2.6281
 2039SOL     OW17752   2.157   2.481   3.855  1.0285 -0.3462  0.3560
 2039SOL    HW117753   2.093   2.434   3.801  1.2950 -0.5672  0.2304
 2039SOL    HW217754   2.210   2.518   3.784 -1.5849  2.0428 -0.3227
 2040SOL     OW17755   3.682   0.845   6.176  0.2415  0.5128 -0.2136
 2040SOL    HW117756   3.709   0.753   6.165 -1.2795  0.1597 -1.0248
 2040SOL    HW217757   3.650   0.850   6.266  2.4563 -0.4523  0.6591
 2041SOL     OW17758   2.189   0.653   6.005  0.4631  0.2859 -0.0322
 2041SOL    HW117759   2.181   0.581   5.941 -0.5475 -0.3371  0.7950
 2041SOL    HW217760   2.283   0.666   5.994  0.1748  1.3963 -1.1115
 2042SOL     OW17761   2.165   3.833   7.994 -0.0277  0.1689 -0.1233
 2042SOL    HW117762   2.219   3.873   8.062 -2.7066  3.1666  0.2864
 2042SOL    HW217763   2.098   3.792   8.048 -1.2776  1.6828 -0.5226
 2043SOL     OW17764   2.543   4.071   2.005  0.3615  0.1268 -0.4444
 2043SOL    HW117765   2.557   4.112   2.091  1.3502 -0.2407 -0.4247
 2043SOL    HW217766   2.541   4.144   1.942  1.0145  1.1533  0.7186
 2044SOL     OW17767   2.369   0.103  12.670  0.0221  0.0573  0.1810
 2044SOL    HW117768   2.333   0.027  12.717  2.0794 -1.0878 -0.1132
 2044SOL    HW217769   2.369   0.059  12.585  1.5458  0.5401 -0.0649
 2045SOL     OW17770   1.148   4.660   5.260 -0.1395  0.0482 -0.1166
 2045SOL    HW117771   1.215   4.624   5.319  0.8220  0.1219 -1.1695
 2045SOL    HW217772   1.194   0.002   5.244  0.9569 -0.3494  1.0410
 2046SOL     OW17773   1.803   3.134   2.326 -0.3381 -0.4849 -0.1222
 2046SOL    HW117774   1.846   3.147   2.411 -3.3661  1.1186  1.1473
 2046SOL    HW217775   1.778   3.225   2.312  0.0070 -0.5344 -1.0218
 2047SOL     OW17776   2.247   1.992  14.388  0.5301  0.2541  0.3549
 2047SOL    HW117777   2.262   1.920  14.449 -0.5821  1.1134  1.6425
 2047SOL    HW217778   2.335   2.020  14.365  0.0976  0.0005 -1.5999
 2048SOL     OW17779   2.170   3.387   6.649 -0.3202  0.1888  0.1637
 2048SOL    HW117780   2.123   3.341   6.719 -0.4695  0.4304  0.2237
 2048SOL    HW217781   2.195   3.318   6.588  1.0933  2.3769 -1.7208
 2049SOL     OW17782   0.078   2.184   3.500  0.1100 -0.3593 -0.0160
 2049SOL    HW117783   0.100   2.127   3.426 -1.6850 -2.3519  0.9830
 2049SOL    HW217784   0.094   2.271   3.463  0.3989 -0.4798 -0.1710
 2050SOL     OW17785   1.199   1.851   3.702  0.4630 -0.0135  0.2830
 2050SOL    HW117786   1.147   1.869   3.781  1.0941  1.1213  0.4365
 2050SOL    HW217787   1.185   1.756   3.705 -0.5992  0.1789  1.4136
 2051SOL     OW17788   4.236   0.513  12.659 -0.6620  0.6501 -0.3891
 2051SOL    HW117789   4.215   0.421  12.643 -0.8208  0.4355  1.0568
 2051SOL    HW217790   4.243   0.543  12.569  0.2940 -0.5182 -0.7022
 2052SOL     OW17791   1.761   4.164   2.239 -0.3210  0.3334 -0.1641
 2052SOL    HW117792   1.776   4.187   2.147  0.0443  2.2628  0.3887
 2052SOL    HW217793   1.853   4.166   2.265 -0.7789  0.7632  1.4177
 2053SOL     OW17794   4.685   2.417   5.009 -0.3299 -0.1683 -0.3782
 2053SOL    HW117795   4.605   2.407   4.958 -0.3342 -0.0370 -0.3960
 2053SOL    HW217796   4.735   2.480   4.957  0.4279  0.2171  0.8188
 2054SOL     OW17797   4.384   2.305   5.421 -0.3278  0.1175 -0.3720
 2054SOL    HW117798   4.469   2.330   5.384 -1.3420  0.9152 -2.1738
 2054SOL    HW217799   4.419   2.272   5.503  0.1241  0.2817 -0.4991
 2055SOL     OW17800   2.196   4.340   2.124 -0.2519  0.4337  0.3141
 2055SOL    HW117801   2.252   4.283   2.177  0.5234  2.5120  1.7586
 2055SOL    HW217802   2.235   4.426   2.140  0.2286  0.1453  0.7053
 2056SOL     OW17803   3.929   0.126   3.811  0.1316  0.0743  0.6782
 2056SOL    HW117804   3.978   0.136   3.729 -0.0288  2.0381  0.8050
 2056SOL    HW217805   3.860   0.191   3.798  0.5486  0.1362 -1.1365
 2057SOL     OW17806   0.320   4.312   4.020 -0.8055  0.4719  0.0071
 2057SOL    HW117807   0.412   4.294   4.040 -1.2383 -0.8951  0.8293
 2057SOL    HW217808   0.327   4.402   3.990  2.9707  1.0169  2.5625
 2058SOL     OW17809   3.354   4.638   9.857  0.7239 -0.5118 -0.1913
 2058SOL    HW117810   3.322   4.670   9.942 -1.8130 -2.5717 -0.3654
 2058SOL    HW217811   3.280   4.656   9.799  0.9337  0.8320 -0.0458
 2059SOL     OW17812   1.041   3.463   4.339  0.3519  0.4267 -0.8181
 2059SOL    HW117813   1.121   3.512   4.362 -0.8516  1.4239  1.2782
 2059SOL    HW217814   0.997   3.511   4.409  1.8367  0.7496 -0.0995
 2060SOL     OW17815   1.913   0.191   4.369 -0.3268  0.1830 -0.4365
 2060SOL    HW117816   1.879   0.160   4.285 -0.2747  1.2620 -0.8647
 2060SOL    HW217817   2.008   0.189   4.361 -0.4367  0.0941 -1.7847
 2061SOL     OW17818   2.304   0.024   7.825  0.3233 -0.0170 -0.6245
 2061SOL    HW117819   2.249   0.095   7.793 -1.5220 -1.1482  0.0740
 2061SOL    HW217820   2.233   4.707   7.853 -0.2780  1.5996  1.2096
 2062SOL     OW17821   1.257   2.277   5.773  0.3023  0.1763 -0.3917
 2062SOL    HW117822   1.162   2.284   5.780  0.1731 -0.7875 -1.0340
 2062SOL    HW217823   1.289   2.350   5.720  0.7503 -1.6920 -2.7022
 2063SOL     OW17824   0.224   2.781  13.346  0.1008  0.5532 -0.1351
 2063SOL    HW117825   0.311   2.799  13.312 -0.0319  1.4906  0.0332
 2063SOL    HW217826   0.181   2.862  13.320 -0.4488  0.6296  0.9992
 2064SOL     OW17827   1.070   2.786   2.097  0.0409  0.0819  0.0236
 2064SOL    HW117828   1.009   2.859   2.088 -1.4860 -1.0528  1.1727
 2064SOL    HW217829   1.010   2.719   2.129 -0.8875  0.0686 -1.7393
 2065SOL     OW17830   0.474   4.000   1.673 -0.5268  0.1468 -0.1828
 2065SOL    HW117831   0.401   4.001   1.612  0.2279 -2.4520 -1.1644
 2065SOL    HW217832   0.469   3.905   1.688  0.5191 -0.2788 -2.5660
 2066SOL     OW17833   3.438   0.466   8.480 -0.0143  0.1659  0.4840
 2066SOL    HW117834   3.423   0.381   8.523  1.5592 -0.9037 -1.0596
 2066SOL    HW217835   3.487   0.451   8.399 -2.2043 -1.5745 -0.5345
 2067SOL     OW17836   4.188   2.430  14.768  0.0225  0.4449 -0.6755
 2067SOL    HW117837   4.119   2.430  14.834  1.3855 -3.1345  0.7484
 2067SOL    HW217838   4.188   2.523  14.745  0.2468  0.3628 -1.0047
 2068SOL     OW17839   1.139   0.893   5.189  0.4488 -0.7284  0.6017
 2068SOL    HW117840   1.075   0.909   5.259  0.4710  0.1974  0.4211
 2068SOL    HW217841   1.133   0.970   5.131  0.4310  0.1199  1.7260
 2069SOL     OW17842   1.748   3.876  11.339 -0.4279  0.2047  0.1707
 2069SOL    HW117843   1.792   3.923  11.268  0.4528 -1.7118 -0.5701
 2069SOL    HW217844   1.818   3.815  11.360  0.1459  0.6046 -0.5722
 2070SOL     OW17845   1.632   4.376   7.634 -0.2273  0.0433  0.2172
 2070SOL    HW117846   1.579   4.302   7.602  0.3908 -0.5941  0.6730
 2070SOL    HW217847   1.578   4.419   7.701 -1.0268 -2.2095  1.0325
 2071SOL     OW17848   2.954   0.011   3.487  0.1603 -0.2393  0.3010
 2071SOL    HW117849   3.049   4.736   3.486  0.0329 -0.9926 -0.3805
 2071SOL    HW217850   2.942   4.739   3.393 -0.5066  1.6816  0.1241
 2072SOL     OW17851   3.688   0.005   8.941  0.1077  0.0420 -0.4993
 2072SOL    HW117852   3.759   0.011   8.876  0.2615  0.9087 -0.2526
 2072SOL    HW217853   3.733   0.028   9.022  2.2458  0.5358 -1.8153
 2073SOL     OW17854   2.407   3.871   6.618 -0.3657  0.8070 -0.0602
 2073SOL    HW117855   2.382   3.869   6.710 -0.5966  0.9418 -0.1213
 2073SOL    HW217856   2.336   3.817   6.584 -0.5838  0.4884  0.9044
 2074SOL     OW17857   3.175   2.258  13.973 -0.1093 -0.3653  0.0299
 2074SOL    HW117858   3.209   2.320  13.908 -0.2842  0.6914  0.9504
 2074SOL    HW217859   3.182   2.179  13.919  1.0736  0.0159 -0.3598
 2075SOL     OW17860   3.183   1.510   9.086 -0.1124  0.1742  0.0255
 2075SOL    HW117861   3.240   1.438   9.061 -1.2792 -0.7856  0.1155
 2075SOL    HW217862   3.120   1.468   9.144 -2.0506  0.3211 -1.9661
 2076SOL     OW17863   2.118   3.339   2.226 -0.1773 -0.3268  0.0989
 2076SOL    HW117864   2.060   3.369   2.296  1.2033  0.2993  0.9697
 2076SOL    HW217865   2.055   3.314   2.158 -0.1886  0.9857 -0.3856
 2077SOL     OW17866   4.357   3.586   5.010  0.2476  0.1016  0.2599
 2077SOL    HW117867   4.409   3.579   4.929 -0.4461  1.1880 -0.2858
 2077SOL    HW217868   4.418   3.603   5.081  0.6098  0.7728 -0.2021
 2078SOL     OW17869   3.640   0.274  12.466  0.2195  0.1239 -0.1028
 2078SOL    HW117870   3.550   0.304  12.479  1.1568  2.7445  0.3714
 2078SOL    HW217871   3.645   0.186  12.503 -0.1484 -1.4835 -3.8990
 2079SOL     OW17872   0.871   4.279   0.716 -0.2958 -0.0792 -0.4613
 2079SOL    HW117873   0.943   4.251   0.659 -0.6225 -2.9162  0.5697
 2079SOL    HW217874   0.863   4.368   0.681 -1.3427 -0.1227 -0.3170
 2080SOL     OW17875   2.386   0.231   3.455 -0.1731 -0.8174  0.0270
 2080SOL    HW117876   2.466   0.283   3.440 -1.4216  0.4011 -2.3968
 2080SOL    HW217877   2.413   0.140   3.441 -0.9948 -0.8583 -1.2684
 2081SOL     OW17878   1.856   0.987   6.649  0.4404  0.0816 -0.2990
 2081SOL    HW117879   1.812   1.068   6.623  1.6850  1.2397  1.2110
 2081SOL    HW217880   1.799   0.916   6.620 -0.2770  0.5771 -0.0977
 2082SOL     OW17881   2.205   2.807   8.547 -0.0885 -0.4384 -0.3252
 2082SOL    HW117882   2.150   2.793   8.470 -4.2709 -0.2088  2.6297
 2082SOL    HW217883   2.181   2.897   8.567 -0.8626 -0.6303 -0.4124
 2083SOL     OW17884   2.089   1.029   4.309 -0.4185  0.6621  0.4923
 2083SOL    HW117885   2.137   1.107   4.281  1.4638 -0.0548  1.7534
 2083SOL    HW217886   2.008   1.037   4.258 -1.0677 -1.7969  1.1295
 2084SOL     OW17887   0.651   3.457  10.815 -0.1911 -0.3283  0.0652
 2084SOL    HW117888   0.582   3.391  10.815 -1.8236  1.3925  1.0548
 2084SOL    HW217889   0.715   3.398  10.857  1.7990  1.1851 -0.8412
 2085SOL     OW17890   0.586   1.241   5.971 -0.3071 -0.7224 -0.0481
 2085SOL    HW117891   0.511   1.183   5.959 -1.6584  0.7587  1.2635
 2085SOL    HW217892   0.609   1.274   5.883 -0.6198  2.0156  0.8811
 2086SOL     OW17893   4.327   1.780   3.699  0.3499 -0.1576  0.1157
 2086SOL    HW117894   4.333   1.696   3.655  0.7075 -0.8183  1.4039
 2086SOL    HW217895   4.258   1.771   3.765  0.6808  0.4175  0.5470
 2087SOL     OW17896   3.360   2.250  15.819  0.0825  0.3147  0.1557
 2087SOL    HW117897   3.355   2.199  15.739  4.9951  0.2717 -0.1120
 2087SOL    HW217898   3.306   2.325  15.795  0.7901  0.1411 -1.9573
 2088SOL     OW17899   4.577   1.488   0.959  0.6287 -0.0511  0.6856
 2088SOL    HW117900   4.563   1.401   0.922  1.2300 -0.1955  0.7949
 2088SOL    HW217901   4.536   1.480   1.045  1.4816 -2.6001  0.8866
 2089SOL     OW17902   0.248   0.089  14.695  0.8541 -0.3016 -0.0685
 2089SOL    HW117903   0.172   0.143  14.718  1.3940  0.6088 -0.4030
 2089SOL    HW217904   0.222   4.738  14.709 -0.1833 -0.0681 -0.4007
 2090SOL     OW17905   2.096   1.962  13.998 -0.1576  0.0648 -0.8903
 2090SOL    HW117906   2.185   1.942  14.026  0.0690 -0.4559 -2.0012
 2090SOL    HW217907   2.051   1.925  14.074 -3.2453 -0.4072 -2.9622
 2091SOL     OW17908   0.746   3.564  14.326  0.1925  0.3931  0.3009
 2091SOL    HW117909   0.741   3.562  14.422  0.4403 -2.7834  0.2600
 2091SOL    HW217910   0.770   3.475  14.302 -2.8004  0.0064 -1.2303
 2092SOL     OW17911   3.051   4.694   5.105  0.0321 -0.1233 -0.8470
 2092SOL    HW117912   3.124   4.669   5.048 -0.3137 -2.7383 -0.1828
 2092SOL    HW217913   3.100   4.711   5.185 -1.9091 -1.1446  0.5615
 2093SOL     OW17914   3.120   1.037   4.565  0.6118  0.2642 -0.0798
 2093SOL    HW117915   3.041   0.983   4.559  1.0572 -0.5775  1.4779
 2093SOL    HW217916   3.151   0.987   4.640  0.2610  1.1153  0.6242
 2094SOL     OW17917   0.513   0.437   1.742  0.5800 -0.5801 -0.2335
 2094SOL    HW117918   0.602   0.462   1.718  0.8877 -2.1573 -0.7669
 2094SOL    HW217919   0.519   0.341   1.746 -1.6004 -0.5812  2.9137
 2095SOL     OW17920   1.100   1.144   6.115  0.5729  0.8098 -0.0363
 2095SOL    HW117921   1.111   1.071   6.054 -2.2817  0.2499  0.1447
 2095SOL    HW217922   1.035   1.198   6.070 -0.3112  0.0163  0.3007
 2096SOL     OW17923   1.406   0.532   1.910  0.9038  0.3191  1.3018
 2096SOL    HW117924   1.324   0.561   1.951  0.2196  0.4887 -0.1995
 2096SOL    HW217925   1.391   0.437   1.909  1.8726  0.1648  2.1056
 2097SOL     OW17926   4.364   1.291   7.930  0.5769  0.1507 -0.1490
 2097SOL    HW117927   4.395   1.237   8.002 -2.4025 -1.3954 -0.0171
 2097SOL    HW217928   4.275   1.263   7.910 -0.1930  1.7288  1.0378
 2098SOL     OW17929   3.668   2.236  17.363 -0.1152 -0.4837 -0.5457
 2098SOL    HW117930   3.754   2.228  17.323  0.6629  0.1055  1.0100
 2098SOL    HW217931   3.623   2.201  17.286  0.6175 -1.5348 -0.4761
 2099SOL     OW17932   3.570   3.074   1.981  0.0212 -0.1154  0.1330
 2099SOL    HW117933   3.554   2.991   2.027  0.3792  0.1739  0.7799
 2099SOL    HW217934   3.657   3.057   1.948 -0.8295 -2.4102 -0.9085
 2100SOL     OW17935   3.183   4.338   3.482 -0.3328 -0.2649 -0.0110
 2100SOL    HW117936   3.276   4.359   3.488 -0.1082 -0.5480 -2.5597
 2100SOL    HW217937   3.145   4.403   3.542 -1.8415 -1.7303  0.6279
 2101SOL     OW17938   1.860   2.414  16.168 -0.5327  0.8753 -0.1535
 2101SOL    HW117939   1.866   2.505  16.137 -1.2487  1.2198  0.6855
 2101SOL    HW217940   1.819   2.373  16.092  1.1672  0.0919 -0.6235
 2102SOL     OW17941   2.198   1.486   3.645 -0.5355 -0.0453  0.1343
 2102SOL    HW117942   2.121   1.487   3.588 -1.3529 -2.3621  1.2061
 2102SOL    HW217943   2.213   1.581   3.650 -1.8385  0.2087 -0.5529
 2103SOL     OW17944   0.467   4.130   8.088 -0.8215 -0.5876  0.2975
 2103SOL    HW117945   0.526   4.139   8.163 -1.6589  2.3572  0.6189
 2103SOL    HW217946   0.525   4.077   8.034 -0.0365  0.6711 -0.1082
 2104SOL     OW17947   1.725   2.772   4.005  0.2583  0.2266 -0.4280
 2104SOL    HW117948   1.730   2.849   4.062  1.2009 -0.2086  0.0726
 2104SOL    HW217949   1.810   2.729   4.000  0.1386  0.0128 -0.6355
 2105SOL     OW17950   1.449   3.717   2.860  0.6699  0.1414 -0.0189
 2105SOL    HW117951   1.358   3.748   2.858 -0.1317 -2.3325 -1.4604
 2105SOL    HW217952   1.448   3.648   2.794  1.5356  0.0490  0.0724
 2106SOL     OW17953   4.294   3.633  13.866  0.2968  0.2125 -0.4647
 2106SOL    HW117954   4.219   3.648  13.808  0.2950 -1.1370 -0.8308
 2106SOL    HW217955   4.311   3.721  13.897  1.0169  0.2629 -1.0062
 2107SOL     OW17956   4.159   1.384   6.690 -0.2291 -0.4500 -0.5593
 2107SOL    HW117957   4.169   1.367   6.784 -1.7115 -2.6930 -0.8209
 2107SOL    HW217958   4.082   1.441   6.699  0.1130 -0.3171  1.6127
 2108SOL     OW17959   0.278   2.454  16.574 -0.1480  0.0142 -0.5467
 2108SOL    HW117960   0.373   2.461  16.585 -0.2245 -0.2876  0.2967
 2108SOL    HW217961   0.265   2.428  16.483  0.8280  3.4575 -1.6641
 2109SOL     OW17962   0.521   1.878  15.850  0.1142 -0.4523 -0.1105
 2109SOL    HW117963   0.557   1.789  15.846 -0.5558 -0.6468 -1.8711
 2109SOL    HW217964   0.448   1.869  15.790  0.4591 -2.9728 -0.1475
 2110SOL     OW17965   3.019   4.733   7.441 -0.8863  0.2884  0.0996
 2110SOL    HW117966   2.932   0.022   7.470 -0.7580  0.6254  0.1425
 2110SOL    HW217967   3.066   0.072   7.415  1.3459 -1.6868 -1.8215
 2111SOL     OW17968   3.466   4.187   3.873  0.2778 -0.4544 -0.2279
 2111SOL    HW117969   3.439   4.107   3.920 -3.2868  2.8307  3.3096
 2111SOL    HW217970   3.520   4.221   3.945 -1.7619 -0.5893  1.3760
 2112SOL     OW17971   3.426   1.913   2.448  0.6016  0.2232 -0.0831
 2112SOL    HW117972   3.416   2.008   2.438 -0.2691  0.0965 -0.3701
 2112SOL    HW217973   3.498   1.900   2.386  0.8139  0.8807  0.0212
 2113SOL     OW17974   0.922   1.835   8.794 -0.3846  0.1009  0.2060
 2113SOL    HW117975   0.976   1.892   8.739 -0.0045  0.8662  1.3725
 2113SOL    HW217976   0.843   1.880   8.762 -0.6963  0.1010  0.9787
 2114SOL     OW17977   0.007   0.738  11.430  0.5610  0.1887  0.0237
 2114SOL    HW117978   0.045   0.659  11.469 -1.1568  0.2910  1.9151
 2114SOL    HW217979   4.726   0.789  11.509 -2.2217 -0.1585 -0.5086
 2115SOL     OW17980   4.192   2.936   1.288 -0.1713  0.6358 -0.0384
 2115SOL    HW117981   4.221   2.993   1.216 -0.5370  1.2106  0.2675
 2115SOL    HW217982   4.165   2.999   1.354  0.9936  1.8899 -0.7403
 2116SOL     OW17983   0.682   2.568   2.030  0.4005 -0.2177  0.1653
 2116SOL    HW117984   0.761   2.530   1.993  0.0931 -1.9159  1.2817
 2116SOL    HW217985   0.719   2.621   2.101  1.8869 -0.2160 -0.6134
 2117SOL     OW17986   3.900   2.675   3.348 -0.4920  0.5835  0.2107
 2117SOL    HW117987   3.937   2.713   3.268  0.0743 -0.1484  0.1212
 2117SOL    HW217988   3.977   2.700   3.398  0.5708 -1.1755 -0.5200
 2118SOL     OW17989   3.178   2.493   4.999  0.3714  0.3414  0.4013
 2118SOL    HW117990   3.262   2.538   5.006 -0.2370  1.2159  2.0091
 2118SOL    HW217991   3.127   2.558   4.951  0.5175 -0.6435 -1.0779
 2119SOL     OW17992   0.472   2.697   8.307  0.2203  0.2820 -0.1609
 2119SOL    HW117993   0.458   2.718   8.215 -3.7434 -0.5013  0.2398
 2119SOL    HW217994   0.422   2.762   8.356 -1.7852 -1.1871 -0.2160
 2120SOL     OW17995   1.685   3.311   3.490 -0.5943 -0.2250  0.8113
 2120SOL    HW117996   1.726   3.375   3.432  0.8536  0.2357  2.3415
 2120SOL    HW217997   1.672   3.239   3.428 -0.4264 -2.0583  2.9140
 2121SOL     OW17998   1.050   1.242  13.610  0.4002 -0.2778 -0.0971
 2121SOL    HW117999   1.071   1.269  13.521  1.9499 -2.3912 -0.3810
 2121SOL    HW218000   1.085   1.315  13.661 -0.1779  0.0759 -0.2034
 2122SOL     OW18001   3.614   1.626   0.623 -0.4068  0.4587  0.0354
 2122SOL    HW118002   3.587   1.674   0.545  1.6709  0.5502 -0.6113
 2122SOL    HW218003   3.539   1.656   0.675 -1.0092 -0.7050 -0.1360
 2123SOL     OW18004   0.809   1.809   3.144 -0.1767  0.2533  0.2476
 2123SOL    HW118005   0.789   1.901   3.129  0.1570  0.4725  1.1796
 2123SOL    HW218006   0.867   1.799   3.068 -0.2358  0.7754  0.1394
 2124SOL     OW18007   0.111   2.072   4.492 -0.1299  0.1455 -0.3275
 2124SOL    HW118008   0.032   2.041   4.449  0.6304 -0.3047 -1.4248
 2124SOL    HW218009   0.090   2.115   4.575 -2.4648  2.1460 -1.9452
 2125SOL     OW18010   0.808   0.738   6.789 -0.0617 -0.8866 -0.0792
 2125SOL    HW118011   0.851   0.785   6.718 -0.7111  1.0450  0.8005
 2125SOL    HW218012   0.866   0.664   6.806  2.3771  0.7850 -1.1445
 2126SOL     OW18013   3.606   2.220  13.091  0.0291 -0.0088  0.5533
 2126SOL    HW118014   3.659   2.150  13.052 -0.1156 -0.4294  1.1312
 2126SOL    HW218015   3.589   2.171  13.171 -1.4959  0.0595  0.2546
 2127SOL     OW18016   1.691   2.029   7.756 -0.2054  0.9877 -0.6904
 2127SOL    HW118017   1.612   2.045   7.704 -1.4127 -1.4919  0.3290
 2127SOL    HW218018   1.695   2.101   7.817 -0.3324  1.4754 -1.2552
 2128SOL     OW18019   3.099   2.415   3.475  0.2267 -0.3420 -0.5554
 2128SOL    HW118020   3.111   2.322   3.461  0.9729  0.1005 -2.8787
 2128SOL    HW218021   3.029   2.431   3.412 -0.6119 -0.5644  0.3313
 2129SOL     OW18022   4.681   2.014  16.857  0.6014 -0.0491  0.3364
 2129SOL    HW118023   4.675   2.069  16.935  1.1572 -0.3248  0.5761
 2129SOL    HW218024   4.588   2.006  16.835  1.3651 -1.8964 -2.1895
 2130SOL     OW18025   0.775   2.700   2.248  0.1094  0.5398  0.7449
 2130SOL    HW118026   0.748   2.661   2.331  1.5535 -0.6172  0.6760
 2130SOL    HW218027   0.724   2.779   2.233 -1.3868 -1.1099 -2.8449
 2131SOL     OW18028   4.063   3.394   0.847  0.5469 -0.5919  0.1328
 2131SOL    HW118029   4.126   3.463   0.826 -0.4200  0.2345 -0.0473
 2131SOL    HW218030   4.119   3.316   0.848  0.5677 -0.5546  1.2085
 2132SOL     OW18031   2.807   0.691   6.074  0.4570 -0.0348 -0.4428
 2132SOL    HW118032   2.792   0.648   6.157 -0.6362  0.8470 -0.1722
 2132SOL    HW218033   2.756   0.771   6.086 -0.7272 -0.7687 -0.5939
 2133SOL     OW18034   2.841   0.390   8.952  0.9124  0.0027  0.4219
 2133SOL    HW118035   2.845   0.335   9.030  3.9163 -0.3559  0.0256
 2133SOL    HW218036   2.876   0.473   8.983 -3.4590  1.7753  0.5366
 2134SOL     OW18037   2.563   0.167   2.090  0.1551 -0.3288 -0.1041
 2134SOL    HW118038   2.566   0.238   2.026 -2.6367 -1.5107 -1.5525
 2134SOL    HW218039   2.654   0.154   2.115 -0.4366 -1.0292  1.7022
 2135SOL     OW18040   2.139   4.656  12.192 -0.3226 -0.0525  1.0828
 2135SOL    HW118041   2.051   4.631  12.218 -0.7227 -0.3957 -0.6111
 2135SOL    HW218042   2.178   4.569  12.178 -2.2371 -0.3313 -2.5100
 2136SOL     OW18043   0.671   4.704   2.421 -0.0885  0.3542  0.3073
 2136SOL    HW118044   0.696   4.612   2.414 -1.2609 -0.0063  0.8434
 2136SOL    HW218045   0.730   4.734   2.490  1.7801  1.4668 -1.7823
 2137SOL     OW18046   3.379   1.257  11.901  0.1379  0.5867 -0.2529
 2137SOL    HW118047   3.406   1.337  11.947  2.7607 -2.4031  3.4012
 2137SOL    HW218048   3.463   1.241  11.858  0.7917  1.0788  0.8450
 2138SOL     OW18049   3.301   2.080   6.216  0.3092  0.2603 -0.5861
 2138SOL    HW118050   3.269   2.168   6.193 -3.7361 -1.2510 -0.8151
 2138SOL    HW218051   3.354   2.108   6.291 -2.1167  0.1053  1.1761
 2139SOL     OW18052   4.426   0.688   6.346  0.4598 -0.3878 -0.3877
 2139SOL    HW118053   4.438   0.721   6.435  1.2216  1.0633 -1.0454
 2139SOL    HW218054   4.333   0.710   6.335  0.5990 -0.0001 -0.7811
 2140SOL     OW18055   4.274   2.206  13.633  0.2228  0.2066 -0.5223
 2140SOL    HW118056   4.299   2.297  13.649  0.6164  0.2264 -1.2617
 2140SOL    HW218057   4.340   2.163  13.687 -0.2015 -1.8860 -1.7126
 2141SOL     OW18058   0.263   3.777   2.358  1.2801  0.5317 -0.4361
 2141SOL    HW118059   0.285   3.686   2.341 -0.2215 -0.6608  4.0750
 2141SOL    HW218060   0.305   3.790   2.443  0.2993 -0.5672  0.2227
 2142SOL     OW18061   1.255   3.297   6.586 -0.1005  0.0549  0.2798
 2142SOL    HW118062   1.292   3.246   6.514  1.4062 -0.9768  1.7933
 2142SOL    HW218063   1.294   3.380   6.559 -0.6457  0.5081  0.8925
 2143SOL     OW18064   1.323   3.584   4.426  0.4891  0.1618 -0.6945
 2143SOL    HW118065   1.393   3.637   4.387 -2.3103  4.2187 -0.1459
 2143SOL    HW218066   1.359   3.574   4.515  0.9528  0.0644 -0.8947
 2144SOL     OW18067   4.516   1.586   5.819  0.0562 -0.2028  0.0932
 2144SOL    HW118068   4.581   1.542   5.872 -0.6058 -1.0808  0.1690
 2144SOL    HW218069   4.448   1.522   5.801 -0.9954  1.7892 -3.0960
 2145SOL     OW18070   4.275   0.609   2.628  0.1165 -0.3713  0.4982
 2145SOL    HW118071   4.273   0.640   2.718  2.1411  0.8862  0.0952
 2145SOL    HW218072   4.254   0.517   2.645 -1.1664 -0.2953 -0.6458
 2146SOL     OW18073   3.703   1.813   7.274  0.1924 -0.3288 -0.1659
 2146SOL    HW118074   3.711   1.905   7.250  2.1631 -0.7867 -1.2220
 2146SOL    HW218075   3.744   1.808   7.361 -0.0813 -1.8057 -0.1226
 2147SOL     OW18076   2.029   1.152   3.879 -0.4651 -0.0379  0.2640
 2147SOL    HW118077   2.053   1.184   3.966 -0.5781  0.4281  0.1209
 2147SOL    HW218078   2.115   1.136   3.840 -2.0999 -4.0168 -1.7075
 2148SOL     OW18079   0.101   0.037  16.687 -0.6057  0.1996  0.1744
 2148SOL    HW118080   0.195   0.047  16.672 -0.5508 -1.8271 -0.8044
 2148SOL    HW218081   0.102   4.691  16.727 -1.6855 -0.0088 -0.2574
 2149SOL     OW18082   0.211   0.946   3.174 -0.1946 -0.0206 -0.0083
 2149SOL    HW118083   0.292   0.977   3.215 -0.6194  1.0268  0.0125
 2149SOL    HW218084   0.225   0.853   3.194 -2.2165 -0.7126 -1.7970
 2150SOL     OW18085   0.514   3.276   2.688  0.1281 -0.0267 -0.2863
 2150SOL    HW118086   0.487   3.363   2.658 -0.6203 -0.0267  0.3831
 2150SOL    HW218087   0.593   3.269   2.634 -0.1447  3.2582 -1.1433
 2151SOL     OW18088   0.208   0.584   3.691  0.1569  0.1159  0.6696
 2151SOL    HW118089   0.155   0.508   3.716  0.2467 -0.0775  0.2695
 2151SOL    HW218090   0.240   0.543   3.611 -0.7871  1.2867 -0.3178
 2152SOL     OW18091   2.297   4.131  16.760  0.6111 -0.0182 -0.5392
 2152SOL    HW118092   2.285   4.183  16.839  0.9020  0.0870 -0.5643
 2152SOL    HW218093   2.326   4.047  16.798  2.9165  0.7642 -0.5427
 2153SOL     OW18094   2.499   1.756   2.400 -0.4631 -0.3715 -0.0766
 2153SOL    HW118095   2.464   1.689   2.459 -1.8628 -0.2709 -0.7965
 2153SOL    HW218096   2.433   1.825   2.407  0.2487  0.2136  0.8731
 2154SOL     OW18097   4.295   2.108  10.409  0.3886  0.0015  0.0691
 2154SOL    HW118098   4.326   2.195  10.384  0.5966  0.0244  0.4008
 2154SOL    HW218099   4.213   2.124  10.456  0.5019  2.9790 -0.7383
 2155SOL     OW18100   3.842   3.000   1.945 -0.2981  0.1041  0.7595
 2155SOL    HW118101   3.870   2.964   2.029  0.5639 -1.1819 -0.0711
 2155SOL    HW218102   3.842   2.929   1.880 -1.5570  0.2493  0.5965
 2156SOL     OW18103   3.493   4.322   8.627 -0.1856  0.0554 -0.1145
 2156SOL    HW118104   3.573   4.375   8.627 -0.8630  1.0763 -1.7042
 2156SOL    HW218105   3.489   4.274   8.545  0.7796 -1.7618  0.9117
 2157SOL     OW18106   2.541   3.238  12.658 -0.2127 -0.7148  0.1589
 2157SOL    HW118107   2.464   3.185  12.674 -0.7112  0.0297  0.2361
 2157SOL    HW218108   2.534   3.301  12.730 -0.8070 -0.5712 -0.0291
 2158SOL     OW18109   1.907   1.716   5.639 -0.4198 -0.2852  0.0185
 2158SOL    HW118110   1.868   1.731   5.725  1.0949 -0.4776  0.7271
 2158SOL    HW218111   1.842   1.656   5.601 -0.1968 -0.9772  0.7360
 2159SOL     OW18112   4.057   3.056   1.782 -0.6267 -0.2587 -0.1450
 2159SOL    HW118113   4.019   3.019   1.861  1.0027 -0.8466  0.3707
 2159SOL    HW218114   4.085   2.980   1.732 -0.1805 -1.1733  1.4865
 2160SOL     OW18115   0.430   3.176   9.103 -0.1370 -0.0629 -0.1747
 2160SOL    HW118116   0.448   3.100   9.048 -0.4267  0.0646 -0.4423
 2160SOL    HW218117   0.481   3.242   9.054  0.2738  0.4840  0.9913
 2161SOL     OW18118   0.895   1.044   6.927 -0.1749  0.1020  0.1714
 2161SOL    HW118119   0.861   1.116   6.981 -0.6638 -2.2108  2.9745
 2161SOL    HW218120   0.826   0.979   6.917  0.6794 -0.7926  0.0964
 2162SOL     OW18121   1.650   4.617  16.807  0.1191  0.1918 -0.0836
 2162SOL    HW118122   1.594   4.539  16.803  0.9097 -0.3651 -0.1208
 2162SOL    HW218123   1.664   4.618  16.902  0.8101 -1.7763 -0.1680
 2163SOL     OW18124   4.399   0.585   1.296  0.4867 -0.4373 -0.2611
 2163SOL    HW118125   4.359   0.639   1.364  0.1253 -1.4754  0.3487
 2163SOL    HW218126   4.356   0.611   1.214  0.8116  0.0265 -0.2887
 2164SOL     OW18127   4.037   2.151   7.346  0.2475 -0.3996  0.5709
 2164SOL    HW118128   3.958   2.117   7.390  0.5859 -2.1384 -0.1736
 2164SOL    HW218129   4.097   2.079   7.365  0.4130  0.1503  2.1629
 2165SOL     OW18130   4.507   2.294   8.462  0.0063 -0.2178  0.4328
 2165SOL    HW118131   4.457   2.241   8.524 -3.0188  1.2463 -0.7301
 2165SOL    HW218132   4.514   2.240   8.383  1.0080  2.2015 -1.1081
 2166SOL     OW18133   2.246   4.631   8.930 -0.2262 -0.4376 -0.3757
 2166SOL    HW118134   2.266   4.724   8.922  1.6644 -0.7116  1.2373
 2166SOL    HW218135   2.212   4.642   9.018  0.3359  0.8276 -0.3245
 2167SOL     OW18136   3.494   2.231   3.540 -0.0879  0.3875  0.0198
 2167SOL    HW118137   3.504   2.137   3.555  0.4107  0.7824  2.1667
 2167SOL    HW218138   3.411   2.217   3.496 -1.0954  0.6809  1.8240
 2168SOL     OW18139   0.407   1.515  12.534 -0.2934  0.6494  0.4931
 2168SOL    HW118140   0.328   1.464  12.517 -0.8449  1.8252 -0.4764
 2168SOL    HW218141   0.366   1.582  12.589 -4.7009 -0.2880 -1.6651
 2169SOL     OW18142   4.682   2.002   1.659 -0.0818  0.8078 -0.6404
 2169SOL    HW118143   4.590   2.025   1.669 -0.2645  0.0830 -0.6195
 2169SOL    HW218144   4.731   2.084   1.653  0.4372  0.4467 -1.2999
 2170SOL     OW18145   1.060   2.194  15.516 -0.1726 -0.5312 -0.2236
 2170SOL    HW118146   0.969   2.195  15.484  0.6343 -0.2596 -2.5237
 2170SOL    HW218147   1.102   2.213  15.432  1.2859 -1.6987  0.2435
 2171SOL     OW18148   1.120   3.754  12.714  0.0507 -0.2933  0.3684
 2171SOL    HW118149   1.203   3.706  12.721 -1.5061 -2.7569  1.8477
 2171SOL    HW218150   1.151   3.844  12.709 -1.2035 -0.0043 -1.7313
 2172SOL     OW18151   1.371   0.022   1.757 -0.2564 -0.0777  0.0245
 2172SOL    HW118152   1.328   4.698   1.700 -0.3882 -1.1335  1.3209
 2172SOL    HW218153   1.444   4.706   1.783  0.2153 -0.3574 -1.8605
 2173SOL     OW18154   2.548   0.043  17.105 -0.2118  0.1430 -0.1756
 2173SOL    HW118155   2.485   0.110  17.078  1.5614  2.3880  1.2384
 2173SOL    HW218156   2.624   0.099  17.090  1.7178 -2.1979  0.9381
 2174SOL     OW18157   1.441   0.797   2.713 -0.5290 -0.0827  0.0391
 2174SOL    HW118158   1.454   0.880   2.758  0.5850 -0.6525  0.7448
 2174SOL    HW218159   1.348   0.775   2.719 -0.3343 -0.5229  1.2992
 2175SOL     OW18160   1.004   2.056  17.347 -0.4598 -0.1615 -0.1203
 2175SOL    HW118161   1.078   2.071  17.405 -0.8491  0.2128  0.2763
 2175SOL    HW218162   0.940   2.115  17.389  1.0691  0.8912  0.7140
 2176SOL     OW18163   3.429   0.306   6.901 -0.3736  0.3321 -0.4960
 2176SOL    HW118164   3.429   0.251   6.823  1.8120  0.6185 -0.6821
 2176SOL    HW218165   3.353   0.355   6.869 -2.1455 -0.8923  1.8000
 2177SOL     OW18166   0.488   3.496   7.558 -0.1437  0.2411 -0.2256
 2177SOL    HW118167   0.433   3.572   7.539 -2.7492 -1.3816  0.9663
 2177SOL    HW218168   0.453   3.437   7.492  0.7003  0.7026 -1.0972
 2178SOL     OW18169   1.665   0.581   3.884  0.2683 -0.1671  0.0065
 2178SOL    HW118170   1.704   0.649   3.830  1.1716  0.1247  1.0187
 2178SOL    HW218171   1.730   0.587   3.954  0.3049 -0.7519  0.0267
 2179SOL     OW18172   2.943   0.316   7.303  0.7832 -0.0841  0.1649
 2179SOL    HW118173   2.912   0.396   7.346 -0.1519  1.6737 -3.7927
 2179SOL    HW218174   2.981   0.358   7.226 -1.3570  1.2784 -0.1696
 2180SOL     OW18175   0.231   2.701   2.648 -0.2285 -0.4971  0.3301
 2180SOL    HW118176   0.236   2.763   2.575 -0.3923 -1.5476 -0.5815
 2180SOL    HW218177   0.307   2.643   2.638  1.2665  1.4425  0.2790
 2181SOL     OW18178   0.118   1.588  11.820 -0.2830 -0.8964  0.1691
 2181SOL    HW118179   0.072   1.511  11.855 -0.1958 -1.4164 -0.8575
 2181SOL    HW218180   0.085   1.599  11.731 -0.5653  0.5616  0.4570
 2182SOL     OW18181   0.064   1.784   4.967 -0.1083  0.4191  0.2703
 2182SOL    HW118182   0.040   1.732   4.891  0.7038  2.7599 -1.6046
 2182SOL    HW218183   0.127   1.726   5.010 -2.1194 -0.5042  1.9729
 2183SOL     OW18184   1.989   3.953  11.206  0.2242  0.4046  0.8461
 2183SOL    HW118185   1.990   4.040  11.167  3.7793 -0.3044 -0.6509
 2183SOL    HW218186   2.020   3.908  11.127 -1.0998 -0.5411  0.8510
 2184SOL     OW18187   0.826   0.006   0.611 -0.8232 -0.3020  0.2631
 2184SOL    HW118188   0.769   0.049   0.547  1.0660  2.2878  0.3177
 2184SOL    HW218189   0.908   4.732   0.563 -0.9422 -1.6819  0.4576
 2185SOL     OW18190   2.396   0.902  14.551 -0.3245  0.0902  0.2463
 2185SOL    HW118191   2.467   0.858  14.505  0.8254  1.5019  0.6420
 2185SOL    HW218192   2.419   0.990  14.520  2.3852 -0.5708  0.3425
 2186SOL     OW18193   1.380   3.509   8.436 -0.0112  0.0522  0.6083
 2186SOL    HW118194   1.429   3.563   8.498  1.1506 -0.0570 -0.1914
 2186SOL    HW218195   1.290   3.540   8.427  0.2063 -0.4935 -3.8944
 2187SOL     OW18196   2.421   0.416   5.686 -0.4242  0.2653  0.6825
 2187SOL    HW118197   2.445   0.505   5.661 -0.0938 -0.2730 -0.9398
 2187SOL    HW218198   2.348   0.423   5.748 -0.5303 -0.3411  0.6270
 2188SOL     OW18199   1.055   2.251   5.429  0.4006  0.6289  0.5304
 2188SOL    HW118200   1.107   2.179   5.463 -0.0437  0.2236  0.3661
 2188SOL    HW218201   1.048   2.317   5.498  0.0171 -0.2586  1.3445
 2189SOL     OW18202   0.034   0.524   1.828 -0.4424  0.1220 -0.5959
 2189SOL    HW118203   0.077   0.499   1.910 -0.9311  0.3543 -0.2606
 2189SOL    HW218204   0.067   0.457   1.769  2.0870  0.9425 -0.0844
 2190SOL     OW18205   0.690   3.507   2.055 -0.1349 -0.2247  0.2679
 2190SOL    HW118206   0.729   3.419   2.063 -0.1008 -0.0567  1.9412
 2190SOL    HW218207   0.765   3.547   2.010 -0.1072 -0.0672  0.4558
 2191SOL     OW18208   1.750   3.169  13.701 -0.6548  0.6599  0.0403
 2191SOL    HW118209   1.663   3.128  13.691 -0.0669 -0.0362 -2.3825
 2191SOL    HW218210   1.744   3.241  13.638 -2.0917  0.8982  0.4486
 2192SOL     OW18211   0.602   4.107   9.354 -0.1583 -0.7578 -0.3470
 2192SOL    HW118212   0.528   4.077   9.406 -0.0342 -0.3804  0.0467
 2192SOL    HW218213   0.568   4.189   9.318 -1.8632 -0.3942  2.1756
 2193SOL     OW18214   0.853   4.561   0.828  0.5209 -0.5046  0.2158
 2193SOL    HW118215   0.834   4.635   0.771 -0.4549 -0.4208  0.6498
 2193SOL    HW218216   0.948   4.576   0.835  0.5453  0.0239 -1.2872
 2194SOL     OW18217   2.839   1.872   0.797  0.1009  0.1077 -0.1188
 2194SOL    HW118218   2.834   1.873   0.701  2.1754  2.0390 -0.1972
 2194SOL    HW218219   2.875   1.784   0.807 -0.0396 -0.1677 -1.9600
 2195SOL     OW18220   3.008   4.735   3.221  0.0811 -0.5103 -0.0138
 2195SOL    HW118221   3.038   0.085   3.211 -0.9074 -0.2067 -0.2493
 2195SOL    HW218222   3.070   4.671   3.187 -1.6067 -0.5329 -3.1168
 2196SOL     OW18223   0.565   2.831  13.824  0.1901  0.6748 -0.5874
 2196SOL    HW118224   0.661   2.832  13.814 -0.0303 -0.6212 -2.8419
 2196SOL    HW218225   0.532   2.829  13.734 -0.5660 -0.4383 -0.2924
 2197SOL     OW18226   0.138   2.256   2.188  0.3024  0.3081 -0.0317
 2197SOL    HW118227   0.192   2.273   2.111  2.9698 -3.9977  0.8258
 2197SOL    HW218228   0.184   2.175   2.214  1.8077  1.1996  0.1118
 2198SOL     OW18229   4.705   3.063   9.476  0.8046 -0.7446 -0.0805
 2198SOL    HW118230   0.048   3.062   9.430  1.5929 -1.2296  1.3667
 2198SOL    HW218231   4.635   3.034   9.418  0.5992  1.1732 -0.8087
 2199SOL     OW18232   1.302   1.427   3.794 -0.1025 -0.1461  0.0911
 2199SOL    HW118233   1.307   1.522   3.809  0.7885 -0.4068  1.5350
 2199SOL    HW218234   1.386   1.416   3.750  0.0075  1.7076 -0.1729
 2200SOL     OW18235   1.576   0.221   1.129 -0.0947  0.6702  0.2003
 2200SOL    HW118236   1.496   0.209   1.077 -0.8914  0.0536  1.5849
 2200SOL    HW218237   1.649   0.173   1.089 -1.5526 -3.2328  2.2128
 2201SOL     OW18238   2.604   2.914   2.850 -0.1132  0.5925  0.0205
 2201SOL    HW118239   2.562   2.986   2.897 -2.3936 -0.4846 -0.3492
 2201SOL    HW218240   2.639   2.860   2.921 -1.0061 -1.5342 -1.1700
 2202SOL     OW18241   1.040   2.495   7.973 -0.2449  0.4837 -0.4382
 2202SOL    HW118242   1.053   2.416   7.920 -0.0266 -0.5552  1.1751
 2202SOL    HW218243   1.113   2.540   7.931 -0.5171  1.1465 -0.2073
 2203SOL     OW18244   1.087   2.924   0.175  0.1056 -0.3122  0.5463
 2203SOL    HW118245   1.101   2.971   0.093 -3.4804  0.3412  0.3065
 2203SOL    HW218246   0.998   2.893   0.161  0.2273 -0.7492  0.7616
 2204SOL     OW18247   0.158   2.766   6.794  0.5943  0.6814 -0.2743
 2204SOL    HW118248   0.196   2.730   6.874 -0.4022 -0.3881 -0.2942
 2204SOL    HW218249   0.109   2.844   6.820 -1.7638 -0.9712  0.2297
 2205SOL     OW18250   4.613   1.062   8.081 -0.2782 -0.0642 -0.3203
 2205SOL    HW118251   4.574   1.057   7.994 -1.4595 -2.6964  0.3601
 2205SOL    HW218252   4.704   1.042   8.064  0.1388  1.0719  0.5476
 2206SOL     OW18253   1.242   0.045   7.146 -0.2722 -0.1414 -0.3796
 2206SOL    HW118254   1.255   4.729   7.070 -0.4209  0.6678 -0.9953
 2206SOL    HW218255   1.148   0.029   7.156 -0.3521  0.3207 -0.4102
 2207SOL     OW18256   3.269   4.011   9.800 -0.2516 -0.1718  0.3171
 2207SOL    HW118257   3.273   4.049   9.712 -2.6140 -0.4368  0.1022
 2207SOL    HW218258   3.259   4.089   9.855 -2.4692 -0.6942  0.6520
 2208SOL     OW18259   2.165   1.722   9.013 -0.0512 -0.1409 -0.2023
 2208SOL    HW118260   2.102   1.658   8.980  0.4924 -0.1136 -1.2868
 2208SOL    HW218261   2.234   1.673   9.058 -0.8384  0.4523  1.6574
 2209SOL     OW18262   0.714   4.036   0.685 -0.4579  0.1889 -0.2582
 2209SOL    HW118263   0.671   4.013   0.767 -0.5510  0.7170 -0.1569
 2209SOL    HW218264   0.757   4.116   0.714 -1.2054 -0.5244  2.8643
 2210SOL     OW18265   4.128   3.101   6.185 -0.0087  0.3921  0.2869
 2210SOL    HW118266   4.061   3.125   6.122  0.2183 -2.6239 -1.1114
 2210SOL    HW218267   4.210   3.102   6.135 -1.4700  1.4125 -2.0894
 2211SOL     OW18268   0.198   2.915   1.153 -0.5741 -0.2059  0.2256
 2211SOL    HW118269   0.111   2.912   1.115 -1.7358  0.6600  2.8381
 2211SOL    HW218270   0.253   2.960   1.089 -0.7060 -0.5089 -0.1036
 2212SOL     OW18271   1.977   2.361   3.646 -0.2384 -0.0723 -0.1457
 2212SOL    HW118272   2.020   2.427   3.591 -0.8819  0.0100 -0.5524
 2212SOL    HW218273   1.931   2.315   3.576  1.0917  0.6796 -1.5263
 2213SOL     OW18274   1.547   0.674  16.866 -0.7813 -0.0372 -0.2848
 2213SOL    HW118275   1.506   0.746  16.818  0.0973  0.4775 -0.2425
 2213SOL    HW218276   1.472   0.614  16.862 -0.6162 -0.3057  0.7081
 2214SOL     OW18277   0.901   1.482  12.545 -0.2023 -0.0379 -0.3957
 2214SOL    HW118278   0.996   1.472  12.537 -0.1402  1.2649 -1.3091
 2214SOL    HW218279   0.867   1.451  12.461  1.7262  1.7023 -1.7969
 2215SOL     OW18280   1.123   3.402   4.734 -0.4468 -0.4823 -0.0375
 2215SOL    HW118281   1.084   3.348   4.803 -3.4265  0.3439 -1.0792
 2215SOL    HW218282   1.103   3.350   4.656 -1.6715  2.1199 -1.4372
 2216SOL     OW18283   0.226   1.698   6.234  0.7412  0.8165  0.2233
 2216SOL    HW118284   0.319   1.677   6.231  1.0649  2.5207 -1.6850
 2216SOL    HW218285   0.203   1.622   6.288  1.4082  2.1938  2.4603
 2217SOL     OW18286   1.165   2.475   4.874  0.1387  0.1135  0.1324
 2217SOL    HW118287   1.236   2.537   4.890  0.8996 -1.2232  1.8701
 2217SOL    HW218288   1.205   2.395   4.908  0.8878  1.2026  1.8329
 2218SOL     OW18289   4.006   1.051   2.759 -0.1032 -0.2308  0.3314
 2218SOL    HW118290   4.019   0.995   2.683  0.2543  1.9302 -1.1989
 2218SOL    HW218291   4.095   1.087   2.766  0.1305 -0.4562 -1.7814
 2219SOL     OW18292   2.142   3.189   2.682  0.2226 -0.7561 -0.3625
 2219SOL    HW118293   2.163   3.133   2.756  3.0655  0.8504  0.0241
 2219SOL    HW218294   2.228   3.184   2.641  0.1049 -1.0348 -0.5813
 2220SOL     OW18295   3.976   2.114   0.538 -0.1362 -0.0707  0.7685
 2220SOL    HW118296   4.033   2.189   0.557  1.4467 -1.0242 -0.2689
 2220SOL    HW218297   3.893   2.142   0.577 -0.4105 -1.4721  1.1664
 2221SOL     OW18298   0.429   4.259  15.134 -0.4446  0.1308 -0.5965
 2221SOL    HW118299   0.410   4.166  15.123  1.8467 -0.5294  1.1192
 2221SOL    HW218300   0.483   4.259  15.213 -0.3866 -1.6235 -0.6436
 2222SOL     OW18301   1.797   0.307  10.021  0.1140  0.1624  0.1660
 2222SOL    HW118302   1.712   0.335   9.988  0.3399 -0.1424 -0.6615
 2222SOL    HW218303   1.759   0.259  10.095 -0.3897  2.4072  1.3616
 2223SOL     OW18304   4.290   2.937   1.960  0.0403  0.4396  0.1909
 2223SOL    HW118305   4.357   2.876   1.928 -1.6830 -1.8426  0.8638
 2223SOL    HW218306   4.314   3.017   1.913  2.6792 -0.3744  0.1584
 2224SOL     OW18307   4.363   1.051   2.032 -0.2755  0.6094 -0.0322
 2224SOL    HW118308   4.416   1.025   1.957 -2.1455 -2.2566 -0.3644
 2224SOL    HW218309   4.303   1.109   1.984  1.4894  1.4449 -1.2112
 2225SOL     OW18310   1.856   4.444  16.755  0.5762 -0.6891  0.3554
 2225SOL    HW118311   1.807   4.412  16.679  0.5527 -1.1608  0.5668
 2225SOL    HW218312   1.809   4.524  16.780  3.1719  0.7256  0.6446
 2226SOL     OW18313   4.100   4.052   7.550 -0.3323 -0.1107 -0.6599
 2226SOL    HW118314   4.165   3.990   7.582 -2.2639  0.2700  4.0977
 2226SOL    HW218315   4.112   4.039   7.456 -0.4690 -1.0382 -0.5482
 2227SOL     OW18316   0.384   1.959  17.154  0.2674 -0.0963  0.2781
 2227SOL    HW118317   0.332   1.935  17.231  3.0208  3.6112  3.3178
 2227SOL    HW218318   0.394   2.050  17.183  0.8082 -0.0067 -0.2091
 2228SOL     OW18319   4.242   4.686   3.980 -0.2559 -0.6959  0.2036
 2228SOL    HW118320   4.230   4.663   4.072  0.4970  0.8074  0.6645
 2228SOL    HW218321   4.246   0.039   4.002 -1.8489 -0.5275 -0.1861
 2229SOL     OW18322   1.300   4.490   4.818 -0.4757  0.5226  0.5720
 2229SOL    HW118323   1.282   4.582   4.838  0.6424  0.8160  0.2178
 2229SOL    HW218324   1.219   4.457   4.780  1.3410  1.0113 -3.7118
 2230SOL     OW18325   0.729   1.283  15.537  0.0673  0.1815  0.1617
 2230SOL    HW118326   0.743   1.214  15.603  2.0598 -0.6395 -1.1285
 2230SOL    HW218327   0.821   1.309  15.540  0.0796  0.3516 -2.0876
 2231SOL     OW18328   0.920   1.085   2.449  0.3489  0.4948  0.0818
 2231SOL    HW118329   0.899   1.093   2.356 -1.2584 -5.0875 -0.0842
 2231SOL    HW218330   1.000   1.136   2.453  0.2612  0.5339  1.2603
 2232SOL     OW18331   4.696   2.923   1.527  0.4354 -0.6207  0.3651
 2232SOL    HW118332   4.673   2.842   1.572  1.5728 -1.1553 -0.0208
 2232SOL    HW218333   0.044   2.934   1.562 -0.4072 -1.5541  2.7416
 2233SOL     OW18334   2.109   0.213   7.788  0.3680 -0.2638  0.3553
 2233SOL    HW118335   2.024   0.219   7.745  0.0174  0.7949  1.2211
 2233SOL    HW218336   2.093   0.256   7.871  2.9300  1.1195  0.1240
 2234SOL     OW18337   4.226   0.308   4.927  0.0714 -0.1686  0.8412
 2234SOL    HW118338   4.320   0.319   4.915 -0.0336  0.6660  0.7572
 2234SOL    HW218339   4.201   0.289   4.837  0.7658 -0.6573  0.7542
 2235SOL     OW18340   4.323   4.211   5.342  0.0504  0.0016 -0.5108
 2235SOL    HW118341   4.307   4.209   5.437  1.1802  0.0034 -0.3172
 2235SOL    HW218342   4.341   4.305   5.332 -0.4083  0.1921  0.4726
 2236SOL     OW18343   4.373   3.013   6.448 -0.6147  0.5770  0.4798
 2236SOL    HW118344   4.371   3.056   6.533  0.3714 -1.4712  1.5353
 2236SOL    HW218345   4.313   2.939   6.457  0.8203 -0.5239  1.0347
 2237SOL     OW18346   4.457   2.274   9.074  0.2505 -0.0041  0.2449
 2237SOL    HW118347   4.489   2.304   9.159  2.6215 -0.9098 -0.3267
 2237SOL    HW218348   4.470   2.355   9.025  1.4691  0.6319  1.6173
 2238SOL     OW18349   4.547   1.758  13.004 -0.1568 -0.1379  0.1960
 2238SOL    HW118350   4.603   1.710  12.943 -0.4055  0.0292 -0.1654
 2238SOL    HW218351   4.562   1.850  12.981 -0.1003  0.1263  1.2894
 2239SOL     OW18352   0.110   3.119   5.249  0.0044  0.2471 -0.4203
 2239SOL    HW118353   0.158   3.179   5.191 -0.6402  0.5209 -0.6680
 2239SOL    HW218354   0.075   3.065   5.178  1.8234 -0.8968 -0.4578
 2240SOL     OW18355   4.348   0.235   9.822  0.1691 -0.0550  0.0250
 2240SOL    HW118356   4.339   0.258   9.914 -1.9146  0.1954 -0.2287
 2240SOL    HW218357   4.398   0.308   9.787 -2.2899  1.6311  0.0585
 2241SOL     OW18358   2.058   3.440   4.946 -0.0194  0.4191 -0.5426
 2241SOL    HW118359   2.047   3.352   4.983  1.9203  1.3630  2.3455
 2241SOL    HW218360   1.964   3.457   4.947 -0.2519 -0.8760  0.1618
 2242SOL     OW18361   0.680   3.492   6.876 -0.2647 -0.2546 -0.0179
 2242SOL    HW118362   0.763   3.452   6.850  0.6194  0.3688  1.7959
 2242SOL    HW218363   0.664   3.478   6.970 -0.7042 -1.5995 -0.2975
 2243SOL     OW18364   0.468   3.074   8.063 -0.1426  0.1469  0.1585
 2243SOL    HW118365   0.387   3.126   8.061  1.5359  2.6968 -1.0219
 2243SOL    HW218366   0.526   3.134   8.109 -0.1355  1.4415 -1.5505
 2244SOL     OW18367   4.401   4.405   3.675  0.0270 -0.2406 -0.6489
 2244SOL    HW118368   4.410   4.372   3.764  2.0632  0.3405 -0.6213
 2244SOL    HW218369   4.399   4.321   3.628  1.7802 -1.1118  0.8147
 2245SOL     OW18370   1.685   3.760  11.587  0.1030  0.0911  0.5755
 2245SOL    HW118371   1.693   3.809  11.505  0.1865 -1.8236 -0.5779
 2245SOL    HW218372   1.667   3.830  11.650  0.1369  0.6753 -0.0667
 2246SOL     OW18373   2.664   0.195  16.242  0.1675 -0.0115  0.2487
 2246SOL    HW118374   2.601   0.140  16.195  2.3348 -0.3103 -2.2878
 2246SOL    HW218375   2.751   0.169  16.212 -0.2768 -0.7394 -0.4251
 2247SOL     OW18376   0.712   2.737   4.026  0.1453  0.5217 -0.0748
 2247SOL    HW118377   0.720   2.653   4.071 -0.2306  0.7282  0.3754
 2247SOL    HW218378   0.788   2.736   3.967 -1.8933 -0.7207 -2.6357
 2248SOL     OW18379   1.813   2.657  16.410 -0.3199  0.3844  0.2680
 2248SOL    HW118380   1.834   2.621  16.324  0.1623  1.8020 -0.2109
 2248SOL    HW218381   1.771   2.735  16.375  1.4953  0.8441 -0.8890
 2249SOL     OW18382   0.033   2.181   4.734 -0.1651 -0.6517  0.1911
 2249SOL    HW118383   0.054   2.274   4.742 -1.8619 -0.3094  0.5075
 2249SOL    HW218384   0.081   2.145   4.809  0.5170 -1.8443 -0.8053
 2250SOL     OW18385   2.646   2.884   5.554  0.2303  0.2569 -0.0422
 2250SOL    HW118386   2.606   2.824   5.492 -0.7500  0.8655 -0.0112
 2250SOL    HW218387   2.712   2.826   5.592  1.4081  1.2361 -0.6135
 2251SOL     OW18388   1.722   1.125   9.207 -0.0485 -0.0698  0.2092
 2251SOL    HW118389   1.711   1.207   9.158  0.2869  0.9741  1.9011
 2251SOL    HW218390   1.767   1.076   9.138 -0.0787  1.2694 -0.7734
 2252SOL     OW18391   4.283   3.543   7.122 -0.8820 -0.0482 -0.8559
 2252SOL    HW118392   4.372   3.536   7.087 -0.7162  0.7530 -0.5963
 2252SOL    HW218393   4.284   3.482   7.195  0.7237  0.2296 -0.6355
 2253SOL     OW18394   3.270   4.725   7.627 -0.3351 -0.0786 -0.4779
 2253SOL    HW118395   3.212   0.004   7.554 -0.0908 -1.5196 -1.0544
 2253SOL    HW218396   3.213   4.696   7.698 -0.6060  0.2698 -0.5579
 2254SOL     OW18397   2.846   4.139   8.548 -0.1574  0.5138 -0.1830
 2254SOL    HW118398   2.774   4.119   8.488  1.7697  0.1576 -2.3784
 2254SOL    HW218399   2.904   4.065   8.532 -0.5891 -0.1631  1.4839
 2255SOL     OW18400   1.058   0.379   1.211  0.3371  0.2644 -0.6230
 2255SOL    HW118401   1.105   0.298   1.231  0.1956  0.9239  2.3225
 2255SOL    HW218402   1.122   0.445   1.238  0.7872 -0.3274 -0.2676
 2256SOL     OW18403   1.616   3.564  10.415  0.3302 -0.7538 -0.3625
 2256SOL    HW118404   1.531   3.607  10.406  0.1288 -0.9764  0.4749
 2256SOL    HW218405   1.665   3.614  10.480 -0.8053  0.8078 -0.7297
 2257SOL     OW18406   4.532   4.253   4.980 -0.5191 -0.3482 -0.1070
 2257SOL    HW118407   4.586   4.180   5.007  1.0567  1.5037  1.7371
 2257SOL    HW218408   4.519   4.233   4.887  0.1145  1.0476 -0.5050
 2258SOL     OW18409   1.531   2.531   3.634 -0.2021  0.1480 -0.2006
 2258SOL    HW118410   1.525   2.436   3.624  4.1336 -0.1932  0.7476
 2258SOL    HW218411   1.516   2.566   3.546 -0.8288  2.4606  0.8157
 2259SOL     OW18412   2.507   2.662  16.343 -0.1243 -0.6268  0.5744
 2259SOL    HW118413   2.483   2.754  16.332  0.0757 -0.4929  1.2593
 2259SOL    HW218414   2.603   2.662  16.346 -0.1590  0.7057  1.6119
 2260SOL     OW18415   4.444   2.431   5.924  0.9794 -0.0632  0.2012
 2260SOL    HW118416   4.358   2.389   5.922  2.1016 -2.4747  1.4816
 2260SOL    HW218417   4.493   2.360   5.966  0.4940  0.6552  1.9807
 2261SOL     OW18418   2.789   3.794   8.400 -0.4349 -0.0651  0.5399
 2261SOL    HW118419   2.792   3.698   8.401  1.3363 -0.0132  0.5191
 2261SOL    HW218420   2.701   3.805   8.365  1.7843  2.3076 -4.3169
 2262SOL     OW18421   2.029   4.688   5.762 -0.5844  0.6849  0.0990
 2262SOL    HW118422   1.953   4.692   5.820 -1.7455 -0.5096 -1.3296
 2262SOL    HW218423   1.991   4.662   5.678 -2.3280 -2.0924  1.7579
 2263SOL     OW18424   3.610   2.122   4.218 -0.1126 -0.5245  0.2165
 2263SOL    HW118425   3.647   2.036   4.200  0.8257 -0.1944  0.5710
 2263SOL    HW218426   3.682   2.174   4.184 -0.1657 -2.5768 -3.0073
 2264SOL     OW18427   2.840   0.754   2.369 -0.3335 -0.1748  0.0760
 2264SOL    HW118428   2.835   0.815   2.443 -0.3436 -0.8582  0.6366
 2264SOL    HW218429   2.792   0.808   2.306 -4.7078 -1.9489  1.9455
 2265SOL     OW18430   1.535   0.997   5.382 -0.1433 -0.0592 -0.1184
 2265SOL    HW118431   1.621   1.038   5.393  0.0081 -0.1233 -1.0751
 2265SOL    HW218432   1.473   1.048   5.434 -0.1743 -0.4283  0.2113
 2266SOL     OW18433   2.306   2.360   8.176 -0.1077 -0.2403 -0.3108
 2266SOL    HW118434   2.292   2.331   8.266 -0.4614 -0.4606 -0.4339
 2266SOL    HW218435   2.372   2.298   8.146 -0.4605 -0.7330 -0.0790
 2267SOL     OW18436   2.094   3.456   7.709 -0.6420 -0.0477 -0.0022
 2267SOL    HW118437   2.058   3.369   7.690 -1.9921  0.9278 -1.9412
 2267SOL    HW218438   2.071   3.496   7.625 -1.2837 -1.1690 -0.3717
 2268SOL     OW18439   3.927   1.961   4.693  0.2839  0.2476  0.6337
 2268SOL    HW118440   3.966   1.891   4.745  0.5772  0.3615  0.5663
 2268SOL    HW218441   4.005   2.000   4.655  0.8660 -0.1832  1.4032
 2269SOL     OW18442   1.382   2.311   3.903 -0.1662  0.5758 -0.2584
 2269SOL    HW118443   1.316   2.272   3.846 -1.3902  1.1899  0.7340
 2269SOL    HW218444   1.454   2.299   3.841  0.9698  1.6405  0.8556
 2270SOL     OW18445   1.233   4.623   1.275  0.1262 -0.4753 -0.6026
 2270SOL    HW118446   1.239   4.611   1.370 -1.0089 -1.3675 -0.6537
 2270SOL    HW218447   1.255   4.535   1.246  0.1230 -0.0978 -1.7417
 2271SOL     OW18448   2.805   0.035   4.613  0.0253  0.0252 -0.1137
 2271SOL    HW118449   2.733   4.715   4.632 -0.3469  0.9105  1.2852
 2271SOL    HW218450   2.763   0.117   4.639  2.7072  1.3843 -0.1032
 2272SOL     OW18451   3.348   1.509   3.604  0.0806  0.4033  0.3655
 2272SOL    HW118452   3.364   1.423   3.566  0.2383  0.7060 -0.2549
 2272SOL    HW218453   3.253   1.510   3.590 -0.0904  0.1819  1.4909
 2273SOL     OW18454   0.179   2.401   5.818 -0.3921  0.1624 -0.0655
 2273SOL    HW118455   0.274   2.401   5.826 -0.4154 -0.5645  0.1458
 2273SOL    HW218456   0.157   2.483   5.863 -2.2856  0.2602 -1.1818
 2274SOL     OW18457   2.992   1.810   9.466 -0.3815 -0.0739  0.6097
 2274SOL    HW118458   3.081   1.843   9.455  0.2931 -2.4051 -0.8609
 2274SOL    HW218459   2.948   1.894   9.478 -1.0505 -0.4329  0.6463
 2275SOL     OW18460   3.950   2.772   2.915  0.4012  0.0309 -0.4527
 2275SOL    HW118461   3.869   2.729   2.942  0.9230 -0.3461  0.4877
 2275SOL    HW218462   3.972   2.813   2.998  2.2378 -0.7259 -0.5747
 2276SOL     OW18463   0.875   1.783   2.188 -0.2600  0.5651 -0.1710
 2276SOL    HW118464   0.936   1.717   2.153  0.3851  1.0832 -0.0166
 2276SOL    HW218465   0.812   1.811   2.121  0.0246 -1.3108 -1.2369
 2277SOL     OW18466   2.026   2.305  10.146 -0.5903  0.5007  0.5250
 2277SOL    HW118467   2.112   2.316  10.185 -0.0296  0.9445 -0.8138
 2277SOL    HW218468   1.962   2.322  10.215 -0.7871 -2.3099  1.0478
 2278SOL     OW18469   1.242   1.600   8.959 -0.5995  0.0651 -0.2468
 2278SOL    HW118470   1.173   1.613   8.894 -1.1115  0.2196  0.3272
 2278SOL    HW218471   1.240   1.507   8.980  1.1328  0.0575 -0.1111
 2279SOL     OW18472   1.322   4.653   6.923  0.0080 -0.3135 -1.0336
 2279SOL    HW118473   1.385   4.597   6.968 -2.2139 -1.4196  0.7167
 2279SOL    HW218474   1.369   4.664   6.841  0.9658 -2.6731 -0.8219
 2280SOL     OW18475   2.977   2.121   2.490 -0.2558 -0.3724  0.6755
 2280SOL    HW118476   2.974   2.071   2.572  0.1798 -2.0582 -0.3416
 2280SOL    HW218477   2.943   2.057   2.428  0.3349 -1.1220  1.1219
 2281SOL     OW18478   1.335   0.827   0.088  0.1646  0.5959  0.8605
 2281SOL    HW118479   1.340   0.769   0.164  1.4348 -0.9172 -0.3937
 2281SOL    HW218480   1.289   0.773   0.024 -0.7859  1.1117  1.1002
 2282SOL     OW18481   4.482   3.492   3.200 -0.1756 -0.4866  0.0325
 2282SOL    HW118482   4.390   3.491   3.173 -0.2498  2.4944  0.1469
 2282SOL    HW218483   4.498   3.405   3.235  3.4532 -0.5315 -1.7839
 2283SOL     OW18484   4.155   2.411  15.049  0.1889  0.3925  0.3180
 2283SOL    HW118485   4.213   2.487  15.055 -0.8570  1.2480 -0.5392
 2283SOL    HW218486   4.085   2.438  15.108  1.9906  1.9792  1.7293
 2284SOL     OW18487   2.108   0.874   9.960  0.6227 -0.3039  0.0712
 2284SOL    HW118488   2.083   0.802  10.017  0.0566 -0.5056 -0.4314
 2284SOL    HW218489   2.021   0.890   9.924  0.1528  1.2574  1.9507
 2285SOL     OW18490   2.537   1.623   9.494 -0.8261  0.6911 -0.0781
 2285SOL    HW118491   2.509   1.708   9.529 -1.7552  1.2154 -2.0750
 2285SOL    HW218492   2.623   1.615   9.535 -0.5843 -1.2481 -0.9785
 2286SOL     OW18493   3.292   3.214   6.586 -0.3335 -0.3197 -0.0681
 2286SOL    HW118494   3.200   3.204   6.611 -0.3564  1.1406  0.4526
 2286SOL    HW218495   3.261   3.251   6.503 -2.0786 -0.9407  0.2969
 2287SOL     OW18496   2.509   1.282   8.847 -0.3041  0.5020  0.6144
 2287SOL    HW118497   2.536   1.250   8.933 -0.4100 -1.1486  0.0201
 2287SOL    HW218498   2.595   1.287   8.806  0.4384 -0.3925  2.0473
 2288SOL     OW18499   2.913   4.375   8.986  0.2681  0.5807 -0.2088
 2288SOL    HW118500   3.007   4.381   8.974  0.3393 -2.3224 -1.0863
 2288SOL    HW218501   2.893   4.465   8.959 -2.6620 -0.1055 -0.3515
 2289SOL     OW18502   4.546   2.232   2.773 -0.4648 -0.1196  0.5285
 2289SOL    HW118503   4.547   2.243   2.868 -1.6359  1.3525  0.3793
 2289SOL    HW218504   4.470   2.177   2.752 -1.5953  1.4168  0.5922
 2290SOL     OW18505   0.587   0.019   7.697  0.1146  0.2484  0.4372
 2290SOL    HW118506   0.670   0.056   7.665 -0.9631  3.0558  0.8909
 2290SOL    HW218507   0.547   4.733   7.614  1.1681  0.5623 -0.1718
 2291SOL     OW18508   2.217   3.481  15.751  0.4052 -0.2498 -0.4994
 2291SOL    HW118509   2.178   3.491  15.838  0.3739 -2.3041 -0.2636
 2291SOL    HW218510   2.213   3.575  15.736  0.0504  0.1601  2.1280
 2292SOL     OW18511   4.259   3.953  13.681 -0.5562  0.4421  0.9308
 2292SOL    HW118512   4.302   4.035  13.706 -2.3670  0.8965  2.5417
 2292SOL    HW218513   4.177   3.987  13.647 -1.9136  0.6414  4.3819
 2293SOL     OW18514   1.118   3.276   1.454 -0.1631 -0.4382  0.6795
 2293SOL    HW118515   1.189   3.319   1.503  0.1825  0.6377 -0.7572
 2293SOL    HW218516   1.123   3.183   1.476  0.3731  0.0601  2.6741
 2294SOL     OW18517   1.779   1.777   5.897  0.7692 -0.1056  0.2580
 2294SOL    HW118518   1.775   1.872   5.892 -1.9253 -0.1417  2.0973
 2294SOL    HW218519   1.696   1.755   5.939  1.0871 -2.3312 -0.2480
 2295SOL     OW18520   2.514   1.970  15.008  0.0577 -0.0664 -0.0040
 2295SOL    HW118521   2.441   1.984  15.069  0.6232  0.8122  0.4661
 2295SOL    HW218522   2.559   2.055  15.011  1.7433 -0.8426 -3.5335
 2296SOL     OW18523   2.796   2.237   2.766  0.4502 -0.1072  0.4062
 2296SOL    HW118524   2.768   2.151   2.735 -0.2224  1.0157 -2.0541
 2296SOL    HW218525   2.883   2.216   2.802  0.0168  0.9524  2.0720
 2297SOL     OW18526   3.910   0.173  12.717  0.2120 -0.0002  0.3064
 2297SOL    HW118527   3.833   0.161  12.662 -1.4555 -0.7432  2.8530
 2297SOL    HW218528   3.980   0.136  12.662  1.1496  0.6312  1.0781
 2298SOL     OW18529   1.707   3.443   0.457  0.0442  0.0146  0.7105
 2298SOL    HW118530   1.721   3.349   0.450 -0.4957 -0.0742  0.8411
 2298SOL    HW218531   1.793   3.483   0.450 -0.7025  2.1666  3.4916
 2299SOL     OW18532   4.653   3.425  16.396 -0.1169  0.7264 -0.4878
 2299SOL    HW118533   4.688   3.351  16.446 -0.8974 -0.2228 -1.3485
 2299SOL    HW218534   4.593   3.464  16.459 -1.1902 -2.4466  0.4792
 2300SOL     OW18535   3.531   1.235  15.554 -0.4240  0.1130 -0.0636
 2300SOL    HW118536   3.557   1.279  15.473  0.8083  0.6084  0.6143
 2300SOL    HW218537   3.514   1.157  15.502 -3.7041 -0.0839  1.3014
 2301SOL     OW18538   3.935   1.157   8.952 -0.6211 -0.0793  0.2539
 2301SOL    HW118539   3.964   1.234   8.902 -0.5502  0.8840  1.7829
 2301SOL    HW218540   3.966   1.086   8.896  0.9878  0.6887  0.1788
 2302SOL     OW18541   3.354   0.582   7.034 -0.1324  0.5166  0.0463
 2302SOL    HW118542   3.289   0.640   6.995 -0.3702 -0.1624 -0.5555
 2302SOL    HW218543   3.393   0.544   6.955 -2.5582 -0.3870 -0.6939
 2303SOL     OW18544   2.579   3.266   2.480 -0.2730  0.4790  0.4151
 2303SOL    HW118545   2.577   3.187   2.426 -2.4712 -0.7667  2.3111
 2303SOL    HW218546   2.502   3.248   2.533  1.3318  1.8290  3.2179
 2304SOL     OW18547   0.622   2.892  16.294  0.5964 -0.0275 -0.0311
 2304SOL    HW118548   0.676   2.969  16.273  2.0898 -0.8527  0.8126
 2304SOL    HW218549   0.546   2.936  16.331  2.0411  2.4104  0.0695
 2305SOL     OW18550   2.934   0.161   1.809  0.3444  0.3164  0.4710
 2305SOL    HW118551   2.881   0.116   1.743 -2.1933  1.3152  1.8074
 2305SOL    HW218552   3.014   0.110   1.800 -0.0463  0.0079 -1.2620
 2306SOL     OW18553   3.160   1.136  15.449 -0.1111  0.5130  0.1180
 2306SOL    HW118554   3.186   1.127  15.357 -0.7896 -1.5438  0.1068
 2306SOL    HW218555   3.076   1.089  15.446 -0.1210  0.6337 -1.9197
 2307SOL     OW18556   2.358   0.579   6.402  0.3837  0.8457  0.2320
 2307SOL    HW118557   2.405   0.588   6.319 -0.1338 -0.6838 -0.2264
 2307SOL    HW218558   2.278   0.533   6.377 -0.5758  2.1280  0.9696
 2308SOL     OW18559   0.047   1.066  12.713 -0.5441 -0.5864  0.6640
 2308SOL    HW118560   4.732   0.991  12.734 -1.7977 -0.2021 -1.3260
 2308SOL    HW218561   0.128   1.028  12.679 -0.8231 -0.7712  0.2066
 2309SOL     OW18562   3.725   0.953   3.846  0.0429  0.3913 -0.1165
 2309SOL    HW118563   3.717   1.048   3.837  3.2170  0.8435  1.7623
 2309SOL    HW218564   3.655   0.927   3.906 -0.4179  0.9865 -0.3957
 2310SOL     OW18565   1.936   0.748  12.751 -0.3190 -0.1679  0.5622
 2310SOL    HW118566   1.999   0.794  12.806 -1.6502  1.1021  1.0188
 2310SOL    HW218567   1.970   0.660  12.767 -0.1814 -0.1586  0.3242
 2311SOL     OW18568   1.876   1.579   3.329  0.4700 -0.1900  0.6791
 2311SOL    HW118569   1.790   1.568   3.288  1.2811 -3.8708  0.0274
 2311SOL    HW218570   1.925   1.508   3.289 -1.5593 -0.2784 -1.6527
 2312SOL     OW18571   0.606   0.272   3.100  0.1704 -0.3579  0.1665
 2312SOL    HW118572   0.662   0.204   3.139  1.1998  1.0742  1.1628
 2312SOL    HW218573   0.657   0.348   3.127 -0.1585 -0.3130  0.6573
 2313SOL     OW18574   1.563   4.157  10.182 -0.5901  0.1290 -0.3751
 2313SOL    HW118575   1.598   4.135  10.268 -2.5781 -1.1484  0.0927
 2313SOL    HW218576   1.615   4.105  10.120 -0.7773  2.4872 -2.5314
 2314SOL     OW18577   0.571   2.524   4.465  0.6170 -0.3798  0.0754
 2314SOL    HW118578   0.656   2.552   4.500  0.4601  1.0459 -0.6679
 2314SOL    HW218579   0.570   2.601   4.408 -1.1325  1.2337  2.2753
 2315SOL     OW18580   2.267   0.137   4.174 -0.0306  0.1659 -0.5049
 2315SOL    HW118581   2.313   0.131   4.090 -0.6112 -0.7850 -0.7531
 2315SOL    HW218582   2.302   0.207   4.229  2.2461 -0.9297 -0.5239
 2316SOL     OW18583   3.196   1.681   3.092 -0.0102 -0.2290 -0.0111
 2316SOL    HW118584   3.164   1.597   3.125  0.3762 -0.4651 -0.2314
 2316SOL    HW218585   3.144   1.740   3.146  0.5161 -0.6674  0.9739
 2317SOL     OW18586   3.988   0.379  14.438  0.5737  0.2187 -0.1714
 2317SOL    HW118587   4.081   0.357  14.438  0.1855 -1.3371  1.6430
 2317SOL    HW218588   3.982   0.474  14.422  0.0528  0.8104  3.5503
 2318SOL     OW18589   0.600   3.626   4.448 -0.3469 -0.2792 -0.1418
 2318SOL    HW118590   0.675   3.573   4.422 -0.9489 -1.7179  1.0819
 2318SOL    HW218591   0.556   3.562   4.504 -0.0910  0.7665  1.2676
 2319SOL     OW18592   2.528   0.095   5.773  0.0955  0.6355 -0.7692
 2319SOL    HW118593   2.442   0.061   5.796  0.4044  0.4665  0.1337
 2319SOL    HW218594   2.513   0.106   5.679  0.2701  0.5223 -0.8099
 2320SOL     OW18595   3.697   0.363   4.724  0.0138 -0.5788 -0.0471
 2320SOL    HW118596   3.734   0.275   4.731 -1.0854 -0.8097  2.8737
 2320SOL    HW218597   3.608   0.329   4.720  0.2608 -1.0282 -1.9333
 2321SOL     OW18598   0.122   2.129  16.439 -0.7651  0.3531  0.0695
 2321SOL    HW118599   0.045   2.085  16.402 -1.3259  2.1965 -0.9154
 2321SOL    HW218600   0.135   2.070  16.514 -0.5387 -1.4401 -1.3705
 2322SOL     OW18601   0.406   3.756   8.417 -0.3956  0.1210 -0.4731
 2322SOL    HW118602   0.386   3.806   8.338  0.5117 -2.6966 -2.4535
 2322SOL    HW218603   0.465   3.693   8.377  0.6187  1.4504 -1.0478
 2323SOL     OW18604   4.334   3.544   5.686  0.6734 -0.0337 -0.3973
 2323SOL    HW118605   4.362   3.635   5.689  1.4612 -0.3024  0.2755
 2323SOL    HW218606   4.409   3.513   5.636  0.9941  0.5649 -0.2826
 2324SOL     OW18607   1.037   1.730   5.661  0.0527  0.1572  0.3107
 2324SOL    HW118608   0.978   1.786   5.713  0.1191 -0.3970  0.9817
 2324SOL    HW218609   1.099   1.710   5.730 -0.5164  0.0007  0.7804
 2325SOL     OW18610   2.451   3.726  12.413  0.1457 -0.0268  0.7756
 2325SOL    HW118611   2.363   3.720  12.451  0.1920 -1.2427  0.6811
 2325SOL    HW218612   2.428   3.708  12.322 -0.4529  2.0782  0.4937
 2326SOL     OW18613   2.183   1.236   6.126  0.1328  0.3479  0.1748
 2326SOL    HW118614   2.090   1.247   6.111 -0.1417 -0.8310  1.0623
 2326SOL    HW218615   2.194   1.162   6.066  1.6224  0.0826  0.7734
 2327SOL     OW18616   2.551   3.388   1.889  0.2915 -0.1393 -0.5387
 2327SOL    HW118617   2.621   3.440   1.928  0.5673  0.4662 -1.8349
 2327SOL    HW218618   2.578   3.409   1.799  0.7503  4.9557  0.8255
 2328SOL     OW18619   1.048   1.513   4.042 -0.1108  0.5979  0.4769
 2328SOL    HW118620   1.045   1.417   4.044 -1.6132  0.6659  1.8846
 2328SOL    HW218621   1.040   1.537   3.949  0.9822 -0.7372  0.0348
 2329SOL     OW18622   1.019   1.899   2.983  1.0060 -0.6604 -0.1041
 2329SOL    HW118623   1.062   1.834   2.927 -0.6304  0.2024 -2.3606
 2329SOL    HW218624   1.035   1.974   2.927  0.6486  0.2022  0.9386
 2330SOL     OW18625   1.821   1.196   4.458  0.1748 -0.7052  0.4445
 2330SOL    HW118626   1.812   1.161   4.369  0.1378  0.2471  0.0740
 2330SOL    HW218627   1.888   1.139   4.496 -1.0462 -2.2091  0.3216
 2331SOL     OW18628   1.232   1.406   4.451  0.5375 -0.7524  0.2723
 2331SOL    HW118629   1.151   1.418   4.500  1.0688  0.6342  0.8355
 2331SOL    HW218630   1.225   1.469   4.379 -0.3150 -2.5834 -1.2398
 2332SOL     OW18631   1.852   3.311   5.703  0.1164  0.2831  0.6390
 2332SOL    HW118632   1.816   3.258   5.774  1.0365  0.5335  1.2908
 2332SOL    HW218633   1.816   3.266   5.626  0.4082 -0.7336  1.0988
 2333SOL     OW18634   0.642   2.635   7.757  0.3121  0.2060 -0.3347
 2333SOL    HW118635   0.651   2.652   7.664 -0.6723  0.3699 -0.3998
 2333SOL    HW218636   0.660   2.724   7.788 -1.7851  0.5069  0.0444
 2334SOL     OW18637   2.102   1.965   7.421 -0.1173  0.2332  0.6348
 2334SOL    HW118638   2.166   1.982   7.490  1.3480 -0.1799 -0.6290
 2334SOL    HW218639   2.136   2.026   7.355  0.8395 -0.6696  0.3094
 2335SOL     OW18640   1.500   2.977   4.222  0.5653  0.4905  0.0779
 2335SOL    HW118641   1.448   2.899   4.204 -0.2393  0.8486  0.8263
 2335SOL    HW218642   1.499   3.018   4.135  0.6366  0.4418  0.0538
 2336SOL     OW18643   0.932   0.845   2.774 -0.5992 -0.6127  0.0859
 2336SOL    HW118644   0.988   0.918   2.800 -2.1100  0.8451 -0.7379
 2336SOL    HW218645   0.847   0.889   2.767 -0.2560  0.0385 -0.0087
 2337SOL     OW18646   3.358   0.323   7.946  0.2282 -0.2592  0.3680
 2337SOL    HW118647   3.448   0.336   7.976  0.1194  1.6181 -0.1774
 2337SOL    HW218648   3.344   0.243   7.998  1.5814 -0.0446  1.0672
 2338SOL     OW18649   4.121   2.278   3.673 -0.1513  0.8307  0.4539
 2338SOL    HW118650   4.147   2.187   3.687 -0.2637  0.7422  0.0945
 2338SOL    HW218651   4.070   2.269   3.593  1.1801 -3.0511  0.0183
 2339SOL     OW18652   1.673   2.181  16.350  0.2696  0.0069 -0.1625
 2339SOL    HW118653   1.674   2.091  16.317 -1.3422  0.1051 -0.4729
 2339SOL    HW218654   1.742   2.216  16.293  1.2196 -1.4460  0.0842
 2340SOL     OW18655   3.023   3.899   6.629 -0.3912  0.2930 -0.1497
 2340SOL    HW118656   2.940   3.852   6.632 -0.4807  0.4777  0.1857
 2340SOL    HW218657   3.064   3.861   6.551  1.4289  0.6921  0.6163
 2341SOL     OW18658   3.863   0.897  13.206 -0.0806 -0.0105  0.5695
 2341SOL    HW118659   3.887   0.816  13.162  0.2931  0.5796 -0.3083
 2341SOL    HW218660   3.809   0.941  13.140 -0.9922 -2.4074 -0.2864
 2342SOL     OW18661   0.547   0.693   1.114 -0.3648  0.6469  0.1944
 2342SOL    HW118662   0.607   0.753   1.070  0.2171  1.0860  1.6080
 2342SOL    HW218663   0.600   0.678   1.192  0.3092  2.3645  0.0475
 2343SOL     OW18664   4.456   3.576  16.496  0.0757  0.0722  0.6748
 2343SOL    HW118665   4.441   3.612  16.583  0.6762  1.8151  0.0655
 2343SOL    HW218666   4.379   3.520  16.484 -1.1513  1.6184  1.3584
 2344SOL     OW18667   0.056   3.713  11.018  0.1317 -0.1983 -0.2533
 2344SOL    HW118668   4.737   3.644  11.048  3.0359 -2.9366 -0.8714
 2344SOL    HW218669   0.077   3.750  11.104  0.4357  1.3534 -0.9961
 2345SOL     OW18670   0.938   3.619   1.898  0.4892  0.0711  0.5603
 2345SOL    HW118671   0.952   3.577   1.813 -0.7502  1.3136 -0.2497
 2345SOL    HW218672   0.907   3.701   1.860  0.7587 -0.8247 -1.5736
 2346SOL     OW18673   2.930   4.250  16.713  0.5827  0.2174  0.4846
 2346SOL    HW118674   2.856   4.197  16.685  0.3793  0.7711 -0.0284
 2346SOL    HW218675   2.993   4.210  16.653  2.2127  3.1123  0.2371
 2347SOL     OW18676   2.276   2.074   8.081  0.0925  0.0444 -0.1572
 2347SOL    HW118677   2.267   2.042   8.171  0.6027  1.4681  0.3972
 2347SOL    HW218678   2.351   2.023   8.052 -0.2098 -1.1414  1.1619
 2348SOL     OW18679   1.961   2.608  16.896 -0.6525 -0.0536 -0.3444
 2348SOL    HW118680   1.903   2.623  16.821  1.9959  2.0759 -1.9450
 2348SOL    HW218681   1.923   2.537  16.949 -3.6112  1.7110 -0.0672
 2349SOL     OW18682   3.338   0.297  10.479 -0.4211  0.0205 -0.0511
 2349SOL    HW118683   3.266   0.235  10.487 -0.6965  0.2507 -0.7365
 2349SOL    HW218684   3.337   0.349  10.559  2.4955 -0.4187  0.2901
 2350SOL     OW18685   0.393   3.965   6.617  0.2870  0.2260  0.5767
 2350SOL    HW118686   0.425   3.882   6.580 -0.2816 -0.1734  0.9891
 2350SOL    HW218687   0.301   3.951   6.638  0.6413  0.5843  2.3974
 2351SOL     OW18688   2.572   2.213  15.308  0.2295  0.0541  0.1453
 2351SOL    HW118689   2.581   2.216  15.212 -2.3272  2.9065 -0.0073
 2351SOL    HW218690   2.535   2.128  15.331  2.3187 -0.8601  0.2131
 2352SOL     OW18691   4.644   3.093   6.417  0.1042  0.1369 -0.3223
 2352SOL    HW118692   4.552   3.107   6.442  0.1186 -2.3791  1.1671
 2352SOL    HW218693   4.678   3.023   6.473  0.7148  0.5175 -0.2148
 2353SOL     OW18694   1.933   1.541   6.162  0.3370 -0.7333  0.3052
 2353SOL    HW118695   1.941   1.448   6.183  0.0646 -1.3838 -2.4985
 2353SOL    HW218696   1.917   1.576   6.250  1.4368 -0.9472  0.5950
 2354SOL     OW18697   3.565   2.416  10.895  0.3873 -0.3290  0.4192
 2354SOL    HW118698   3.571   2.341  10.837 -2.9793 -1.5567  1.6978
 2354SOL    HW218699   3.471   2.433  10.903  0.8789  1.6582  2.0352
 2355SOL     OW18700   4.102   3.653   8.569 -0.0613  0.1913  0.3426
 2355SOL    HW118701   4.039   3.708   8.615 -0.3138  1.1737 -1.1786
 2355SOL    HW218702   4.045   3.601   8.511 -2.1488  1.4857  1.2373
 2356SOL     OW18703   4.680   3.384   3.556  0.0066 -0.2071  0.1615
 2356SOL    HW118704   4.733   3.453   3.595 -0.7126  0.2847  0.2683
 2356SOL    HW218705   4.596   3.394   3.601  0.1480 -1.0108  0.6180
 2357SOL     OW18706   3.543   2.734   8.410 -0.2684 -0.1006  0.3445
 2357SOL    HW118707   3.614   2.677   8.437  1.5838  1.8564 -0.3971
 2357SOL    HW218708   3.554   2.788   8.488 -1.0915  0.4459  0.0867
 2358SOL     OW18709   4.727   3.455   6.409 -0.1990  0.2212  0.6267
 2358SOL    HW118710   0.063   3.422   6.362 -0.3033  0.4926  0.2652
 2358SOL    HW218711   4.655   3.404   6.372  0.2346 -0.5955  0.9058
 2359SOL     OW18712   1.059   4.511  17.606 -0.1458 -0.4064  0.3433
 2359SOL    HW118713   1.084   4.588  17.554 -1.5402 -0.5573 -0.5603
 2359SOL    HW218714   0.964   4.516  17.595 -0.1294 -1.0947 -0.1350
 2360SOL     OW18715   3.195   4.667   2.798  0.1257  0.5146 -0.3666
 2360SOL    HW118716   3.279   4.665   2.844  0.2818 -0.0875 -0.6801
 2360SOL    HW218717   3.167   0.017   2.815  0.9610  0.5357  0.8720
 2361SOL     OW18718   4.280   0.667  11.553 -0.3702  0.5661 -0.5533
 2361SOL    HW118719   4.219   0.672  11.627  1.8734  1.2289  1.2454
 2361SOL    HW218720   4.319   0.582  11.573  0.4856  1.2420  0.6425
 2362SOL     OW18721   1.884   4.696  13.230 -1.1221 -0.3552 -0.3317
 2362SOL    HW118722   1.924   0.010  13.298 -1.8033  0.5121 -0.6275
 2362SOL    HW218723   1.790   4.701  13.244 -0.8985  0.4775  0.8751
 2363SOL     OW18724   1.928   1.284   9.907  0.6614 -0.1887  0.1935
 2363SOL    HW118725   1.873   1.318   9.977  0.7867  1.8258 -0.6888
 2363SOL    HW218726   1.859   1.273   9.842  1.1648  1.1951 -0.5818
 2364SOL     OW18727   2.020   0.430  14.601 -0.1663  0.2798 -0.1971
 2364SOL    HW118728   2.074   0.505  14.576  2.1430 -1.6238 -0.9127
 2364SOL    HW218729   2.070   0.360  14.560  0.2395  1.6308 -1.9805
 2365SOL     OW18730   4.025   0.408  16.622 -0.0273 -1.1796  0.5713
 2365SOL    HW118731   3.968   0.477  16.655  1.4123  1.0998 -1.6765
 2365SOL    HW218732   4.041   0.443  16.534 -0.7062 -1.0013  0.5234
 2366SOL     OW18733   4.287   2.466  13.062  0.0164  0.2049  0.2404
 2366SOL    HW118734   4.354   2.471  13.130  0.2737  4.4304 -0.3249
 2366SOL    HW218735   4.263   2.373  13.057  2.1169 -0.3325  0.2377
 2367SOL     OW18736   1.148   1.262   8.438  0.4145 -0.2384 -0.2064
 2367SOL    HW118737   1.195   1.341   8.410 -0.7956  0.2398 -0.9394
 2367SOL    HW218738   1.138   1.218   8.354 -1.6165  1.1939 -0.7421
 2368SOL     OW18739   0.961   3.495   3.078 -0.2279 -0.1504  0.3205
 2368SOL    HW118740   0.898   3.427   3.100  0.4090 -0.5472  0.8947
 2368SOL    HW218741   1.000   3.472   2.994  0.0994  0.7941  0.2051
 2369SOL     OW18742   1.766   2.021   1.450 -0.1008 -0.1057  0.0268
 2369SOL    HW118743   1.847   1.983   1.485 -0.5034  0.9169  2.0719
 2369SOL    HW218744   1.781   2.002   1.357  1.0033  1.7514 -0.1776
 2370SOL     OW18745   0.592   0.588  11.866 -0.5622 -0.0042 -0.5383
 2370SOL    HW118746   0.517   0.644  11.882  1.0857  1.6460  1.3453
 2370SOL    HW218747   0.658   0.649  11.898  0.0295 -1.8319  1.7226
 2371SOL     OW18748   4.320   0.543   1.816  0.1239 -0.1248 -0.2621
 2371SOL    HW118749   4.318   0.571   1.908 -1.8810  1.0153 -0.6550
 2371SOL    HW218750   4.229   0.547   1.790  0.0128  1.2871  0.3214
 2372SOL     OW18751   1.953   3.486   2.682 -0.0574  0.2791  0.4810
 2372SOL    HW118752   2.013   3.560   2.682  0.0446  0.1929 -1.2144
 2372SOL    HW218753   2.007   3.422   2.728 -1.4219 -0.5279  0.9476
 2373SOL     OW18754   4.121   1.190   3.607  0.0734  0.0482  0.3610
 2373SOL    HW118755   4.145   1.189   3.700  0.2238  1.5342  0.3369
 2373SOL    HW218756   4.201   1.151   3.571  1.3778  1.4209  1.7435
 2374SOL     OW18757   2.876   4.378   4.029  0.2537 -0.6100 -0.1620
 2374SOL    HW118758   2.950   4.335   4.071 -0.1388 -0.5033  0.6297
 2374SOL    HW218759   2.821   4.300   4.021  1.0531 -1.1640 -0.2469
 2375SOL     OW18760   1.529   0.329   3.892 -0.5033  0.2060 -0.3275
 2375SOL    HW118761   1.551   0.316   3.984 -0.9896 -1.8387 -0.5095
 2375SOL    HW218762   1.579   0.409   3.877 -0.0722  0.0086  0.0281
 2376SOL     OW18763   0.762   0.631   4.067  0.2994  0.3661 -0.1150
 2376SOL    HW118764   0.800   0.638   3.979 -0.7867  0.9524 -0.5404
 2376SOL    HW218765   0.787   0.717   4.101  0.4065 -0.0935  0.9392
 2377SOL     OW18766   2.649   4.469   7.780  0.2588  0.3593 -0.0312
 2377SOL    HW118767   2.679   4.379   7.795 -1.4133  0.0275  1.2996
 2377SOL    HW218768   2.564   4.462   7.824  0.5735 -0.2748  0.4790
 2378SOL     OW18769   0.344   3.927   5.070 -0.0574 -0.7095  0.3867
 2378SOL    HW118770   0.369   3.910   5.161  0.5053 -4.4458 -0.4584
 2378SOL    HW218771   0.401   4.002   5.053 -2.9232  1.5364  0.6645
 2379SOL     OW18772   4.026   0.540   9.537 -0.2499 -0.3260  0.0578
 2379SOL    HW118773   4.066   0.627   9.542  0.8360 -0.9436  2.0468
 2379SOL    HW218774   4.016   0.537   9.442  2.3545 -1.2548 -0.1832
 2380SOL     OW18775   0.095   0.042   6.266 -0.2451  0.5749 -0.1171
 2380SOL    HW118776   0.013   0.073   6.304 -1.0791 -0.8208 -0.7500
 2380SOL    HW218777   0.113   0.125   6.222 -0.9204  1.4289  1.2183
 2381SOL     OW18778   1.611   4.499   8.743 -0.0625 -0.7921 -0.4561
 2381SOL    HW118779   1.582   4.475   8.832  1.7549 -0.0948  0.3064
 2381SOL    HW218780   1.579   4.429   8.685  0.6159 -1.1198 -0.4383
 2382SOL     OW18781   0.594   0.523   6.303 -0.6175 -0.3236 -0.3501
 2382SOL    HW118782   0.521   0.565   6.257 -0.1415 -1.3033 -1.9757
 2382SOL    HW218783   0.579   0.431   6.282 -1.4753 -0.0520 -0.9520
 2383SOL     OW18784   4.259   0.707   6.772  0.0796 -0.7246 -0.2186
 2383SOL    HW118785   4.303   0.668   6.847  0.1136 -0.5501 -0.1483
 2383SOL    HW218786   4.195   0.760   6.819 -0.4574 -3.2937  1.9320
 2384SOL     OW18787   2.768   0.258   6.649  0.7862 -0.2923 -0.2343
 2384SOL    HW118788   2.688   0.273   6.599 -1.2917 -1.7262  2.6314
 2384SOL    HW218789   2.732   0.188   6.704 -0.9914  0.2159 -0.7543
 2385SOL     OW18790   4.168   2.303   7.169 -0.0373 -0.0294  0.2781
 2385SOL    HW118791   4.174   2.236   7.100 -0.5913  0.2762 -0.0705
 2385SOL    HW218792   4.117   2.254   7.233 -1.1075 -0.3922 -0.8653
 2386SOL     OW18793   1.881   3.876  12.524 -0.4363  0.0185  0.3993
 2386SOL    HW118794   1.874   3.845  12.433  2.2968 -2.8870  1.2140
 2386SOL    HW218795   1.835   3.957  12.500 -0.2024  0.2565  0.7525
 2387SOL     OW18796   0.005   0.248   6.641 -0.8743 -0.4578 -0.1577
 2387SOL    HW118797   0.002   0.337   6.676 -3.5173 -0.8065  0.4254
 2387SOL    HW218798   0.099   0.231   6.647 -0.7229 -0.3613 -2.2647
 2388SOL     OW18799   2.743   4.694  14.671  0.1295 -0.3081 -0.7039
 2388SOL    HW118800   2.824   4.712  14.624  1.3992 -0.3426  1.4988
 2388SOL    HW218801   2.772   4.617  14.718  1.2808  0.0388 -0.8527
 2389SOL     OW18802   3.984   2.275   3.185 -0.4614  0.0960 -0.3385
 2389SOL    HW118803   4.005   2.226   3.105  1.9857  0.3947  0.1259
 2389SOL    HW218804   4.023   2.216   3.249 -0.8872 -0.0580 -0.2205
 2390SOL     OW18805   4.708   1.063   8.337 -0.2121 -0.7465  0.0312
 2390SOL    HW118806   4.667   1.088   8.254 -3.6048  0.3216  2.0400
 2390SOL    HW218807   0.011   1.139   8.376 -1.2261 -1.0819  1.8106
 2391SOL     OW18808   1.004   1.527   4.906 -0.0895 -0.6142 -0.1617
 2391SOL    HW118809   0.911   1.539   4.924  0.4411  0.3648  1.8749
 2391SOL    HW218810   1.025   1.620   4.912 -2.3448 -0.0440 -1.0543
 2392SOL     OW18811   0.559   3.863  13.608  0.0132  0.0459  0.3767
 2392SOL    HW118812   0.603   3.916  13.676  0.0391  1.1304 -0.4907
 2392SOL    HW218813   0.526   3.788  13.657  0.6076 -1.4424 -1.5630
 2393SOL     OW18814   1.839   0.359   6.388 -1.2359 -0.3013 -0.5240
 2393SOL    HW118815   1.823   0.405   6.470  1.0895  0.1746 -0.3379
 2393SOL    HW218816   1.831   0.265   6.407  0.0026 -0.4422 -0.6586
 2394SOL     OW18817   3.644   0.411   7.025  0.0564  1.0722  0.2035
 2394SOL    HW118818   3.556   0.390   6.995 -0.3991  1.5351  1.1946
 2394SOL    HW218819   3.630   0.412   7.120 -1.0226  0.0212  0.0476
 2395SOL     OW18820   4.626   2.966  16.245 -0.2006  0.3022  0.2695
 2395SOL    HW118821   4.718   2.938  16.248 -0.0589  0.9323  2.0959
 2395SOL    HW218822   4.584   2.880  16.240 -1.4757  0.8435  1.5172
 2396SOL     OW18823   0.716   4.104   2.055  0.3653 -0.0782 -0.3527
 2396SOL    HW118824   0.634   4.126   2.010  0.7919 -0.9503 -1.5482
 2396SOL    HW218825   0.701   4.158   2.132 -0.3527  0.5025 -0.8972
 2397SOL     OW18826   0.619   1.981   4.063 -0.2826 -0.0345  0.4822
 2397SOL    HW118827   0.699   2.019   4.100 -0.4768  1.2691 -0.4385
 2397SOL    HW218828   0.551   2.047   4.079  1.3398  1.6247  0.5789
 2398SOL     OW18829   3.672   1.899   0.563  0.1000 -0.1359  0.3731
 2398SOL    HW118830   3.735   1.897   0.491  0.5510 -1.7846  0.8166
 2398SOL    HW218831   3.592   1.935   0.525  1.8667  1.3807 -1.9210
 2399SOL     OW18832   3.771   0.161   3.318 -0.4843 -0.1640 -0.2067
 2399SOL    HW118833   3.706   0.178   3.249  0.2497  0.9377 -0.6282
 2399SOL    HW218834   3.826   0.236   3.296  1.6997 -1.6257  0.2543
 2400SOL     OW18835   1.365   0.628  15.762  0.2368  0.0547  1.1034
 2400SOL    HW118836   1.446   0.646  15.810  0.4283  1.5823  0.1901
 2400SOL    HW218837   1.312   0.611  15.840  1.4428 -0.4405  1.8083
 2401SOL     OW18838   1.292   0.211   4.302  0.2817 -0.5086  0.3323
 2401SOL    HW118839   1.257   0.285   4.352  1.9372  0.3406  0.2306
 2401SOL    HW218840   1.379   0.199   4.340 -0.1493 -0.3359  1.3690
 2402SOL     OW18841   2.688   1.344  16.955 -0.3646  0.8622 -0.3816
 2402SOL    HW118842   2.722   1.290  16.884 -0.1357  1.3560 -0.6523
 2402SOL    HW218843   2.599   1.371  16.932 -1.5614 -1.1461  1.8872
 2403SOL     OW18844   3.913   4.506   6.911 -0.1689 -0.1650  0.2954
 2403SOL    HW118845   3.976   4.488   6.981  2.5094 -0.0620 -2.1135
 2403SOL    HW218846   3.969   4.491   6.836  0.3931 -0.5694  0.7998
 2404SOL     OW18847   1.523   3.804   7.662 -0.7506  0.1575 -0.2161
 2404SOL    HW118848   1.578   3.765   7.730 -0.4782  2.3934  0.8289
 2404SOL    HW218849   1.435   3.817   7.697 -1.0079  0.3123 -0.9273
 2405SOL     OW18850   2.183   4.132   9.465  0.4990  0.3367 -0.1213
 2405SOL    HW118851   2.161   4.218   9.502  0.0852  0.8788 -1.6480
 2405SOL    HW218852   2.264   4.122   9.515  0.2222 -2.7510 -0.2826
 2406SOL     OW18853   2.445   1.595  14.641 -0.4628 -0.0264 -0.2039
 2406SOL    HW118854   2.536   1.571  14.630 -1.0796 -2.7280  0.6080
 2406SOL    HW218855   2.447   1.633  14.729 -3.0510 -1.9234  0.6850
 2407SOL     OW18856   3.310   2.394  12.417  0.1277 -0.6289 -0.7197
 2407SOL    HW118857   3.375   2.455  12.451 -0.1381 -0.2247 -0.9462
 2407SOL    HW218858   3.327   2.399  12.323  0.3595  1.6042 -0.5617
 2408SOL     OW18859   0.124   3.871   7.047 -0.3453  0.1439  0.0319
 2408SOL    HW118860   0.158   3.873   7.136 -2.1617  1.4654  0.6949
 2408SOL    HW218861   0.159   3.787   7.018 -1.4440 -0.7187  1.2004
 2409SOL     OW18862   0.751   3.516   0.690 -0.2335 -0.4800  0.2972
 2409SOL    HW118863   0.842   3.526   0.717 -0.2575 -1.3755  0.7259
 2409SOL    HW218864   0.713   3.482   0.771 -1.1313 -1.5562 -0.5700
 2410SOL     OW18865   3.735   3.642   3.160  0.1238  0.1292 -0.2785
 2410SOL    HW118866   3.693   3.601   3.236  0.6699 -1.2395 -0.7223
 2410SOL    HW218867   3.733   3.571   3.096  2.0937 -0.3691  0.2145
 2411SOL     OW18868   3.917   1.523   6.729 -0.2474 -0.2232 -0.7176
 2411SOL    HW118869   3.823   1.526   6.746  0.1382 -2.5707  1.9031
 2411SOL    HW218870   3.939   1.592   6.792 -0.2283 -0.9241  0.0500
 2412SOL     OW18871   3.463   4.042   7.433 -0.1396 -0.4613 -0.3001
 2412SOL    HW118872   3.490   4.110   7.495 -0.3333 -1.2659  0.6610
 2412SOL    HW218873   3.480   4.083   7.348 -0.8230  1.0472  0.2851
 2413SOL     OW18874   4.355   3.422  11.853 -0.1538  0.0588  0.3365
 2413SOL    HW118875   4.265   3.401  11.832  0.4158 -0.7108 -1.2832
 2413SOL    HW218876   4.366   3.511  11.820  2.8537  0.0313  1.2099
 2414SOL     OW18877   0.870   4.041   6.461  0.2443 -0.2287  0.1382
 2414SOL    HW118878   0.948   4.048   6.516  2.2584 -0.7737 -2.6379
 2414SOL    HW218879   0.827   3.965   6.500 -0.2839  0.6091  1.1647
 2415SOL     OW18880   2.781   1.380   0.740  0.0620 -0.1281 -0.1687
 2415SOL    HW118881   2.762   1.473   0.751  5.7913  1.0576 -0.3129
 2415SOL    HW218882   2.703   1.328   0.719  0.3246 -1.5796  2.4009
 2416SOL     OW18883   0.700   0.276   8.337 -0.2314  0.5192 -0.3469
 2416SOL    HW118884   0.741   0.231   8.411 -1.5872 -2.1515 -1.2120
 2416SOL    HW218885   0.764   0.346   8.323  0.1236  0.4340  0.8433
 2417SOL     OW18886   4.389   0.907   4.149 -0.4990 -0.1268  0.0418
 2417SOL    HW118887   4.480   0.932   4.163 -0.6421  0.6824 -0.5320
 2417SOL    HW218888   4.388   0.915   4.054 -1.4465  2.3411  0.2577
 2418SOL     OW18889   0.402   0.346   2.909  0.5966 -0.1667  0.2569
 2418SOL    HW118890   0.368   0.411   2.970  0.4578  0.3450 -0.3779
 2418SOL    HW218891   0.477   0.314   2.959  0.0202 -0.7532  0.7445
 2419SOL     OW18892   3.304   2.009  14.283  0.0644 -0.5388 -0.0596
 2419SOL    HW118893   3.356   2.063  14.223  0.2595 -0.4207  0.2150
 2419SOL    HW218894   3.302   2.071  14.355 -1.4573 -0.2675 -0.3465
 2420SOL     OW18895   4.204   1.163  11.388 -0.0931 -0.3402 -0.7426
 2420SOL    HW118896   4.179   1.229  11.324  0.1997 -0.3064 -0.8246
 2420SOL    HW218897   4.287   1.198  11.419 -0.1878  1.1766 -2.2132
 2421SOL     OW18898   2.156   4.650   7.243  0.2597 -0.2917  0.8209
 2421SOL    HW118899   2.099   4.649   7.319 -0.0862 -1.5422  0.5479
 2421SOL    HW218900   2.220   4.718   7.263 -1.5549  1.3973  0.9104
 2422SOL     OW18901   0.471   1.920   4.682 -0.0298 -0.4971  0.1812
 2422SOL    HW118902   0.453   1.933   4.775  2.1412  0.4858  0.4524
 2422SOL    HW218903   0.427   2.002   4.661  1.0654 -0.0741 -0.4373
 2423SOL     OW18904   0.978   0.100   0.902 -0.6252 -0.1903 -0.5618
 2423SOL    HW118905   1.050   0.038   0.891  0.7246  0.6666  3.6088
 2423SOL    HW218906   0.995   0.156   0.826  0.2654  1.8880  1.1574
 2424SOL     OW18907   0.869   3.160  11.154  0.4286 -0.1443 -0.2660
 2424SOL    HW118908   0.853   3.080  11.103  0.0773  1.1043 -2.1432
 2424SOL    HW218909   0.964   3.167  11.164  0.5012  0.4357 -1.2915
 2425SOL     OW18910   1.951   4.584   1.077  0.2036  0.4561  0.7656
 2425SOL    HW118911   1.888   4.655   1.062  1.1594  1.1684  0.0986
 2425SOL    HW218912   1.994   4.579   0.991 -1.4285 -0.4547  0.0051
 2426SOL     OW18913   2.540   3.005   7.820  0.5117 -0.5378  0.1157
 2426SOL    HW118914   2.461   3.052   7.847  0.7901  0.5640 -0.9835
 2426SOL    HW218915   2.516   2.913   7.818 -2.0803  0.1813 -1.2267
 2427SOL     OW18916   0.277   3.305   7.011  0.8873  0.1849  0.3167
 2427SOL    HW118917   0.237   3.312   7.097  0.4592 -1.3773  0.2392
 2427SOL    HW218918   0.283   3.210   7.010 -2.4131  0.0253 -3.2786
 2428SOL     OW18919   2.645   1.231   9.065  0.6890  0.4562 -0.6707
 2428SOL    HW118920   2.610   1.299   9.123  0.3446  0.6251 -1.0787
 2428SOL    HW218921   2.720   1.277   9.026 -0.3099  2.5439 -0.1733
 2429SOL     OW18922   4.507   3.014   8.430 -0.2988 -0.4300  0.4660
 2429SOL    HW118923   4.483   2.991   8.519  1.2209 -0.1875  0.9403
 2429SOL    HW218924   4.471   3.102   8.421 -0.7225 -0.4487  2.0791
 2430SOL     OW18925   3.805   0.066   8.704  0.0001 -0.6838 -0.0418
 2430SOL    HW118926   3.854   0.094   8.627 -0.5439 -2.7251 -1.1185
 2430SOL    HW218927   3.715   0.067   8.674  0.0317  1.6433 -0.0159
 2431SOL     OW18928   1.305   1.541  12.013  0.5780  0.4306  0.1212
 2431SOL    HW118929   1.272   1.627  12.041  2.5398  1.5294 -0.9302
 2431SOL    HW218930   1.361   1.561  11.938 -1.0172  0.1922 -1.1372
 2432SOL     OW18931   3.988   0.128   4.226  0.3132  0.0844  0.0624
 2432SOL    HW118932   4.035   0.170   4.154  0.3398 -4.1929 -2.4582
 2432SOL    HW218933   3.928   0.196   4.255  2.3320  1.3851  1.1770
 2433SOL     OW18934   4.015   1.888   8.769  0.5887  0.5333 -0.8879
 2433SOL    HW118935   3.928   1.899   8.807 -0.1787 -2.0661 -1.8982
 2433SOL    HW218936   4.001   1.954   8.700 -2.0461 -0.0033 -0.8808
 2434SOL     OW18937   2.863   3.772  12.651  0.1716 -0.1853  0.2088
 2434SOL    HW118938   2.907   3.744  12.731 -1.3360  0.0372  1.1296
 2434SOL    HW218939   2.936   3.813  12.605 -0.6462  0.2876 -0.6690
 2435SOL     OW18940   0.518   2.807  13.564  0.5512  0.4446 -0.4097
 2435SOL    HW118941   0.456   2.734  13.555  0.6307  0.0680  2.0952
 2435SOL    HW218942   0.563   2.804  13.480 -1.6405  1.2893 -1.6229
 2436SOL     OW18943   0.379   1.091  16.923 -0.0906 -0.3591 -0.5724
 2436SOL    HW118944   0.328   1.158  16.968  1.4956 -0.0048  0.6884
 2436SOL    HW218945   0.448   1.142  16.881 -1.6793  1.5805 -0.8268
 2437SOL     OW18946   3.692   0.647   4.814  0.0621 -0.4395  0.4090
 2437SOL    HW118947   3.735   0.722   4.772 -2.0481  0.1668 -0.6530
 2437SOL    HW218948   3.689   0.593   4.734 -1.3033  0.2644 -0.0092
 2438SOL     OW18949   2.338   0.985   8.662 -0.4009  0.3418  0.3735
 2438SOL    HW118950   2.342   0.927   8.586 -1.3746  1.3170 -0.4046
 2438SOL    HW218951   2.431   0.999   8.680 -0.3841  0.4327  0.2157
 2439SOL     OW18952   1.709   3.621   2.494 -0.1537  0.5617 -0.2821
 2439SOL    HW118953   1.651   3.666   2.432  0.3918  0.5177 -0.8277
 2439SOL    HW218954   1.791   3.670   2.489  1.3271 -1.8852 -0.1015
 2440SOL     OW18955   1.311   1.868   1.659  0.2940 -0.4448 -0.1471
 2440SOL    HW118956   1.301   1.844   1.566  0.5886  0.4915 -0.4173
 2440SOL    HW218957   1.398   1.905   1.666 -0.9195  1.9811  1.7831
 2441SOL     OW18958   0.441   2.189   2.700  0.4975  0.3462 -0.5571
 2441SOL    HW118959   0.513   2.138   2.737 -1.4363 -1.5520  0.6372
 2441SOL    HW218960   0.482   2.274   2.686  0.6368 -0.0117 -2.2736
 2442SOL     OW18961   1.281   4.146  11.139  0.0096 -0.2006  0.5106
 2442SOL    HW118962   1.304   4.155  11.231 -0.3067 -2.3879  0.8061
 2442SOL    HW218963   1.327   4.220  11.100  2.1469 -1.5952  0.3915
 2443SOL     OW18964   3.959   2.332  14.623 -0.1148  0.0429 -0.0001
 2443SOL    HW118965   3.885   2.351  14.680 -0.2760 -1.5444  0.3024
 2443SOL    HW218966   4.036   2.373  14.664 -0.2971  0.3417  0.0494
 2444SOL     OW18967   3.015   1.040   9.329  0.2199 -0.3201 -0.5997
 2444SOL    HW118968   2.972   1.003   9.252 -0.9230 -2.5160  1.1120
 2444SOL    HW218969   2.967   1.122   9.339  1.0027 -0.4252  4.0139
 2445SOL     OW18970   2.452   2.878   8.392  0.1560  0.1912 -0.2959
 2445SOL    HW118971   2.528   2.822   8.406  0.1259  0.1039 -0.4833
 2445SOL    HW218972   2.375   2.826   8.416 -0.6340  0.1848 -2.8786
 2446SOL     OW18973   3.335   0.599   4.346 -0.0243  0.0504  0.3950
 2446SOL    HW118974   3.303   0.512   4.372 -0.6430 -0.4485 -2.0217
 2446SOL    HW218975   3.353   0.652   4.424  4.8709 -1.8718  0.6203
 2447SOL     OW18976   3.382   3.975   4.040  0.3727 -0.5666  0.8015
 2447SOL    HW118977   3.373   3.945   4.130 -0.5984 -0.8278  0.6186
 2447SOL    HW218978   3.290   3.999   4.028  0.9516  0.5483 -1.4216
 2448SOL     OW18979   0.445   1.713  15.100  0.1622 -0.7527 -0.0235
 2448SOL    HW118980   0.486   1.788  15.057 -0.4194 -0.9177 -0.8823
 2448SOL    HW218981   0.516   1.650  15.087 -0.1771 -0.8916 -1.2369
 2449SOL     OW18982   0.083   2.916   8.941  0.4701  0.6864 -0.4623
 2449SOL    HW118983   0.011   2.921   8.878 -0.1614 -2.4809 -0.0034
 2449SOL    HW218984   0.086   3.006   8.971 -1.4401  0.4235  0.4905
 2450SOL     OW18985   0.995   2.135   3.525 -0.8426 -0.1546 -0.0755
 2450SOL    HW118986   0.949   2.069   3.578  0.2213 -1.6420 -1.0245
 2450SOL    HW218987   0.932   2.133   3.453 -2.6160  0.2397  1.4265
 2451SOL     OW18988   4.585   2.173   7.738  0.0818 -0.3344  0.2636
 2451SOL    HW118989   4.613   2.182   7.829  2.2507  0.0703 -0.4544
 2451SOL    HW218990   4.670   2.185   7.696 -0.1029  3.5557  1.0276
 2452SOL     OW18991   4.404   3.946  11.821 -0.1701  0.4464  0.1737
 2452SOL    HW118992   4.412   3.999  11.742  0.0043 -1.6274 -1.1839
 2452SOL    HW218993   4.332   3.981  11.874 -0.7275 -0.5648  0.0843
 2453SOL     OW18994   1.505   0.455   3.007 -0.0346 -0.4024 -0.4387
 2453SOL    HW118995   1.573   0.387   3.016 -0.1426 -0.1212  2.4788
 2453SOL    HW218996   1.535   0.466   2.917  2.0153  1.7486  0.5023
 2454SOL     OW18997   2.005   3.587   8.574  0.3688  0.0392 -0.0182
 2454SOL    HW118998   2.035   3.675   8.598  1.4512 -0.5027  0.6200
 2454SOL    HW218999   2.076   3.532   8.605  1.0735  1.2753  0.5665
 2455SOL     OW19000   4.260   3.046   7.435  0.1601  0.3949  0.1359
 2455SOL    HW119001   4.331   3.064   7.496  0.9339 -1.1656 -0.3116
 2455SOL    HW219002   4.201   3.119   7.451 -1.0696 -0.2468 -1.4616
 2456SOL     OW19003   2.519   2.023  14.256  0.0752  0.5297 -0.0236
 2456SOL    HW119004   2.585   1.999  14.320  1.2463  0.9040 -1.0991
 2456SOL    HW219005   2.560   2.103  14.223  1.5311  0.3007  1.2720
 2457SOL     OW19006   0.528   0.630   8.672  0.4640 -0.1478 -0.6923
 2457SOL    HW119007   0.620   0.635   8.646  0.7386  1.4975  0.6176
 2457SOL    HW219008   0.487   0.633   8.585 -0.3957  1.2611 -0.2428
 2458SOL     OW19009   1.688   1.337   2.933  0.3257  0.6815 -0.0884
 2458SOL    HW119010   1.658   1.367   3.018 -1.5963  0.1737 -0.6055
 2458SOL    HW219011   1.714   1.422   2.895 -1.2613  0.4918 -1.6148
 2459SOL     OW19012   2.556   2.947   4.847  1.0505  0.3337  0.1012
 2459SOL    HW119013   2.587   2.917   4.932  0.5055 -0.4863  0.0065
 2459SOL    HW219014   2.537   2.877   4.785  1.4023 -0.1637  0.5530
 2460SOL     OW19015   3.747   0.032   7.057  0.8879 -0.3069 -0.3649
 2460SOL    HW119016   3.684   0.038   7.129 -0.2386 -1.9960 -1.2114
 2460SOL    HW219017   3.823   0.014   7.111  0.7959  2.7936  0.7916
 2461SOL     OW19018   2.082   0.669   5.179 -0.4483  0.5660  0.2928
 2461SOL    HW119019   2.050   0.721   5.106  2.2322  2.1004  0.2403
 2461SOL    HW219020   2.060   0.580   5.150  2.8421 -0.0206 -0.3333
 2462SOL     OW19021   4.563   3.683   2.960 -0.2193 -0.0266  0.1174
 2462SOL    HW119022   4.471   3.686   2.932 -0.6687  2.0356  1.8550
 2462SOL    HW219023   4.570   3.624   3.035 -1.7966  0.4253  0.6208
 2463SOL     OW19024   2.240   3.110   8.584  0.0024  0.7127 -0.2635
 2463SOL    HW119025   2.155   3.152   8.576 -0.4647 -0.3355 -0.8584
 2463SOL    HW219026   2.282   3.169   8.647  2.1339 -0.3370 -0.7029
 2464SOL     OW19027   4.174   0.405   1.475  0.2143  0.3591  0.1649
 2464SOL    HW119028   4.251   0.357   1.505 -0.3748 -0.3400  0.5489
 2464SOL    HW219029   4.103   0.374   1.531  0.1424 -0.6718 -0.4914
 2465SOL     OW19030   2.527   2.504   1.650  0.1416  0.3180 -0.0326
 2465SOL    HW119031   2.445   2.539   1.613  0.2328 -0.9779 -1.4675
 2465SOL    HW219032   2.588   2.570   1.617 -1.3731  2.4299  1.3277
 2466SOL     OW19033   2.856   4.197   3.524  0.2088 -0.2754  0.4990
 2466SOL    HW119034   2.769   4.234   3.535  0.3782 -0.4728  2.3801
 2466SOL    HW219035   2.898   4.275   3.487 -1.3718  0.5365  0.4248
 2467SOL     OW19036   3.653   0.239   8.005 -0.5743 -0.1186 -0.9387
 2467SOL    HW119037   3.599   0.183   7.950 -1.8006  2.2879 -2.1721
 2467SOL    HW219038   3.740   0.237   7.965 -0.0776 -0.0317  0.1396
 2468SOL     OW19039   1.583   0.233  13.714  0.5777  0.3704  0.2489
 2468SOL    HW119040   1.500   0.274  13.739  0.2901  0.2800 -0.5649
 2468SOL    HW219041   1.615   0.209  13.801  0.9956 -4.3163 -1.2132
 2469SOL     OW19042   4.673   3.942   5.629 -0.4107  0.2816 -0.0547
 2469SOL    HW119043   4.691   3.974   5.717  3.4034  2.0910 -1.4547
 2469SOL    HW219044   4.590   3.897   5.638 -0.3260  0.2615  0.6337
 2470SOL     OW19045   2.551   4.487   3.817  0.1370 -0.4006 -0.1347
 2470SOL    HW119046   2.562   4.393   3.827  1.2805 -0.4047 -1.3440
 2470SOL    HW219047   2.599   4.495   3.734 -0.9240 -0.5317 -0.7682
 2471SOL     OW19048   3.037   3.834   2.213  0.0548  0.5138  0.1285
 2471SOL    HW119049   3.109   3.831   2.276 -0.2739  2.3357  0.5718
 2471SOL    HW219050   3.005   3.923   2.226  0.6067  0.4951  1.5757
 2472SOL     OW19051   0.780   0.626   2.859  0.5334 -0.2930 -0.4267
 2472SOL    HW119052   0.702   0.604   2.809 -0.4854  2.7532 -0.2050
 2472SOL    HW219053   0.805   0.709   2.817  1.1458  0.0951  0.6953
 2473SOL     OW19054   2.089   2.364  17.237 -0.2942 -0.6464 -0.2606
 2473SOL    HW119055   2.061   2.344  17.148  0.5378  0.9893 -0.8800
 2473SOL    HW219056   2.172   2.316  17.233  0.1098  0.1081 -0.8754
 2474SOL     OW19057   3.246   2.948   9.240 -0.9454 -0.3053  0.5070
 2474SOL    HW119058   3.170   3.004   9.253 -0.6323  0.1114  0.5503
 2474SOL    HW219059   3.216   2.903   9.161 -1.6547 -0.9514  1.1493
 2475SOL     OW19060   0.419   2.230   7.881 -0.0939  0.6047  0.2428
 2475SOL    HW119061   0.449   2.157   7.826  1.9028 -1.1689  3.7182
 2475SOL    HW219062   0.372   2.264   7.804  0.9712  0.3425 -0.5255
 2476SOL     OW19063   4.618   1.140   3.651  0.3495 -0.5721  0.1257
 2476SOL    HW119064   4.631   1.161   3.744 -3.2074  0.0593  0.4654
 2476SOL    HW219065   4.622   1.045   3.651 -0.1243 -0.5841 -1.5422
 2477SOL     OW19066   4.359   0.484   9.750 -0.3666  0.1733  0.2050
 2477SOL    HW119067   4.278   0.487   9.800 -0.3664 -0.7274  0.2610
 2477SOL    HW219068   4.417   0.509   9.821  1.1294 -0.9648 -0.6019
 2478SOL     OW19069   0.016   4.042   7.284  0.1175  0.8234 -0.0792
 2478SOL    HW119070   0.094   4.092   7.307  0.5844  0.7804 -1.6003
 2478SOL    HW219071   4.696   4.111   7.259  0.6811  1.0339 -0.8601
 2479SOL     OW19072   2.160   2.379   4.347 -0.5047 -0.1000 -0.1748
 2479SOL    HW119073   2.077   2.421   4.369  0.8340  2.9723 -0.8836
 2479SOL    HW219074   2.165   2.372   4.252  0.0573 -1.9580 -0.0021
 2480SOL     OW19075   3.704   4.723  14.990 -0.1624 -0.0783 -0.3686
 2480SOL    HW119076   3.711   4.721  14.894  1.0185  1.5391 -0.3160
 2480SOL    HW219077   3.613   4.693  14.995 -0.7895  1.4253 -2.7832
 2481SOL     OW19078   2.080   2.175   2.052 -0.1850  0.6240  0.3517
 2481SOL    HW119079   2.101   2.266   2.033  4.0020 -0.1535  1.4201
 2481SOL    HW219080   2.166   2.135   2.041 -0.4486  0.0811  0.2469
 2482SOL     OW19081   0.247   1.797   8.897 -0.1095 -0.6548  0.3969
 2482SOL    HW119082   0.329   1.837   8.927 -0.2942  0.4195 -0.5238
 2482SOL    HW219083   0.185   1.818   8.967  0.4949 -0.5682  0.9105
 2483SOL     OW19084   3.179   1.206  10.031  0.4448 -0.0927 -0.0913
 2483SOL    HW119085   3.233   1.136   9.994  1.1057  0.7116 -0.6494
 2483SOL    HW219086   3.128   1.149  10.089 -0.7281 -0.2660 -1.3095
 2484SOL     OW19087   1.192   0.619   8.145 -0.4374  0.6330  0.0109
 2484SOL    HW119088   1.133   0.651   8.077 -1.8407 -0.0788  0.8916
 2484SOL    HW219089   1.273   0.660   8.114 -0.6931  1.9432  1.0821
 2485SOL     OW19090   4.566   2.528   2.547 -0.0264  0.4651  0.2943
 2485SOL    HW119091   4.490   2.543   2.603 -1.9929  0.7508 -2.4539
 2485SOL    HW219092   4.622   2.600   2.574  2.2568 -0.7569 -1.1502
 2486SOL     OW19093   3.411   1.045   8.819 -0.1995 -0.0687  0.0078
 2486SOL    HW119094   3.373   0.991   8.889  0.9564 -0.3854  0.3885
 2486SOL    HW219095   3.392   0.985   8.747 -1.7040  1.0339 -0.5309
 2487SOL     OW19096   1.485   0.872  16.212 -0.1530 -0.0655 -0.5734
 2487SOL    HW119097   1.411   0.920  16.247  0.2278 -0.4958  0.8315
 2487SOL    HW219098   1.512   0.935  16.146  0.2240  0.3326 -0.0323
 2488SOL     OW19099   3.125   4.141  16.572  0.1796 -0.2022  0.0572
 2488SOL    HW119100   3.203   4.181  16.533 -0.6905 -0.3940 -1.9012
 2488SOL    HW219101   3.111   4.071  16.508 -0.3366 -0.3015  0.2796
 2489SOL     OW19102   2.149   4.202  16.522 -0.2163 -0.3670 -0.6750
 2489SOL    HW119103   2.224   4.149  16.493  3.0230  2.7409  1.9741
 2489SOL    HW219104   2.176   4.231  16.609 -1.0249  0.8161 -0.8127
 2490SOL     OW19105   2.608   1.735   8.555  0.0761  0.0647 -0.3434
 2490SOL    HW119106   2.670   1.685   8.502  0.3789 -0.7270  0.7549
 2490SOL    HW219107   2.590   1.682   8.633 -1.9235  0.2721 -0.6763
 2491SOL     OW19108   0.099   4.105   5.458 -0.1486  0.3679 -0.2169
 2491SOL    HW119109   0.022   4.056   5.488  0.8865 -0.0461  1.7558
 2491SOL    HW219110   0.173   4.069   5.506 -0.0758  1.5034  0.5348
 2492SOL     OW19111   0.667   2.520   8.398  0.2487 -0.2822  0.1794
 2492SOL    HW119112   0.613   2.458   8.447  1.7340 -1.3513  0.4884
 2492SOL    HW219113   0.605   2.584   8.364 -0.8791 -1.0216  0.8784
 2493SOL     OW19114   0.538   1.902  12.884  0.5059 -0.4853  0.2207
 2493SOL    HW119115   0.595   1.966  12.926  2.8417 -1.0239 -2.2054
 2493SOL    HW219116   0.531   1.834  12.951  0.2131  0.6613  1.3512
 2494SOL     OW19117   3.458   2.123   7.102  0.0947 -0.0303  0.9172
 2494SOL    HW119118   3.379   2.094   7.058  1.3615  0.3722 -1.6323
 2494SOL    HW219119   3.429   2.114   7.193 -1.6228 -0.5555  0.3071
 2495SOL     OW19120   1.971   2.198  10.925  0.2818 -0.0162 -0.5522
 2495SOL    HW119121   1.891   2.242  10.953  0.3625  0.3568 -0.9217
 2495SOL    HW219122   1.995   2.143  11.000 -1.4930 -1.0536 -0.7280
 2496SOL     OW19123   1.770   0.223  17.166  0.3250 -0.2066  0.5162
 2496SOL    HW119124   1.837   0.162  17.197  0.1236 -0.7460 -0.1117
 2496SOL    HW219125   1.832   0.263  17.106  2.4142 -2.1214  1.4124
 2497SOL     OW19126   2.984   4.472   5.969 -0.4103 -0.0583 -0.0824
 2497SOL    HW119127   2.896   4.453   6.001 -0.3870 -1.4071 -0.8405
 2497SOL    HW219128   2.968   4.565   5.953  1.2939  0.2982  0.2311
 2498SOL     OW19129   3.545   0.349   4.387  0.2212 -0.3144 -0.3678
 2498SOL    HW119130   3.455   0.315   4.393  0.5960 -1.1331  0.6432
 2498SOL    HW219131   3.558   0.360   4.481  0.6826  0.7501 -0.5585
 2499SOL     OW19132   2.908   3.505  17.074 -0.1703 -0.1709  0.2300
 2499SOL    HW119133   2.897   3.475  16.984  0.4950 -1.7673  0.6815
 2499SOL    HW219134   2.837   3.456  17.116 -1.2494  2.2860  1.2559
 2500SOL     OW19135   4.559   0.582  11.250  0.1667 -0.0193  0.0219
 2500SOL    HW119136   4.574   0.625  11.166  1.5533 -1.9504 -0.7040
 2500SOL    HW219137   4.601   0.636  11.317  2.4889 -0.1467 -1.3129
 2501SOL     OW19138   3.505   3.622  12.092  0.0499  0.3229 -0.4864
 2501SOL    HW119139   3.422   3.580  12.117  1.1316 -0.0964  2.3436
 2501SOL    HW219140   3.527   3.672  12.170 -2.0130 -0.1647  0.4174
 2502SOL     OW19141   0.384   4.154   4.632  0.0924 -0.1629 -0.3836
 2502SOL    HW119142   0.306   4.126   4.584 -0.9915 -0.2009  1.3654
 2502SOL    HW219143   0.444   4.081   4.620 -1.3100 -1.4016  0.1743
 2503SOL     OW19144   0.762   0.914   3.800 -0.6865  0.0182 -0.6776
 2503SOL    HW119145   0.723   0.834   3.765  1.7254 -1.0077 -1.0277
 2503SOL    HW219146   0.678   0.956   3.819 -1.2298 -1.1475 -0.5270
 2504SOL     OW19147   2.358   1.352  12.343  0.4769 -0.3340 -0.3618
 2504SOL    HW119148   2.388   1.430  12.388 -0.3043  0.3744 -1.0597
 2504SOL    HW219149   2.342   1.285  12.410 -1.1796 -0.5240 -0.9434
 2505SOL     OW19150   3.898   2.387   6.455 -0.1328 -0.1643  0.2530
 2505SOL    HW119151   3.817   2.336   6.449  0.9688 -1.8343 -0.5594
 2505SOL    HW219152   3.962   2.319   6.435  0.6074  0.3823  0.7749
 2506SOL     OW19153   0.311   3.042   6.931  0.0092  0.6706  0.4162
 2506SOL    HW119154   0.345   3.046   6.841 -1.0882 -1.4810 -0.0960
 2506SOL    HW219155   0.218   3.055   6.915 -0.1803  0.0100  0.9871
 2507SOL     OW19156   1.147   1.029   3.220 -0.0384 -0.2060  0.4037
 2507SOL    HW119157   1.147   0.990   3.132  2.1015 -0.2262  0.3969
 2507SOL    HW219158   1.122   0.955   3.274 -0.2679  1.2488  2.3010
 2508SOL     OW19159   3.640   1.116   9.863 -0.1557  0.2709 -0.1561
 2508SOL    HW119160   3.650   1.137   9.770 -1.5157  1.0225 -0.1295
 2508SOL    HW219161   3.726   1.104   9.903 -0.4532 -1.0548  0.0766
 2509SOL     OW19162   3.705   1.204  17.586 -0.2214 -0.1356  0.0421
 2509SOL    HW119163   3.739   1.184  17.674  1.4014  1.8035 -0.1299
 2509SOL    HW219164   3.636   1.138  17.580  0.0387 -0.5202  1.2517
 2510SOL     OW19165   2.498   0.544  16.974 -0.1979 -0.3618 -0.6425
 2510SOL    HW119166   2.544   0.605  17.030  0.8408  0.4839 -2.4053
 2510SOL    HW219167   2.475   0.611  16.910  1.7851  1.3842  0.4953
 2511SOL     OW19168   4.241   1.069   6.890 -0.1911 -0.7455  0.7839
 2511SOL    HW119169   4.159   1.091   6.934 -0.9488  1.6505 -1.8208
 2511SOL    HW219170   4.210   1.019   6.815 -0.1762 -0.0604  0.3299
 2512SOL     OW19171   2.051   1.843   8.631  0.4915  0.2945 -0.1054
 2512SOL    HW119172   2.123   1.856   8.694 -0.1052  1.5477  0.3243
 2512SOL    HW219173   2.030   1.751   8.646  0.0368  0.5540  0.8381
 2513SOL     OW19174   3.739   2.151   4.874  0.6163 -0.1680 -0.3448
 2513SOL    HW119175   3.819   2.192   4.907  0.8313 -0.2731 -0.7350
 2513SOL    HW219176   3.783   2.083   4.824  1.3328 -0.2545  0.4040
 2514SOL     OW19177   1.769   0.013   6.748 -0.3017 -0.3185 -0.5480
 2514SOL    HW119178   1.823   4.715   6.816  1.0625  1.4465 -0.6250
 2514SOL    HW219179   1.721   0.078   6.800  0.7172 -2.1531  2.6517
 2515SOL     OW19180   1.268   0.594  16.044  0.5835  0.1956 -0.0502
 2515SOL    HW119181   1.284   0.609  16.137  1.3585  4.5928 -0.9215
 2515SOL    HW219182   1.186   0.545  16.042  0.2482  0.6055  3.2961
 2516SOL     OW19183   4.547   2.574   4.809 -0.4671 -0.1607  0.1642
 2516SOL    HW119184   4.596   2.640   4.760 -2.9729  0.8163 -1.0150
 2516SOL    HW219185   4.518   2.622   4.887 -0.0074  1.2294 -0.5365
 2517SOL     OW19186   2.256   0.365   4.374 -0.0974  0.2002 -0.3150
 2517SOL    HW119187   2.305   0.413   4.440 -3.0006  1.7846  0.7141
 2517SOL    HW219188   2.266   0.414   4.293 -1.7098 -0.6958 -1.0560
 2518SOL     OW19189   1.609   0.095   7.466  0.1184  0.0066 -0.0046
 2518SOL    HW119190   1.619   0.093   7.370  0.6488 -0.1317  0.0562
 2518SOL    HW219191   1.514   0.086   7.466  0.1661 -0.3669  3.2991
 2519SOL     OW19192   0.621   1.527  15.046  0.0012 -0.1491 -0.3738
 2519SOL    HW119193   0.654   1.522  15.136  0.1683 -1.2030 -0.4895
 2519SOL    HW219194   0.638   1.436  15.023 -0.6144 -0.4794  0.4516
 2520SOL     OW19195   1.125   3.582   8.469  0.6545 -0.2439  0.3490
 2520SOL    HW119196   1.070   3.504   8.477  0.1772  0.1753  1.2352
 2520SOL    HW219197   1.102   3.635   8.546  0.3026 -0.3245  0.2991
 2521SOL     OW19198   3.617   2.295  16.277 -0.5620  0.4489  0.1361
 2521SOL    HW119199   3.698   2.263  16.238 -0.7869 -0.2518  0.2456
 2521SOL    HW219200   3.630   2.390  16.276 -0.7721  0.4817  0.3340
 2522SOL     OW19201   2.572   4.652   6.539 -0.2707 -0.6418  0.1098
 2522SOL    HW119202   2.632   4.598   6.592  1.7476  2.1648  0.6676
 2522SOL    HW219203   2.632   4.719   6.508 -1.0802 -0.0164 -0.1046
 2523SOL     OW19204   1.239   0.416   7.863 -0.7400  0.2274 -0.0660
 2523SOL    HW119205   1.276   0.501   7.841 -0.8419 -0.3581 -2.5186
 2523SOL    HW219206   1.151   0.441   7.891 -0.5679  1.2104 -0.4174
 2524SOL     OW19207   2.207   1.041  10.982  0.4181  0.5508  0.1988
 2524SOL    HW119208   2.115   1.027  11.004  0.9165  0.2015  2.0274
 2524SOL    HW219209   2.260   0.985  11.040 -1.0856 -1.3800 -0.3142
 2525SOL     OW19210   1.376   3.503   7.372 -0.4292 -0.0468 -0.6210
 2525SOL    HW119211   1.395   3.416   7.336 -0.7749 -0.9281  1.3626
 2525SOL    HW219212   1.288   3.497   7.409 -0.1181  1.1400  0.2929
 2526SOL     OW19213   2.709   2.224   7.987  0.1801 -0.5058  0.0836
 2526SOL    HW119214   2.752   2.225   8.072  3.1466 -3.8978 -1.3456
 2526SOL    HW219215   2.669   2.311   7.986  1.4194  0.0675  0.8050
 2527SOL     OW19216   3.103   2.297   2.280  0.3613 -0.7083  0.1026
 2527SOL    HW119217   3.049   2.358   2.231 -0.4585 -2.7067 -1.5005
 2527SOL    HW219218   3.061   2.261   2.358 -1.7519  2.1831  0.2682
 2528SOL     OW19219   0.214   1.798   4.546 -0.2650  0.1791 -0.4627
 2528SOL    HW119220   0.193   1.890   4.529 -1.2233  0.2557  1.1655
 2528SOL    HW219221   0.272   1.808   4.621 -1.2846  0.2324  0.3133
 2529SOL     OW19222   4.641   0.870  15.816  0.4974 -0.1314 -0.1732
 2529SOL    HW119223   4.681   0.811  15.879 -0.6041  1.7240  2.2457
 2529SOL    HW219224   4.695   0.948  15.809  2.5991 -1.5327  0.4368
 2530SOL     OW19225   0.359   0.042   2.890  0.3783  0.1023 -0.1107
 2530SOL    HW119226   0.389   0.022   2.802 -0.1102 -0.1301 -0.2243
 2530SOL    HW219227   0.363   0.138   2.891 -0.4500  0.1424 -0.0840
 2531SOL     OW19228   0.951   4.476   2.129 -0.0175  0.3188 -0.1186
 2531SOL    HW119229   1.015   4.473   2.200 -0.7789  0.8856  0.5868
 2531SOL    HW219230   0.976   4.404   2.072 -0.1919  0.6905 -0.6704
 2532SOL     OW19231   2.165   2.043   5.204 -0.1665  0.4412  0.3135
 2532SOL    HW119232   2.174   2.115   5.142  1.9854 -0.3904 -0.3045
 2532SOL    HW219233   2.245   1.992   5.197 -0.7167  0.1168 -3.6424
 2533SOL     OW19234   1.033   0.793   3.831  0.2847  0.1901 -0.4501
 2533SOL    HW119235   1.055   0.768   3.920  0.4478 -0.7549 -0.7555
 2533SOL    HW219236   0.958   0.853   3.834  0.3267  0.2259 -0.1860
 2534SOL     OW19237   0.314   2.562  16.186  0.0933 -0.2524  0.3888
 2534SOL    HW119238   0.346   2.492  16.129  0.6592 -0.0560  0.4763
 2534SOL    HW219239   0.284   2.506  16.258 -2.6040  0.8240  0.0983
 2535SOL     OW19240   1.847   3.866   9.817  0.2156  0.2310 -0.5910
 2535SOL    HW119241   1.901   3.839   9.891  1.3523  1.9365 -0.7906
 2535SOL    HW219242   1.783   3.796   9.810  1.2347 -0.9279  1.8007
 2536SOL     OW19243   0.401   0.466  15.853  0.1194 -0.6105 -0.1411
 2536SOL    HW119244   0.342   0.531  15.814  0.7231 -1.5536 -2.6331
 2536SOL    HW219245   0.487   0.505  15.833  0.2546 -1.2122 -0.7446
 2537SOL     OW19246   4.261   3.238  15.069  1.2517 -0.0648  0.2475
 2537SOL    HW119247   4.262   3.197  14.983  0.4062  3.3321 -1.3803
 2537SOL    HW219248   4.233   3.171  15.131 -0.3816 -0.2902 -0.7467
 2538SOL     OW19249   3.855   1.288   5.371  0.2687  0.5669  0.3247
 2538SOL    HW119250   3.885   1.211   5.323  0.6192  1.5403 -1.0193
 2538SOL    HW219251   3.909   1.288   5.450 -0.8377  0.1674  1.0983
 2539SOL     OW19252   2.423   0.126  16.108 -0.6665  0.3440  0.2700
 2539SOL    HW119253   2.367   0.202  16.091  0.9141  0.7497 -3.1828
 2539SOL    HW219254   2.364   0.067  16.155  0.2452  0.1411  1.1753
 2540SOL     OW19255   1.556   1.350   2.246  0.0432  0.0733  0.2760
 2540SOL    HW119256   1.596   1.383   2.166  0.7584  0.8679  0.9629
 2540SOL    HW219257   1.618   1.392   2.306  0.6965  1.8454 -1.6755
 2541SOL     OW19258   3.487   1.790   7.754  0.6345 -0.5266 -0.1289
 2541SOL    HW119259   3.467   1.860   7.692 -2.3362 -1.0379  0.2461
 2541SOL    HW219260   3.582   1.804   7.762  0.7522  0.7797 -3.6244
 2542SOL     OW19261   1.547   1.065  15.778  0.0026 -0.0398 -0.2789
 2542SOL    HW119262   1.515   1.053  15.868  2.3629 -2.7982  0.2033
 2542SOL    HW219263   1.478   1.012  15.738 -1.7436  0.8625  1.5156
 2543SOL     OW19264   2.032   2.367   7.013  0.2118 -0.0174 -0.4674
 2543SOL    HW119265   1.967   2.437   7.008  0.3113  0.0850 -0.3070
 2543SOL    HW219266   2.012   2.320   6.932 -3.9313  2.0206 -0.6058
 2544SOL     OW19267   3.159   4.635   5.615  0.6042 -0.4453  0.3179
 2544SOL    HW119268   3.100   4.598   5.679  1.0756 -3.4352 -0.9652
 2544SOL    HW219269   3.205   4.703   5.664 -0.7639  0.0840  0.8380
 2545SOL     OW19270   1.048   2.398   5.645  0.6851 -0.7982  0.4425
 2545SOL    HW119271   0.962   2.407   5.687 -0.0276 -0.5649 -1.0801
 2545SOL    HW219272   1.091   2.481   5.666 -0.4443 -0.2434  0.5804
 2546SOL     OW19273   1.633   3.897   2.076 -0.3381 -0.1107 -0.1827
 2546SOL    HW119274   1.670   3.983   2.056 -0.4801 -0.3992 -1.6732
 2546SOL    HW219275   1.590   3.925   2.156 -1.8429 -0.9598 -0.7077
 2547SOL     OW19276   2.043   1.628  14.666  0.9125  0.2115 -0.4853
 2547SOL    HW119277   2.024   1.607  14.757  2.9340 -3.3949 -0.8721
 2547SOL    HW219278   1.958   1.665  14.643  0.7890  0.6916  0.7693
 2548SOL     OW19279   1.412   1.580   1.487 -0.4665 -0.5525  0.6547
 2548SOL    HW119280   1.451   1.639   1.422  2.2530 -1.0697  1.8366
 2548SOL    HW219281   1.469   1.612   1.557 -1.1176  0.9661  0.4780
 2549SOL     OW19282   0.702   2.399   5.086  0.1277 -0.5550 -0.0415
 2549SOL    HW119283   0.788   2.395   5.044 -0.3154 -0.0851 -0.9699
 2549SOL    HW219284   0.711   2.359   5.173 -0.1103  0.7895  0.5992
 2550SOL     OW19285   1.977   3.578   0.384  0.3119  0.2482 -0.0217
 2550SOL    HW119286   1.937   3.585   0.298  1.7991 -0.3386 -0.7623
 2550SOL    HW219287   2.024   3.661   0.398 -0.8384  0.8520  0.2355
 2551SOL     OW19288   2.864   3.315   1.428  0.2289 -0.1199 -0.4524
 2551SOL    HW119289   2.895   3.336   1.516 -0.0091  0.2823 -0.4670
 2551SOL    HW219290   2.838   3.226   1.455  1.0699 -0.2638 -0.0858
 2552SOL     OW19291   2.955   0.393  16.236 -0.1733  0.0802 -0.0046
 2552SOL    HW119292   2.933   0.397  16.329 -1.0838 -1.0253 -0.1819
 2552SOL    HW219293   3.007   0.313  16.230 -2.9198 -1.6627 -0.5130
 2553SOL     OW19294   3.871   1.359   6.472 -0.2716  0.1755 -0.0656
 2553SOL    HW119295   3.907   1.396   6.553 -2.7553  0.0266  1.0891
 2553SOL    HW219296   3.906   1.419   6.405  1.0602  0.7913  1.1847
 2554SOL     OW19297   4.022   2.636   5.370 -0.0239 -0.2798  0.0624
 2554SOL    HW119298   3.983   2.719   5.398  1.4282  0.5275 -0.2852
 2554SOL    HW219299   3.962   2.612   5.300  0.7744  1.5160 -1.2703
 2555SOL     OW19300   1.290   0.270   2.990 -0.2554  0.0431 -0.0209
 2555SOL    HW119301   1.338   0.289   2.910 -3.5540 -1.8779 -2.4455
 2555SOL    HW219302   1.320   0.339   3.049 -0.3216  1.2573 -1.4260
 2556SOL     OW19303   2.056   4.657   9.191 -0.4197  0.3672 -0.1739
 2556SOL    HW119304   2.132   4.658   9.249  1.1958 -0.8847 -2.2516
 2556SOL    HW219305   2.006   4.732   9.222 -1.3261  0.1900 -1.2093
 2557SOL     OW19306   3.641   4.098   8.230  0.2207 -0.0808  0.3067
 2557SOL    HW119307   3.714   4.040   8.253 -0.8354 -1.4414  0.1992
 2557SOL    HW219308   3.687   4.157   8.170 -1.0369  2.1980  1.5480
 2558SOL     OW19309   0.325   1.280   0.732 -0.3130 -0.2042 -0.1039
 2558SOL    HW119310   0.302   1.314   0.818 -1.6347  1.2060 -1.0098
 2558SOL    HW219311   0.256   1.319   0.678  0.2760  0.1758 -0.5870
 2559SOL     OW19312   1.114   1.063   5.783  0.0309  0.2497  0.3419
 2559SOL    HW119313   1.055   1.003   5.829 -0.7910  0.4025 -0.5302
 2559SOL    HW219314   1.054   1.137   5.780 -1.2099 -0.8481 -1.8361
 2560SOL     OW19315   4.268   1.104   4.557 -0.4647  0.2817 -0.0006
 2560SOL    HW119316   4.279   1.190   4.598  0.5206  0.2146 -0.1245
 2560SOL    HW219317   4.195   1.129   4.500 -0.0490  0.5655 -0.4083
 2561SOL     OW19318   0.007   0.041   5.071 -0.4816 -0.3930 -0.1485
 2561SOL    HW119319   0.061   4.708   5.101  1.2828 -0.6895 -4.0245
 2561SOL    HW219320   4.733   0.011   4.982 -0.1838 -3.3028  0.7758
 2562SOL     OW19321   1.210   2.933   8.398 -0.7478  0.1519  0.2770
 2562SOL    HW119322   1.277   2.943   8.331  1.0217  1.9350  2.3089
 2562SOL    HW219323   1.174   2.847   8.377  0.6675 -0.2962 -0.3349
 2563SOL     OW19324   0.665   0.529   5.115  0.0837  0.0113 -0.4738
 2563SOL    HW119325   0.614   0.481   5.180 -0.6423 -0.6590 -1.5366
 2563SOL    HW219326   0.678   0.458   5.052  0.0956  0.5233 -1.0503
 2564SOL     OW19327   0.975   3.853  17.543  0.3143 -0.2743 -0.1617
 2564SOL    HW119328   0.943   3.805  17.620 -1.3147 -0.5786 -1.0324
 2564SOL    HW219329   0.908   3.921  17.536  2.2661  1.7869  0.8249
 2565SOL     OW19330   4.190   2.650   1.241  0.0515  0.3454  0.2423
 2565SOL    HW119331   4.280   2.669   1.217 -0.0096  0.7085  0.3025
 2565SOL    HW219332   4.165   2.741   1.226 -0.0454  0.3977  0.7315
 2566SOL     OW19333   2.280   2.799   5.457  0.2825 -0.7529  0.1276
 2566SOL    HW119334   2.292   2.893   5.444  0.0284 -0.4602  1.8899
 2566SOL    HW219335   2.275   2.792   5.553 -0.3559  1.2941  0.2526
 2567SOL     OW19336   1.243   4.403   7.710  0.1109 -0.1551  0.3127
 2567SOL    HW119337   1.237   4.351   7.630 -0.4119  0.1437  0.1536
 2567SOL    HW219338   1.253   4.328   7.768 -1.4776  1.0828  2.2025
 2568SOL     OW19339   0.854   2.416   6.217  0.1642 -0.3697  0.5912
 2568SOL    HW119340   0.941   2.379   6.197 -1.0769 -3.0525  0.0977
 2568SOL    HW219341   0.879   2.484   6.279  0.6240 -1.2602  1.3785
 2569SOL     OW19342   4.227   0.128   6.737 -0.6379 -0.6042 -0.0947
 2569SOL    HW119343   4.243   0.221   6.719 -0.0259 -0.1393  2.7796
 2569SOL    HW219344   4.228   0.140   6.832  0.0496  0.7066 -0.2604
 2570SOL     OW19345   1.977   4.593  15.960  0.4983  0.0836  0.1959
 2570SOL    HW119346   2.004   4.618  15.871 -0.6034  2.7966  0.6370
 2570SOL    HW219347   2.019   4.667  16.003  1.9703  0.4175 -1.8327
 2571SOL     OW19348   3.821   2.897   0.165  0.9167 -0.1605  0.4407
 2571SOL    HW119349   3.873   2.968   0.127  0.6441  0.2218  0.7845
 2571SOL    HW219350   3.876   2.859   0.234 -0.4295 -0.4986  1.3261
 2572SOL     OW19351   4.665   3.990  12.868 -0.1535 -0.0766 -0.3112
 2572SOL    HW119352   4.692   3.972  12.777 -1.7127 -2.6766 -0.2392
 2572SOL    HW219353   0.012   4.016  12.898  0.2300 -1.3634 -0.2762
 2573SOL     OW19354   1.234   4.027   9.876  0.1908 -0.2108  0.1099
 2573SOL    HW119355   1.301   4.029   9.807  1.4049 -1.1445  1.2769
 2573SOL    HW219356   1.291   4.041   9.952  1.3551  0.6523 -0.9042
 2574SOL     OW19357   3.642   3.773   8.085 -0.1452 -0.5406 -0.6690
 2574SOL    HW119358   3.660   3.811   8.171 -1.3115  1.6761 -1.4024
 2574SOL    HW219359   3.556   3.732   8.097 -0.2016 -0.0672  0.5404
 2575SOL     OW19360   2.175   0.942  10.704 -0.3821  0.4823 -0.2648
 2575SOL    HW119361   2.258   0.939  10.657 -0.3206 -1.9723  0.0163
 2575SOL    HW219362   2.199   0.965  10.794  1.1207  1.4286 -0.8978
 2576SOL     OW19363   2.657   0.682  15.980 -0.5318  0.4594  0.1130
 2576SOL    HW119364   2.619   0.651  15.898 -0.1587 -0.5992  0.3402
 2576SOL    HW219365   2.580   0.716  16.026 -1.3833 -0.9558 -0.2660
 2577SOL     OW19366   0.530   1.037   1.609 -0.8335  0.1465 -0.1675
 2577SOL    HW119367   0.459   0.988   1.650 -1.3261  1.9618  1.1509
 2577SOL    HW219368   0.489   1.103   1.554 -0.6730 -0.2935 -0.8153
 2578SOL     OW19369   3.591   2.852   5.299  0.0371 -0.4140  0.8342
 2578SOL    HW119370   3.679   2.857   5.337  0.1193 -3.1567  1.0256
 2578SOL    HW219371   3.563   2.930   5.347  1.0662  0.2737  0.3249
 2579SOL     OW19372   1.284   2.756   9.621 -0.2444  0.1666 -0.2916
 2579SOL    HW119373   1.250   2.679   9.666 -1.1533  0.5638 -0.3038
 2579SOL    HW219374   1.206   2.797   9.582  0.6937  0.6319 -1.6762
 2580SOL     OW19375   3.106   1.417  12.939  0.6433 -0.1714 -0.1177
 2580SOL    HW119376   3.068   1.505  12.936  1.2238  0.1160  1.0847
 2580SOL    HW219377   3.192   1.437  12.977  0.4652 -0.0940  0.2423
 2581SOL     OW19378   2.031   0.486   7.335 -0.0186 -0.0830  0.1139
 2581SOL    HW119379   2.079   0.568   7.343  0.5242 -0.4073  0.1946
 2581SOL    HW219380   1.945   0.529   7.329  0.6999  1.2822 -0.2640
 2582SOL     OW19381   1.710   4.158  17.535 -0.5212  0.2295  0.1766
 2582SOL    HW119382   1.704   4.070  17.573  0.2991  0.2399  0.3333
 2582SOL    HW219383   1.789   4.149  17.481  0.5102  0.4966  1.6254
 2583SOL     OW19384   2.396   2.487  16.178 -0.1645 -0.4324 -0.4963
 2583SOL    HW119385   2.434   2.531  16.253  1.4295 -0.1536 -1.4574
 2583SOL    HW219386   2.477   2.483  16.127  0.6737 -3.1335  1.0540
 2584SOL     OW19387   2.687   0.680   5.314  0.7495  0.3694  0.0029
 2584SOL    HW119388   2.672   0.735   5.390 -2.2315 -1.0953  0.5034
 2584SOL    HW219389   2.598   0.650   5.291  0.0424  2.1217  0.4602
 2585SOL     OW19390   1.108   0.861   6.949  0.4232 -0.3706 -0.0625
 2585SOL    HW119391   1.092   0.807   7.027  0.9358 -0.9068 -0.3328
 2585SOL    HW219392   1.031   0.918   6.947 -0.9752 -2.2992 -1.1418
 2586SOL     OW19393   3.589   1.018   1.397 -0.0940  0.1400  0.0451
 2586SOL    HW119394   3.655   1.062   1.450 -0.0638 -0.1550  0.2532
 2586SOL    HW219395   3.519   1.010   1.462  1.0577 -1.7142  1.0640
 2587SOL     OW19396   1.158   1.778   6.521  0.0529  0.1391 -0.6209
 2587SOL    HW119397   1.195   1.828   6.448 -1.8911 -0.5983 -2.1106
 2587SOL    HW219398   1.080   1.828   6.546  0.6820  2.1114 -2.5614
 2588SOL     OW19399   4.544   2.439  17.052 -0.6462  0.2677  0.1001
 2588SOL    HW119400   4.627   2.442  17.004  0.1167 -0.5287  1.3893
 2588SOL    HW219401   4.550   2.520  17.103  0.3579  0.4666 -0.3193
 2589SOL     OW19402   2.788   4.118   7.228  0.3401 -0.3990 -0.4934
 2589SOL    HW119403   2.815   4.059   7.298  0.9622  1.6295  0.9753
 2589SOL    HW219404   2.693   4.111   7.237  0.5782 -0.7182  1.7759
 2590SOL     OW19405   2.783   3.591   6.177  0.1432  0.2886  0.1146
 2590SOL    HW119406   2.742   3.505   6.186  0.6747 -0.0219 -0.3966
 2590SOL    HW219407   2.775   3.621   6.086 -0.1740 -0.5147 -0.1200
 2591SOL     OW19408   3.749   4.469   3.634 -0.1765  0.4091  0.5947
 2591SOL    HW119409   3.695   4.534   3.678 -0.8658  0.1710  0.0989
 2591SOL    HW219410   3.794   4.520   3.567  0.7286 -1.7552 -0.4544
 2592SOL     OW19411   1.449   3.716  10.637  0.2493  0.0680 -0.7112
 2592SOL    HW119412   1.448   3.652  10.708  3.8040 -0.1883 -0.9220
 2592SOL    HW219413   1.543   3.728  10.626  0.7484 -2.9063  0.4033
 2593SOL     OW19414   2.950   4.349  17.139  0.0061 -0.0747  0.0609
 2593SOL    HW119415   2.992   4.430  17.168 -0.9786 -0.5205  2.7205
 2593SOL    HW219416   2.907   4.307  17.214  2.0889 -0.0745  1.2668
 2594SOL     OW19417   3.442   0.916   1.609 -0.0387  0.4465 -0.0909
 2594SOL    HW119418   3.502   0.947   1.677 -0.2015 -3.3501  1.7725
 2594SOL    HW219419   3.360   0.941   1.652 -0.8716 -0.9261 -0.8939
 2595SOL     OW19420   4.685   3.882   1.376  0.0610 -0.1335  0.4064
 2595SOL    HW119421   4.646   3.967   1.396 -0.1670 -0.2843  0.6066
 2595SOL    HW219422   4.649   3.859   1.291 -0.7656 -1.0281  0.9977
 2596SOL     OW19423   3.656   2.393   2.978  0.9871 -0.0830  0.2532
 2596SOL    HW119424   3.642   2.315   3.033 -0.8712  0.6875  0.8744
 2596SOL    HW219425   3.717   2.354   2.916  0.2149  0.0845 -0.6106
 2597SOL     OW19426   3.570   0.048   8.579  0.4837 -0.3438  0.3138
 2597SOL    HW119427   3.548   4.696   8.561 -0.7183  0.3468 -1.7641
 2597SOL    HW219428   3.509   0.083   8.515 -1.2557  1.6121  3.0329
 2598SOL     OW19429   3.786   2.323   5.163 -0.2700  0.3592 -0.5756
 2598SOL    HW119430   3.821   2.412   5.163 -0.5286  0.4613 -2.2900
 2598SOL    HW219431   3.840   2.281   5.096 -0.1174  0.6663 -0.6454
 2599SOL     OW19432   2.098   4.357   7.872 -0.5153  0.6308 -0.4690
 2599SOL    HW119433   2.088   4.452   7.874 -0.4700  0.6160  0.8868
 2599SOL    HW219434   2.010   4.321   7.869 -0.3948  0.3609 -0.7016
 2600SOL     OW19435   0.124   2.535  11.885  0.4491  0.0527  0.6517
 2600SOL    HW119436   0.045   2.506  11.931 -0.6840  1.6896 -0.2398
 2600SOL    HW219437   0.197   2.523  11.946  0.9193  2.1233  0.4954
 2601SOL     OW19438   4.607   3.439   4.273  0.2481  0.4370  0.5595
 2601SOL    HW119439   4.655   3.408   4.349  0.4035  2.7330  1.3843
 2601SOL    HW219440   4.678   3.444   4.209 -0.8298 -1.3792 -0.7748
 2602SOL     OW19441   0.317   1.616   9.412 -0.3410  0.3057 -0.1040
 2602SOL    HW119442   0.317   1.700   9.366  1.1736  2.3871  3.7599
 2602SOL    HW219443   0.402   1.576   9.390  0.3119  1.3644  0.5434
 2603SOL     OW19444   1.606   3.929   1.245 -0.3523 -0.4004  0.0332
 2603SOL    HW119445   1.552   3.861   1.287  0.6312 -0.2941  1.4785
 2603SOL    HW219446   1.615   3.891   1.158  0.9709  2.4071 -1.0303
 2604SOL     OW19447   2.292   0.289   5.246  0.1915  0.4241  0.8813
 2604SOL    HW119448   2.342   0.208   5.247 -1.7340 -0.7627  0.5282
 2604SOL    HW219449   2.230   0.272   5.317 -0.9385 -0.2263 -0.2751
 2605SOL     OW19450   0.019   1.153   3.338 -0.0453 -0.0944 -0.3724
 2605SOL    HW119451   0.051   1.113   3.419  0.8514 -0.3158 -0.8386
 2605SOL    HW219452   0.020   1.083   3.273 -0.5801  1.9203 -2.5408
 2606SOL     OW19453   1.273   1.716   3.997 -0.2642  0.3209 -0.0369
 2606SOL    HW119454   1.192   1.767   4.000 -0.6532 -0.4092  1.9212
 2606SOL    HW219455   1.328   1.767   4.057  2.7774 -0.0061 -2.5347
 2607SOL     OW19456   2.170   1.797   2.624 -0.6976 -0.0679 -0.1747
 2607SOL    HW119457   2.171   1.854   2.702 -0.7950  0.0852 -0.2845
 2607SOL    HW219458   2.108   1.849   2.572 -1.0073 -0.5950 -0.3320
 2608SOL     OW19459   0.762   3.118  10.746 -0.6453 -0.1019  0.0295
 2608SOL    HW119460   0.683   3.105  10.798 -2.2673  1.5411 -2.0149
 2608SOL    HW219461   0.726   3.089  10.661 -0.2342 -0.1111 -0.1409
 2609SOL     OW19462   3.893   0.414   3.243 -0.2965  0.1622  0.1448
 2609SOL    HW119463   3.985   0.416   3.215 -0.0177 -0.0520  1.0631
 2609SOL    HW219464   3.883   0.508   3.259 -2.3400  0.1626 -1.1309
 2610SOL     OW19465   3.294   2.815   0.461  0.0428 -0.5602 -0.8600
 2610SOL    HW119466   3.275   2.855   0.377 -1.5847  0.6474  0.1055
 2610SOL    HW219467   3.331   2.730   0.434 -0.6633 -0.3088 -2.6089
 2611SOL     OW19468   0.841   3.047   4.624 -0.2983  0.1654 -1.1402
 2611SOL    HW119469   0.910   3.110   4.643 -0.4269  0.4734 -1.6990
 2611SOL    HW219470   0.862   3.033   4.532  0.9942 -0.5146 -0.7527
 2612SOL     OW19471   3.337   0.788   5.346 -0.5313  0.0583  0.2424
 2612SOL    HW119472   3.253   0.751   5.374 -0.7076  1.2177  1.2465
 2612SOL    HW219473   3.378   0.818   5.427  2.0287  0.2769 -1.1343
 2613SOL     OW19474   0.276   4.097   9.583  0.7100  0.1252  0.0537
 2613SOL    HW119475   0.351   4.038   9.574  2.2036  1.7430  2.0576
 2613SOL    HW219476   0.239   4.060   9.663  2.8013 -2.7596 -0.3234
 2614SOL     OW19477   3.474   0.071   3.185 -0.4500  0.2649 -0.1442
 2614SOL    HW119478   3.536   0.107   3.122  0.8571 -0.4754  0.7213
 2614SOL    HW219479   3.419   0.146   3.207 -1.4793 -0.9566  1.4022
 2615SOL     OW19480   2.577   0.827   9.978 -0.2501  0.3234  0.4636
 2615SOL    HW119481   2.495   0.826  10.027  0.0663  0.4352  0.9929
 2615SOL    HW219482   2.567   0.741   9.937 -0.0180  0.8964 -0.7967
 2616SOL     OW19483   0.897   2.896  16.929 -0.2881  0.1037  0.1171
 2616SOL    HW119484   0.945   2.976  16.953  0.3172 -0.0991 -0.4150
 2616SOL    HW219485   0.964   2.831  16.947 -1.3811 -0.6547  1.4783
 2617SOL     OW19486   4.507   3.673   3.923  0.1488 -0.0316 -0.0265
 2617SOL    HW119487   4.583   3.720   3.957  0.6515  0.6455 -2.0536
 2617SOL    HW219488   4.466   3.749   3.880 -0.4581 -0.6558 -0.5559
 2618SOL     OW19489   2.302   0.888   1.801  0.0022  0.0131 -0.3346
 2618SOL    HW119490   2.355   0.967   1.816 -0.1892  0.1749 -0.5185
 2618SOL    HW219491   2.242   0.897   1.874 -0.4964 -0.7572 -0.6493
 2619SOL     OW19492   3.935   4.118   7.785 -0.0812  0.2547  0.4382
 2619SOL    HW119493   3.869   4.066   7.831  1.2706  0.6046  2.7792
 2619SOL    HW219494   3.998   4.062   7.740  0.0378  1.6607 -1.1792
 2620SOL     OW19495   4.695   2.525   8.848  0.1844 -0.1563 -0.6358
 2620SOL    HW119496   4.718   2.483   8.765 -0.5896 -2.0595  0.1071
 2620SOL    HW219497   4.600   2.515   8.852 -0.0333  2.2259  0.4716
 2621SOL     OW19498   0.086   0.504  12.259 -0.0419 -0.6075 -0.3870
 2621SOL    HW119499   0.099   0.477  12.351  0.5090 -0.5463 -0.4448
 2621SOL    HW219500   0.069   0.421  12.214  0.3586 -2.2475  2.4258
 2622SOL     OW19501   4.626   4.106   8.338  0.2101  0.0309 -0.0028
 2622SOL    HW119502   4.558   4.077   8.399  1.2499 -0.4448  0.9231
 2622SOL    HW219503   4.594   4.076   8.254  0.0851 -0.5925  0.2668
 2623SOL     OW19504   1.375   1.884   2.376 -0.2817 -0.7881  0.4031
 2623SOL    HW119505   1.299   1.911   2.325  1.6361  1.1382 -1.4488
 2623SOL    HW219506   1.342   1.806   2.420  0.3939 -2.1108 -1.4596
 2624SOL     OW19507   0.903   4.250   8.535 -0.1569 -0.5860 -0.5929
 2624SOL    HW119508   0.821   4.218   8.498 -0.5526 -0.6694  0.3590
 2624SOL    HW219509   0.904   4.343   8.513  0.9656 -0.1346  1.4167
 2625SOL     OW19510   3.901   0.320  10.402  0.0181 -0.1524  0.5485
 2625SOL    HW119511   3.821   0.329  10.350  0.3104  1.7938  0.4550
 2625SOL    HW219512   3.857   0.286  10.480 -0.1639  0.8770  0.8855
 2626SOL     OW19513   0.095   2.459   3.425 -0.3259  0.1587  0.1882
 2626SOL    HW119514   0.178   2.473   3.470 -0.8811  4.3328 -0.1394
 2626SOL    HW219515   0.096   2.540   3.374 -2.3432  0.7795  1.1467
 2627SOL     OW19516   0.209   4.625   4.776 -0.4769  0.4611  0.0513
 2627SOL    HW119517   0.238   4.639   4.685 -1.2026 -0.6951 -0.3503
 2627SOL    HW219518   0.183   4.716   4.791  0.3061  0.4663  1.3852
 2628SOL     OW19519   0.497   3.137   7.086  0.5066  0.5276 -0.1258
 2628SOL    HW119520   0.498   3.219   7.135  1.5473  0.6576 -0.3585
 2628SOL    HW219521   0.414   3.141   7.038  0.0530 -1.1519  0.5448
 2629SOL     OW19522   4.402   3.751   0.469  0.1554 -0.0412 -0.0060
 2629SOL    HW119523   4.417   3.817   0.536 -1.4879  0.1068  0.2118
 2629SOL    HW219524   4.490   3.740   0.432  0.2682 -1.6004  0.7281
 2630SOL     OW19525   1.967   2.684   3.917 -0.5676  0.0519  0.5421
 2630SOL    HW119526   2.016   2.604   3.900 -2.0780 -1.5137  3.7312
 2630SOL    HW219527   2.020   2.747   3.868  0.5331 -1.6798 -0.4949
 2631SOL     OW19528   2.346   2.154   0.219  0.3454  0.1653 -0.0477
 2631SOL    HW119529   2.389   2.122   0.140  1.4140  1.7063 -0.0967
 2631SOL    HW219530   2.329   2.245   0.196 -2.3984 -0.5947 -1.0191
 2632SOL     OW19531   4.258   0.113   6.117 -0.7259 -0.7626  0.2314
 2632SOL    HW119532   4.318   0.180   6.084  0.5918 -0.6256  2.9134
 2632SOL    HW219533   4.318   0.039   6.125  2.0511  1.2854 -1.5342
 2633SOL     OW19534   0.464   4.372   7.346 -1.1028  0.0888  0.1106
 2633SOL    HW119535   0.382   4.408   7.313 -0.6795  0.0452 -1.0160
 2633SOL    HW219536   0.532   4.408   7.288  1.1412 -0.5151  2.3593
 2634SOL     OW19537   2.105   1.960  15.646  0.5772 -0.1234  0.3446
 2634SOL    HW119538   2.063   2.022  15.586  1.7513 -0.0393 -0.3987
 2634SOL    HW219539   2.157   2.019  15.700 -0.0799  1.0149 -0.2519
 2635SOL     OW19540   3.274   2.779   1.696 -0.0796  0.1016  0.0726
 2635SOL    HW119541   3.290   2.824   1.779  0.3906 -0.2800  0.1821
 2635SOL    HW219542   3.268   2.863   1.649 -1.4678  0.9911  1.8199
 2636SOL     OW19543   3.906   2.052   5.396  0.3437 -0.1822  0.1383
 2636SOL    HW119544   3.924   1.963   5.426  1.0447  1.0763  3.4148
 2636SOL    HW219545   3.996   2.085   5.398 -0.6214  2.4165  0.2329
 2637SOL     OW19546   0.558   2.302   0.479 -0.3660  0.3034  0.8965
 2637SOL    HW119547   0.571   2.387   0.437 -0.6678 -0.1458 -0.1092
 2637SOL    HW219548   0.643   2.290   0.522  1.0464 -0.7272 -2.1687
 2638SOL     OW19549   0.744   3.255   8.761 -0.0591  0.1564 -0.2623
 2638SOL    HW119550   0.658   3.282   8.791  0.6496 -0.4255  2.2701
 2638SOL    HW219551   0.805   3.318   8.800 -0.1823 -0.0645  0.2892
 2639SOL     OW19552   2.373   0.968   5.902 -0.3109  0.4077 -0.2152
 2639SOL    HW119553   2.281   0.991   5.886 -1.1478 -1.0384  2.5716
 2639SOL    HW219554   2.384   0.953   5.996 -1.3603 -1.4989 -0.4139
 2640SOL     OW19555   4.717   1.372   4.135  0.1773  0.3062 -0.1439
 2640SOL    HW119556   0.066   1.355   4.104  0.4090 -0.3185  0.8636
 2640SOL    HW219557   4.715   1.365   4.230 -0.2422 -0.7043 -0.2281
 2641SOL     OW19558   1.236   1.298   7.087  0.4296  0.3301 -0.6059
 2641SOL    HW119559   1.171   1.368   7.079  0.3693  0.4698  1.1611
 2641SOL    HW219560   1.291   1.323   7.012  0.4616 -1.3226 -1.1195
 2642SOL     OW19561   0.523   0.791   6.568  0.2470 -0.0663  0.2688
 2642SOL    HW119562   0.598   0.738   6.543 -0.0371  0.0123 -0.7745
 2642SOL    HW219563   0.483   0.785   6.481  1.1666 -1.2848 -0.0671
 2643SOL     OW19564   3.190   2.847  14.755  0.2926  0.2039  0.3109
 2643SOL    HW119565   3.105   2.880  14.784 -0.6694 -2.9635  1.0565
 2643SOL    HW219566   3.194   2.758  14.789 -1.0941  0.3023  0.7505
 2644SOL     OW19567   4.111   1.188   4.127 -0.0150  0.2105 -0.2985
 2644SOL    HW119568   4.171   1.162   4.058  1.1458  0.7194  0.5118
 2644SOL    HW219569   4.024   1.166   4.095  0.6272 -0.7117 -1.3918
 2645SOL     OW19570   1.378   3.018   2.186  0.0315  0.1945 -0.0967
 2645SOL    HW119571   1.435   3.088   2.215  0.5020 -1.0936  2.0913
 2645SOL    HW219572   1.306   3.031   2.248 -1.5204  3.1367 -2.5284
 2646SOL     OW19573   4.291   2.565   6.946 -0.0857  0.0426  0.4824
 2646SOL    HW119574   4.378   2.531   6.968 -1.3046 -1.6100  2.7557
 2646SOL    HW219575   4.255   2.494   6.893 -1.4074  0.4995  0.7740
 2647SOL     OW19576   4.684   2.113  12.721 -0.0035  0.0858 -0.1716
 2647SOL    HW119577   4.617   2.170  12.758 -0.4382 -1.4703  1.4724
 2647SOL    HW219578   0.017   2.173  12.709 -0.1345  0.3136  0.1844
 2648SOL     OW19579   2.486   3.599   8.167 -0.0595 -0.7398  0.2091
 2648SOL    HW119580   2.575   3.621   8.137  0.1634 -0.7002  0.8908
 2648SOL    HW219581   2.454   3.544   8.096  2.4447 -1.3181 -0.4810
 2649SOL     OW19582   3.440   2.726   4.724  0.1088 -0.6653 -0.5308
 2649SOL    HW119583   3.499   2.698   4.654  1.3345 -0.9169  0.5916
 2649SOL    HW219584   3.459   2.663   4.794  1.5439  1.7181  1.2605
 2650SOL     OW19585   1.176   3.412   8.700 -0.4367  0.8776  0.4913
 2650SOL    HW119586   1.243   3.434   8.765 -1.5537 -1.3352  2.3535
 2650SOL    HW219587   1.230   3.419   8.621 -1.7096  0.0939 -0.4444
 2651SOL     OW19588   3.317   1.725  10.152  0.0363  0.0199 -0.2234
 2651SOL    HW119589   3.271   1.662  10.096  0.4960 -1.0563  0.6004
 2651SOL    HW219590   3.243   1.772  10.191  0.6819  0.6650  0.1999
 2652SOL     OW19591   1.940   1.940  17.050  0.4097 -0.3608  0.1862
 2652SOL    HW119592   1.982   1.978  17.127  0.9174 -0.9468  0.1939
 2652SOL    HW219593   2.001   1.949  16.977  0.1040  0.5916  0.0482
 2653SOL     OW19594   2.829   0.940  12.593  0.6396  0.0277  0.2706
 2653SOL    HW119595   2.888   0.998  12.641 -2.2391  1.2349  2.3233
 2653SOL    HW219596   2.849   0.968  12.503  0.6496  1.5065  0.7343
 2654SOL     OW19597   2.628   2.520   7.034 -0.0869 -0.1233 -0.0803
 2654SOL    HW119598   2.710   2.568   7.023 -1.3670  1.6880 -1.8290
 2654SOL    HW219599   2.661   2.437   7.000  1.1448 -0.1629  1.2329
 2655SOL     OW19600   1.823   0.536  11.166 -0.5776 -0.1632  0.6067
 2655SOL    HW119601   1.737   0.557  11.128 -2.1379 -3.9541  2.0467
 2655SOL    HW219602   1.842   0.457  11.116  1.7919  0.0707  1.1509
 2656SOL     OW19603   2.520   0.918  16.983  0.3121  0.0420 -0.8759
 2656SOL    HW119604   2.574   0.860  16.929  0.2819 -0.5973 -0.2148
 2656SOL    HW219605   2.507   0.988  16.918  2.1187  1.2653  0.0660
 2657SOL     OW19606   0.415   2.677   3.937 -0.2167  0.3263 -0.0395
 2657SOL    HW119607   0.360   2.740   3.983  0.6473  0.5878  0.6338
 2657SOL    HW219608   0.357   2.601   3.932  1.8219 -1.1186 -1.7174
 2658SOL     OW19609   0.822   0.566   8.376 -0.4695 -0.4998 -0.1658
 2658SOL    HW119610   0.854   0.525   8.457  0.7598  0.5848 -0.0925
 2658SOL    HW219611   0.906   0.608   8.355  1.3139 -2.3153  3.3284
 2659SOL     OW19612   4.689   4.028   5.161  0.2382  0.1609 -0.0389
 2659SOL    HW119613   0.041   4.035   5.134 -0.2092  2.1922 -1.0669
 2659SOL    HW219614   4.685   4.103   5.221  0.7381  2.3101 -2.6830
 2660SOL     OW19615   4.484   2.743   5.009 -0.0243 -0.4906  0.0774
 2660SOL    HW119616   4.529   2.826   5.027  0.1759 -0.3772 -0.9575
 2660SOL    HW219617   4.403   2.780   4.976  0.1263  1.0014  1.3703
 2661SOL     OW19618   1.265   2.845  15.133  0.7031 -0.1747 -0.0181
 2661SOL    HW119619   1.212   2.915  15.095  3.6627  1.6023 -0.9558
 2661SOL    HW219620   1.197   2.806  15.187 -0.4359  1.6550 -0.1564
 2662SOL     OW19621   0.589   4.229  14.357  0.3094 -0.2110 -0.2839
 2662SOL    HW119622   0.515   4.250  14.300  0.3071 -0.3149 -0.3191
 2662SOL    HW219623   0.572   4.279  14.437 -2.4607 -0.8097 -0.5020
 2663SOL     OW19624   0.345   0.712  12.457 -0.1570 -0.0478 -0.1480
 2663SOL    HW119625   0.421   0.657  12.437 -0.9135 -1.5337  1.1504
 2663SOL    HW219626   0.304   0.658  12.524  1.6120 -0.1563  0.8470
 2664SOL     OW19627   1.081   4.235   9.782 -0.3300 -0.0178  0.2882
 2664SOL    HW119628   1.103   4.311   9.835 -3.2050 -0.5138  2.1846
 2664SOL    HW219629   1.126   4.161   9.823  0.9536  0.1106 -0.8852
 2665SOL     OW19630   3.237   0.287   4.173  0.2765  0.0976 -0.3301
 2665SOL    HW119631   3.299   0.247   4.113  0.0720 -2.5452  1.1830
 2665SOL    HW219632   3.189   0.334   4.106 -0.2052  0.7043  0.4325
 2666SOL     OW19633   0.580   3.434  12.697 -0.0099 -0.0009  0.0197
 2666SOL    HW119634   0.636   3.510  12.679  1.1360 -1.2552 -1.7402
 2666SOL    HW219635   0.565   3.390  12.613  0.1440  1.7843 -0.9540
 2667SOL     OW19636   2.759   3.437   2.668 -0.0902 -0.8174  0.2090
 2667SOL    HW119637   2.712   3.400   2.593 -3.0230  0.2048  1.5792
 2667SOL    HW219638   2.844   3.392   2.671 -0.1008 -0.9658 -1.6282
 2668SOL     OW19639   4.460   3.074  17.515 -0.0419 -0.3975 -0.1127
 2668SOL    HW119640   4.367   3.085  17.495 -0.3251 -0.1448  1.3283
 2668SOL    HW219641   4.483   3.133  17.443  0.0425 -0.1750  0.0988
 2669SOL     OW19642   3.063   0.234   9.148  0.2620 -0.2809  0.4706
 2669SOL    HW119643   3.096   0.144   9.150  1.4538  0.1959  2.6477
 2669SOL    HW219644   2.976   0.220   9.185 -0.3318 -2.3796 -1.6992
 2670SOL     OW19645   4.407   3.476   6.630  0.5156  0.3813 -0.3375
 2670SOL    HW119646   4.408   3.411   6.701  1.3984 -1.3656 -1.9378
 2670SOL    HW219647   4.343   3.535   6.670  0.9984  0.4483  0.3285
 2671SOL     OW19648   4.680   0.774   1.726 -0.3191  0.1673 -0.4059
 2671SOL    HW119649   4.696   0.782   1.632 -0.7052 -0.9252 -0.5677
 2671SOL    HW219650   4.708   0.684   1.745  2.2623  0.8991 -0.7586
 2672SOL     OW19651   3.989   4.275   7.357  0.0398 -0.0114 -0.0034
 2672SOL    HW119652   3.910   4.291   7.306  1.5693  0.1663 -2.2955
 2672SOL    HW219653   4.043   4.231   7.292  0.6485 -0.0715  0.5407
 2673SOL     OW19654   0.028   0.400   4.746 -0.1900  0.4373 -0.3122
 2673SOL    HW119655   0.049   0.440   4.830 -2.3729 -0.6141  0.7325
 2673SOL    HW219656   0.101   0.424   4.689  1.9020 -2.5690  1.0853
 2674SOL     OW19657   1.672   2.905   5.247 -0.3374  0.0780  0.5559
 2674SOL    HW119658   1.683   2.990   5.205  1.0194 -0.6191 -0.5236
 2674SOL    HW219659   1.582   2.899   5.280 -1.3802  1.1562 -2.0587
 2675SOL     OW19660   0.997   0.018   4.575 -0.1473  0.1039  0.0319
 2675SOL    HW119661   1.012   4.720   4.488 -0.4982 -0.0495  0.0384
 2675SOL    HW219662   1.086   0.009   4.609 -0.5849  2.1930  1.7269
 2676SOL     OW19663   4.550   2.800  17.603  0.6319 -0.0111  0.1007
 2676SOL    HW119664   4.495   2.875  17.578  1.6578  1.0845  1.1052
 2676SOL    HW219665   4.595   2.776  17.522 -0.6611  1.0289 -0.9487
 2677SOL     OW19666   0.644   2.283   8.134 -0.3024 -0.3153 -0.4727
 2677SOL    HW119667   0.665   2.344   8.063 -0.0808  0.6918  0.4583
 2677SOL    HW219668   0.555   2.250   8.119  0.1433 -1.6296 -0.1509
 2678SOL     OW19669   3.186   4.060   7.165  0.0090 -0.6814 -0.3583
 2678SOL    HW119670   3.153   3.994   7.103  0.4186 -1.0676 -0.1652
 2678SOL    HW219671   3.141   4.134   7.125 -0.0710 -0.8258 -0.5388
 2679SOL     OW19672   4.398   3.000  12.543  0.3188 -0.1321  0.1616
 2679SOL    HW119673   4.337   3.071  12.525  2.8233  1.8229 -0.5603
 2679SOL    HW219674   4.343   2.928  12.513 -1.0321  0.0825  2.0731
 2680SOL     OW19675   2.213   0.317   2.170 -0.0326  1.0007 -0.0595
 2680SOL    HW119676   2.145   0.328   2.104 -0.9972  1.2602  0.9802
 2680SOL    HW219677   2.242   0.407   2.184 -0.2743  0.9870  0.5037
 2681SOL     OW19678   4.465   3.531   2.677 -0.2746 -0.1699  0.1549
 2681SOL    HW119679   4.470   3.490   2.591 -1.6304 -2.4276  1.1535
 2681SOL    HW219680   4.494   3.620   2.653  1.2811 -0.4642  0.9495
 2682SOL     OW19681   2.288   0.103   9.513 -0.0992  0.0887 -0.1354
 2682SOL    HW119682   2.275   0.162   9.439  0.4402 -0.7059 -0.8552
 2682SOL    HW219683   2.211   0.137   9.558  0.0226 -1.7234  1.4639
 2683SOL     OW19684   4.461   1.718   5.159  0.1323 -0.2714 -0.2676
 2683SOL    HW119685   4.443   1.629   5.128  0.6407  0.3496 -2.3442
 2683SOL    HW219686   4.459   1.709   5.254 -1.2395  1.4174 -0.1301
 2684SOL     OW19687   2.565   1.981   6.140  0.3106 -0.1043  0.4385
 2684SOL    HW119688   2.578   1.950   6.229 -0.1296 -0.5460  0.3472
 2684SOL    HW219689   2.563   1.903   6.085  2.2355  0.5194 -0.5152
 2685SOL     OW19690   2.860   0.493   4.895 -0.4175 -0.5378  0.3415
 2685SOL    HW119691   2.893   0.415   4.939  1.5596  0.4729  0.6292
 2685SOL    HW219692   2.866   0.564   4.958 -0.1878  1.9785 -2.4923
 2686SOL     OW19693   1.705   1.388   6.402  0.0677 -0.0720  0.0938
 2686SOL    HW119694   1.710   1.483   6.392  0.8903 -0.3898 -2.3637
 2686SOL    HW219695   1.653   1.373   6.324  0.4982  0.8355 -0.3741
 2687SOL     OW19696   2.790   3.589   4.789 -0.1866 -0.8995  0.1709
 2687SOL    HW119697   2.706   3.548   4.807 -1.7503  1.0726 -2.5678
 2687SOL    HW219698   2.798   3.656   4.857  0.2209  0.6778 -1.4179
 2688SOL     OW19699   4.105   0.296  16.317  0.3422 -0.2905 -0.4056
 2688SOL    HW119700   4.057   0.240  16.378 -0.1728  1.0621  0.4149
 2688SOL    HW219701   4.150   0.228  16.267  0.2697 -1.1284  0.6761
 2689SOL     OW19702   2.117   1.014   2.697 -0.5468 -0.1075 -0.0142
 2689SOL    HW119703   2.136   0.928   2.659 -2.1359 -0.7687  0.6490
 2689SOL    HW219704   2.044   1.034   2.639 -0.1361 -1.0785 -0.8755
 2690SOL     OW19705   3.652   3.038  17.571  0.1334 -0.2369  0.3251
 2690SOL    HW119706   3.590   2.972  17.603  0.3102  0.0460  1.2375
 2690SOL    HW219707   3.639   3.115  17.627  1.6984 -0.3657  0.8561
 2691SOL     OW19708   2.500   0.841  14.248 -0.3880 -0.3832 -0.4664
 2691SOL    HW119709   2.500   0.853  14.153  0.7565 -2.7978 -0.7637
 2691SOL    HW219710   2.585   0.881  14.266  0.2627 -0.7765 -2.6813
 2692SOL     OW19711   0.990   2.223   3.084 -0.1726  0.6055  0.4545
 2692SOL    HW119712   1.013   2.150   3.142  1.5772  0.5136 -0.3658
 2692SOL    HW219713   1.015   2.299   3.136 -0.5282  0.3858  0.9505
 2693SOL     OW19714   2.040   1.107   0.451  0.5068 -0.0331 -0.1740
 2693SOL    HW119715   1.972   1.173   0.442 -0.1829 -0.9339 -1.6509
 2693SOL    HW219716   2.098   1.123   0.376 -0.3329  1.1347 -0.5633
 2694SOL     OW19717   1.003   4.052   8.331 -0.5590  0.3802 -0.1826
 2694SOL    HW119718   0.908   4.055   8.344 -0.6926 -2.2884 -0.5576
 2694SOL    HW219719   1.030   4.010   8.412 -0.5109  4.0715  1.6996
 2695SOL     OW19720   1.681   1.462   2.600  0.2813 -0.6590 -0.2246
 2695SOL    HW119721   1.721   1.381   2.631  2.0276  0.5509  0.6708
 2695SOL    HW219722   1.721   1.474   2.514 -0.5429  1.4200 -0.3297
 2696SOL     OW19723   3.722   2.437   5.860  0.0097  0.0811 -0.4579
 2696SOL    HW119724   3.710   2.520   5.814  1.4382 -0.7251 -2.2707
 2696SOL    HW219725   3.795   2.403   5.809  0.4725  0.6568 -0.1801
 2697SOL     OW19726   2.347   2.067  11.072  0.0329  0.1950 -0.6651
 2697SOL    HW119727   2.320   2.125  11.144 -0.9581 -2.1845  0.8991
 2697SOL    HW219728   2.264   2.020  11.066  0.0838  0.0352 -0.1308
 2698SOL     OW19729   0.858   2.010   0.844 -0.1178  0.1982 -0.6448
 2698SOL    HW119730   0.870   1.996   0.938 -0.0435 -1.9949 -0.9907
 2698SOL    HW219731   0.764   2.023   0.837 -0.2804 -0.3871  0.5098
 2699SOL     OW19732   2.040   4.054   4.500 -1.0029  0.3902 -0.3564
 2699SOL    HW119733   2.101   3.981   4.491  0.1204  0.9226  2.9857
 2699SOL    HW219734   2.088   4.117   4.446  2.1088  0.2817  2.3153
 2700SOL     OW19735   3.203   3.824   3.287 -0.4154 -0.4014  0.4466
 2700SOL    HW119736   3.244   3.791   3.367  1.1074 -3.7465 -1.6878
 2700SOL    HW219737   3.139   3.883   3.326 -1.1584 -0.0375 -1.3593
 2701SOL     OW19738   1.082   2.777  11.955  0.1509 -0.0029  0.0157
 2701SOL    HW119739   1.173   2.785  11.926 -0.4742 -1.5552 -2.3552
 2701SOL    HW219740   1.078   2.693  12.001 -1.8280 -0.3184 -0.7183
 2702SOL     OW19741   4.413   2.803  16.292  0.0382 -0.2461  0.6767
 2702SOL    HW119742   4.403   2.709  16.308 -0.6577 -0.1784  0.6194
 2702SOL    HW219743   4.322   2.832  16.284  0.5491  1.1671  0.0600
 2703SOL     OW19744   2.265   1.096   6.823  0.1885 -0.1909 -0.4217
 2703SOL    HW119745   2.191   1.036   6.837  1.2366 -2.2012 -3.2868
 2703SOL    HW219746   2.223   1.141   6.749 -0.7311 -3.6812 -2.0386
 2704SOL     OW19747   4.437   3.602  16.900  0.6214 -0.3058 -0.0664
 2704SOL    HW119748   4.418   3.512  16.874 -1.0661 -0.2689  1.0845
 2704SOL    HW219749   4.346   3.628  16.917  0.5745  0.0231 -0.8206
 2705SOL     OW19750   1.783   4.364   8.080  0.0859  0.0622  0.4415
 2705SOL    HW119751   1.812   4.455   8.073 -1.8994  0.7071  0.5813
 2705SOL    HW219752   1.816   4.329   7.997  1.4385  2.5298 -0.0574
 2706SOL     OW19753   1.275   1.405   5.774  0.0697 -0.5977  0.7482
 2706SOL    HW119754   1.353   1.423   5.826 -0.8555 -1.1698  2.3118
 2706SOL    HW219755   1.204   1.428   5.834 -0.0639 -0.8329  0.6823
 2707SOL     OW19756   3.062   3.733  17.166 -0.5969 -0.0924  0.2111
 2707SOL    HW119757   2.999   3.791  17.208 -0.5354  1.2145 -1.4808
 2707SOL    HW219758   3.007   3.662  17.134 -1.6673 -0.4595  2.9127
 2708SOL     OW19759   2.555   0.518   4.564  0.4223  0.3761 -0.4230
 2708SOL    HW119760   2.575   0.462   4.489 -1.8909  1.1700 -1.6034
 2708SOL    HW219761   2.468   0.554   4.550  0.7772  1.7953  1.0365
 2709SOL     OW19762   4.674   0.728  17.504  0.0392 -0.2314 -0.2603
 2709SOL    HW119763   4.702   0.677  17.428  0.9710 -0.8362  0.4873
 2709SOL    HW219764   4.600   0.676  17.536  0.5575 -0.2797  0.8875
 2710SOL     OW19765   0.361   1.362   6.047 -0.1939  0.2446 -0.2085
 2710SOL    HW119766   0.451   1.342   6.022 -0.4201  1.4521 -2.0324
 2710SOL    HW219767   0.358   1.458   6.048  0.6373  0.2503  1.9701
 2711SOL     OW19768   3.442   1.031  17.069 -0.5959 -0.0701  0.0508
 2711SOL    HW119769   3.357   1.020  17.112  0.1414  0.5907  1.6601
 2711SOL    HW219770   3.491   1.089  17.127 -1.1972 -0.4553  0.9446
 2712SOL     OW19771   1.652   3.072   6.836  0.2437 -0.0139 -0.1044
 2712SOL    HW119772   1.558   3.084   6.833  0.4122  0.6888 -2.4668
 2712SOL    HW219773   1.701   3.154   6.842 -1.6160  1.1206 -0.5066
 2713SOL     OW19774   1.823   4.653   0.509  0.7889 -0.3086 -0.3604
 2713SOL    HW119775   1.826   4.738   0.464 -0.5773 -0.1611 -0.1799
 2713SOL    HW219776   1.888   4.657   0.580  1.1992  0.3576 -0.7663
 2714SOL     OW19777   1.830   4.568  17.648 -0.1678 -0.9053  0.8332
 2714SOL    HW119778   1.848   4.481  17.684 -0.8073 -0.5880  1.9283
 2714SOL    HW219779   1.799   4.616  17.725 -0.5370 -1.8751  1.2954
 2715SOL     OW19780   1.989   4.364   9.206 -0.0299  0.0178  0.3321
 2715SOL    HW119781   1.911   4.347   9.260  0.1854  1.8309  1.2201
 2715SOL    HW219782   2.000   4.456   9.183  2.1071 -0.3533 -0.1380
 2716SOL     OW19783   2.826   3.982   2.526  0.3122  0.0772  0.0979
 2716SOL    HW119784   2.833   3.971   2.431  2.4356 -0.6139  0.3354
 2716SOL    HW219785   2.880   4.060   2.535 -0.0574  0.4228 -0.6485
 2717SOL     OW19786   0.252   0.083  15.684  0.2882 -0.1013 -0.0405
 2717SOL    HW119787   0.299   0.093  15.601  2.6436  0.5076  1.3657
 2717SOL    HW219788   0.169   0.116  15.649  0.8484  1.4907  0.1116
 2718SOL     OW19789   0.787   3.837   1.767  0.2193  0.3773  0.6526
 2718SOL    HW119790   0.841   3.805   1.695 -1.0640  1.0766 -0.6099
 2718SOL    HW219791   0.826   3.924   1.778 -3.4198  2.1150  0.0555
 2719SOL     OW19792   1.114   3.626   5.843  0.3947  0.4651  0.3579
 2719SOL    HW119793   1.173   3.555   5.819 -0.1645  0.2441 -0.3416
 2719SOL    HW219794   1.052   3.613   5.771  0.0225  0.6913  0.6339
 2720SOL     OW19795   2.927   0.533   8.168  1.1540 -0.4840 -0.0038
 2720SOL    HW119796   2.856   0.491   8.216  1.7881 -0.8710  0.5986
 2720SOL    HW219797   2.870   0.557   8.095  1.8875  2.2918  0.3507
 2721SOL     OW19798   0.342   2.720   7.024  0.1005  0.3579 -0.0476
 2721SOL    HW119799   0.411   2.786   7.015  0.5453 -0.3490 -1.8908
 2721SOL    HW219800   0.333   2.696   7.117 -0.2198  0.2624 -0.1030
 2722SOL     OW19801   3.109   3.244  16.969  0.1648 -0.0628  0.2895
 2722SOL    HW119802   3.033   3.236  17.027  0.4831 -0.4543  0.6469
 2722SOL    HW219803   3.066   3.245  16.883  0.9004 -2.4416 -0.1073
 2723SOL     OW19804   2.667   4.513   5.836 -0.4599  0.4442 -0.5139
 2723SOL    HW119805   2.711   4.517   5.921  0.8520  1.8868 -1.2485
 2723SOL    HW219806   2.576   4.497   5.862 -1.7060  2.5981 -3.5506
 2724SOL     OW19807   0.402   3.745   4.288  0.2232  0.6630  0.4010
 2724SOL    HW119808   0.475   3.694   4.322 -0.7982  0.0521  1.6744
 2724SOL    HW219809   0.340   3.744   4.361 -0.7751 -0.1817 -0.4739
 2725SOL     OW19810   3.770   0.295   3.660  0.3894  0.0415 -0.0732
 2725SOL    HW119811   3.797   0.363   3.598  0.8558  0.3343  0.4562
 2725SOL    HW219812   3.675   0.308   3.659  0.2622 -0.7772  1.3048
 2726SOL     OW19813   0.766   2.126   4.254 -0.1218  0.7590  0.3631
 2726SOL    HW119814   0.718   2.107   4.334  0.4549  0.3864  0.6215
 2726SOL    HW219815   0.764   2.221   4.265 -0.5641  0.9693 -1.5471
 2727SOL     OW19816   1.896   1.169  12.624  0.1217 -0.2405 -0.6161
 2727SOL    HW119817   1.849   1.200  12.547 -0.7275  0.2372  0.1005
 2727SOL    HW219818   1.843   1.210  12.692  1.4339  0.3198  0.0732
 2728SOL     OW19819   0.769   2.148   4.834  1.1384 -0.1501  0.7344
 2728SOL    HW119820   0.685   2.195   4.833  0.5796 -1.2165 -1.1782
 2728SOL    HW219821   0.809   2.160   4.748 -1.7808 -0.9328 -0.7333
 2729SOL     OW19822   3.421   0.917  13.360  0.1980  0.2059  0.9760
 2729SOL    HW119823   3.426   1.006  13.325  1.2811 -0.7299 -1.2669
 2729SOL    HW219824   3.339   0.925  13.409 -1.5268  1.6105 -2.1304
 2730SOL     OW19825   4.447   2.145  13.413  0.1929 -0.4538 -0.0492
 2730SOL    HW119826   4.527   2.181  13.452  0.1913 -0.9707  0.4217
 2730SOL    HW219827   4.371   2.168  13.467 -1.2616 -0.8109 -1.9179
 2731SOL     OW19828   0.254   4.373   6.696  0.1038 -0.2880  0.1096
 2731SOL    HW119829   0.337   4.399   6.655  1.3541 -1.7720  1.6918
 2731SOL    HW219830   0.267   4.385   6.790 -1.0315 -1.6788  0.4497
 2732SOL     OW19831   2.119   3.027   2.369 -0.6252  0.1362  0.6252
 2732SOL    HW119832   2.158   3.115   2.369  2.0976 -1.0652  0.5899
 2732SOL    HW219833   2.181   2.981   2.426 -1.8919 -2.3080  0.0214
 2733SOL     OW19834   1.667   2.413   1.349 -0.1795 -0.6546 -0.3927
 2733SOL    HW119835   1.714   2.393   1.429 -2.1958  0.6347  1.1127
 2733SOL    HW219836   1.658   2.333   1.297 -0.6598  0.8906 -2.6788
 2734SOL     OW19837   0.523   1.538   8.953  0.4095  0.2766 -0.4597
 2734SOL    HW119838   0.604   1.567   8.996 -0.2339  1.5027 -0.0735
 2734SOL    HW219839   0.484   1.620   8.922  0.3057  1.0676  1.7085
 2735SOL     OW19840   1.350   4.284   2.136 -0.0019 -0.2267 -0.2146
 2735SOL    HW119841   1.333   4.377   2.119  0.0833 -0.0792  0.4915
 2735SOL    HW219842   1.321   4.282   2.228 -1.2262  1.9349 -0.5694
 2736SOL     OW19843   2.374   0.347   1.785 -0.6001 -0.4049 -0.1895
 2736SOL    HW119844   2.364   0.440   1.768  1.0743 -0.2151 -0.0713
 2736SOL    HW219845   2.463   0.340   1.819 -0.1457  0.3084 -1.2555
 2737SOL     OW19846   0.450   0.006   3.383  0.6958  0.2466  0.6205
 2737SOL    HW119847   0.391   4.678   3.352 -1.2148  2.4751 -0.6824
 2737SOL    HW219848   0.524   4.690   3.408  0.4643  0.2965  1.4034
 2738SOL     OW19849   3.638   3.243   9.136  0.4179  0.2361 -0.1005
 2738SOL    HW119850   3.700   3.203   9.197  0.5433  1.7977  0.7826
 2738SOL    HW219851   3.555   3.202   9.161  0.6383 -0.3422 -0.3051
 2739SOL     OW19852   2.588   4.630   5.392 -0.5505  0.0717  0.4608
 2739SOL    HW119853   2.650   4.602   5.459  0.7263 -0.2824 -0.8487
 2739SOL    HW219854   2.502   4.599   5.418  0.2197 -1.0080  1.6946
 2740SOL     OW19855   0.347   4.002   3.459  0.3772  0.2824  0.0530
 2740SOL    HW119856   0.284   3.938   3.426  0.1950  1.0243 -1.0622
 2740SOL    HW219857   0.323   4.002   3.551  2.2069 -1.4994  0.5145
 2741SOL     OW19858   2.326   1.022   4.052 -0.2269 -0.0094  0.1781
 2741SOL    HW119859   2.309   0.969   4.130 -1.0589  1.6527  1.1551
 2741SOL    HW219860   2.288   1.109   4.066  1.3859  0.7816 -0.3006
 2742SOL     OW19861   4.141   1.678   7.488 -0.2497 -0.1589  0.2019
 2742SOL    HW119862   4.194   1.614   7.440  1.6769 -0.9404  3.4057
 2742SOL    HW219863   4.146   1.633   7.572  0.9065 -1.0753 -0.3479
 2743SOL     OW19864   3.212   4.133   8.574 -0.0219 -0.0619  0.5801
 2743SOL    HW119865   3.166   4.115   8.492  1.7357  0.6506 -0.5602
 2743SOL    HW219866   3.305   4.122   8.552  0.2575 -0.3532  1.9137
 2744SOL     OW19867   3.321   0.192  16.902 -0.1914 -0.3383 -0.1398
 2744SOL    HW119868   3.380   0.166  16.831  2.1403  0.9749  1.3062
 2744SOL    HW219869   3.232   0.178  16.870  0.1260 -2.0399 -0.2560
 2745SOL     OW19870   4.242   3.949   4.637 -0.5523  0.1002 -0.2733
 2745SOL    HW119871   4.181   3.876   4.628  2.3959 -2.4604  0.6892
 2745SOL    HW219872   4.176   4.017   4.652  0.2584  1.0351 -0.9407
 2746SOL     OW19873   0.121   4.652   9.912 -0.6957  0.6118  0.5748
 2746SOL    HW119874   0.028   4.671   9.912 -1.0496 -1.0981 -0.1495
 2746SOL    HW219875   0.169   4.735   9.910  1.1571 -0.4621 -0.5266
 2747SOL     OW19876   2.527   4.399  13.406  0.2994 -0.1257 -0.0578
 2747SOL    HW119877   2.575   4.367  13.330 -2.1779 -1.6065 -0.9883
 2747SOL    HW219878   2.600   4.428  13.461 -1.4282 -1.4789  3.0059
 2748SOL     OW19879   3.256   4.413   8.455 -0.4128  0.3437 -0.4081
 2748SOL    HW119880   3.261   4.334   8.508  0.1595  1.1725  0.7743
 2748SOL    HW219881   3.161   4.426   8.451 -0.8407 -2.9487 -1.2585
 2749SOL     OW19882   3.265   1.774  12.156 -0.0339 -0.3709 -0.6007
 2749SOL    HW119883   3.332   1.813  12.212 -0.7251 -1.0318  0.6812
 2749SOL    HW219884   3.207   1.849  12.141  0.8372  0.4758  0.2264
 2750SOL     OW19885   3.253   1.239   9.673  0.1088 -0.0693 -0.1010
 2750SOL    HW119886   3.260   1.154   9.717 -2.2708 -0.2122 -0.0094
 2750SOL    HW219887   3.248   1.206   9.584 -1.5801  0.3416 -0.1650
 2751SOL     OW19888   4.388   3.901  12.834  0.5196  0.0331  0.1621
 2751SOL    HW119889   4.483   3.910  12.837  0.2789  2.6129 -0.5310
 2751SOL    HW219890   4.366   3.811  12.808 -1.1208  0.2322  0.8163
 2752SOL     OW19891   0.769   3.305  15.489  0.0238 -0.0999 -0.4785
 2752SOL    HW119892   0.836   3.343  15.545  1.0104 -1.8065 -0.5296
 2752SOL    HW219893   0.686   3.330  15.530 -1.0508 -1.9839 -1.5109
 2753SOL     OW19894   0.887   3.798  10.790  0.4439 -0.4572 -0.2576
 2753SOL    HW119895   0.876   3.872  10.850  0.0188 -1.3128  0.7137
 2753SOL    HW219896   0.976   3.813  10.758  0.5513  0.6525  0.5471
 2754SOL     OW19897   1.569   0.304   8.236  0.4307 -0.0171 -0.2632
 2754SOL    HW119898   1.620   0.343   8.307 -0.4921 -1.1171  1.0115
 2754SOL    HW219899   1.575   0.375   8.173  2.2347  0.4956  0.4680
 2755SOL     OW19900   3.557   0.299  10.793  0.0788  0.2926  0.1997
 2755SOL    HW119901   3.479   0.333  10.748  0.5309 -0.1240 -0.8984
 2755SOL    HW219902   3.541   0.319  10.885  0.5242 -0.6077  0.4784
 2756SOL     OW19903   1.510   1.873   5.849 -0.3652 -0.0477 -0.4040
 2756SOL    HW119904   1.445   1.934   5.813 -1.3524 -1.1931 -0.5843
 2756SOL    HW219905   1.525   1.821   5.770  1.3349 -0.7461  0.3817
 2757SOL     OW19906   0.248   1.337   0.325  0.2217  0.0979  0.2693
 2757SOL    HW119907   0.300   1.258   0.308  0.2414  0.5283 -1.6537
 2757SOL    HW219908   0.215   1.303   0.409  0.4130 -1.5617 -0.3162
 2758SOL     OW19909   1.473   4.644   8.951  0.2771 -0.7527 -0.6555
 2758SOL    HW119910   1.398   4.601   8.992  2.2283 -2.5590  1.0439
 2758SOL    HW219911   1.535   4.665   9.021  1.1087 -1.9107 -1.0283
 2759SOL     OW19912   2.153   3.901  17.577 -0.3018  0.0200 -0.0162
 2759SOL    HW119913   2.093   3.873  17.646  0.2614 -0.6023  0.2222
 2759SOL    HW219914   2.094   3.886  17.503 -1.5619 -0.2718  1.0456
 2760SOL     OW19915   4.361   3.361   1.967 -0.1808 -0.4028 -0.4998
 2760SOL    HW119916   4.348   3.370   2.061 -0.2369  0.9100 -0.6271
 2760SOL    HW219917   4.294   3.417   1.927 -0.2706 -0.8947 -1.0266
 2761SOL     OW19918   4.240   1.103   5.761 -0.8602 -0.3048  0.2427
 2761SOL    HW119919   4.283   1.039   5.704  1.0071  1.6407 -0.5231
 2761SOL    HW219920   4.198   1.054   5.832  0.2335  0.2239  1.2541
 2762SOL     OW19921   1.534   0.130   4.406  0.0154  0.4064 -0.0815
 2762SOL    HW119922   1.538   0.130   4.502  0.6871 -1.2455 -0.1090
 2762SOL    HW219923   1.534   0.035   4.393  1.8906  0.2136  1.4248
 2763SOL     OW19924   4.046   2.339   1.531  0.4830 -0.2611  0.3028
 2763SOL    HW119925   3.968   2.346   1.476  1.9925 -0.7747 -1.8826
 2763SOL    HW219926   4.108   2.385   1.476  1.6711 -2.0428  0.1410
 2764SOL     OW19927   4.053   0.291   7.291  0.1183  0.0489  0.7585
 2764SOL    HW119928   4.084   0.203   7.271  0.0428 -0.3726  2.4864
 2764SOL    HW219929   3.965   0.277   7.254  0.8946 -3.1579  0.0820
 2765SOL     OW19930   3.040   2.400   4.515  0.0398  0.6230 -0.2898
 2765SOL    HW119931   3.024   2.394   4.609 -2.0297 -0.0076 -0.6930
 2765SOL    HW219932   3.088   2.481   4.497  2.0464 -0.0276  2.1592
 2766SOL     OW19933   1.600   2.873   7.706 -0.3949 -0.0233 -0.1183
 2766SOL    HW119934   1.650   2.909   7.632 -0.8932 -0.5912 -0.7408
 2766SOL    HW219935   1.634   2.912   7.786  2.6491 -4.1073  0.5739
 2767SOL     OW19936   3.442   2.062   5.754 -0.4270  0.2643  0.3679
 2767SOL    HW119937   3.359   2.064   5.706  0.7837  0.8082 -1.7022
 2767SOL    HW219938   3.483   2.134   5.706  2.0399 -1.0395  0.5091
 2768SOL     OW19939   0.233   4.614   6.425  0.4124 -0.3736 -0.0506
 2768SOL    HW119940   0.175   4.657   6.362  0.8145 -0.6665 -0.6179
 2768SOL    HW219941   0.228   4.525   6.390 -0.1588 -1.0432  1.6949
 2769SOL     OW19942   2.690   0.700   8.289  0.4597 -0.2508 -0.0441
 2769SOL    HW119943   2.770   0.705   8.342 -1.3834  1.1321  2.6103
 2769SOL    HW219944   2.669   0.793   8.291 -0.9258 -0.5834  0.9881
 2770SOL     OW19945   0.778   3.806  12.292 -0.1429  0.1226 -0.2842
 2770SOL    HW119946   0.850   3.804  12.355  0.0730  1.7006 -0.4814
 2770SOL    HW219947   0.716   3.858  12.344  1.8750  0.7501  1.4891
 2771SOL     OW19948   0.029   4.125   4.874  0.3673  0.5488 -0.1115
 2771SOL    HW119949   0.077   4.123   4.791  1.3457  1.1172  0.4335
 2771SOL    HW219950   0.091   4.154   4.942  1.3846 -3.1228  0.5708
 2772SOL     OW19951   3.612   1.149  15.079  0.4073  0.2431 -0.1976
 2772SOL    HW119952   3.659   1.232  15.073  0.8451 -0.0591 -1.1390
 2772SOL    HW219953   3.679   1.106  15.025  2.1691 -0.2021  2.3492
 2773SOL     OW19954   3.315   2.684   9.669 -0.1295  0.6282 -0.3315
 2773SOL    HW119955   3.230   2.706   9.707  0.8415 -0.2581  2.3497
 2773SOL    HW219956   3.325   2.766   9.621  0.7419  2.0130  2.1962
 2774SOL     OW19957   2.472   2.012  15.461 -0.0335 -0.7604 -0.0110
 2774SOL    HW119958   2.485   2.042  15.551 -0.1334 -0.7338 -0.0060
 2774SOL    HW219959   2.469   1.917  15.472  0.4150 -0.8296 -0.5037
 2775SOL     OW19960   3.788   0.196   6.856 -0.1469  0.4185  0.2871
 2775SOL    HW119961   3.726   0.264   6.883 -0.1221  0.1408  1.0447
 2775SOL    HW219962   3.759   0.136   6.924  2.2894  0.0220  0.9673
 2776SOL     OW19963   1.683   3.864  17.607  0.7688 -0.0214 -0.3194
 2776SOL    HW119964   1.624   3.801  17.649  1.0319  1.0106  1.5800
 2776SOL    HW219965   1.743   3.802  17.566  0.1534 -0.9239  0.1479
 2777SOL     OW19966   4.453   3.393   6.344  0.2122  0.0258  0.2476
 2777SOL    HW119967   4.370   3.419   6.304  0.6245  1.4151  0.2803
 2777SOL    HW219968   4.429   3.419   6.433 -0.4508  2.5248 -0.6520
 2778SOL     OW19969   2.141   2.093   7.173  0.4747  0.0730 -0.2312
 2778SOL    HW119970   2.120   2.162   7.111 -0.7749  1.2569  1.5200
 2778SOL    HW219971   2.070   2.031   7.157 -1.0564  2.2550 -1.7431
 2779SOL     OW19972   1.358   1.002   6.250 -0.1363  0.3758  0.3835
 2779SOL    HW119973   1.363   0.989   6.345  0.8744  1.0345  0.4113
 2779SOL    HW219974   1.269   1.038   6.243  0.4058  1.4586 -1.0515
 2780SOL     OW19975   3.759   3.101   5.160 -0.6747 -0.6618  0.1165
 2780SOL    HW119976   3.686   3.072   5.106 -0.9649  1.1082 -0.4194
 2780SOL    HW219977   3.834   3.107   5.102 -0.5687 -0.6636  0.2521
 2781SOL     OW19978   2.950   3.765   9.143 -0.2594  0.0312 -0.1174
 2781SOL    HW119979   2.863   3.727   9.132 -0.6363  1.1492 -1.1528
 2781SOL    HW219980   2.955   3.821   9.065  0.0707 -1.8581 -1.4328
 2782SOL     OW19981   4.675   0.861   4.098 -0.2674 -0.0669  0.0380
 2782SOL    HW119982   4.632   0.783   4.135  2.0146 -1.8762 -1.1583
 2782SOL    HW219983   4.736   0.822   4.035  0.2226 -1.8697  1.6293
 2783SOL     OW19984   2.090   3.087  15.516 -0.0119  0.8941 -0.1361
 2783SOL    HW119985   2.137   3.030  15.455  3.9023  0.8179  2.9455
 2783SOL    HW219986   2.100   3.038  15.597 -2.2315  3.2088  1.5331
 2784SOL     OW19987   0.717   3.201   7.467  0.2300  0.4958  0.2396
 2784SOL    HW119988   0.805   3.171   7.488 -0.0095 -0.6750 -0.4124
 2784SOL    HW219989   0.679   3.194   7.554  1.5672  0.2656  0.8056
 2785SOL     OW19990   1.301   1.501  16.469  0.1348 -0.3467 -0.5363
 2785SOL    HW119991   1.268   1.532  16.384  1.0798  2.3304  0.0620
 2785SOL    HW219992   1.214   1.473  16.498  0.2273 -0.7956 -0.6935
 2786SOL     OW19993   4.581   1.070   2.225 -0.1377  0.0167  0.2643
 2786SOL    HW119994   4.504   1.051   2.172  0.3183 -1.3976  0.0951
 2786SOL    HW219995   4.647   1.043   2.161  1.6395 -1.1947  2.5736
 2787SOL     OW19996   1.573   0.087   3.564 -0.0481  0.4353 -0.4004
 2787SOL    HW119997   1.653   0.062   3.608 -1.5386 -1.0595  1.4413
 2787SOL    HW219998   1.588   0.182   3.566  2.3685  0.0586 -0.9045
 2788SOL     OW19999   4.109   4.624  12.290 -0.0041  0.1162 -0.3726
 2788SOL    HW120000   4.159   4.613  12.209 -0.0280 -0.5627 -0.2940
 2788SOL    HW220001   4.022   4.593  12.265 -0.1977 -1.0847  1.8512
 2789SOL     OW20002   1.734   4.325  17.000 -0.1048 -0.2824  0.0260
 2789SOL    HW120003   1.669   4.262  17.032 -1.0026 -0.7348 -2.6679
 2789SOL    HW220004   1.770   4.280  16.924 -0.2125 -1.9263  0.9437
 2790SOL     OW20005   1.661   1.491   8.211 -0.3026 -0.3036 -0.1404
 2790SOL    HW120006   1.570   1.500   8.241  0.1023 -0.4939  1.1127
 2790SOL    HW220007   1.707   1.542   8.277  0.0952  0.2408 -0.8324
 2791SOL     OW20008   0.681   2.554   1.687  0.6301 -0.1555  0.2382
 2791SOL    HW120009   0.738   2.519   1.755 -0.3176  1.6783  1.9756
 2791SOL    HW220010   0.598   2.538   1.731  0.1727  2.7562  0.4230
 2792SOL     OW20011   1.068   3.934   7.038 -0.3045  0.0247 -0.3363
 2792SOL    HW120012   1.060   3.983   7.120  0.8580 -0.4597  0.0573
 2792SOL    HW220013   1.004   3.866   7.059  1.1025 -0.9477  0.7641
 2793SOL     OW20014   3.979   3.108   2.539 -0.2781  0.0354  0.3158
 2793SOL    HW120015   3.943   3.025   2.570 -2.4221  0.4219 -1.0971
 2793SOL    HW220016   4.021   3.135   2.620  1.8163 -0.0218 -0.7605
 2794SOL     OW20017   0.367   1.952   5.589  0.0756 -0.0505  0.8059
 2794SOL    HW120018   0.411   1.897   5.525 -1.2602  2.3091 -2.1532
 2794SOL    HW220019   0.311   1.889   5.633  0.0771 -0.2762  0.4785
 2795SOL     OW20020   4.420   0.083   4.472  0.6999  0.2469  0.0354
 2795SOL    HW120021   4.451   0.086   4.381 -0.0645 -0.9000 -0.2673
 2795SOL    HW220022   4.386   4.734   4.480  1.3795  0.1285  1.7111
 2796SOL     OW20023   1.881   2.319  12.103  0.4379 -0.0972  0.2030
 2796SOL    HW120024   1.822   2.250  12.135  0.6591 -1.0885 -1.5649
 2796SOL    HW220025   1.871   2.315  12.008 -0.2173 -3.7894  0.4007
 2797SOL     OW20026   0.835   3.164   5.924 -0.2462  0.2586  0.3386
 2797SOL    HW120027   0.857   3.073   5.949 -0.5494  0.1948  0.3682
 2797SOL    HW220028   0.742   3.159   5.905 -0.3476 -1.0888  1.1295
 2798SOL     OW20029   2.284   2.057   3.714  0.7962 -0.4086  0.3175
 2798SOL    HW120030   2.379   2.046   3.722  0.3152 -3.7808  1.4288
 2798SOL    HW220031   2.253   2.027   3.799  0.4254  0.0403  0.3409
 2799SOL     OW20032   3.133   0.766   7.236 -0.4218 -0.4374 -0.1788
 2799SOL    HW120033   3.220   0.741   7.269  0.4173 -0.0606 -2.1335
 2799SOL    HW220034   3.118   0.842   7.292  1.1930 -0.7357  0.6639
 2800SOL     OW20035   3.949   3.365  16.984  0.0313  0.1632 -0.0760
 2800SOL    HW120036   4.019   3.317  17.030  0.9079  2.6935  1.2222
 2800SOL    HW220037   3.886   3.369  17.056  1.0289  3.1296  0.6399
 2801SOL     OW20038   2.177   2.887   5.073  0.5765  0.1810 -0.3612
 2801SOL    HW120039   2.205   2.872   4.983  0.5759 -0.9892 -0.1756
 2801SOL    HW220040   2.247   2.944   5.104  0.7111 -1.8891  3.0805
 2802SOL     OW20041   2.900   4.332   3.077  0.0736 -0.5131 -0.2656
 2802SOL    HW120042   2.937   4.399   3.020  0.7872 -1.2751 -0.7192
 2802SOL    HW220043   2.973   4.272   3.095 -0.3206 -0.9613 -0.1607
 2803SOL     OW20044   0.876   2.993   4.315  0.1588 -0.3925 -0.2477
 2803SOL    HW120045   0.789   3.025   4.336 -0.0550 -0.8397 -0.4449
 2803SOL    HW220046   0.880   3.029   4.227 -1.9263  0.0068 -0.1594
 2804SOL     OW20047   4.536   0.414   8.986 -0.5845  0.7303 -0.0342
 2804SOL    HW120048   4.541   0.481   9.053 -0.4635 -1.3510  2.0410
 2804SOL    HW220049   4.622   0.428   8.946 -0.1885 -0.5244  0.3785
 2805SOL     OW20050   1.130   1.157   6.814 -0.4148  0.6973 -0.0508
 2805SOL    HW120051   1.063   1.145   6.882 -0.1374  0.4560  0.1817
 2805SOL    HW220052   1.079   1.201   6.746 -0.9240  0.6732  0.3103
 2806SOL     OW20053   0.018   1.116   5.299  0.3769  0.6227 -0.0255
 2806SOL    HW120054   0.041   1.086   5.211  1.5888 -1.7750  1.1227
 2806SOL    HW220055   4.668   1.149   5.291  0.0203 -1.1157 -2.9854
 2807SOL     OW20056   2.562   4.661   4.571 -0.1445  0.0685  0.0535
 2807SOL    HW120057   2.533   4.729   4.632  2.1379  1.6730 -0.6294
 2807SOL    HW220058   2.477   4.623   4.552 -0.4331  0.6670  0.1357
 2808SOL     OW20059   3.613   0.926   4.604  0.1343 -0.2623  0.4259
 2808SOL    HW120060   3.650   1.009   4.634  0.8331  0.8653 -3.5952
 2808SOL    HW220061   3.593   0.883   4.688  2.0605  1.4767  1.7647
 2809SOL     OW20062   2.764   0.089   7.374 -0.0540 -0.0261  0.1102
 2809SOL    HW120063   2.721   0.148   7.436 -1.0744  1.2854 -1.8541
 2809SOL    HW220064   2.833   0.145   7.336 -1.3001  0.8620 -0.8431
 2810SOL     OW20065   2.710   4.330  13.210 -0.1994 -0.2995  0.0601
 2810SOL    HW120066   2.748   4.268  13.148  0.1553  0.9843 -0.9974
 2810SOL    HW220067   2.685   4.394  13.143  0.6402  1.3052  1.2797
 2811SOL     OW20068   0.574   2.838   3.613 -0.5014  0.2366  0.1347
 2811SOL    HW120069   0.514   2.889   3.558  1.0507 -0.8696 -2.6234
 2811SOL    HW220070   0.524   2.804   3.687 -0.9174 -0.9722 -0.6971
 2812SOL     OW20071   4.126   1.844  11.201 -0.2401  0.3623 -0.3066
 2812SOL    HW120072   4.039   1.807  11.219  0.5721 -1.5842 -0.3975
 2812SOL    HW220073   4.170   1.760  11.213 -0.9089  0.0229 -0.2050
 2813SOL     OW20074   0.297   2.107   6.671  0.2539  0.0144 -0.4392
 2813SOL    HW120075   0.362   2.171   6.699  1.1904  0.3334 -3.2872
 2813SOL    HW220076   0.293   2.131   6.578 -0.8551  1.6312  0.0368
 2814SOL     OW20077   0.686   0.830   8.476 -0.6004  0.1323  0.3383
 2814SOL    HW120078   0.676   0.749   8.427  1.0696  0.1598 -0.0394
 2814SOL    HW220079   0.740   0.789   8.543 -0.4591 -1.1272 -0.5572
 2815SOL     OW20080   1.454   2.925  15.315 -1.1097 -0.3715 -0.4501
 2815SOL    HW120081   1.491   3.006  15.280 -1.8950  0.5551  0.8901
 2815SOL    HW220082   1.392   2.913  15.242 -2.6917  0.5534  0.7405
 2816SOL     OW20083   1.400   3.623  12.739 -0.4161  0.4109 -0.5125
 2816SOL    HW120084   1.449   3.637  12.820  0.5935  2.6370 -1.5081
 2816SOL    HW220085   1.423   3.531  12.724 -0.1201  0.6924 -1.8523
 2817SOL     OW20086   0.906   0.387   0.512  0.5703 -0.1576  0.1789
 2817SOL    HW120087   0.812   0.377   0.500  0.7412 -0.8977 -0.5550
 2817SOL    HW220088   0.926   0.419   0.424 -1.0599  1.6351  0.4734
 2818SOL     OW20089   1.439   4.090   2.993  0.7448 -0.1520 -0.7256
 2818SOL    HW120090   1.363   4.140   3.023  1.3589  0.1867  0.2991
 2818SOL    HW220091   1.451   4.023   3.060  0.1238  0.7525  0.2862
 2819SOL     OW20092   0.899   0.693   0.542 -0.4194  0.4547 -0.4536
 2819SOL    HW120093   0.947   0.619   0.504 -2.5222 -0.3269 -1.6227
 2819SOL    HW220094   0.857   0.661   0.621  0.6012  0.7545  0.2020
 2820SOL     OW20095   3.605   2.893   8.622 -0.0010 -0.4694  1.1303
 2820SOL    HW120096   3.534   2.899   8.685 -0.8384  1.6767  0.0022
 2820SOL    HW220097   3.679   2.929   8.672  0.9148  0.5048 -0.8983
 2821SOL     OW20098   0.106   3.306   5.704 -0.3846  0.1060 -0.0164
 2821SOL    HW120099   0.145   3.223   5.730  1.8482  0.6521 -1.6526
 2821SOL    HW220100   0.066   3.290   5.618 -1.6707  0.5723  0.4984
 2822SOL     OW20101   2.339   0.516   4.126 -0.1735 -0.1233  0.6103
 2822SOL    HW120102   2.422   0.488   4.164  0.8363 -0.7404 -2.0088
 2822SOL    HW220103   2.324   0.607   4.150 -2.1717  0.1457 -1.6182
 2823SOL     OW20104   0.322   4.621   1.239  0.2195  0.4472 -0.4076
 2823SOL    HW120105   0.369   4.542   1.214  0.8374 -0.2707  3.1352
 2823SOL    HW220106   0.280   4.643   1.155 -0.5305  0.3128 -0.0632
 2824SOL     OW20107   4.675   1.172   6.560 -0.2247  0.4443  0.1230
 2824SOL    HW120108   4.644   1.130   6.640 -1.6915  3.3287  1.0607
 2824SOL    HW220109   0.031   1.175   6.563 -0.1438 -1.4368 -0.5636
 2825SOL     OW20110   1.866   0.355   1.142 -0.0051  0.1650 -0.2955
 2825SOL    HW120111   1.809   0.424   1.109 -0.9528 -0.0494  0.9016
 2825SOL    HW220112   1.899   0.319   1.059 -0.2049  1.5306 -0.9636
 2826SOL     OW20113   2.510   4.250   6.268 -0.3004  0.0338 -0.0073
 2826SOL    HW120114   2.480   4.337   6.292  2.4289  1.1478 -0.7099
 2826SOL    HW220115   2.520   4.213   6.356 -1.3298  1.8844  0.8730
 2827SOL     OW20116   0.244   1.138   6.866 -0.0436 -0.1919  0.0414
 2827SOL    HW120117   0.315   1.120   6.804 -0.3048  0.5410 -0.4713
 2827SOL    HW220118   0.279   1.219   6.903 -1.0487 -1.0377  2.8345
 2828SOL     OW20119   4.550   4.423   8.674  0.6740  0.6751 -0.3158
 2828SOL    HW120120   4.561   4.504   8.625 -2.1956  1.1670 -0.1875
 2828SOL    HW220121   4.617   4.367   8.636  0.2504  0.0028 -0.0857
 2829SOL     OW20122   0.497   1.415  16.422 -0.5928 -0.0117  0.2278
 2829SOL    HW120123   0.405   1.389  16.427 -0.8857  0.8142 -0.9839
 2829SOL    HW220124   0.531   1.361  16.493 -2.9162 -0.6703  0.8282
 2830SOL     OW20125   4.266   3.172   7.180  0.1019 -0.4130 -0.0288
 2830SOL    HW120126   4.260   3.093   7.233  1.9999 -1.8527 -1.9539
 2830SOL    HW220127   4.247   3.142   7.091 -2.6502  2.3639 -0.3478
 2831SOL     OW20128   2.051   0.418  10.174  0.5356 -0.7803 -0.0394
 2831SOL    HW120129   1.988   0.397  10.105 -0.3771 -1.6753  1.0559
 2831SOL    HW220130   2.005   0.397  10.256 -0.0425  2.7752  0.5632
 2832SOL     OW20131   1.564   4.069   6.461  0.3072  0.1215 -0.3533
 2832SOL    HW120132   1.495   4.021   6.507 -0.8747  3.3181  1.2069
 2832SOL    HW220133   1.610   4.111   6.534  1.2458  2.1953 -2.1333
 2833SOL     OW20134   3.015   3.499   8.141  0.3401  0.0643 -0.1648
 2833SOL    HW120135   3.040   3.421   8.092 -0.1701  0.5233 -1.1543
 2833SOL    HW220136   3.069   3.562   8.093 -0.7296  0.5243 -0.7557
 2834SOL     OW20137   2.153   3.938  11.455 -0.2996 -0.3985  0.1836
 2834SOL    HW120138   2.080   3.883  11.427 -3.5104  4.3595 -0.8012
 2834SOL    HW220139   2.190   3.984  11.379 -4.1677  1.7998 -0.3641
 2835SOL     OW20140   0.243   0.781   8.956 -0.2095 -0.0686 -0.1283
 2835SOL    HW120141   0.238   0.831   8.875  1.5546 -1.0964 -0.8903
 2835SOL    HW220142   0.287   0.841   9.017  0.2775 -0.8158  0.2594
 2836SOL     OW20143   1.245   1.852   2.034  0.3226 -0.2228  0.2638
 2836SOL    HW120144   1.204   1.901   1.962  0.4533 -1.0671 -0.3875
 2836SOL    HW220145   1.223   1.907   2.109  0.7394  0.8671 -0.4006
 2837SOL     OW20146   3.451   3.445   9.023 -0.6374  0.2735 -0.8985
 2837SOL    HW120147   3.383   3.422   9.086 -0.9954  1.7534 -0.7481
 2837SOL    HW220148   3.530   3.401   9.055 -0.1983  0.2164 -2.0931
 2838SOL     OW20149   1.319   2.422  10.513  0.1842  0.4608  0.0525
 2838SOL    HW120150   1.265   2.364  10.567  0.5836 -0.7930 -0.8846
 2838SOL    HW220151   1.379   2.459  10.577  0.0159 -1.8342  1.5784
 2839SOL     OW20152   3.965   0.758   4.522  0.4865  0.5043 -0.0445
 2839SOL    HW120153   3.949   0.813   4.446 -0.5199  0.0151 -0.1944
 2839SOL    HW220154   4.040   0.708   4.490  0.5018  0.8143 -0.4869
 2840SOL     OW20155   1.974   3.745   4.321 -0.0393  0.4794  0.0985
 2840SOL    HW120156   1.991   3.728   4.228 -0.4202 -1.3601  0.3610
 2840SOL    HW220157   2.065   3.747   4.350  0.0013 -0.0951  0.0226
 2841SOL     OW20158   0.229   1.542   3.862 -0.5168 -0.0688  0.2948
 2841SOL    HW120159   0.228   1.458   3.909 -0.1502 -0.7628 -0.9321
 2841SOL    HW220160   0.213   1.498   3.779  1.4538 -0.6856  0.2430
 2842SOL     OW20161   0.317   0.098   4.278  0.2033  0.7602 -0.6198
 2842SOL    HW120162   0.389   0.160   4.272  2.3531 -1.7831 -0.8044
 2842SOL    HW220163   0.263   0.119   4.201 -1.2208 -0.1194  0.1327
 2843SOL     OW20164   2.048   2.018   0.861 -0.4206 -0.5006 -0.1592
 2843SOL    HW120165   2.117   1.974   0.910  0.3500  1.1300  0.2214
 2843SOL    HW220166   2.106   2.041   0.788  0.1129 -2.9047 -0.4719
 2844SOL     OW20167   0.908   0.787  13.619  0.7204 -0.8465 -0.4426
 2844SOL    HW120168   0.825   0.761  13.579 -1.3328  2.3585  1.7654
 2844SOL    HW220169   0.961   0.772  13.542 -0.4701  0.1135 -1.4503
 2845SOL     OW20170   3.232   3.843  12.295 -0.4096  0.1109  0.5892
 2845SOL    HW120171   3.304   3.889  12.339 -0.7900 -0.2148  1.5518
 2845SOL    HW220172   3.168   3.838  12.366 -0.1359  1.2637  0.9217
 2846SOL     OW20173   4.705   2.758   4.268  0.4480  0.0635  0.6745
 2846SOL    HW120174   0.046   2.707   4.276  1.4998  1.2569 -2.1890
 2846SOL    HW220175   4.686   2.764   4.361 -0.0517 -0.8790  0.6267
 2847SOL     OW20176   3.827   1.188   2.931  0.8007  0.0461 -0.6334
 2847SOL    HW120177   3.894   1.175   2.998  1.1051  0.7883 -0.7888
 2847SOL    HW220178   3.871   1.155   2.853 -2.2404  0.8790 -2.7019
 2848SOL     OW20179   0.028   4.411   1.343  0.4373 -0.6814 -0.3659
 2848SOL    HW120180   0.073   4.467   1.406 -0.2133 -0.9162  0.2987
 2848SOL    HW220181   4.727   4.481   1.292  2.1429 -0.7513 -1.8397
 2849SOL     OW20182   4.703   0.454   7.204 -0.1737 -0.3498 -0.6132
 2849SOL    HW120183   0.023   0.529   7.199  1.2923 -1.5067 -0.1470
 2849SOL    HW220184   4.733   0.413   7.285  2.3679  1.4939 -0.6129
 2850SOL     OW20185   1.385   2.121   4.082  0.4379 -0.2228  0.4861
 2850SOL    HW120186   1.394   2.204   4.035 -3.2381 -0.7508 -1.1337
 2850SOL    HW220187   1.292   2.102   4.071  0.0865  2.1111 -0.6335
 2851SOL     OW20188   0.050   2.596  12.692  0.2419 -0.0088  0.1972
 2851SOL    HW120189   0.137   2.635  12.688  0.5132 -0.6887 -0.5081
 2851SOL    HW220190   0.005   2.660  12.636  0.3740  0.2443  0.3834
 2852SOL     OW20191   4.450   2.101  13.820 -0.0835  0.7028 -0.3446
 2852SOL    HW120192   4.475   2.011  13.840 -1.8551  0.4165  0.6404
 2852SOL    HW220193   4.528   2.156  13.813  0.4309  0.0269  0.0555
 2853SOL     OW20194   1.089   3.660   8.196  0.0421  0.3195  0.0690
 2853SOL    HW120195   1.105   3.639   8.288  0.9476 -1.9931 -0.6253
 2853SOL    HW220196   1.153   3.730   8.186 -0.9369  1.2194  0.0249
 2854SOL     OW20197   3.035   2.781   2.312 -0.4632 -0.5735 -0.0127
 2854SOL    HW120198   3.094   2.787   2.386  0.8014 -2.2704 -0.9084
 2854SOL    HW220199   3.079   2.847   2.258  1.7351 -2.0338  0.0231
 2855SOL     OW20200   0.147   3.759   3.814 -0.1477 -0.4294  0.6825
 2855SOL    HW120201   0.235   3.794   3.823  0.3723 -1.7268  0.5279
 2855SOL    HW220202   0.131   3.772   3.720 -1.8068  0.2014  1.0512
 2856SOL     OW20203   3.143   3.469   8.928 -0.3762  0.0304  0.9565
 2856SOL    HW120204   3.171   3.507   9.011 -2.2076  0.4956  1.3569
 2856SOL    HW220205   3.094   3.389   8.950 -2.9637  1.5680  0.8167
 2857SOL     OW20206   3.593   4.436   6.158  0.1496  0.1308  0.1677
 2857SOL    HW120207   3.529   4.391   6.104  1.1135 -0.5729 -0.3876
 2857SOL    HW220208   3.669   4.445   6.100  0.8179  2.2100  1.3543
 2858SOL     OW20209   1.803   3.617   3.653 -0.1230  0.1466 -0.1153
 2858SOL    HW120210   1.873   3.571   3.606  0.6263  1.1448  0.0226
 2858SOL    HW220211   1.856   3.694   3.674  1.3603 -1.4116  1.7880
 2859SOL     OW20212   1.803   3.955   8.104  0.0423 -0.0975 -0.4617
 2859SOL    HW120213   1.871   3.894   8.131  0.6371  0.6483 -0.2793
 2859SOL    HW220214   1.839   4.041   8.126  0.3816 -0.7725  1.5922
 2860SOL     OW20215   0.249   1.399   7.980 -0.6222  0.5456 -0.0808
 2860SOL    HW120216   0.291   1.371   7.900  1.1586  0.0656  1.0237
 2860SOL    HW220217   0.273   1.321   8.032 -3.1968 -1.1065 -1.3805
 2861SOL     OW20218   4.209   2.132   3.335 -0.5490  0.0640  0.2345
 2861SOL    HW120219   4.266   2.108   3.262 -1.2548  1.7857 -0.8784
 2861SOL    HW220220   4.247   2.075   3.402 -0.6356  0.1225  0.3348
 2862SOL     OW20221   2.299   4.110   4.780  0.1473 -0.0017 -0.0716
 2862SOL    HW120222   2.304   4.177   4.849 -1.4162 -0.2522  0.2791
 2862SOL    HW220223   2.321   4.166   4.706  0.7267 -0.3806 -0.1863
 2863SOL     OW20224   0.169   0.278   6.182 -0.6881  0.4080 -0.2823
 2863SOL    HW120225   0.259   0.294   6.153  0.6159 -2.2730  2.2621
 2863SOL    HW220226   0.162   0.319   6.269  1.1126 -0.6452  0.3568
 2864SOL     OW20227   4.049   2.373   5.475 -0.7354  0.0890 -0.3782
 2864SOL    HW120228   4.057   2.454   5.425  2.5896  0.2575  0.4172
 2864SOL    HW220229   4.127   2.324   5.451 -0.2141 -0.6114  2.7504
 2865SOL     OW20230   1.021   2.199   6.634  0.2404  0.0701  0.9646
 2865SOL    HW120231   1.092   2.259   6.659 -1.1185  1.2466  1.9484
 2865SOL    HW220232   1.060   2.130   6.687  0.0649  0.9654  2.2581
 2866SOL     OW20233   3.022   0.294  17.437 -0.4804 -0.5872 -0.4970
 2866SOL    HW120234   2.994   0.385  17.443 -0.2226 -0.4703 -1.0074
 2866SOL    HW220235   3.093   0.303  17.374 -0.9163  0.2388 -0.8696
 2867SOL     OW20236   1.086   0.231   6.629 -0.1810  0.4169 -0.5017
 2867SOL    HW120237   1.101   0.324   6.613  1.2371  0.2791  0.0676
 2867SOL    HW220238   1.114   0.228   6.720 -0.3251 -2.9551 -0.5747
 2868SOL     OW20239   1.042   1.811  10.245  0.1959  0.4458  0.6919
 2868SOL    HW120240   1.038   1.873  10.172  0.8282 -0.7249 -0.3338
 2868SOL    HW220241   0.959   1.763  10.249 -0.2784  1.0305 -1.9094
 2869SOL     OW20242   2.675   2.781   3.905 -0.1366  0.2894 -0.0225
 2869SOL    HW120243   2.602   2.719   3.913 -1.5820  2.0783  0.6831
 2869SOL    HW220244   2.746   2.726   3.938  1.6872  1.8268 -1.3440
 2870SOL     OW20245   1.130   4.610   0.885 -0.4614 -0.7004 -0.1947
 2870SOL    HW120246   1.183   4.564   0.820  0.6532 -2.2832  1.8248
 2870SOL    HW220247   1.163   4.563   0.962  2.1728 -1.3033 -1.6882
 2871SOL     OW20248   4.108   0.686   8.381 -0.1105 -0.4492  0.1300
 2871SOL    HW120249   4.197   0.686   8.346  0.2681 -2.3813  1.1232
 2871SOL    HW220250   4.075   0.616   8.326  0.3536 -0.9264  0.4626
 2872SOL     OW20251   2.953   3.495   8.732  0.5627  0.1509 -0.0066
 2872SOL    HW120252   2.941   3.410   8.689 -5.6359  0.8243  0.3392
 2872SOL    HW220253   3.016   3.467   8.798 -0.8696 -1.3275  0.7466
 2873SOL     OW20254   4.675   4.194  11.189  0.1039 -0.4158  0.2799
 2873SOL    HW120255   4.621   4.271  11.174 -1.6766 -1.3102  2.2372
 2873SOL    HW220256   0.008   4.204  11.128  0.8139  0.3156  1.2443
 2874SOL     OW20257   1.937   3.145  13.891  0.4097 -0.1049 -0.2710
 2874SOL    HW120258   1.995   3.206  13.845 -0.6103  1.6522  0.7874
 2874SOL    HW220259   1.870   3.138  13.822 -1.7944  0.3599  1.8308
 2875SOL     OW20260   0.231   2.707  17.569 -0.0642  0.1262  0.0971
 2875SOL    HW120261   0.218   2.802  17.567 -0.0255  0.0998 -1.3430
 2875SOL    HW220262   0.326   2.704  17.575  0.0156  0.2229 -1.2159
 2876SOL     OW20263   2.015   4.525   6.944 -0.2917  0.0580 -0.6140
 2876SOL    HW120264   1.921   4.534   6.962 -0.0533  0.6505  0.2988
 2876SOL    HW220265   2.049   4.611   6.969 -0.3990  0.5624 -2.1767
 2877SOL     OW20266   3.134   3.256   3.795 -0.3133  0.3348  0.5247
 2877SOL    HW120267   3.079   3.299   3.861 -1.0780 -1.0766  0.8099
 2877SOL    HW220268   3.072   3.219   3.732 -0.5182  0.0674  0.8858
 2878SOL     OW20269   3.320   3.410  12.321  0.3405 -0.3304  0.2819
 2878SOL    HW120270   3.258   3.458  12.376  1.5694  1.9419 -0.2834
 2878SOL    HW220271   3.267   3.388  12.245 -1.8656  0.6677  1.5329
 2879SOL     OW20272   2.818   1.984   8.237 -0.3413  0.8402 -0.3627
 2879SOL    HW120273   2.860   2.068   8.255 -0.0454  0.8913 -1.2756
 2879SOL    HW220274   2.747   1.995   8.300 -1.3236  0.0820 -1.3492
 2880SOL     OW20275   1.563   1.661   1.712 -0.0400  0.1522 -0.3178
 2880SOL    HW120276   1.654   1.684   1.732 -0.3724  1.8445 -0.7709
 2880SOL    HW220277   1.522   1.681   1.796  0.1086 -0.6575 -0.0468
 2881SOL     OW20278   0.903   3.382   6.677  0.1261 -0.2033 -0.5917
 2881SOL    HW120279   0.923   3.475   6.665 -1.2971  0.2284  0.3992
 2881SOL    HW220280   0.918   3.344   6.590  1.3260 -0.9906 -0.0332
 2882SOL     OW20281   2.538   2.979   5.964 -0.4246  0.1603  0.4006
 2882SOL    HW120282   2.583   2.911   6.015  1.0509  1.1011  0.3660
 2882SOL    HW220283   2.525   3.041   6.036  0.5823  0.6537  0.1565
 2883SOL     OW20284   0.101   0.249   7.060 -0.3373 -0.2173 -0.1879
 2883SOL    HW120285   0.027   0.188   7.073  0.0865 -0.4317  1.2093
 2883SOL    HW220286   0.060   0.333   7.079 -0.8363 -0.7542  1.1482
 2884SOL     OW20287   3.773   3.006   8.814  0.0605 -0.7141  0.0350
 2884SOL    HW120288   3.786   2.979   8.905 -3.0401 -0.6136  0.5305
 2884SOL    HW220289   3.863   3.007   8.782 -0.1886 -0.5635 -0.6676
 2885SOL     OW20290   1.704   2.445  17.379 -0.6764  0.1336 -0.4286
 2885SOL    HW120291   1.629   2.493  17.345 -1.4215  1.1454  2.5967
 2885SOL    HW220292   1.756   2.522  17.404  1.8523 -1.7556  0.1195
 2886SOL     OW20293   4.427   3.100   2.714  0.4944 -0.1297 -0.1235
 2886SOL    HW120294   4.384   3.072   2.795  1.2169 -0.5841  0.0966
 2886SOL    HW220295   4.393   3.039   2.648  0.6364 -0.8146  0.4357
 2887SOL     OW20296   3.848   0.999   2.248 -0.0907  0.0908  0.0199
 2887SOL    HW120297   3.902   1.077   2.231 -0.9615  0.8027  0.5162
 2887SOL    HW220298   3.814   1.014   2.336 -0.9910  0.2500 -0.3622
 2888SOL     OW20299   4.294   1.940   4.869 -0.6134 -0.0009 -0.7623
 2888SOL    HW120300   4.374   1.888   4.880  0.5733  1.9785 -0.1970
 2888SOL    HW220301   4.292   2.002   4.942  0.5829 -0.0206 -0.7065
 2889SOL     OW20302   1.404   3.470   3.895 -0.3400 -0.4406  0.3288
 2889SOL    HW120303   1.492   3.433   3.889  0.7191  2.0409  0.7761
 2889SOL    HW220304   1.357   3.390   3.918  0.1915 -0.2730  2.0090
 2890SOL     OW20305   0.704   0.406   2.056 -1.1423 -0.2125  0.7725
 2890SOL    HW120306   0.673   0.340   1.993 -3.6641  0.8055  0.9228
 2890SOL    HW220307   0.648   0.384   2.131 -0.8211 -1.3252  0.6813
 2891SOL     OW20308   0.218   3.270  12.513 -0.0784 -0.3879  0.0114
 2891SOL    HW120309   0.217   3.175  12.499 -0.6357 -0.3009 -0.5017
 2891SOL    HW220310   0.312   3.282  12.500 -0.2421 -0.9739 -1.6775
 2892SOL     OW20311   4.164   1.317   6.173  0.4188  0.2880  0.5667
 2892SOL    HW120312   4.247   1.333   6.128 -0.3182  2.2441 -0.1321
 2892SOL    HW220313   4.190   1.308   6.264 -5.5725  1.0209  2.3578
 2893SOL     OW20314   3.427   3.426   8.231 -0.0718 -0.0616  0.1250
 2893SOL    HW120315   3.452   3.334   8.225 -0.4406 -0.1089 -0.8391
 2893SOL    HW220316   3.432   3.425   8.326 -1.1469  0.4652  0.1960
 2894SOL     OW20317   0.740   2.994  11.490 -0.0116  0.1219  0.3126
 2894SOL    HW120318   0.720   2.934  11.561  0.5941 -0.2728  0.1501
 2894SOL    HW220319   0.691   2.955  11.418  2.6915 -0.9757 -0.9220
 2895SOL     OW20320   1.886   3.555   0.851 -0.4845 -0.2580  0.1863
 2895SOL    HW120321   1.952   3.503   0.896  1.3884  0.3531 -1.8906
 2895SOL    HW220322   1.925   3.642   0.849 -1.2920  0.0958 -0.2921
 2896SOL     OW20323   1.860   4.487  17.183  0.0151 -0.3975 -0.2688
 2896SOL    HW120324   1.928   4.426  17.214  1.2536  1.2652  0.2881
 2896SOL    HW220325   1.819   4.426  17.121  1.6649  0.5707 -2.3325
 2897SOL     OW20326   2.817   2.866  16.974  0.1449  0.4404  0.4931
 2897SOL    HW120327   2.833   2.805  16.902 -2.1750 -0.8729  1.1072
 2897SOL    HW220328   2.881   2.837  17.039  0.7053  0.3231 -0.1067
 2898SOL     OW20329   2.043   0.648   8.623  0.0578 -0.1213  0.2847
 2898SOL    HW120330   1.968   0.702   8.602 -1.0368 -1.1156  1.5842
 2898SOL    HW220331   2.037   0.569   8.568 -1.7094  1.8560 -2.3216
 2899SOL     OW20332   1.070   4.558   3.693 -0.7569  0.3433  0.3428
 2899SOL    HW120333   1.132   4.604   3.751  1.7373  0.5410 -2.4991
 2899SOL    HW220334   1.124   4.541   3.616 -0.4688  0.8809  0.4224
 2900SOL     OW20335   0.018   0.287   0.891  0.3269  0.9376  0.1099
 2900SOL    HW120336   4.710   0.367   0.872 -0.2560  0.5984  0.1821
 2900SOL    HW220337   0.089   0.273   0.828 -0.5520 -1.8497 -0.2334
 2901SOL     OW20338   0.223   3.765   4.898  0.1171  0.0854 -0.1107
 2901SOL    HW120339   0.129   3.784   4.897  0.6942  2.8875 -3.4454
 2901SOL    HW220340   0.250   3.835   4.957  0.1019 -0.8713  1.0352
 2902SOL     OW20341   2.480   3.856  12.685 -0.5771  0.3761  0.2760
 2902SOL    HW120342   2.427   3.820  12.757  1.2676  0.7580  1.8011
 2902SOL    HW220343   2.434   3.817  12.610 -1.4563  2.7539 -0.4208
 2903SOL     OW20344   2.566   0.341   7.880 -0.0668  0.2192 -0.0106
 2903SOL    HW120345   2.647   0.315   7.925  0.3159 -1.8279 -1.8800
 2903SOL    HW220346   2.600   0.390   7.805 -0.8681  0.7398 -0.0272
 2904SOL     OW20347   2.448   2.049   1.547 -0.7964  0.0299  0.4660
 2904SOL    HW120348   2.413   2.133   1.519  0.3481  0.6816  0.9741
 2904SOL    HW220349   2.404   1.990   1.486 -0.3181  1.1302 -0.9348
 2905SOL     OW20350   0.993   4.104   7.299 -0.4695  0.0925 -0.5613
 2905SOL    HW120351   0.933   4.134   7.368  1.3807  1.5774  0.4152
 2905SOL    HW220352   0.974   4.170   7.233  1.0625 -0.9218 -2.0301
 2906SOL     OW20353   0.249   2.321  14.676  0.1212  0.0804 -0.2931
 2906SOL    HW120354   0.252   2.354  14.586  0.6781  0.4310 -0.1437
 2906SOL    HW220355   0.282   2.232  14.673  0.9439  0.3323  1.0597
 2907SOL     OW20356   1.826   2.124   0.746  0.0152  0.3352 -0.2863
 2907SOL    HW120357   1.904   2.085   0.786 -2.3159 -1.7423  2.2917
 2907SOL    HW220358   1.834   2.099   0.654 -2.7338 -1.1215 -0.1372
 2908SOL     OW20359   1.049   3.548   2.494  0.0981 -0.1568 -0.3592
 2908SOL    HW120360   1.134   3.504   2.504 -0.6123 -0.9683  2.0348
 2908SOL    HW220361   1.070   3.641   2.481 -2.6589  0.2937 -1.4877
 2909SOL     OW20362   2.985   1.539   8.651 -0.5517  0.2427 -0.3328
 2909SOL    HW120363   3.065   1.502   8.614  0.3510  1.8080  0.0327
 2909SOL    HW220364   3.022   1.571   8.734 -1.6135 -1.7691  0.9144
 2910SOL     OW20365   2.342   2.709   4.162 -0.4622  0.1076  0.4275
 2910SOL    HW120366   2.360   2.764   4.238  0.1223  2.0466 -1.1456
 2910SOL    HW220367   2.355   2.760   4.082 -0.3667 -0.1481  0.2787
 2911SOL     OW20368   0.427   3.718  13.790 -0.3086 -0.6837 -0.4566
 2911SOL    HW120369   0.475   3.691  13.869 -0.0921 -2.4214 -1.1798
 2911SOL    HW220370   0.353   3.770  13.821  1.4233  2.1886 -1.1441
 2912SOL     OW20371   0.986   4.229   3.249 -0.3174 -0.4430 -0.4342
 2912SOL    HW120372   0.920   4.238   3.180 -0.5274  0.7415 -0.0733
 2912SOL    HW220373   0.993   4.134   3.242  2.6795 -0.2215 -0.2890
 2913SOL     OW20374   0.039   0.239   2.363 -0.3222  0.1348  0.4290
 2913SOL    HW120375   0.009   0.287   2.440  0.6831 -1.3878  1.7524
 2913SOL    HW220376   0.101   0.300   2.323 -1.0408  0.3292 -0.4097
 2914SOL     OW20377   4.727   4.220   6.697  0.2700 -0.2842  0.7632
 2914SOL    HW120378   0.075   4.240   6.666  1.2403 -3.3451  1.5645
 2914SOL    HW220379   0.006   4.159   6.768 -1.1274  0.5063  1.8070
 2915SOL     OW20380   0.330   2.192   2.427 -0.3464 -0.2602 -0.0443
 2915SOL    HW120381   0.348   2.159   2.515 -0.7738 -0.1675  0.0793
 2915SOL    HW220382   0.243   2.154   2.417  0.5497 -1.8561 -1.7935
 2916SOL     OW20383   4.734   1.078   0.946  0.8022 -0.5813 -0.6284
 2916SOL    HW120384   4.642   1.099   0.930  0.8948 -1.0245 -1.7753
 2916SOL    HW220385   0.037   1.163   0.950 -0.3591  0.0197 -0.7106
 2917SOL     OW20386   0.918   2.594   7.168 -0.4825  0.7562  0.2129
 2917SOL    HW120387   1.001   2.556   7.139  0.6595  2.1014  1.7671
 2917SOL    HW220388   0.949   2.667   7.222  0.1060  0.2217  0.6018
 2918SOL     OW20389   1.441   0.739   3.498  0.2589  0.6089 -0.1836
 2918SOL    HW120390   1.409   0.650   3.487  1.0144  0.2474  0.6120
 2918SOL    HW220391   1.370   0.765   3.557 -0.9478  0.6163 -1.6347
 2919SOL     OW20392   1.721   2.316   7.778  0.2440 -0.2085 -0.2098
 2919SOL    HW120393   1.666   2.338   7.704  0.0896 -0.2030 -0.0934
 2919SOL    HW220394   1.686   2.383   7.837  0.3458  0.3174 -0.7503
 2920SOL     OW20395   0.289   2.409   8.020 -0.9655 -0.5969 -0.2202
 2920SOL    HW120396   0.332   2.336   7.977  0.3680  0.8750 -1.3697
 2920SOL    HW220397   0.360   2.428   8.081 -0.4902  0.6022 -1.1476
 2921SOL     OW20398   0.923   4.497   8.452 -0.5739 -0.4390 -0.3567
 2921SOL    HW120399   1.016   4.517   8.449 -0.7442 -0.0296 -2.7254
 2921SOL    HW220400   0.879   4.582   8.444  2.2475  1.2523  2.2631
 2922SOL     OW20401   2.326   2.812   9.637  0.7222  0.5209  0.2387
 2922SOL    HW120402   2.255   2.778   9.691  1.9019 -1.6273  0.4480
 2922SOL    HW220403   2.340   2.898   9.675  2.5448  0.3056  0.0811
 2923SOL     OW20404   2.514   1.270   7.774 -0.4900 -0.1454  0.1013
 2923SOL    HW120405   2.472   1.283   7.689 -0.6156  0.0272  0.1906
 2923SOL    HW220406   2.565   1.350   7.787 -2.6955  1.2116  0.5378
 2924SOL     OW20407   1.607   0.052   1.379  0.9200  0.0964  0.3098
 2924SOL    HW120408   1.682   0.093   1.422  0.4582  0.8307  0.4022
 2924SOL    HW220409   1.592   0.112   1.306 -0.9545 -0.4746  0.2453
 2925SOL     OW20410   4.043   1.892   2.337  0.0999  0.1924  0.4493
 2925SOL    HW120411   4.088   1.827   2.283 -0.3523 -0.5603  0.9813
 2925SOL    HW220412   4.113   1.930   2.390  1.6445 -2.4570  0.3255
 2926SOL     OW20413   1.058   3.969   5.104  0.3311  0.3607 -0.2644
 2926SOL    HW120414   1.051   3.965   5.200 -0.1576  0.9710 -0.2807
 2926SOL    HW220415   1.081   4.061   5.091  0.9059  0.4944  1.5848
 2927SOL     OW20416   3.832   1.395   9.517 -0.0658  0.3927  0.1538
 2927SOL    HW120417   3.750   1.442   9.506 -0.1217  0.4392  0.7833
 2927SOL    HW220418   3.881   1.463   9.563 -2.9473  0.6099  2.9126
 2928SOL     OW20419   4.599   4.428   4.587  0.2379  0.5167  0.2228
 2928SOL    HW120420   4.667   4.414   4.520 -1.5917  1.5111 -1.8393
 2928SOL    HW220421   4.520   4.425   4.533 -0.5386 -2.3737  1.4964
 2929SOL     OW20422   4.497   3.475   3.723 -0.3608 -1.4246  0.3374
 2929SOL    HW120423   4.507   3.539   3.793  1.0620  0.2018 -1.3649
 2929SOL    HW220424   4.403   3.467   3.705 -0.2739  1.0674 -1.1906
 2930SOL     OW20425   3.031   3.746  15.038  0.1643 -0.6358  0.2407
 2930SOL    HW120426   3.044   3.693  14.959 -2.0819  2.0584 -1.9388
 2930SOL    HW220427   2.947   3.708  15.061 -0.8217  1.1535 -0.4116
 2931SOL     OW20428   3.335   3.218   9.514  0.4254 -0.3631  0.6232
 2931SOL    HW120429   3.321   3.274   9.437  2.7594 -1.1168 -0.3414
 2931SOL    HW220430   3.430   3.204   9.511  0.0761 -2.0507 -2.5801
 2932SOL     OW20431   3.904   3.064   1.116 -0.1817 -0.3832 -0.2478
 2932SOL    HW120432   3.885   2.980   1.073  1.3939 -0.4560 -0.8051
 2932SOL    HW220433   3.839   3.129   1.090  1.9954  3.0991  3.0290
 2933SOL     OW20434   2.886   0.294  13.405 -0.2667  0.2723 -0.3921
 2933SOL    HW120435   2.935   0.376  13.410 -0.7119  0.4189  1.5182
 2933SOL    HW220436   2.794   0.320  13.404  0.0341  1.3112 -0.4849
 2934SOL     OW20437   3.223   1.717  13.615  0.3747 -0.5530  0.0183
 2934SOL    HW120438   3.297   1.777  13.628  0.8150 -0.9147 -0.7869
 2934SOL    HW220439   3.180   1.708  13.700 -0.4403  0.4330 -0.2877
 2935SOL     OW20440   1.174   0.890   7.729 -0.3378  0.2441  0.1334
 2935SOL    HW120441   1.145   0.869   7.818  1.2421 -1.1681  0.3165
 2935SOL    HW220442   1.210   0.977   7.744  0.2711  0.1368 -0.6748
 2936SOL     OW20443   0.050   0.274   9.258 -0.5804 -0.6546  0.2405
 2936SOL    HW120444   4.738   0.220   9.318  1.5397 -0.5680  2.1850
 2936SOL    HW220445   0.021   0.363   9.278 -1.7686 -0.7247 -1.1832
 2937SOL     OW20446   4.417   3.935   4.252 -0.4966  0.1770  0.1511
 2937SOL    HW120447   4.430   3.955   4.159 -0.0055  1.1098  0.4202
 2937SOL    HW220448   4.446   3.844   4.257 -1.0429  0.0040  0.1937
 2938SOL     OW20449   4.508   3.747   1.838 -0.4707  0.4834  0.1013
 2938SOL    HW120450   4.570   3.743   1.765 -0.9539 -0.5065 -0.2565
 2938SOL    HW220451   4.435   3.794   1.799  0.1926  0.1069 -1.5912
 2939SOL     OW20452   4.151   4.702   8.034 -0.4213 -0.0915  0.2388
 2939SOL    HW120453   4.188   4.634   8.089  0.5999  1.0088  0.9216
 2939SOL    HW220454   4.081   4.653   7.992 -0.7227 -0.3075  0.9922
 2940SOL     OW20455   2.740   3.924   2.266 -0.0998 -0.1930  0.2054
 2940SOL    HW120456   2.648   3.949   2.265  0.5332  2.1733 -0.9555
 2940SOL    HW220457   2.764   3.985   2.196 -2.5415  4.2276  3.2543
 2941SOL     OW20458   1.358   0.639   4.133 -0.0595  0.5302 -0.8463
 2941SOL    HW120459   1.305   0.672   4.206  0.9311  0.7695 -0.2264
 2941SOL    HW220460   1.299   0.572   4.100  0.7692  0.2069 -1.6694
 2942SOL     OW20461   0.146   1.426   3.265  0.3409 -0.0369  0.4178
 2942SOL    HW120462   0.225   1.402   3.218  0.9719  1.1260  0.8863
 2942SOL    HW220463   0.143   1.376   3.347  1.6404 -2.0392 -0.7393
 2943SOL     OW20464   2.069   4.358   9.634 -0.2203  0.1883 -0.0201
 2943SOL    HW120465   2.097   4.436   9.586  1.2959  0.4358  1.2758
 2943SOL    HW220466   2.011   4.394   9.701 -0.4162  1.1468 -0.7040
 2944SOL     OW20467   2.659   4.170   4.374 -0.1214  0.4897 -0.6028
 2944SOL    HW120468   2.611   4.246   4.341  0.8572  1.5307  0.3454
 2944SOL    HW220469   2.667   4.191   4.467  0.7669 -0.8365 -0.3819
 2945SOL     OW20470   0.150   4.048   1.108 -0.2593  0.1753  0.0999
 2945SOL    HW120471   0.186   4.103   1.178 -2.4168  0.3438  1.0829
 2945SOL    HW220472   0.080   4.009   1.161  1.2227 -4.4047 -1.3488
 2946SOL     OW20473   3.091   0.604   5.398 -0.1364  0.0531 -0.2125
 2946SOL    HW120474   3.015   0.546   5.388 -0.4039  0.4483 -0.4812
 2946SOL    HW220475   3.121   0.611   5.307 -0.5568  0.7710 -0.2948
 2947SOL     OW20476   3.750   1.037   2.490  0.9303 -0.6591 -0.7037
 2947SOL    HW120477   3.763   0.949   2.525 -0.1660 -0.6044 -0.1634
 2947SOL    HW220478   3.663   1.061   2.521  1.5683  0.6584  0.0863
 2948SOL     OW20479   2.801   1.848   2.291 -0.3253  0.7948  0.1558
 2948SOL    HW120480   2.728   1.819   2.346  0.4811 -0.2188  0.6862
 2948SOL    HW220481   2.875   1.808   2.337  0.1429  0.4941 -0.8644
 2949SOL     OW20482   1.781   1.730   7.554  0.0161  0.8406 -0.1499
 2949SOL    HW120483   1.836   1.721   7.476  0.5230 -0.8677  0.3926
 2949SOL    HW220484   1.840   1.785   7.606 -0.0993  0.9688 -0.1572
 2950SOL     OW20485   3.447   0.533  13.422 -0.3720 -0.2378 -0.3342
 2950SOL    HW120486   3.496   0.609  13.390 -1.1538  0.8505  1.0308
 2950SOL    HW220487   3.418   0.572  13.505 -0.0369 -1.0266  0.1504
 2951SOL     OW20488   0.589   2.610   6.546 -0.2543 -0.0307  0.4755
 2951SOL    HW120489   0.538   2.684   6.579  2.6832  2.5155 -0.6262
 2951SOL    HW220490   0.677   2.633   6.577  0.3422  2.6760 -3.2427
 2952SOL     OW20491   0.035   3.660   2.743  0.4078  0.2743  0.4703
 2952SOL    HW120492   4.722   3.690   2.817 -0.6047 -1.2787  0.3644
 2952SOL    HW220493   0.104   3.616   2.793 -0.1424  0.4257  1.3766
 2953SOL     OW20494   0.806   3.675   8.501 -0.5520 -0.0676 -0.3133
 2953SOL    HW120495   0.866   3.676   8.576 -0.9701 -1.5524  0.0445
 2953SOL    HW220496   0.724   3.673   8.551 -0.6252 -0.9147 -0.4709
 2954SOL     OW20497   1.008   4.321   1.868 -0.2710  0.2183  0.4752
 2954SOL    HW120498   1.082   4.281   1.823  1.6882  3.5060  0.7328
 2954SOL    HW220499   1.014   4.413   1.839  1.3193  0.4516  1.5363
 2955SOL     OW20500   3.565   3.664  12.574 -0.3029 -0.3062  0.3749
 2955SOL    HW120501   3.506   3.590  12.562 -0.3873 -0.7574  3.5036
 2955SOL    HW220502   3.652   3.623  12.570 -0.7751 -0.9953 -2.8575
 2956SOL     OW20503   0.216   2.391  10.094  0.0352  0.5460 -0.1696
 2956SOL    HW120504   0.209   2.379   9.999 -2.5864 -0.1866  0.1228
 2956SOL    HW220505   0.225   2.304  10.131 -1.3903  0.2508 -0.5249
 2957SOL     OW20506   1.862   2.858   8.689 -0.0063 -0.0458 -0.1149
 2957SOL    HW120507   1.893   2.819   8.607 -1.2261  1.5147 -1.3021
 2957SOL    HW220508   1.805   2.784   8.711  0.7911 -1.0533 -1.4183
 2958SOL     OW20509   3.485   4.362   7.760  0.2565  0.2950  0.4210
 2958SOL    HW120510   3.397   4.325   7.752 -0.0289  1.2066 -0.7019
 2958SOL    HW220511   3.540   4.310   7.701  0.6668 -0.5893  1.5677
 2959SOL     OW20512   0.550   0.933  12.474 -0.1405 -0.2435  0.4075
 2959SOL    HW120513   0.519   0.855  12.428 -1.5996  0.5667  0.0160
 2959SOL    HW220514   0.620   0.905  12.534  0.0977 -2.6000 -0.9825
 2960SOL     OW20515   3.909   4.241   9.414  0.2786  0.0812  0.3311
 2960SOL    HW120516   3.882   4.248   9.322  2.8753 -0.0576 -0.4391
 2960SOL    HW220517   3.938   4.150   9.411  2.0647  0.5615  2.8838
 2961SOL     OW20518   1.242   1.153   8.725  0.1622 -0.3390 -0.7160
 2961SOL    HW120519   1.244   1.151   8.629 -0.5666 -3.0711 -0.6747
 2961SOL    HW220520   1.178   1.220   8.750  0.2468 -1.5359  2.7228
 2962SOL     OW20521   3.551   2.789   6.352  0.0985  0.5289 -0.6102
 2962SOL    HW120522   3.608   2.841   6.409  1.3367 -3.1740  1.5180
 2962SOL    HW220523   3.481   2.846   6.320  0.6318  1.0912 -0.7702
 2963SOL     OW20524   2.718   1.327  16.507  0.3539  0.1517 -0.1823
 2963SOL    HW120525   2.754   1.291  16.426 -3.8593 -3.0214 -0.6112
 2963SOL    HW220526   2.625   1.324  16.487  0.2142 -2.1835  0.8313
 2964SOL     OW20527   0.340   4.569  10.863 -0.1511  0.0176  0.5630
 2964SOL    HW120528   0.336   4.489  10.812  1.8328 -0.0684  0.5143
 2964SOL    HW220529   0.397   4.620  10.805 -0.2249 -0.6262 -0.0705
 2965SOL     OW20530   0.779   0.738  11.017 -0.1477  0.4510  0.3497
 2965SOL    HW120531   0.715   0.678  11.056 -0.3734  1.6677  1.8633
 2965SOL    HW220532   0.859   0.702  11.054  0.1596 -0.4047 -1.1451
 2966SOL     OW20533   2.362   0.781   8.471  0.1672  0.2520  0.2481
 2966SOL    HW120534   2.432   0.807   8.411  0.0849  1.5800  0.7312
 2966SOL    HW220535   2.406   0.710   8.518 -0.6934  0.0152  0.6947
 2967SOL     OW20536   1.134   2.536   3.019  0.4112 -0.3590  0.1008
 2967SOL    HW120537   1.200   2.477   3.058  2.0284  0.4876 -1.3688
 2967SOL    HW220538   1.179   2.601   2.965  2.0791 -0.3482  1.5088
 2968SOL     OW20539   3.780   2.876  13.515 -0.4843 -0.0420 -0.0793
 2968SOL    HW120540   3.856   2.927  13.543  0.8018 -1.6562 -0.6271
 2968SOL    HW220541   3.783   2.810  13.585  2.6491 -0.2830 -0.4462
 2969SOL     OW20542   3.050   1.696   7.788 -0.1410  0.4512 -0.3015
 2969SOL    HW120543   3.117   1.688   7.721  0.5001 -0.4458  0.4410
 2969SOL    HW220544   3.068   1.615   7.835 -2.8319 -0.8350 -1.5003
 2970SOL     OW20545   3.793   2.261   4.094 -0.4503  0.3466  0.0547
 2970SOL    HW120546   3.863   2.272   4.030 -1.2285 -0.3209 -0.9009
 2970SOL    HW220547   3.790   2.353   4.120  0.3096 -0.4875  3.0253
 2971SOL     OW20548   0.566   4.645   5.205 -0.0099 -0.6638 -0.4051
 2971SOL    HW120549   0.621   4.722   5.207  1.0083 -1.4223  1.0677
 2971SOL    HW220550   0.488   4.669   5.155 -0.7052 -0.5015  0.7622
 2972SOL     OW20551   1.236   1.374   9.347 -0.2909  0.7703  0.0010
 2972SOL    HW120552   1.219   1.468   9.357  0.8411  0.8387  1.2183
 2972SOL    HW220553   1.219   1.365   9.253 -1.7755  1.4065  0.2088
 2973SOL     OW20554   3.716   0.645  15.557  0.0336 -0.3276  0.1440
 2973SOL    HW120555   3.695   0.631  15.465  0.1651 -2.2730  0.4004
 2973SOL    HW220556   3.658   0.589  15.608 -0.3709 -0.7572 -0.7793
 2974SOL     OW20557   0.488   3.516   7.905  0.5782  0.4368 -0.2448
 2974SOL    HW120558   0.569   3.493   7.859  0.0283  0.0635 -1.0236
 2974SOL    HW220559   0.421   3.464   7.860  0.3186  0.8889 -0.3698
 2975SOL     OW20560   3.062   4.278   7.030  0.3792  0.0683 -0.4767
 2975SOL    HW120561   3.080   4.368   7.005 -0.4714  0.5836  0.7692
 2975SOL    HW220562   2.967   4.285   7.025  0.3377 -0.7170 -0.8620
 2976SOL     OW20563   1.641   1.222   3.587 -0.1696  0.7107  0.1553
 2976SOL    HW120564   1.602   1.271   3.660  1.2897  2.0436  0.0260
 2976SOL    HW220565   1.676   1.159   3.650  1.1097  0.1188 -1.1456
 2977SOL     OW20566   0.676   3.635   3.618 -0.0372  0.0937 -0.2063
 2977SOL    HW120567   0.692   3.729   3.630  1.5115 -0.1523 -0.2861
 2977SOL    HW220568   0.732   3.595   3.685  0.5722 -0.6094 -1.1307
 2978SOL     OW20569   1.098   4.289  10.330 -0.3757  0.1160 -0.5139
 2978SOL    HW120570   1.179   4.313  10.375 -0.4412 -2.0629  0.7654
 2978SOL    HW220571   1.065   4.226  10.395  0.6506 -1.0714 -1.1543
 2979SOL     OW20572   1.408   2.144   8.341  0.6503 -0.0173 -0.1844
 2979SOL    HW120573   1.469   2.216   8.327 -2.0118  2.3972  0.6526
 2979SOL    HW220574   1.428   2.116   8.430 -0.4489  2.3002  0.7714
 2980SOL     OW20575   1.403   2.956   4.724 -0.1349  0.0706 -0.1499
 2980SOL    HW120576   1.450   3.036   4.748  0.0789  0.0533 -0.5136
 2980SOL    HW220577   1.326   2.982   4.673 -0.7250  0.9178  1.1785
 2981SOL     OW20578   3.652   0.040   4.985 -0.1914  0.1403 -0.1722
 2981SOL    HW120579   3.707   0.063   4.910  0.5550  3.3392  1.3296
 2981SOL    HW220580   3.693   0.096   5.052 -0.5051  1.0155 -0.7131
 2982SOL     OW20581   0.455   1.619   1.119  0.6370  0.4587 -0.4147
 2982SOL    HW120582   0.412   1.704   1.124  0.9141  0.6171 -0.6940
 2982SOL    HW220583   0.398   1.566   1.174  1.4421 -0.4149 -0.4211
 2983SOL     OW20584   0.055   3.042   6.846 -0.0876 -0.5359  0.0052
 2983SOL    HW120585   0.036   3.093   6.768 -0.6935 -0.8568 -0.0606
 2983SOL    HW220586   4.710   3.029   6.889 -0.7594 -1.1920 -1.5310
 2984SOL     OW20587   4.255   3.627   9.027  0.0628 -0.3439 -0.7788
 2984SOL    HW120588   4.167   3.615   8.992 -1.4686  0.7313  2.7570
 2984SOL    HW220589   4.254   3.721   9.046 -0.8817 -0.4895 -0.1102
 2985SOL     OW20590   0.689   4.570   8.232  0.0172 -0.1572 -0.0354
 2985SOL    HW120591   0.742   4.625   8.290  0.1247 -0.0437 -0.2389
 2985SOL    HW220592   0.707   4.480   8.258 -0.2972 -0.4978 -0.9940
 2986SOL     OW20593   0.060   1.424   2.571 -0.2498 -0.0471  0.4635
 2986SOL    HW120594   4.708   1.452   2.566 -0.3276 -0.4847 -0.4607
 2986SOL    HW220595   0.052   1.333   2.544 -0.3002  0.2610 -0.5641
 2987SOL     OW20596   4.188   3.429   3.695 -1.1347 -0.3650  0.2596
 2987SOL    HW120597   4.222   3.404   3.781  0.8465 -0.1662 -0.4684
 2987SOL    HW220598   4.133   3.507   3.705 -0.1506  0.4943 -1.1538
 2988SOL     OW20599   1.335   4.326   5.363 -0.1881  0.3837  0.5793
 2988SOL    HW120600   1.347   4.419   5.346  0.5927  0.0544 -0.7261
 2988SOL    HW220601   1.387   4.313   5.443 -0.3019 -3.3103  0.0780
 2989SOL     OW20602   0.219   2.258   2.879  0.0967  0.3271 -0.2828
 2989SOL    HW120603   0.282   2.224   2.816  0.1714  0.7177 -0.4135
 2989SOL    HW220604   0.158   2.297   2.817  0.6694 -0.2013 -1.1717
 2990SOL     OW20605   4.701   0.740   5.136 -0.2093  0.0066 -0.3937
 2990SOL    HW120606   4.651   0.713   5.059  0.3286  0.0937 -0.7725
 2990SOL    HW220607   4.665   0.828   5.149 -0.6727 -0.1306 -0.7236
 2991SOL     OW20608   4.365   3.468   4.596 -0.6891 -0.0519 -0.1810
 2991SOL    HW120609   4.422   3.398   4.627  1.7021  1.4857 -1.0739
 2991SOL    HW220610   4.397   3.533   4.658  2.7918  0.3726 -2.3785
 2992SOL     OW20611   0.598   2.058   1.716  0.2812 -0.0987 -0.0785
 2992SOL    HW120612   0.662   1.994   1.685 -0.0690 -0.9793  1.0413
 2992SOL    HW220613   0.649   2.119   1.768  0.3168 -0.6552  0.5468
 2993SOL     OW20614   0.863   1.466  11.220 -0.0728  0.3594 -0.3645
 2993SOL    HW120615   0.814   1.509  11.151  0.2086  1.0626 -0.1210
 2993SOL    HW220616   0.840   1.373  11.209  1.6618 -0.2436  1.0142
 2994SOL     OW20617   0.839   3.137   5.501 -0.0325  0.2711  0.1790
 2994SOL    HW120618   0.837   3.041   5.506 -0.5288  0.3700  1.8514
 2994SOL    HW220619   0.784   3.157   5.425  2.3025  3.2297 -0.7465
 2995SOL     OW20620   3.130   1.865   6.297 -0.1670 -0.4087 -0.1224
 2995SOL    HW120621   3.183   1.937   6.263 -2.5586  1.0693 -0.7513
 2995SOL    HW220622   3.039   1.891   6.281 -0.2169 -0.3651  0.2137
 2996SOL     OW20623   1.617   2.481   5.372  0.4932 -0.5755  0.6656
 2996SOL    HW120624   1.554   2.540   5.330  2.1548  1.5678  1.2104
 2996SOL    HW220625   1.560   2.404   5.375 -2.1712  1.2851 -1.5504
 2997SOL     OW20626   0.287   1.707   8.651 -0.4118 -0.4524 -0.4445
 2997SOL    HW120627   0.312   1.616   8.667  0.6525 -0.5724 -2.8401
 2997SOL    HW220628   0.299   1.752   8.735  1.4669  0.4877 -1.2154
 2998SOL     OW20629   3.556   4.292   5.662 -0.2771 -0.4097 -0.8034
 2998SOL    HW120630   3.498   4.217   5.664 -2.2601  1.1398 -0.5090
 2998SOL    HW220631   3.501   4.365   5.633  1.1936  1.9756  2.4114
 2999SOL     OW20632   3.467   2.028  17.600  0.1808 -0.4292 -0.3324
 2999SOL    HW120633   3.431   2.045  17.513  1.0809 -1.2605 -0.8688
 2999SOL    HW220634   3.558   2.007  17.579 -0.2812 -3.0456  0.2362
 3000SOL     OW20635   0.965   2.768   7.642  0.3622  0.0435 -0.0450
 3000SOL    HW120636   0.970   2.862   7.623 -3.7727 -0.1027 -1.8709
 3000SOL    HW220637   0.929   2.780   7.730  2.0545 -0.7602  0.7743
 3001SOL     OW20638   1.939   4.522   4.958  0.5717  0.2635  0.0592
 3001SOL    HW120639   1.926   4.581   5.032  2.2728  0.3586  0.2816
 3001SOL    HW220640   1.910   4.445   5.007  0.8243 -0.6449 -1.2031
 3002SOL     OW20641   1.610   1.278  15.577 -0.6135  0.2996 -0.0556
 3002SOL    HW120642   1.554   1.221  15.524 -0.5498  0.4594 -0.2951
 3002SOL    HW220643   1.600   1.231  15.660  0.3850 -0.2918 -0.2737
 3003SOL     OW20644   2.785   0.871   6.429 -1.3234  0.0028  0.3111
 3003SOL    HW120645   2.731   0.832   6.361  2.1252 -2.7476 -0.8789
 3003SOL    HW220646   2.817   0.791   6.471  0.9005  0.2019 -0.9682
 3004SOL     OW20647   1.731   4.439   4.785  0.1934 -0.4587 -0.1377
 3004SOL    HW120648   1.663   4.469   4.845  0.9410  0.1721  0.3976
 3004SOL    HW220649   1.814   4.452   4.832 -0.2655 -2.8854  1.3605
 3005SOL     OW20650   4.706   0.024   1.466 -0.4287 -0.0981  0.0888
 3005SOL    HW120651   4.672   0.108   1.435  0.0748 -1.1721 -3.3039
 3005SOL    HW220652   0.058   0.038   1.485 -0.7767  0.8527  1.1481
 3006SOL     OW20653   3.291   0.255   8.624  0.0860  0.0846 -0.5633
 3006SOL    HW120654   3.230   0.284   8.693 -1.0242  0.4633 -1.7002
 3006SOL    HW220655   3.233   0.203   8.568  0.9052 -0.6121 -0.7550
 3007SOL     OW20656   0.031   2.811  12.523 -0.2351 -0.4720  0.0480
 3007SOL    HW120657   4.692   2.857  12.551 -0.0409 -1.1694  1.7343
 3007SOL    HW220658   0.003   2.780  12.437 -0.1314 -0.8740  0.1564
 3008SOL     OW20659   1.640   3.138   5.105 -0.9899 -0.4771 -0.2101
 3008SOL    HW120660   1.694   3.168   5.032 -0.6922 -0.5352 -0.0113
 3008SOL    HW220661   1.552   3.148   5.069 -0.6456  0.9837 -0.6319
 3009SOL     OW20662   1.184   2.100   8.239 -0.1589 -0.0311  0.0473
 3009SOL    HW120663   1.149   2.187   8.259 -1.1538 -0.3838 -0.1580
 3009SOL    HW220664   1.276   2.121   8.254 -0.5050  0.1793  1.7962
 3010SOL     OW20665   4.429   2.457   8.896  0.0059 -0.1014 -0.6000
 3010SOL    HW120666   4.360   2.515   8.927 -0.7029 -2.0350  1.4504
 3010SOL    HW220667   4.376   2.430   8.821 -2.9135 -0.0964  1.4870
 3011SOL     OW20668   3.719   1.058   8.126 -0.1205  0.3504  0.1220
 3011SOL    HW120669   3.766   0.975   8.115 -0.6081  0.2373 -1.1210
 3011SOL    HW220670   3.630   1.035   8.151 -0.4187  0.1696 -1.0773
 3012SOL     OW20671   3.332   2.861   4.490  0.2233  0.1365  0.3827
 3012SOL    HW120672   3.236   2.858   4.492  0.2231 -0.1386  0.0358
 3012SOL    HW220673   3.356   2.800   4.560  3.3060  1.6641  0.6662
 3013SOL     OW20674   1.256   1.187   4.984  0.8896  0.0909 -0.4052
 3013SOL    HW120675   1.288   1.271   4.952  1.9314  0.5680  1.8929
 3013SOL    HW220676   1.169   1.206   4.948  1.6584 -0.0342 -2.3303
 3014SOL     OW20677   2.504   1.055   4.505 -0.2662  0.4346  0.6290
 3014SOL    HW120678   2.572   0.990   4.520  1.0937  1.0823 -2.6325
 3014SOL    HW220679   2.531   1.086   4.418 -0.8611  0.8830  0.6092
 3015SOL     OW20680   0.765   1.653   6.073  0.6378  0.8099 -0.7240
 3015SOL    HW120681   0.788   1.585   6.009 -3.1428 -1.1048  0.0030
 3015SOL    HW220682   0.729   1.719   6.014  1.0656  1.4224 -0.3031
 3016SOL     OW20683   2.920   0.896   6.777 -0.6470  0.5228 -0.4238
 3016SOL    HW120684   3.007   0.928   6.753 -1.4313  2.4148 -0.6953
 3016SOL    HW220685   2.869   0.972   6.750 -1.7353 -0.1439 -0.2788
 3017SOL     OW20686   0.803   4.247   5.454 -0.1176 -0.0738  0.8818
 3017SOL    HW120687   0.891   4.279   5.433  0.1457 -1.0299  0.5001
 3017SOL    HW220688   0.755   4.278   5.377  1.1840  0.3137  0.2244
 3018SOL     OW20689   3.508   2.221   2.646  0.1608  0.1638  0.7892
 3018SOL    HW120690   3.487   2.310   2.675 -0.7258  1.1208 -2.7442
 3018SOL    HW220691   3.461   2.214   2.562  1.4146  2.0062 -0.0862
 3019SOL     OW20692   2.419   3.883   8.603  0.2910  0.0946  0.2854
 3019SOL    HW120693   2.383   3.971   8.618  0.7764 -0.0615  2.2532
 3019SOL    HW220694   2.476   3.874   8.679  0.6048  1.5875  0.2324
 3020SOL     OW20695   3.380   3.038  14.788  0.3040 -0.4677 -0.4423
 3020SOL    HW120696   3.303   2.981  14.798 -0.0499 -0.1261 -1.1996
 3020SOL    HW220697   3.451   2.975  14.781  2.8511  2.4941 -1.2476
 3021SOL     OW20698   0.002   0.309   5.147  0.4970 -0.1464  0.4097
 3021SOL    HW120699   0.011   0.215   5.129  0.2465 -0.2193  0.6648
 3021SOL    HW220700   0.043   0.314   5.233 -0.3467  1.7219  0.6993
 3022SOL     OW20701   4.001   4.355   7.613  0.2449 -0.0939 -0.6171
 3022SOL    HW120702   3.972   4.298   7.684 -0.4469 -0.9032 -1.5433
 3022SOL    HW220703   3.991   4.304   7.532 -0.8549  1.3992 -1.4225
 3023SOL     OW20704   1.393   1.262   6.864  0.6695  0.2282  0.2923
 3023SOL    HW120705   1.307   1.220   6.853  0.6941  0.3767 -0.3996
 3023SOL    HW220706   1.434   1.180   6.893 -0.7046 -0.5864 -0.0280
 3024SOL     OW20707   3.322   3.893   8.376  0.6328  0.7723  0.5372
 3024SOL    HW120708   3.247   3.860   8.326  3.0986 -1.9542 -1.3804
 3024SOL    HW220709   3.381   3.817   8.370  0.8586  0.9071  1.0425
 3025SOL     OW20710   2.317   2.287   1.449  0.5046  0.2894 -0.6206
 3025SOL    HW120711   2.273   2.347   1.510 -0.1386  1.7718 -2.5510
 3025SOL    HW220712   2.402   2.328   1.434 -0.4558  2.3332 -0.5145
 3026SOL     OW20713   1.465   0.068   3.847  0.7630  0.1016 -0.0974
 3026SOL    HW120714   1.479   0.159   3.871 -0.5856 -0.2374  1.9358
 3026SOL    HW220715   1.557   0.041   3.846  1.2445  1.6398  2.0931
 3027SOL     OW20716   3.869   3.472   2.849  0.6563  0.0622 -0.4659
 3027SOL    HW120717   3.832   3.439   2.767 -3.2474  0.4306  1.1176
 3027SOL    HW220718   3.800   3.450   2.912  1.2195  0.9556  0.4571
 3028SOL     OW20719   2.084   0.769   1.463 -0.1781  0.2497  0.3398
 3028SOL    HW120720   2.054   0.697   1.407 -0.8353  1.4920 -0.9022
 3028SOL    HW220721   2.123   0.826   1.396 -1.9302 -0.4182 -1.2489
 3029SOL     OW20722   4.186   0.213   4.666 -0.1922 -0.3445 -0.3605
 3029SOL    HW120723   4.260   0.190   4.610  1.0379 -1.1371  1.5779
 3029SOL    HW220724   4.163   0.127   4.701 -0.5705 -0.5005 -0.9957
 3030SOL     OW20725   0.497   2.665  15.879  0.3944 -0.2018  0.2336
 3030SOL    HW120726   0.493   2.703  15.967 -0.5961 -0.0589  0.1234
 3030SOL    HW220727   0.503   2.739  15.819  2.0028  1.8243  2.8847
 3031SOL     OW20728   2.206   4.187   8.948  0.1729 -0.6138  0.6612
 3031SOL    HW120729   2.163   4.197   9.033 -0.0797 -4.4098  0.9610
 3031SOL    HW220730   2.283   4.237   8.975 -1.3496  0.6159  2.7168
 3032SOL     OW20731   1.474   2.793   6.439  0.6570  0.1395 -0.1452
 3032SOL    HW120732   1.387   2.828   6.456  0.1207 -1.3783  0.2245
 3032SOL    HW220733   1.471   2.704   6.475  1.1555 -0.9851 -2.8663
 3033SOL     OW20734   2.526   2.229   4.632  0.0344  0.0585  0.0917
 3033SOL    HW120735   2.522   2.205   4.539 -0.2483 -1.2776  0.4469
 3033SOL    HW220736   2.598   2.291   4.640  0.5757 -0.7447  1.3969
 3034SOL     OW20737   2.796   4.301   7.010  0.2087  0.6448  0.0036
 3034SOL    HW120738   2.728   4.265   6.953 -0.2228 -1.9292  2.1532
 3034SOL    HW220739   2.797   4.251   7.091 -2.1855 -1.2767 -1.1675
 3035SOL     OW20740   4.353   3.785   7.239  0.0927 -0.4838 -0.1870
 3035SOL    HW120741   4.361   3.692   7.216 -1.1568 -1.0437  1.6378
 3035SOL    HW220742   4.435   3.819   7.204 -1.2804  1.9270 -1.0935
 3036SOL     OW20743   0.329   0.548   9.737  0.0868 -0.2444  0.3627
 3036SOL    HW120744   0.248   0.504   9.711 -0.6831  0.2345  1.9649
 3036SOL    HW220745   0.326   0.622   9.676 -2.7336 -0.0963  0.6848
 3037SOL     OW20746   4.502   1.519   2.057  0.2516 -0.4437 -0.4947
 3037SOL    HW120747   4.529   1.483   1.972 -1.9606  0.9074 -1.7724
 3037SOL    HW220748   4.465   1.603   2.030  1.1993  0.1382  0.0140
 3038SOL     OW20749   4.283   3.425  11.511  0.1721  0.4311 -0.4451
 3038SOL    HW120750   4.225   3.382  11.575  1.0758 -0.2956 -0.1248
 3038SOL    HW220751   4.227   3.502  11.496  1.5604  1.7513  1.2019
 3039SOL     OW20752   1.663   1.150   6.536  0.1505  0.2613  0.0169
 3039SOL    HW120753   1.659   1.187   6.625  0.0514  3.7111 -1.3969
 3039SOL    HW220754   1.695   1.229   6.492 -1.1512  0.1371 -1.1681
 3040SOL     OW20755   4.173   3.422   5.098  0.4545 -0.0121 -0.3421
 3040SOL    HW120756   4.255   3.464   5.073 -0.0449 -0.3975 -2.6214
 3040SOL    HW220757   4.146   3.472   5.174  0.2204 -1.6619  0.6600
 3041SOL     OW20758   2.598   1.032   9.388 -0.5238 -0.1306 -0.1842
 3041SOL    HW120759   2.524   1.086   9.415 -1.0772  0.6963 -3.3272
 3041SOL    HW220760   2.569   0.944   9.411 -1.1097  1.0258  3.4883
 3042SOL     OW20761   3.460   2.472   9.756  0.0561  0.1313 -0.0924
 3042SOL    HW120762   3.410   2.550   9.730 -1.5918 -0.2620  1.8826
 3042SOL    HW220763   3.420   2.472   9.843  1.0994 -0.7124  0.3878
 3043SOL     OW20764   3.064   4.546   7.023  0.3757  0.6016 -0.2754
 3043SOL    HW120765   2.983   4.558   6.974 -1.0796 -2.9474  1.2252
 3043SOL    HW220766   3.037   4.530   7.114  1.0890 -2.2689 -0.5748
 3044SOL     OW20767   0.462   3.950   5.954  0.4231  0.7418  0.2561
 3044SOL    HW120768   0.384   3.940   5.901  1.5070 -0.8270 -1.0361
 3044SOL    HW220769   0.517   4.012   5.907 -0.9865  1.3070 -0.6202
 3045SOL     OW20770   0.544   0.734   9.240  0.2648  0.2842  0.2447
 3045SOL    HW120771   0.522   0.660   9.296 -0.0901  0.5053  0.4006
 3045SOL    HW220772   0.529   0.699   9.152 -2.5376  2.3929 -0.1266
 3046SOL     OW20773   2.329   4.670   6.698  0.6656 -0.7709 -0.1814
 3046SOL    HW120774   2.359   4.737   6.760 -0.2462 -0.7871  0.2850
 3046SOL    HW220775   2.402   4.671   6.636  1.4181  1.3149  0.7478
 3047SOL     OW20776   2.291   1.902   0.296  0.3749 -0.2160 -0.0479
 3047SOL    HW120777   2.315   1.987   0.259  0.0033 -0.8926 -1.8206
 3047SOL    HW220778   2.324   1.917   0.385 -1.0127  1.2145  0.2275
 3048SOL     OW20779   2.356   4.512   5.465  0.7350 -0.6829  0.1518
 3048SOL    HW120780   2.286   4.451   5.488  0.3367 -0.4595 -0.4565
 3048SOL    HW220781   2.313   4.578   5.411  4.1177  1.3256 -0.0577
 3049SOL     OW20782   2.557   1.522   3.063  0.3720  0.0547  0.2475
 3049SOL    HW120783   2.589   1.432   3.059 -0.2752 -0.2952  2.6669
 3049SOL    HW220784   2.629   1.563   3.111  0.6833 -0.4967  0.2514
 3050SOL     OW20785   3.277   0.229   3.819 -0.2246  0.3446  0.7687
 3050SOL    HW120786   3.240   0.142   3.800 -1.1201  0.2679  2.7696
 3050SOL    HW220787   3.209   0.275   3.869 -2.2731 -1.4400 -0.3673
 3051SOL     OW20788   1.171   0.953   4.819 -0.2755 -0.3147 -0.0379
 3051SOL    HW120789   1.253   0.945   4.866 -0.9910  0.4053  1.3322
 3051SOL    HW220790   1.186   1.029   4.763 -1.2528  1.0822  1.5938
 3052SOL     OW20791   1.312   0.213  16.714  0.4591  0.1809  0.1071
 3052SOL    HW120792   1.228   0.253  16.735 -0.2549 -0.6150 -1.1977
 3052SOL    HW220793   1.353   0.200  16.800 -1.1109  0.1262  0.8406
 3053SOL     OW20794   2.988   2.106   7.455  0.0583  0.4329  0.5699
 3053SOL    HW120795   3.057   2.078   7.514  1.0720 -2.4716 -2.0040
 3053SOL    HW220796   2.948   2.022   7.432  1.1495 -0.3304  1.5176
 3054SOL     OW20797   1.361   0.365   4.677 -0.5704 -0.0056  0.0141
 3054SOL    HW120798   1.445   0.375   4.632 -1.1156 -0.9511 -1.1980
 3054SOL    HW220799   1.375   0.437   4.738 -1.4885  0.5343 -0.4118
 3055SOL     OW20800   3.616   1.723   9.302 -0.2108  0.6873 -0.4753
 3055SOL    HW120801   3.615   1.795   9.365  1.7115  0.9721 -0.7594
 3055SOL    HW220802   3.615   1.645   9.358 -0.5926  1.0115 -0.0326
 3056SOL     OW20803   3.480   3.540   7.130 -0.7252 -0.1156  0.3523
 3056SOL    HW120804   3.559   3.582   7.098 -0.4653  0.8376  2.2172
 3056SOL    HW220805   3.517   3.453   7.143 -0.5298 -0.4167 -2.2968
 3057SOL     OW20806   3.078   1.951   1.674 -0.1689 -0.0877 -0.3282
 3057SOL    HW120807   3.000   1.911   1.710 -0.2051 -0.7626 -1.1690
 3057SOL    HW220808   3.033   2.025   1.633 -0.4001  1.4757  2.7381
 3058SOL     OW20809   0.421   4.148   3.240  0.1005 -0.1312 -0.0797
 3058SOL    HW120810   0.372   4.102   3.308  0.7668 -1.5163 -0.5454
 3058SOL    HW220811   0.507   4.105   3.242 -0.8088 -1.8051  2.6313
 3059SOL     OW20812   1.050   3.045  14.578  0.5483 -0.0673 -0.5250
 3059SOL    HW120813   0.992   2.977  14.545  0.9518  0.3433 -2.0843
 3059SOL    HW220814   1.093   3.086  14.503 -1.6514 -0.1273 -1.8225
 3060SOL     OW20815   1.202   3.795   2.203  0.3399 -0.0461 -0.1167
 3060SOL    HW120816   1.201   3.823   2.294 -1.2817 -0.6188  0.0263
 3060SOL    HW220817   1.209   3.880   2.159 -2.3550  1.6648  2.7693
 3061SOL     OW20818   1.260   0.657   1.037 -0.2069  0.1277  0.0280
 3061SOL    HW120819   1.325   0.720   1.005  0.1228 -0.0000  0.4651
 3061SOL    HW220820   1.263   0.669   1.132  0.6545  1.4083 -0.1603
 3062SOL     OW20821   4.359   1.286   3.090  0.0182  0.0251 -0.0214
 3062SOL    HW120822   4.415   1.252   3.161  1.7341  1.0993 -0.8782
 3062SOL    HW220823   4.380   1.376   3.113  1.7030 -0.0757 -1.1930
 3063SOL     OW20824   1.767   2.154   2.635 -0.0566 -0.1253 -0.7250
 3063SOL    HW120825   1.722   2.080   2.594  0.0018 -0.2451 -0.5714
 3063SOL    HW220826   1.726   2.230   2.593 -2.1452 -0.8816 -0.0606
 3064SOL     OW20827   3.592   3.739   8.560  0.2235  0.1397  1.0048
 3064SOL    HW120828   3.597   3.643   8.557  1.4553  0.2559 -1.1389
 3064SOL    HW220829   3.516   3.754   8.616 -0.8257 -1.7954  0.0934
 3065SOL     OW20830   4.103   0.008  10.819  0.3819 -0.2578 -0.1005
 3065SOL    HW120831   4.093   4.715  10.908 -0.2380  0.2125  0.0066
 3065SOL    HW220832   4.106   0.103  10.831  0.6225 -0.5654  2.2815
 3066SOL     OW20833   4.109   0.310   8.721  0.1312  0.7455  0.1437
 3066SOL    HW120834   4.031   0.310   8.776 -0.6009  1.1378 -0.8982
 3066SOL    HW220835   4.181   0.349   8.770  0.0363  1.3627 -0.2017
 3067SOL     OW20836   4.718   3.709   7.752  0.2844  0.0767 -0.1595
 3067SOL    HW120837   4.676   3.795   7.756  0.0565 -0.0303 -0.2636
 3067SOL    HW220838   4.723   3.712   7.657  2.6558 -0.3055 -0.0454
 3068SOL     OW20839   1.362   3.476   6.399 -0.3534 -0.5541 -0.1313
 3068SOL    HW120840   1.370   3.449   6.307 -1.3713  1.8899 -0.9247
 3068SOL    HW220841   1.454   3.468   6.424 -0.6106  1.1896  1.3452
 3069SOL     OW20842   2.960   2.527   2.215  0.5397  0.0416 -0.2514
 3069SOL    HW120843   2.882   2.505   2.267  0.4024  0.7385 -0.1701
 3069SOL    HW220844   2.999   2.602   2.258 -0.0534 -1.0112  2.1203
 3070SOL     OW20845   1.595   0.587   1.657  0.4945 -0.1527 -0.2605
 3070SOL    HW120846   1.621   0.597   1.749 -0.9956 -0.3543  0.1884
 3070SOL    HW220847   1.638   0.660   1.612 -1.5660  0.2920 -1.4994
 3071SOL     OW20848   0.161   4.580   5.208 -0.1592 -0.0014 -0.4451
 3071SOL    HW120849   0.133   4.518   5.275 -0.9823 -0.0377 -0.8302
 3071SOL    HW220850   0.196   4.523   5.139  1.7409  2.1136 -1.2767
 3072SOL     OW20851   0.970   3.687  11.336 -0.0325  0.6500  0.1950
 3072SOL    HW120852   0.892   3.665  11.387 -0.0140 -0.2982 -0.1853
 3072SOL    HW220853   1.005   3.750  11.399 -0.1524  0.7227  0.1884
 3073SOL     OW20854   4.478   2.763   1.869 -0.2890 -0.3430 -0.5515
 3073SOL    HW120855   4.446   2.675   1.887  1.1250 -0.6629  0.3298
 3073SOL    HW220856   4.517   2.754   1.782  0.1754 -2.0877 -0.1546
 3074SOL     OW20857   0.327   2.990  11.172  0.6133  0.2397 -0.0063
 3074SOL    HW120858   0.312   3.081  11.145 -2.2065  0.3427  1.9856
 3074SOL    HW220859   0.259   2.986  11.239  0.4963  0.5750 -0.1026
 3075SOL     OW20860   4.284   0.556   5.982 -0.4505  0.5175 -0.0976
 3075SOL    HW120861   4.355   0.588   5.927  2.0006 -2.5447  1.2461
 3075SOL    HW220862   4.339   0.501   6.038 -1.0690  1.4441  1.4398
 3076SOL     OW20863   0.631   3.838   2.719 -0.6810  0.4187 -0.3564
 3076SOL    HW120864   0.720   3.854   2.750 -0.1280 -0.5191 -1.4547
 3076SOL    HW220865   0.586   3.817   2.801  0.4389  0.4657  0.2669
 3077SOL     OW20866   0.761   2.363  13.738  0.6841  0.2333  0.6607
 3077SOL    HW120867   0.792   2.276  13.712 -0.8691  0.2616 -1.2555
 3077SOL    HW220868   0.779   2.348  13.831  1.6827 -1.4835  0.1994
 3078SOL     OW20869   1.793   0.573   5.554 -0.5799 -0.8065 -0.1123
 3078SOL    HW120870   1.720   0.612   5.603  1.9113 -0.0518  3.0062
 3078SOL    HW220871   1.794   0.628   5.475 -0.0177  0.6327  0.8876
 3079SOL     OW20872   0.846   3.102   1.703 -0.0185 -0.3126 -0.2771
 3079SOL    HW120873   0.837   3.007   1.714 -0.5020 -0.3384 -0.8929
 3079SOL    HW220874   0.905   3.096   1.628  2.3651  2.3022  1.3635
 3080SOL     OW20875   2.919   2.805   4.233 -0.3303  0.2241  0.3433
 3080SOL    HW120876   2.932   2.711   4.219 -1.8382  0.5716 -3.5465
 3080SOL    HW220877   2.829   2.794   4.263  0.0637 -0.3720  1.2956
 3081SOL     OW20878   3.858   1.606   8.328 -0.0481 -0.1753  0.0667
 3081SOL    HW120879   3.776   1.600   8.278 -0.1652  0.3400  0.2044
 3081SOL    HW220880   3.871   1.697   8.351  1.6444 -1.1539  2.8816
 3082SOL     OW20881   4.234   1.055   9.964  0.5082 -0.4891  0.3955
 3082SOL    HW120882   4.193   0.975   9.998  0.4848 -1.5431 -2.1129
 3082SOL    HW220883   4.304   1.013   9.914  0.3955  0.5341 -0.6183
 3083SOL     OW20884   3.253   3.276   6.326 -0.1815 -0.0281 -0.1833
 3083SOL    HW120885   3.330   3.326   6.300 -1.4502  1.7595 -0.5072
 3083SOL    HW220886   3.190   3.303   6.259 -0.2658  2.1376  0.7456
 3084SOL     OW20887   0.387   0.859   1.349  0.3541  0.0584  0.0052
 3084SOL    HW120888   0.387   0.780   1.295  0.7214 -1.0962  1.7333
 3084SOL    HW220889   0.474   0.892   1.370  0.0844  1.9277 -1.8096
 3085SOL     OW20890   2.623   1.717  13.159  0.0658 -0.0735  0.0416
 3085SOL    HW120891   2.540   1.711  13.111  0.2636  0.8242 -0.4052
 3085SOL    HW220892   2.605   1.780  13.228  0.4644  0.2005 -0.1120
 3086SOL     OW20893   2.651   2.201   1.719 -0.2849 -0.1975  0.0296
 3086SOL    HW120894   2.646   2.295   1.702  2.8868 -0.1467 -0.6933
 3086SOL    HW220895   2.595   2.167   1.649  0.2362  0.4745 -0.7148
 3087SOL     OW20896   2.973   2.471   7.330  0.0542  0.4346  0.0597
 3087SOL    HW120897   2.965   2.453   7.424  2.6670  0.7530  0.3693
 3087SOL    HW220898   3.040   2.540   7.335  0.1321  0.2099  2.3457
 3088SOL     OW20899   2.347   0.415   7.070 -0.2226 -0.4910  0.1583
 3088SOL    HW120900   2.407   0.476   7.114 -0.5749 -1.4055  1.9065
 3088SOL    HW220901   2.395   0.334   7.087 -0.1971 -0.4675  0.1987
 3089SOL     OW20902   4.258   1.589  11.684  0.3390  0.5772  0.1465
 3089SOL    HW120903   4.270   1.680  11.656 -1.1778  0.3460 -1.2282
 3089SOL    HW220904   4.195   1.549  11.625 -0.0287  1.2318  0.1004
 3090SOL     OW20905   1.685   3.844   6.336  0.4282  0.4019  0.3930
 3090SOL    HW120906   1.660   3.861   6.245  0.5017 -1.8360 -0.0388
 3090SOL    HW220907   1.641   3.922   6.371 -0.5561  0.3950 -0.8460
 3091SOL     OW20908   1.593   2.231   8.982 -0.4545 -0.2243  0.0383
 3091SOL    HW120909   1.592   2.144   9.023  0.1053  0.2108  0.9930
 3091SOL    HW220910   1.682   2.226   8.946 -0.9250 -1.5522 -0.9504
 3092SOL     OW20911   3.168   2.240   4.884  0.9874 -0.4447  0.1978
 3092SOL    HW120912   3.226   2.270   4.814 -0.2040 -0.2294 -0.6808
 3092SOL    HW220913   3.144   2.322   4.926  1.6264 -0.0227 -0.2617
 3093SOL     OW20914   0.333   3.258   6.562 -0.1639  0.5827 -0.3266
 3093SOL    HW120915   0.267   3.316   6.600 -0.1157  0.2776  0.2225
 3093SOL    HW220916   0.314   3.251   6.468  0.8659 -0.4766 -0.4531
 3094SOL     OW20917   1.447   4.464   1.721 -0.1690  0.1392 -0.1165
 3094SOL    HW120918   1.481   4.453   1.632  0.9314 -0.6451  0.3983
 3094SOL    HW220919   1.516   4.516   1.763  2.6347 -3.2333 -0.5215
 3095SOL     OW20920   1.529   3.059   6.226  0.1117 -0.2450 -0.4946
 3095SOL    HW120921   1.577   3.050   6.144 -0.2803 -0.4815 -0.6986
 3095SOL    HW220922   1.604   3.045   6.285 -1.1245 -3.0911  0.4236
 3096SOL     OW20923   2.647   3.883   6.075 -0.4036  0.2197 -0.5760
 3096SOL    HW120924   2.646   3.793   6.043  0.9734 -0.2413  0.7116
 3096SOL    HW220925   2.586   3.875   6.148  1.0547  0.2058  0.6378
 3097SOL     OW20926   0.810   2.352  14.002 -0.1278 -0.2334  0.8349
 3097SOL    HW120927   0.737   2.404  14.034 -1.0606 -1.3552  0.5207
 3097SOL    HW220928   0.870   2.418  14.036  0.1691 -0.8373  1.4922
 3098SOL     OW20929   3.679   3.280  13.701 -0.1119 -0.1576 -0.2621
 3098SOL    HW120930   3.762   3.237  13.682  0.3630  0.7889 -0.3014
 3098SOL    HW220931   3.612   3.211  13.703  0.1406 -0.3383  1.7079
 3099SOL     OW20932   3.697   4.206   1.949  0.1368  0.9265  0.0640
 3099SOL    HW120933   3.732   4.160   1.873 -1.3578  0.0920 -0.1058
 3099SOL    HW220934   3.731   4.292   1.924  2.1542 -0.4622 -1.9254
 3100SOL     OW20935   2.063   2.956  10.071  0.3693 -0.2408 -0.0830
 3100SOL    HW120936   2.076   2.914  10.157 -0.5905 -2.2038 -0.8887
 3100SOL    HW220937   1.968   2.964  10.064  0.4630 -0.0021 -1.0643
 3101SOL     OW20938   0.622   3.935   0.184 -0.0810 -0.5396 -0.1943
 3101SOL    HW120939   0.628   4.020   0.141  2.9931 -1.1149 -0.8605
 3101SOL    HW220940   0.604   3.958   0.275 -0.8348 -1.5105 -0.1014
 3102SOL     OW20941   1.557   2.513   0.246  0.0821 -0.8202 -0.2737
 3102SOL    HW120942   1.625   2.566   0.204  0.4708 -0.7953  0.3867
 3102SOL    HW220943   1.571   2.423   0.215  2.9062  0.0207 -1.4736
 3103SOL     OW20944   3.433   1.786   6.248 -0.5508  0.1452 -0.0556
 3103SOL    HW120945   3.432   1.881   6.236  1.4257  0.0468 -0.9688
 3103SOL    HW220946   3.441   1.777   6.343  0.8944  2.3908  0.0377
 3104SOL     OW20947   0.257   4.486   2.262  0.3011  0.0267 -0.1074
 3104SOL    HW120948   0.193   4.416   2.245  1.1876 -0.7425 -0.2561
 3104SOL    HW220949   0.276   4.462   2.353  1.2174 -0.5609 -0.4521
 3105SOL     OW20950   4.652   3.151   2.240 -0.3664  0.7293  0.3442
 3105SOL    HW120951   4.691   3.193   2.317 -0.3850  0.2916  0.5907
 3105SOL    HW220952   4.612   3.228   2.199  2.0059  2.3997  1.1156
 3106SOL     OW20953   3.999   0.648  14.533  0.7255 -0.5810 -0.2927
 3106SOL    HW120954   4.027   0.702  14.607  1.2958  0.1586 -1.0489
 3106SOL    HW220955   3.931   0.703  14.494 -1.7457 -3.9067 -0.6713
 3107SOL     OW20956   4.205   3.480   9.532 -0.3961  0.4785  0.0551
 3107SOL    HW120957   4.295   3.449   9.541  0.4449  3.2432  1.1228
 3107SOL    HW220958   4.205   3.534   9.611  2.9152 -0.4493  0.6977
 3108SOL     OW20959   2.958   2.247   7.132 -0.3476  0.3663 -0.1252
 3108SOL    HW120960   2.881   2.194   7.154  1.7576 -1.9143  1.8308
 3108SOL    HW220961   2.966   2.307   7.206  1.4406 -0.0545  0.0299
 3109SOL     OW20962   4.576   0.452   9.906  0.1865 -0.5273 -0.0183
 3109SOL    HW120963   4.618   0.511   9.968  2.3252  0.3819 -2.3534
 3109SOL    HW220964   4.643   0.450   9.838  0.0667 -0.8313 -0.1278
 3110SOL     OW20965   1.344   0.658  13.766 -0.1177  0.0705 -0.1384
 3110SOL    HW120966   1.259   0.619  13.784  0.0508 -0.0702  0.3706
 3110SOL    HW220967   1.333   0.747  13.800  1.3430  0.0519  0.3884
 3111SOL     OW20968   2.129   4.579   5.286  0.3576 -0.0058 -0.2787
 3111SOL    HW120969   2.063   4.633   5.243 -0.2549 -1.1300 -0.7598
 3111SOL    HW220970   2.196   4.572   5.218  2.2924 -0.6101  1.6681
 3112SOL     OW20971   0.813   4.344   5.038  0.8722  0.3538  0.5736
 3112SOL    HW120972   0.804   4.425   4.988 -0.3968 -0.1254  0.0347
 3112SOL    HW220973   0.863   4.292   4.975 -1.3208 -0.1713 -0.7342
 3113SOL     OW20974   3.979   1.963   2.762 -0.2157  0.8269  0.0038
 3113SOL    HW120975   3.922   1.949   2.837 -1.2617 -1.1789 -1.1904
 3113SOL    HW220976   3.951   2.054   2.748  0.8378  1.3929  1.5014
 3114SOL     OW20977   1.657   2.813   3.744  0.4662  0.5969  0.6102
 3114SOL    HW120978   1.734   2.863   3.717 -0.7015  2.9579  1.6659
 3114SOL    HW220979   1.670   2.798   3.838  0.4280  1.4807  0.7550
 3115SOL     OW20980   2.924   0.579  11.274 -0.2859 -0.2355  0.6031
 3115SOL    HW120981   2.956   0.490  11.257 -0.8616 -0.1855 -0.7350
 3115SOL    HW220982   3.000   0.634  11.258  0.3031 -1.5484 -1.0998
 3116SOL     OW20983   3.890   4.385   2.898 -0.6252  0.2893 -0.7839
 3116SOL    HW120984   3.932   4.345   2.822 -0.2668  0.3652 -0.6228
 3116SOL    HW220985   3.852   4.313   2.949 -1.3031  1.5265  0.4425
 3117SOL     OW20986   3.778   2.753   2.441 -0.5093  0.0047  0.0520
 3117SOL    HW120987   3.829   2.692   2.386  0.2021 -0.1556  0.8991
 3117SOL    HW220988   3.842   2.763   2.511 -1.2439 -0.7963  0.8371
 3118SOL     OW20989   1.439   0.920   7.360 -0.6673 -0.4852 -0.1231
 3118SOL    HW120990   1.522   0.939   7.405 -1.4779 -0.2260  1.2680
 3118SOL    HW220991   1.406   1.010   7.359 -1.4437 -0.7471  3.0378
 3119SOL     OW20992   4.658   1.993  17.414  1.1236  0.2731  0.1484
 3119SOL    HW120993   4.594   1.997  17.484  0.1328 -0.9329 -0.6858
 3119SOL    HW220994   4.679   2.085  17.396 -0.4897  0.5277 -0.3941
 3120SOL     OW20995   2.760   3.733  13.362 -0.3561  0.5401  0.8243
 3120SOL    HW120996   2.773   3.683  13.443 -0.4082 -1.1399 -0.1968
 3120SOL    HW220997   2.796   3.816  13.392  0.4196 -0.1645  1.8261
 3121SOL     OW20998   1.436   3.567   2.640  0.2909  0.0678 -0.5578
 3121SOL    HW120999   1.475   3.573   2.553  1.6619 -1.2447 -0.0453
 3121SOL    HW221000   1.360   3.512   2.621 -0.0378  0.9328 -1.7336
 3122SOL     OW21001   3.301   2.152  12.540 -0.2208  0.5462 -0.0558
 3122SOL    HW121002   3.336   2.235  12.506 -0.5572  1.2232  1.2549
 3122SOL    HW221003   3.371   2.103  12.582  1.1565  0.7510 -2.1114
 3123SOL     OW21004   4.300   2.037   7.427 -0.2326  0.1277 -0.5567
 3123SOL    HW121005   4.388   2.007   7.447 -0.8389 -2.1622 -1.2385
 3123SOL    HW221006   4.292   2.014   7.334 -0.5145 -0.3236 -0.4225
 3124SOL     OW21007   3.943   3.484   4.299 -0.4639 -0.1025  1.0590
 3124SOL    HW121008   4.009   3.551   4.281  0.6637 -1.9754 -1.6670
 3124SOL    HW221009   3.960   3.421   4.230 -1.0530  0.4226  0.4382
 3125SOL     OW21010   2.095   2.030  17.229 -0.4026 -0.1808  0.1197
 3125SOL    HW121011   2.118   2.004  17.318  1.1080  3.0712  0.6909
 3125SOL    HW221012   2.168   2.091  17.219 -1.1993  0.5998 -0.8256
 3126SOL     OW21013   2.469   1.595  12.457  0.4932 -0.5476  0.4070
 3126SOL    HW121014   2.559   1.567  12.475  0.2291 -0.5688  1.6768
 3126SOL    HW221015   2.483   1.690  12.456  0.8423 -0.6109 -1.1133
 3127SOL     OW21016   1.815   3.635   0.161 -0.4074 -0.1167 -0.5523
 3127SOL    HW121017   1.836   3.562   0.102  0.0301 -0.9409  0.6365
 3127SOL    HW221018   1.721   3.648   0.144 -0.7340 -0.3719  1.0808
 3128SOL     OW21019   1.405   2.337   6.221 -0.3721 -0.0778 -0.5614
 3128SOL    HW121020   1.390   2.255   6.175 -3.0180  0.6193 -0.9269
 3128SOL    HW221021   1.499   2.349   6.211 -0.1790 -1.3765 -0.2458
 3129SOL     OW21022   0.472   2.852  12.522  0.6777  0.0782  0.0678
 3129SOL    HW121023   0.512   2.859  12.436  0.1056  0.1455 -0.1922
 3129SOL    HW221024   0.470   2.944  12.547  0.8784  0.6942 -2.2101
 3130SOL     OW21025   0.144   0.750  13.328  0.0167  0.2119 -0.0312
 3130SOL    HW121026   0.104   0.667  13.303  0.5149 -0.1084  0.2390
 3130SOL    HW221027   0.102   0.812  13.268  1.6817  1.5880  0.2267
 3131SOL     OW21028   4.276   4.232   6.351 -0.2067 -0.0311 -0.0502
 3131SOL    HW121029   4.233   4.305   6.307  0.7335 -0.4043 -1.5930
 3131SOL    HW221030   4.253   4.240   6.444  2.3630  1.1048  0.5039
 3132SOL     OW21031   0.029   0.305   8.241  0.1015  0.1121  0.1307
 3132SOL    HW121032   0.079   0.291   8.322  0.9317 -1.8239 -0.7105
 3132SOL    HW221033   4.700   0.240   8.250  0.3284  0.1657  2.3642
 3133SOL     OW21034   2.123   3.172   8.152 -0.0144 -0.5021  0.4884
 3133SOL    HW121035   2.069   3.124   8.215 -1.9324  1.7833  0.5460
 3133SOL    HW221036   2.079   3.256   8.140 -0.2222 -0.6381  0.3008
 3134SOL     OW21037   2.826   2.115   5.105 -0.7101  0.4299  0.1343
 3134SOL    HW121038   2.863   2.039   5.061  1.3739  0.6087  1.6187
 3134SOL    HW221039   2.901   2.143   5.157  1.2816 -0.2621 -2.3772
 3135SOL     OW21040   0.759   3.657  14.060 -0.3583 -0.5164  0.0654
 3135SOL    HW121041   0.732   3.656  14.152 -2.9507  4.0794 -0.6204
 3135SOL    HW221042   0.673   3.644  14.020 -0.7017  2.2556 -0.1204
 3136SOL     OW21043   3.330   2.543   5.934 -0.1128 -0.8406 -0.6856
 3136SOL    HW121044   3.373   2.624   5.961 -0.5040 -0.4084 -1.3493
 3136SOL    HW221045   3.299   2.554   5.844  0.6468  1.0321 -0.7153
 3137SOL     OW21046   0.375   0.349   0.502  0.0831 -0.7040 -0.1781
 3137SOL    HW121047   0.381   0.421   0.566  2.2597 -0.1592 -0.9645
 3137SOL    HW221048   0.465   0.341   0.469 -0.4171  0.9449 -1.9943
 3138SOL     OW21049   0.832   2.259   8.320  0.0609  0.0581  0.5715
 3138SOL    HW121050   0.768   2.262   8.250 -0.5248 -3.2130  0.9638
 3138SOL    HW221051   0.886   2.337   8.304  1.7445 -1.6281 -1.9068
 3139SOL     OW21052   4.142   0.198  16.760  0.1507 -0.0049 -0.2514
 3139SOL    HW121053   4.221   0.213  16.708  0.5017  0.7718  0.5152
 3139SOL    HW221054   4.085   0.266  16.724  1.3774  1.7298  1.0700
 3140SOL     OW21055   3.937   0.940  14.603 -0.4279 -0.2115  0.3516
 3140SOL    HW121056   3.978   0.933  14.517 -0.9390  0.5680  0.0458
 3140SOL    HW221057   3.979   1.017  14.642  1.5969 -0.5560 -1.1434
 3141SOL     OW21058   2.049   2.086  14.251  0.1807  0.3610 -0.8036
 3141SOL    HW121059   2.026   1.994  14.238 -0.4147  0.7941 -2.7842
 3141SOL    HW221060   2.130   2.079  14.301  0.0816  1.2718 -0.5048
 3142SOL     OW21061   1.704   4.575  15.902  0.0222 -0.0386 -0.4326
 3142SOL    HW121062   1.715   4.481  15.888  3.0159  0.3579 -0.6948
 3142SOL    HW221063   1.794   4.600  15.922  0.8898 -0.7775 -3.3200
 3143SOL     OW21064   2.578   0.086   4.316 -0.1622  0.3964  0.2052
 3143SOL    HW121065   2.600   0.010   4.370  0.7260  1.1511  0.9089
 3143SOL    HW221066   2.615   0.059   4.232 -0.6756  1.0616 -0.2360
 3144SOL     OW21067   0.408   4.647   9.200 -0.1662 -0.4442  0.2890
 3144SOL    HW121068   0.405   4.709   9.273  0.0716 -3.2517  2.6940
 3144SOL    HW221069   0.350   4.576   9.229 -0.5351 -0.0240  0.5741
 3145SOL     OW21070   0.972   1.283   6.625  0.5800  0.5803 -0.2091
 3145SOL    HW121071   0.955   1.262   6.533  1.1496  1.5812 -0.5427
 3145SOL    HW221072   0.925   1.366   6.630 -0.5233  0.0608 -1.8675
 3146SOL     OW21073   1.085   1.920   3.938 -0.1597  0.2575  0.7568
 3146SOL    HW121074   1.036   1.999   3.912  0.6778  0.4908 -0.1071
 3146SOL    HW221075   1.031   1.892   4.012 -1.5386 -0.6210 -0.5774
 3147SOL     OW21076   0.930   2.543  12.566 -0.0366 -0.2990  0.0357
 3147SOL    HW121077   0.904   2.569  12.655  1.7339 -1.5718  0.9119
 3147SOL    HW221078   1.025   2.541  12.576  0.1130 -1.1769 -1.5354
 3148SOL     OW21079   0.136   2.284  12.686 -0.1269 -0.1039  0.1683
 3148SOL    HW121080   0.124   2.353  12.621  0.7413  2.5381  2.8417
 3148SOL    HW221081   0.224   2.299  12.721 -0.3742 -1.6471  1.4669
 3149SOL     OW21082   2.599   2.937  17.331 -0.2039  0.5272 -0.2797
 3149SOL    HW121083   2.560   2.889  17.404 -1.1818 -0.4277 -1.4235
 3149SOL    HW221084   2.664   2.869  17.312 -0.6314  0.4710 -1.5535
 3150SOL     OW21085   0.421   2.515  10.938 -0.5757 -0.2963  0.1254
 3150SOL    HW121086   0.455   2.587  10.992  2.6870 -0.6895 -1.3811
 3150SOL    HW221087   0.354   2.486  10.999  0.4309 -0.8988  0.9381
 3151SOL     OW21088   2.597   1.863   3.060 -0.0482 -0.1089 -0.0439
 3151SOL    HW121089   2.666   1.909   3.012  0.3303 -1.8191 -1.1592
 3151SOL    HW221090   2.643   1.814   3.127 -2.9658  1.5269  3.1611
 3152SOL     OW21091   2.367   3.259   6.802  0.4768 -0.2686  0.7008
 3152SOL    HW121092   2.443   3.273   6.745 -1.0041  0.5436 -1.0781
 3152SOL    HW221093   2.297   3.299   6.750 -0.1874 -0.8845  1.1193
 3153SOL     OW21094   2.457   1.662   2.141  0.3380  0.2689 -0.2096
 3153SOL    HW121095   2.445   1.734   2.079  2.7400  0.4673 -0.4348
 3153SOL    HW221096   2.452   1.707   2.226 -3.1921  1.4579 -1.0326
 3154SOL     OW21097   0.640   0.596   4.736 -0.6399 -0.5722 -0.2802
 3154SOL    HW121098   0.573   0.652   4.775 -0.1991  0.5198 -1.1130
 3154SOL    HW221099   0.595   0.512   4.724  1.6374 -2.1008  1.6468
 3155SOL     OW21100   2.141   0.699  10.201  0.8080 -0.0368 -0.2492
 3155SOL    HW121101   2.139   0.606  10.178 -1.7340 -0.1910  0.5040
 3155SOL    HW221102   2.109   0.701  10.291 -0.2622 -1.3926 -0.5932
 3156SOL     OW21103   0.439   4.178   5.542 -0.0475  0.5401  0.6046
 3156SOL    HW121104   0.420   4.085   5.526  1.7823 -0.0730  1.9780
 3156SOL    HW221105   0.469   4.174   5.633 -0.9342 -0.8277  0.8425
 3157SOL     OW21106   1.442   1.552  11.770 -0.0549 -0.4539  0.1917
 3157SOL    HW121107   1.433   1.457  11.760 -0.6599 -0.5201  1.2794
 3157SOL    HW221108   1.473   1.590  11.688  0.0057  1.5323  1.1441
 3158SOL     OW21109   0.488   1.447   5.281 -0.2168  0.2857  0.0759
 3158SOL    HW121110   0.404   1.420   5.319  0.6249 -0.9985  1.0185
 3158SOL    HW221111   0.469   1.409   5.195 -0.0096  2.2558 -0.8311
 3159SOL     OW21112   2.266   2.372  11.811 -0.0834 -0.3961 -0.8969
 3159SOL    HW121113   2.256   2.386  11.905  1.5241 -0.5282 -0.6992
 3159SOL    HW221114   2.216   2.292  11.796  1.2808 -1.5399  0.6458
 3160SOL     OW21115   4.737   3.889   4.562 -0.0260 -0.7702  0.2026
 3160SOL    HW121116   4.660   3.946   4.558 -0.7659 -1.6526  2.0023
 3160SOL    HW221117   0.032   3.921   4.644 -0.8659  0.4633  0.0856
 3161SOL     OW21118   3.713   1.968   9.445  0.1862 -0.0521 -0.2674
 3161SOL    HW121119   3.757   1.908   9.505 -0.0924  0.7537  0.7417
 3161SOL    HW221120   3.785   2.031   9.443  1.1437 -1.0515  1.8883
 3162SOL     OW21121   1.213   4.214   7.501 -0.0113 -0.0565 -0.2146
 3162SOL    HW121122   1.238   4.128   7.469  0.7912  0.1427 -0.1325
 3162SOL    HW221123   1.124   4.225   7.467 -0.4179 -1.8709  0.2878
 3163SOL     OW21124   4.262   1.704   9.313  0.8730 -0.3599  0.4124
 3163SOL    HW121125   4.174   1.669   9.328  1.2158 -1.8378 -1.0468
 3163SOL    HW221126   4.247   1.797   9.300 -0.3914 -0.6775 -0.3503
 3164SOL     OW21127   4.113   4.291   1.130  0.2794 -0.0231 -0.2702
 3164SOL    HW121128   4.034   4.331   1.169  0.5677 -0.8252  1.1404
 3164SOL    HW221129   4.120   4.209   1.178  0.5751 -0.2401 -0.6972
 3165SOL     OW21130   4.185   4.068   8.009 -0.1041  0.2845 -0.7584
 3165SOL    HW121131   4.160   4.029   7.926  1.8590  0.5620 -1.4643
 3165SOL    HW221132   4.171   3.994   8.068 -0.5448  0.1897 -0.9802
 3166SOL     OW21133   4.500   2.406   1.292  0.0308  0.4191 -0.0852
 3166SOL    HW121134   4.502   2.403   1.388  0.9379 -1.5262 -0.1671
 3166SOL    HW221135   4.560   2.478   1.277 -0.9086  1.2802  0.2725
 3167SOL     OW21136   0.386   1.832   3.343 -0.2588  0.0600 -0.1423
 3167SOL    HW121137   0.384   1.736   3.345 -2.9340  0.1631  0.8703
 3167SOL    HW221138   0.473   1.855   3.375  0.6091 -2.6978 -0.4548
 3168SOL     OW21139   3.498   1.904   5.451 -0.2489  0.1963 -0.1718
 3168SOL    HW121140   3.412   1.926   5.489  1.4605 -0.9799  4.4423
 3168SOL    HW221141   3.511   1.965   5.379 -1.6452 -0.1550 -0.7315
 3169SOL     OW21142   3.017   0.965   8.943  0.1915 -0.1844 -0.3427
 3169SOL    HW121143   2.974   0.929   9.021 -0.9462  2.0616  0.0644
 3169SOL    HW221144   3.089   0.908   8.916 -0.2809 -0.5474 -0.8386
 3170SOL     OW21145   1.795   0.090  13.536 -0.2481  0.5405  0.2716
 3170SOL    HW121146   1.741   0.167  13.554 -0.8018 -0.2491  1.9862
 3170SOL    HW221147   1.846   0.135  13.468 -1.1266  1.1044 -0.0143
 3171SOL     OW21148   0.005   1.048   8.802 -0.1823 -0.6956  0.1007
 3171SOL    HW121149   0.030   1.139   8.815 -0.9966 -0.6790  1.5734
 3171SOL    HW221150   4.654   1.051   8.775 -0.5422 -0.4352  1.3489
 3172SOL     OW21151   4.631   3.237  13.473 -0.4929 -0.1014  0.1701
 3172SOL    HW121152   4.617   3.297  13.547 -2.1536  1.0833 -1.1091
 3172SOL    HW221153   4.718   3.198  13.477  0.0028  0.8421 -1.4697
 3173SOL     OW21154   3.479   0.109   6.722  0.2351  0.6107  0.1766
 3173SOL    HW121155   3.487   0.124   6.627 -2.8692 -2.1978 -0.5139
 3173SOL    HW221156   3.536   0.035   6.742 -2.9573 -1.7017  0.6742
 3174SOL     OW21157   4.464   3.766  12.254 -0.0642 -0.0556 -0.0481
 3174SOL    HW121158   4.475   3.753  12.160 -0.7583  1.0409 -0.2708
 3174SOL    HW221159   4.505   3.683  12.279 -0.1058  0.3855  1.5459
 3175SOL     OW21160   3.299   0.375   7.228 -0.1694  0.5061  0.2078
 3175SOL    HW121161   3.232   0.342   7.168 -1.2867  1.1694  1.0967
 3175SOL    HW221162   3.339   0.453   7.187 -0.7599  0.1459 -1.0593
 3176SOL     OW21163   4.223   0.515   3.805 -0.1836 -0.2200  0.1428
 3176SOL    HW121164   4.236   0.444   3.742  0.4127 -0.1642  0.1998
 3176SOL    HW221165   4.173   0.475   3.876 -1.4529 -0.4658 -0.8895
 3177SOL     OW21166   4.263   1.910  12.911 -0.1132  0.3032 -0.5040
 3177SOL    HW121167   4.329   1.953  12.966  0.5001 -0.4754 -0.6214
 3177SOL    HW221168   4.237   1.844  12.976 -0.7807  0.4684 -0.6088
 3178SOL     OW21169   0.329   3.107   5.749 -0.5407  0.2919 -0.0609
 3178SOL    HW121170   0.421   3.107   5.776 -1.0834  0.1706  1.8151
 3178SOL    HW221171   0.327   3.201   5.731  0.1433  0.5908  1.3763
 3179SOL     OW21172   2.733   2.810   3.105  0.0993 -0.2464 -0.0281
 3179SOL    HW121173   2.805   2.813   3.167 -2.1692  0.9082  2.5276
 3179SOL    HW221174   2.741   2.722   3.068 -0.4330 -1.1169  1.9554
 3180SOL     OW21175   4.491   1.463  16.701  0.6712 -0.2576  0.2347
 3180SOL    HW121176   4.397   1.451  16.715  0.8239 -1.9653 -0.3166
 3180SOL    HW221177   4.489   1.532  16.634  0.9482 -1.3387 -0.8860
 3181SOL     OW21178   4.622   0.866   3.629 -0.5771  0.3508 -0.2652
 3181SOL    HW121179   4.549   0.833   3.575 -0.5218 -0.9985  0.5024
 3181SOL    HW221180   4.700   0.832   3.586 -1.3410  2.1419 -3.1320
 3182SOL     OW21181   4.714   0.009   2.216  0.2240  0.3818  0.3994
 3182SOL    HW121182   0.024   0.015   2.134 -0.5286  1.6365  0.0353
 3182SOL    HW221183   0.002   0.085   2.266 -0.3135 -0.1763  1.5297
 3183SOL     OW21184   0.200   0.677   7.947  0.3104 -0.1838 -0.0449
 3183SOL    HW121185   0.192   0.585   7.975 -1.8733 -0.4015 -1.3099
 3183SOL    HW221186   0.254   0.666   7.868  0.4761 -0.6354  0.1295
 3184SOL     OW21187   4.595   3.412   2.181 -0.3679  0.3066  0.0877
 3184SOL    HW121188   4.564   3.426   2.271 -0.0321 -1.8191  0.5400
 3184SOL    HW221189   4.570   3.497   2.144  0.1000 -0.4536 -1.9830
 3185SOL     OW21190   2.434   4.436   2.721 -0.2575  0.6237 -0.0086
 3185SOL    HW121191   2.418   4.423   2.814  1.0993  1.9274  0.3958
 3185SOL    HW221192   2.384   4.359   2.692  0.8653 -0.4579  0.9447
 3186SOL     OW21193   2.814   1.789   5.208 -0.1494 -0.0831  0.2072
 3186SOL    HW121194   2.817   1.706   5.255 -1.0887 -1.5229 -2.2320
 3186SOL    HW221195   2.833   1.759   5.119  0.4478  0.9901 -0.0203
 3187SOL     OW21196   0.549   3.371   4.030  0.0854 -0.0862 -0.3765
 3187SOL    HW121197   0.502   3.322   3.963 -0.9356  1.0511 -0.4913
 3187SOL    HW221198   0.637   3.345   4.006  0.0783 -0.0643 -0.4260
 3188SOL     OW21199   3.405   0.170   5.999  0.0184 -0.2526 -0.4937
 3188SOL    HW121200   3.343   0.219   6.053  1.2835  1.3437 -0.4833
 3188SOL    HW221201   3.466   0.139   6.066  0.4117 -0.4810 -0.9623
 3189SOL     OW21202   2.994   2.144   9.054 -0.2135  0.2495 -0.1820
 3189SOL    HW121203   3.081   2.148   9.094  0.3637  0.6743 -1.4905
 3189SOL    HW221204   2.935   2.145   9.129  3.0046 -0.8338  2.3897
 3190SOL     OW21205   1.161   0.026   0.539 -0.0025  0.0209  0.2336
 3190SOL    HW121206   1.250   0.043   0.508  0.4149  1.7508  2.3216
 3190SOL    HW221207   1.131   0.098   0.595 -0.0144 -1.6797  2.4035
 3191SOL     OW21208   0.597   2.391   9.055 -0.1496 -0.2658 -0.5504
 3191SOL    HW121209   0.629   2.327   8.992 -0.9133 -0.7346 -0.4664
 3191SOL    HW221210   0.657   2.463   9.040 -0.2747 -0.2339 -0.9068
 3192SOL     OW21211   2.953   1.148   8.138  0.3631 -0.1923  0.4207
 3192SOL    HW121212   2.889   1.202   8.184  1.7681  2.7508 -1.0987
 3192SOL    HW221213   2.940   1.060   8.174 -1.5038  0.0917  0.4329
 3193SOL     OW21214   0.686   0.564   3.146 -0.4187  0.0835 -0.6686
 3193SOL    HW121215   0.621   0.622   3.106 -0.4524  0.2105 -0.4299
 3193SOL    HW221216   0.744   0.548   3.071 -0.9554  1.9450 -1.4809
 3194SOL     OW21217   3.394   4.606   6.252 -0.8800 -0.5720  0.0461
 3194SOL    HW121218   3.324   4.542   6.245 -0.2810 -1.0013 -2.1762
 3194SOL    HW221219   3.461   4.569   6.194 -0.3174 -1.0574  0.9999
 3195SOL     OW21220   1.145   0.494  13.738  0.0022 -0.1701 -0.1988
 3195SOL    HW121221   1.054   0.489  13.768  0.0071  0.3272 -0.1129
 3195SOL    HW221222   1.129   0.507  13.644  0.4289 -0.7720 -0.3509
 3196SOL     OW21223   1.903   1.731   4.263 -0.2058 -1.0293 -0.3623
 3196SOL    HW121224   1.906   1.736   4.359  2.1132  0.4967 -0.5120
 3196SOL    HW221225   1.852   1.651   4.255 -4.8682  1.8543  0.4388
 3197SOL     OW21226   3.896   1.225  12.385 -0.2475  0.0178  0.1650
 3197SOL    HW121227   3.928   1.254  12.471  1.7309 -2.1995  0.1874
 3197SOL    HW221228   3.850   1.304  12.357 -2.3512 -0.8369  1.1343
 3198SOL     OW21229   1.043   2.626  12.286 -0.6347 -0.2657 -0.2751
 3198SOL    HW121230   1.024   2.567  12.359  0.3634  1.0320  1.0525
 3198SOL    HW221231   1.049   2.568  12.211  0.4519 -2.5464  1.5613
 3199SOL     OW21232   0.953   2.796   8.257 -0.5500 -0.1616 -0.3614
 3199SOL    HW121233   0.940   2.701   8.257  3.1827 -0.6819 -1.0538
 3199SOL    HW221234   0.888   2.830   8.318 -0.5467 -1.8081  0.5779
 3200SOL     OW21235   3.909   3.623  10.096  1.1009  0.4469  0.4286
 3200SOL    HW121236   3.988   3.600  10.048  3.5060  0.2787  4.5103
 3200SOL    HW221237   3.848   3.562  10.055  0.3883  0.0277  2.1137
 3201SOL     OW21238   0.085   3.805   5.474  0.1485 -0.2055  0.0695
 3201SOL    HW121239   0.036   3.860   5.535 -1.2836  1.3394 -2.4585
 3201SOL    HW221240   0.020   3.782   5.408  0.0086 -1.4913  0.6600
 3202SOL     OW21241   1.308   3.618   1.862  0.0393  0.2682  0.3329
 3202SOL    HW121242   1.341   3.703   1.891 -1.2727  0.5885  0.8521
 3202SOL    HW221243   1.259   3.649   1.786  2.0653 -0.2065 -1.2015
 3203SOL     OW21244   1.737   3.832  10.327 -0.5261  0.3435  0.0637
 3203SOL    HW121245   1.763   3.817  10.418  0.3827 -0.8997 -0.4145
 3203SOL    HW221246   1.695   3.750  10.302 -1.9017  0.9812  0.2822
 3204SOL     OW21247   2.601   0.803   4.984  0.1072 -0.6231  0.3299
 3204SOL    HW121248   2.641   0.720   5.012  1.3173 -0.1674 -0.0253
 3204SOL    HW221249   2.645   0.861   5.046 -1.8850 -1.0287  2.1100
 3205SOL     OW21250   0.198   2.464   6.168 -0.5824 -0.1798 -0.0896
 3205SOL    HW121251   0.135   2.412   6.217 -2.2666 -0.9330 -3.0546
 3205SOL    HW221252   0.140   2.514   6.110 -1.4429 -2.3552 -1.1279
 3206SOL     OW21253   2.805   4.299   2.556  0.4651  0.3586 -0.0788
 3206SOL    HW121254   2.835   4.370   2.499  1.1585  1.0954  1.2036
 3206SOL    HW221255   2.711   4.303   2.540  0.6057 -0.5714 -1.1659
 3207SOL     OW21256   4.560   3.739   8.717 -0.0086 -0.2537 -0.6018
 3207SOL    HW121257   4.631   3.803   8.716 -0.7812  0.6310  2.0457
 3207SOL    HW221258   4.531   3.749   8.626  0.7935  1.0951 -0.7104
 3208SOL     OW21259   2.918   3.072  16.401 -0.6468  0.1371  0.0818
 3208SOL    HW121260   2.901   3.010  16.472  2.4862 -2.0851 -1.0850
 3208SOL    HW221261   2.983   3.019  16.354 -0.6712  0.6816 -0.5586
 3209SOL     OW21262   0.339   3.988  15.113 -0.4461  0.1571  0.4621
 3209SOL    HW121263   0.245   3.990  15.100 -0.2179  2.8935 -0.6595
 3209SOL    HW221264   0.372   3.911  15.066  2.9833 -0.4037  3.7459
 3210SOL     OW21265   2.645   0.786   4.325 -0.7410  0.3676  0.0364
 3210SOL    HW121266   2.737   0.761   4.332 -1.0807 -0.4052  1.6516
 3210SOL    HW221267   2.613   0.769   4.413 -0.9147 -0.4983 -0.1918
 3211SOL     OW21268   0.151   4.703  11.285  0.1195 -0.1238 -0.2295
 3211SOL    HW121269   0.186   0.046  11.319 -0.0616  0.9049 -2.5828
 3211SOL    HW221270   0.129   4.733  11.197 -0.7285 -0.2406 -0.0592
 3212SOL     OW21271   0.118   0.124  11.029  0.2376 -0.5099 -0.0385
 3212SOL    HW121272   0.102   0.039  10.989  1.4855 -0.4491 -0.6702
 3212SOL    HW221273   0.060   0.181  10.978  1.3410 -0.4757 -1.2551
 3213SOL     OW21274   2.535   4.211  16.603 -0.3752 -0.5232 -0.6792
 3213SOL    HW121275   2.607   4.188  16.662 -0.1833  0.0252 -0.6928
 3213SOL    HW221276   2.461   4.163  16.640 -0.2120 -0.2562  0.0088
 3214SOL     OW21277   2.728   2.602   8.955  0.3582  0.3761  0.2559
 3214SOL    HW121278   2.779   2.557   9.022 -1.1267 -1.9432 -0.1574
 3214SOL    HW221279   2.790   2.671   8.931  0.1718 -0.1028 -1.6326
 3215SOL     OW21280   2.267   1.318   5.301  0.5561 -0.0996 -0.1871
 3215SOL    HW121281   2.269   1.281   5.390  2.3256 -0.5552 -0.4028
 3215SOL    HW221282   2.269   1.411   5.323  1.7392  0.0908 -1.1034
 3216SOL     OW21283   4.357   1.754   6.413 -0.4883  0.1402  0.1409
 3216SOL    HW121284   4.407   1.760   6.495 -0.0686 -3.2922  0.1311
 3216SOL    HW221285   4.331   1.846   6.403 -0.9133  0.0695  0.5831
 3217SOL     OW21286   2.371   1.367  12.069 -0.1295  0.3222  0.2784
 3217SOL    HW121287   2.379   1.271  12.071 -0.5707  0.2558 -1.4557
 3217SOL    HW221288   2.360   1.389  12.161  0.0316  1.3135  0.0564
 3218SOL     OW21289   3.225   1.459  15.472  0.3033 -0.3119  1.0190
 3218SOL    HW121290   3.181   1.380  15.502 -1.0853  0.0869  0.0569
 3218SOL    HW221291   3.161   1.485  15.405  0.7452  1.1088  1.1345
 3219SOL     OW21292   0.841   1.133   3.076  0.0285 -0.3505 -0.3657
 3219SOL    HW121293   0.805   1.181   3.001 -2.4608  0.6320  1.4442
 3219SOL    HW221294   0.933   1.147   3.054 -0.3941 -0.1503 -1.9481
 3220SOL     OW21295   0.839   2.518   4.561 -0.0767  0.2426  0.0994
 3220SOL    HW121296   0.922   2.472   4.553 -0.0993  0.2826 -0.3610
 3220SOL    HW221297   0.870   2.608   4.566  0.8997  0.1618 -4.6228
 3221SOL     OW21298   0.182   1.461   1.305  0.2893  0.1261  0.6045
 3221SOL    HW121299   0.101   1.420   1.276  0.1346 -0.6497  2.1279
 3221SOL    HW221300   0.236   1.405   1.249 -0.1947  1.0767 -0.8140
 3222SOL     OW21301   1.214   2.868   6.522  0.2298 -0.1540  0.3734
 3222SOL    HW121302   1.172   2.857   6.608  0.0315 -0.1959  0.2725
 3222SOL    HW221303   1.188   2.956   6.495  1.9082  0.5563  1.0737
 3223SOL     OW21304   1.649   1.232   1.515  0.2547 -0.8073  0.2083
 3223SOL    HW121305   1.725   1.261   1.464  0.0361  0.5276  0.6424
 3223SOL    HW221306   1.576   1.284   1.482 -0.0752 -1.8112 -0.6637
 3224SOL     OW21307   1.791   2.974   4.206  0.0307  0.1679 -0.2165
 3224SOL    HW121308   1.792   2.889   4.250  0.1282  0.7556  0.9264
 3224SOL    HW221309   1.696   2.985   4.206  0.0621  0.4491  0.5499
 3225SOL     OW21310   0.627   1.505   3.355 -0.7517 -0.2039 -0.3439
 3225SOL    HW121311   0.654   1.429   3.406 -3.1134 -2.4630 -2.4657
 3225SOL    HW221312   0.532   1.498   3.345 -0.9015  1.8054 -0.4160
 3226SOL     OW21313   3.809   4.035   4.892  0.0203  0.3368  0.3269
 3226SOL    HW121314   3.769   4.100   4.950  0.6197  0.4324  0.6289
 3226SOL    HW221315   3.790   3.960   4.948 -1.6141 -0.5860 -1.4557
 3227SOL     OW21316   0.044   2.233   6.769 -0.2022  0.2798 -0.5709
 3227SOL    HW121317   0.073   2.296   6.835 -1.4157  0.6232 -0.3839
 3227SOL    HW221318   0.081   2.267   6.687  0.5700 -1.3995 -0.9314
 3228SOL     OW21319   3.560   2.724   0.655  0.2587 -0.4108 -0.2645
 3228SOL    HW121320   3.490   2.715   0.720  0.3456  1.6836  0.1118
 3228SOL    HW221321   3.637   2.695   0.702 -1.3588 -2.0168  1.3605
 3229SOL     OW21322   0.875   3.773   7.806  0.0186 -0.4473 -0.1542
 3229SOL    HW121323   0.966   3.776   7.835 -0.7235  0.4548  2.1254
 3229SOL    HW221324   0.866   3.839   7.737  2.3755  0.9600  0.8986
 3230SOL     OW21325   0.676   3.459   8.377  0.4809  0.9947  0.0328
 3230SOL    HW121326   0.725   3.539   8.396  0.3534  1.4163 -1.4647
 3230SOL    HW221327   0.608   3.501   8.325  1.3720  3.0417  0.4925
 3231SOL     OW21328   2.352   0.351   8.088 -0.0587 -0.0902 -0.1297
 3231SOL    HW121329   2.375   0.381   8.000 -0.4597  0.8909  0.1064
 3231SOL    HW221330   2.432   0.372   8.137 -0.3152  0.6367 -0.0168
 3232SOL     OW21331   4.364   3.293  16.295  0.4823  0.2706 -0.0581
 3232SOL    HW121332   4.408   3.375  16.274 -1.6008  1.1143 -1.1141
 3232SOL    HW221333   4.370   3.244  16.214 -1.5744 -0.0374 -0.0344
 3233SOL     OW21334   3.419   0.097   7.313  0.0599 -0.3658  0.3944
 3233SOL    HW121335   3.413   0.176   7.259 -0.2109  0.5687  1.7995
 3233SOL    HW221336   3.387   0.034   7.248 -0.1672 -0.0411  0.1862
 3234SOL     OW21337   2.004   4.227  14.660  0.0386 -0.4375  0.5713
 3234SOL    HW121338   2.076   4.281  14.628 -1.3095  1.9099  1.4812
 3234SOL    HW221339   1.994   4.163  14.590  1.4482 -0.3180  0.2594
 3235SOL     OW21340   4.272   2.575   4.026  0.2810  0.1508  0.1311
 3235SOL    HW121341   4.314   2.511   3.969  0.6896  1.8117 -1.4610
 3235SOL    HW221342   4.345   2.627   4.061 -0.0756  1.6718 -1.3704
 3236SOL     OW21343   2.262   1.847   6.152 -0.1104 -0.3651 -0.2949
 3236SOL    HW121344   2.175   1.812   6.131 -1.3032  1.7172  1.1563
 3236SOL    HW221345   2.273   1.921   6.093  2.1235 -0.8886 -0.5126
 3237SOL     OW21346   1.383   4.301   1.446  0.8211  0.0426  0.2937
 3237SOL    HW121347   1.464   4.341   1.414  0.3791 -0.0493 -0.9439
 3237SOL    HW221348   1.338   4.265   1.369  0.7914  0.0851  0.2913
 3238SOL     OW21349   0.341   3.661  17.130  0.1460  0.0647 -0.1244
 3238SOL    HW121350   0.375   3.599  17.194 -0.3323 -0.5806 -0.5011
 3238SOL    HW221351   0.251   3.665  17.162  0.2627 -0.1421  0.2183
 3239SOL     OW21352   1.282   1.225   4.692 -0.5332 -0.1939 -0.4530
 3239SOL    HW121353   1.291   1.301   4.750 -0.4628 -0.1898 -0.4696
 3239SOL    HW221354   1.319   1.268   4.615 -1.1453 -2.2675 -1.8867
 3240SOL     OW21355   3.838   1.360   4.873 -0.1298  0.8462 -0.6130
 3240SOL    HW121356   3.917   1.402   4.839  0.6678 -0.7755 -0.7572
 3240SOL    HW221357   3.779   1.431   4.847  1.2687  3.4248  3.1641
 3241SOL     OW21358   0.059   0.011   9.121  0.4626 -0.0731 -0.1916
 3241SOL    HW121359   0.036   0.082   9.181 -2.4802 -0.9488 -0.3037
 3241SOL    HW221360   4.724   4.694   9.135  0.4842 -0.1032 -0.1975
 3242SOL     OW21361   1.505   3.837   4.546 -0.3871  0.0399 -0.1173
 3242SOL    HW121362   1.598   3.831   4.526 -0.2946 -0.7842  0.5830
 3242SOL    HW221363   1.497   3.932   4.555 -1.7478  0.1728 -2.8223
 3243SOL     OW21364   3.644   1.779   1.991 -0.3362 -0.2103  0.1105
 3243SOL    HW121365   3.559   1.814   1.969 -0.6509 -0.6816  0.5558
 3243SOL    HW221366   3.689   1.770   1.907 -3.0161  0.8781 -1.4078
 3244SOL     OW21367   2.578   4.234   2.224  0.2070  0.1107 -0.0063
 3244SOL    HW121368   2.619   4.306   2.175 -1.2505 -0.2554 -1.7701
 3244SOL    HW221369   2.568   4.269   2.312 -1.9543 -2.3752  0.7402
 3245SOL     OW21370   3.055   0.769  12.522 -0.7296  0.1396 -0.0685
 3245SOL    HW121371   2.966   0.807  12.525 -0.6040  0.2389  2.1924
 3245SOL    HW221372   3.037   0.677  12.506  0.3432 -0.0733 -0.0203
 3246SOL     OW21373   1.588   2.902   7.192  0.3539  0.1496 -0.1820
 3246SOL    HW121374   1.660   2.839   7.197 -0.3667 -0.6540  0.1737
 3246SOL    HW221375   1.628   2.987   7.177 -0.7127  0.2142 -2.7541
 3247SOL     OW21376   2.502   0.305   7.364 -0.2750  0.2885  0.0696
 3247SOL    HW121377   2.484   0.395   7.391  3.3356  0.0494  3.2573
 3247SOL    HW221378   2.528   0.257   7.443 -2.7128 -0.7494  0.2231
 3248SOL     OW21379   3.873   0.540   5.451  0.4699 -0.4830  0.0711
 3248SOL    HW121380   3.786   0.563   5.418  1.1678 -0.2033 -1.5574
 3248SOL    HW221381   3.852   0.496   5.534 -1.2459 -0.9352 -0.5909
 3249SOL     OW21382   3.313   1.297   6.333  0.5514 -0.8693 -0.4290
 3249SOL    HW121383   3.327   1.353   6.409 -0.2268 -0.8604 -0.2942
 3249SOL    HW221384   3.237   1.248   6.363  0.1348  1.1735  1.8104
 3250SOL     OW21385   0.507   3.251   0.596 -0.1940 -0.1316  0.0454
 3250SOL    HW121386   0.452   3.318   0.636 -1.1216 -1.4819  1.0136
 3250SOL    HW221387   0.550   3.226   0.678 -1.1404 -1.3209  0.1765
 3251SOL     OW21388   2.268   1.258   5.585 -0.4224  0.3682  0.4797
 3251SOL    HW121389   2.325   1.332   5.604 -1.0780  0.2804  2.7526
 3251SOL    HW221390   2.293   1.199   5.655  2.3165 -1.0859 -1.7029
 3252SOL     OW21391   4.006   3.548   0.086  0.2066 -0.5064  0.0774
 3252SOL    HW121392   3.985   3.626   0.138 -1.6488 -1.1806  0.3311
 3252SOL    HW221393   4.064   3.503   0.147 -0.1561  1.0720  1.5928
 3253SOL     OW21394   2.282   0.047   4.928 -0.6156  0.3782  0.3993
 3253SOL    HW121395   2.265   0.128   4.976 -2.7347  0.2805 -0.1518
 3253SOL    HW221396   2.244   0.068   4.842  1.5974  0.1157 -0.6252
 3254SOL     OW21397   0.655   3.403   5.724  0.0731  0.2546 -0.5580
 3254SOL    HW121398   0.645   3.419   5.818 -0.0807 -2.1888 -0.1399
 3254SOL    HW221399   0.747   3.378   5.727 -0.4342 -2.0017 -2.7064
 3255SOL     OW21400   0.147   0.973  10.784 -0.0822  0.1741 -0.4655
 3255SOL    HW121401   0.233   0.954  10.748  0.2893 -1.3827  1.1993
 3255SOL    HW221402   0.156   0.955  10.878 -0.1555  2.6030 -0.0062
 3256SOL     OW21403   3.182   2.728   3.100  0.3821  0.2448 -0.2330
 3256SOL    HW121404   3.162   2.819   3.124 -2.7192 -0.6189  0.3399
 3256SOL    HW221405   3.276   2.719   3.120 -0.1103 -3.5341  0.3794
 3257SOL     OW21406   2.456   2.303   7.346  0.0737 -0.0468 -0.8381
 3257SOL    HW121407   2.487   2.389   7.319  0.8516 -0.2909 -0.7394
 3257SOL    HW221408   2.388   2.287   7.281  1.3996 -0.4262 -2.1272
 3258SOL     OW21409   0.232   3.326   0.465 -0.0245  0.0901 -0.9101
 3258SOL    HW121410   0.253   3.240   0.427  0.3065 -0.7263  1.0879
 3258SOL    HW221411   0.236   3.314   0.560  3.2225 -1.3344 -1.2019
 3259SOL     OW21412   0.461   0.403  12.378  0.3847  0.1155  0.0502
 3259SOL    HW121413   0.401   0.418  12.304 -1.0928  0.5487  1.3386
 3259SOL    HW221414   0.534   0.453  12.341 -0.7905  1.5866 -0.2910
 3260SOL     OW21415   2.671   3.360   5.977  0.2392  0.0712  0.0834
 3260SOL    HW121416   2.739   3.409   5.930  0.3768 -0.8610 -0.6727
 3260SOL    HW221417   2.610   3.352   5.904  1.3559 -1.6770 -0.6556
 3261SOL     OW21418   0.658   3.094   6.855  0.3893  0.1494 -0.2595
 3261SOL    HW121419   0.645   3.079   6.948  1.6552 -0.5664 -0.1969
 3261SOL    HW221420   0.736   3.148   6.872 -0.7362  1.7915 -0.3135
 3262SOL     OW21421   2.140   4.414   2.416  0.0588  0.1239  0.0490
 3262SOL    HW121422   2.173   4.471   2.485  2.1692 -1.0598  0.0149
 3262SOL    HW221423   2.172   4.469   2.344  2.3291 -0.0705  0.8898
 3263SOL     OW21424   4.430   3.815  11.288 -0.3186  0.6506 -0.3379
 3263SOL    HW121425   4.473   3.900  11.297  0.4624  0.4589 -2.0883
 3263SOL    HW221426   4.369   3.823  11.361  0.9730  1.2925  0.6772
 3264SOL     OW21427   0.337   3.403   3.677 -1.0591  0.2182  0.5066
 3264SOL    HW121428   0.268   3.453   3.722  0.1207  1.5581  0.8210
 3264SOL    HW221429   0.315   3.315   3.707  2.2055  0.1924  2.8834
 3265SOL     OW21430   0.591   1.467   1.378 -0.1224 -0.1619  0.3206
 3265SOL    HW121431   0.647   1.540   1.405 -0.9296  0.1690  1.0754
 3265SOL    HW221432   0.613   1.479   1.285  2.6654 -0.2876  0.9424
 3266SOL     OW21433   3.169   1.891  10.321 -0.4704  0.3538  0.0419
 3266SOL    HW121434   3.080   1.857  10.330 -1.3556  2.3796 -1.1365
 3266SOL    HW221435   3.155   1.975  10.278  1.7464  0.3703 -0.6795
 3267SOL     OW21436   1.232   3.191   9.763 -0.3395  0.0389 -0.4431
 3267SOL    HW121437   1.314   3.197   9.714  0.7451  2.7477  1.7179
 3267SOL    HW221438   1.253   3.116   9.818 -1.4444 -1.0573 -1.5009
 3268SOL     OW21439   2.093   4.477   8.764  0.4921 -0.3320  0.0039
 3268SOL    HW121440   2.165   4.528   8.802  0.1396  1.0771 -1.2274
 3268SOL    HW221441   2.144   4.404   8.730 -1.0792 -1.0914 -0.7349
 3269SOL     OW21442   1.501   4.704   2.755 -0.2070  0.4218 -0.7006
 3269SOL    HW121443   1.455   0.048   2.757 -2.2264 -0.6927 -0.2959
 3269SOL    HW221444   1.592   4.733   2.757 -0.1174  0.1957 -1.6065
 3270SOL     OW21445   2.061   0.604   0.981  0.4084  0.3154 -0.2422
 3270SOL    HW121446   1.992   0.598   0.914  0.9610 -1.2810 -0.6623
 3270SOL    HW221447   2.043   0.692   1.013  1.6774  0.2678  0.6054
 3271SOL     OW21448   0.290   1.247   3.639 -0.4339  0.0310 -0.0761
 3271SOL    HW121449   0.242   1.164   3.633 -0.5695  0.0843  0.2638
 3271SOL    HW221450   0.215   1.307   3.646  0.1024  0.3792  2.5533
 3272SOL     OW21451   3.541   1.328   4.761  0.5709  0.0132 -0.2901
 3272SOL    HW121452   3.562   1.371   4.844 -0.9858 -0.0998  0.1523
 3272SOL    HW221453   3.471   1.267   4.784  1.6724 -0.4781  1.7774
 3273SOL     OW21454   3.003   2.252   4.281 -0.0545  0.3204 -0.2415
 3273SOL    HW121455   2.967   2.188   4.342 -0.7343 -0.4150 -1.4283
 3273SOL    HW221456   3.020   2.325   4.340  0.4765  1.0393 -1.2831
 3274SOL     OW21457   3.723   3.997   6.728 -0.4758  0.2574 -0.2999
 3274SOL    HW121458   3.710   4.066   6.794  0.9903 -0.0721  0.3249
 3274SOL    HW221459   3.704   3.925   6.788  1.8712 -0.3597 -0.2939
 3275SOL     OW21460   1.142   4.423  16.401 -0.1107  0.5538  0.1660
 3275SOL    HW121461   1.201   4.496  16.380  0.5367  0.0025  0.0555
 3275SOL    HW221462   1.083   4.472  16.459 -2.4538 -0.4453 -1.4277
 3276SOL     OW21463   4.282   4.631   8.986 -0.1380 -0.0638  0.0756
 3276SOL    HW121464   4.213   4.632   9.052  0.4536 -0.3627  0.6964
 3276SOL    HW221465   4.298   4.537   8.984 -1.3060 -0.2632  0.4605
 3277SOL     OW21466   2.984   2.274   9.310 -0.7630  0.1519 -0.3455
 3277SOL    HW121467   2.964   2.209   9.377  1.4225 -0.3911 -0.2145
 3277SOL    HW221468   2.980   2.350   9.368  2.0177 -0.3037  0.4266
 3278SOL     OW21469   4.529   3.274  11.001  0.0269  0.4392 -0.2816
 3278SOL    HW121470   4.519   3.288  11.095 -3.1679  0.5176 -0.6392
 3278SOL    HW221471   4.515   3.180  10.999 -1.3013  0.6023  1.2793
 3279SOL     OW21472   1.689   3.998   7.860  0.0255  0.2764 -0.0010
 3279SOL    HW121473   1.687   3.902   7.860  2.3122  0.2084  1.3455
 3279SOL    HW221474   1.705   4.006   7.955  0.6744 -0.7141 -0.0233
 3280SOL     OW21475   1.698   4.672   3.031  0.1441 -0.6039  0.3626
 3280SOL    HW121476   1.637   4.606   3.063  0.3914 -0.2520  1.5506
 3280SOL    HW221477   1.778   4.620   3.022  1.5318  1.4240  0.8165
 3281SOL     OW21478   1.132   4.190   5.689 -0.4493  0.1268 -0.3414
 3281SOL    HW121479   1.150   4.284   5.695  0.4934 -0.0496 -0.3856
 3281SOL    HW221480   1.087   4.184   5.605 -0.1820  0.3053 -0.4975
 3282SOL     OW21481   3.006   0.539   7.137 -0.0583  0.6317  0.0161
 3282SOL    HW121482   3.049   0.564   7.055  0.0348 -0.4572 -0.2730
 3282SOL    HW221483   3.054   0.603   7.190  1.3991 -1.1123  0.8423
 3283SOL     OW21484   0.225   1.593  13.057  0.0681 -0.0775  0.4888
 3283SOL    HW121485   0.162   1.525  13.035 -0.5131  0.2935  1.0175
 3283SOL    HW221486   0.190   1.624  13.140  0.5119  0.6494  0.4091
 3284SOL     OW21487   1.650   2.085   5.274  0.5365  0.2785  0.0403
 3284SOL    HW121488   1.675   2.152   5.338  0.8999  0.7017 -0.5428
 3284SOL    HW221489   1.700   2.014   5.316  1.5146  0.9567  0.0385
 3285SOL     OW21490   3.202   3.167   5.574  0.3143 -0.4867  0.1362
 3285SOL    HW121491   3.278   3.209   5.614  0.0119 -1.3773  1.6632
 3285SOL    HW221492   3.231   3.141   5.487  0.1380  1.3284 -0.4737
 3286SOL     OW21493   2.331   1.446   1.154  0.0154  0.2811 -0.4961
 3286SOL    HW121494   2.425   1.465   1.159 -0.2032  0.9369  1.4101
 3286SOL    HW221495   2.322   1.386   1.228 -2.1862  0.6480 -0.4696
 3287SOL     OW21496   3.843   2.851  17.563 -0.2604  0.1654 -0.1381
 3287SOL    HW121497   3.930   2.884  17.541 -0.2232 -0.1960 -0.5277
 3287SOL    HW221498   3.790   2.931  17.570  0.7349  0.7217  1.0973
 3288SOL     OW21499   4.690   2.752   2.646 -0.6973 -0.1916 -0.3567
 3288SOL    HW121500   4.696   2.839   2.607 -0.9257  0.1573  0.3854
 3288SOL    HW221501   0.045   2.741   2.648 -0.8319 -1.2977 -0.4902
 3289SOL     OW21502   2.505   3.235   1.041 -0.3465  0.6681 -0.4632
 3289SOL    HW121503   2.508   3.249   0.946  3.3586 -3.7145 -0.9959
 3289SOL    HW221504   2.593   3.198   1.055  0.4570  2.4367 -0.8323
 3290SOL     OW21505   1.590   0.017   8.163  0.3233 -0.5943 -0.1171
 3290SOL    HW121506   1.552   0.103   8.183 -0.1149 -0.9489  0.5365
 3290SOL    HW221507   1.607   0.024   8.069  0.8265  0.7686  0.0676
 3291SOL     OW21508   0.506   4.277  17.180  0.0134 -0.0012  0.1927
 3291SOL    HW121509   0.491   4.358  17.230 -0.6384  0.1299 -0.2218
 3291SOL    HW221510   0.461   4.212  17.233  1.8788 -1.7041 -0.3081
 3292SOL     OW21511   0.105   0.751   2.387  0.0141 -0.2248  0.0640
 3292SOL    HW121512   0.177   0.797   2.430 -2.2578  1.9940  1.5057
 3292SOL    HW221513   0.145   0.729   2.303  1.8900 -1.3308  1.2522
 3293SOL     OW21514   2.585   3.483   4.124 -0.8060 -0.4487 -0.5258
 3293SOL    HW121515   2.644   3.410   4.107 -1.0178 -0.6573 -0.3721
 3293SOL    HW221516   2.588   3.531   4.041 -1.1952 -0.3223 -0.4666
 3294SOL     OW21517   4.295   0.516  17.305  0.2860  0.3136  0.1685
 3294SOL    HW121518   4.214   0.467  17.290  1.4305 -2.0247  1.5427
 3294SOL    HW221519   4.367   0.457  17.281 -0.4529 -1.3758  2.1472
 3295SOL     OW21520   2.600   0.470   2.268 -0.0574 -0.2547  0.2386
 3295SOL    HW121521   2.598   0.436   2.179 -1.5500  0.9379 -0.1867
 3295SOL    HW221522   2.531   0.419   2.309 -1.4590  1.6803  0.3080
 3296SOL     OW21523   1.507   1.829   0.404 -0.6643  0.2207  0.0910
 3296SOL    HW121524   1.477   1.812   0.315 -0.9667 -0.9235  0.4088
 3296SOL    HW221525   1.506   1.739   0.438 -1.3316  0.6843  1.2639
 3297SOL     OW21526   3.496   4.587  17.264  0.2932  0.5707  0.4868
 3297SOL    HW121527   3.581   4.622  17.238  1.2532 -1.6974  0.5221
 3297SOL    HW221528   3.440   4.624  17.196  0.0229 -0.9430 -0.1269
 3298SOL     OW21529   0.010   2.355   1.737 -0.0637  0.1236 -0.1052
 3298SOL    HW121530   0.098   2.323   1.715  0.5406  1.2806  0.6635
 3298SOL    HW221531   4.736   2.294   1.809 -0.3551  0.7091  0.3308
 3299SOL     OW21532   0.416   2.479  15.691 -0.4005  0.8474 -0.3331
 3299SOL    HW121533   0.451   2.549  15.746  0.5310  0.1365 -0.0303
 3299SOL    HW221534   0.494   2.443  15.649 -0.4788  0.8849 -0.5135
 3300SOL     OW21535   1.844   0.583  16.736  1.0809  0.1858  0.0724
 3300SOL    HW121536   1.920   0.595  16.679 -0.6916 -0.1850 -2.3348
 3300SOL    HW221537   1.786   0.554  16.666  2.7974 -3.8832  0.3303
 3301SOL     OW21538   0.009   1.489   4.411 -0.4852  0.0221  0.1793
 3301SOL    HW121539   4.693   1.465   4.484  0.1401 -3.5722 -0.4838
 3301SOL    HW221540   4.698   1.567   4.392 -1.5970 -0.6313  0.4999
 3302SOL     OW21541   2.209   0.591   3.449  0.2008 -0.2734  0.6368
 3302SOL    HW121542   2.304   0.608   3.447 -0.0506  1.0158 -0.2916
 3302SOL    HW221543   2.189   0.545   3.530 -0.5529 -2.6102 -0.8668
 3303SOL     OW21544   0.369   1.441   8.708  0.1785 -0.8393  0.8633
 3303SOL    HW121545   0.367   1.376   8.637  0.4482  0.2253 -0.1297
 3303SOL    HW221546   0.355   1.390   8.787 -2.2527  0.8481  1.5171
 3304SOL     OW21547   3.054   0.395   3.927 -0.1128 -0.0638 -0.3222
 3304SOL    HW121548   3.047   0.484   3.960  2.3441 -0.2836  0.8097
 3304SOL    HW221549   2.996   0.407   3.853 -0.5017  0.9013  0.1412
 3305SOL     OW21550   4.137   0.588  10.591 -0.4913  0.2138 -0.2498
 3305SOL    HW121551   4.122   0.539  10.510  0.6581 -2.3014  1.0429
 3305SOL    HW221552   4.228   0.572  10.614 -0.7550 -0.6381  0.2046
 3306SOL     OW21553   3.120   1.500  11.254  0.2076  0.3425  0.2267
 3306SOL    HW121554   3.109   1.585  11.212  0.9667 -0.1450 -0.9779
 3306SOL    HW221555   3.164   1.448  11.186  2.6174  0.3929  1.7497
 3307SOL     OW21556   0.341   3.006   0.942 -0.1742 -0.0059  0.1216
 3307SOL    HW121557   0.415   3.066   0.930 -0.2523 -0.3522 -2.0210
 3307SOL    HW221558   0.305   3.003   0.853  1.2523  0.5999 -0.4739
 3308SOL     OW21559   0.995   0.057   2.387  0.5773  0.0842 -0.0837
 3308SOL    HW121560   0.939   0.062   2.464  0.3081 -1.4830 -0.1897
 3308SOL    HW221561   1.073   0.018   2.428  1.5542 -0.1290 -2.1675
 3309SOL     OW21562   1.766   2.035   5.787 -0.8191 -0.0303  0.5993
 3309SOL    HW121563   1.710   2.078   5.722  0.6985 -0.6337 -1.1045
 3309SOL    HW221564   1.846   2.055   5.738 -0.8333 -2.0581 -0.2583
 3310SOL     OW21565   0.193   2.557   8.345 -0.1601 -0.2003 -0.0513
 3310SOL    HW121566   0.183   2.630   8.283 -3.0595 -0.6893 -0.1585
 3310SOL    HW221567   0.151   2.597   8.421 -0.2204 -0.3642  0.0018
 3311SOL     OW21568   3.226   3.295   8.408  0.0229 -0.2248 -0.5325
 3311SOL    HW121569   3.226   3.220   8.468 -0.7401  0.5296  0.3986
 3311SOL    HW221570   3.230   3.259   8.319  0.0946  0.2428 -0.7169
 3312SOL     OW21571   4.058   3.649   7.925 -0.6197 -0.0972 -0.1209
 3312SOL    HW121572   4.118   3.590   7.878 -1.4915  0.1416 -1.5423
 3312SOL    HW221573   4.007   3.585   7.973  1.3911 -1.2986  0.4217
 3313SOL     OW21574   1.827   1.669   8.329 -0.1885  0.2439 -0.0942
 3313SOL    HW121575   1.867   1.754   8.345 -0.2516 -0.4101  3.7099
 3313SOL    HW221576   1.826   1.668   8.234  2.8609 -2.1176 -0.1159
 3314SOL     OW21577   2.730   0.792   6.981  0.1607 -0.3004 -0.1832
 3314SOL    HW121578   2.672   0.762   6.911 -0.7927  0.1024  0.4393
 3314SOL    HW221579   2.800   0.819   6.921  0.1787  0.3580  0.1417
 3315SOL     OW21580   1.593   0.332   1.540 -0.7080  0.1370  0.2519
 3315SOL    HW121581   1.662   0.285   1.588  1.3521  2.5313 -0.3281
 3315SOL    HW221582   1.586   0.408   1.597  2.1090  1.4572 -1.1353
 3316SOL     OW21583   0.395   2.825   2.962 -0.0191  0.6443 -0.7155
 3316SOL    HW121584   0.327   2.760   2.942  0.3156 -0.0261  0.2722
 3316SOL    HW221585   0.352   2.904   2.929 -1.8243  0.0752  0.2183
 3317SOL     OW21586   0.315   3.555  13.616 -0.6748 -0.0095  0.5708
 3317SOL    HW121587   0.367   3.618  13.667  3.1028 -1.4790 -1.5068
 3317SOL    HW221588   0.251   3.524  13.679 -2.4794 -1.4461 -1.9966
 3318SOL     OW21589   2.917   4.266   5.123 -0.6545 -0.2562 -0.3022
 3318SOL    HW121590   2.952   4.335   5.066 -0.7028 -0.3448 -0.4394
 3318SOL    HW221591   2.989   4.246   5.183  0.5088 -0.4551 -1.7342
 3319SOL     OW21592   0.071   2.608   5.970 -0.3172  0.1605 -0.3174
 3319SOL    HW121593   0.115   2.690   5.989  1.2651 -0.1416 -2.6276
 3319SOL    HW221594   4.725   2.649   5.972 -0.0486  0.7679 -1.0873
 3320SOL     OW21595   3.052   1.445   1.393  0.1858  0.0135 -0.2658
 3320SOL    HW121596   3.114   1.400   1.335 -0.6924  0.7287 -1.7618
 3320SOL    HW221597   3.099   1.448   1.476  0.5519  3.1981 -0.6086
 3321SOL     OW21598   3.885   2.074  15.925 -0.1223  0.3395  0.3772
 3321SOL    HW121599   3.927   2.083  15.839 -3.1429  0.1787 -1.1003
 3321SOL    HW221600   3.793   2.078  15.901  0.3299  0.0848 -1.3924
 3322SOL     OW21601   1.949   4.298  13.669  0.2310  0.2357 -0.1053
 3322SOL    HW121602   1.966   4.248  13.589  0.3349 -0.0589  0.1007
 3322SOL    HW221603   1.907   4.379  13.642  1.8651  0.9362 -0.5299
 3323SOL     OW21604   2.044   2.336   0.740  0.4017 -0.2372  0.3320
 3323SOL    HW121605   2.067   2.293   0.657  2.2642 -1.2975  1.3942
 3323SOL    HW221606   1.992   2.268   0.783 -3.3574  1.7556 -1.0238
 3324SOL     OW21607   1.197   1.407   5.434  0.5449 -0.1986  0.2738
 3324SOL    HW121608   1.194   1.312   5.446  0.0185 -0.0500  1.3566
 3324SOL    HW221609   1.160   1.413   5.346 -0.2332  0.9575  0.6771
 3325SOL     OW21610   0.408   0.377   8.373 -0.0654 -0.3807  0.0044
 3325SOL    HW121611   0.478   0.314   8.386  0.7109  0.9190  2.0622
 3325SOL    HW221612   0.330   0.325   8.392 -0.7182  1.1303  1.4735
 3326SOL     OW21613   1.524   1.378   5.421 -0.0670 -0.7249 -0.1736
 3326SOL    HW121614   1.525   1.318   5.347 -1.5463  0.4512 -1.1500
 3326SOL    HW221615   1.469   1.327   5.480  1.8300 -2.0763  0.4387
 3327SOL     OW21616   3.131   1.541   2.319 -0.0352  0.0779 -0.6149
 3327SOL    HW121617   3.212   1.491   2.330  0.5518  0.5777 -2.7037
 3327SOL    HW221618   3.150   1.624   2.363  1.3468 -1.1686  1.1390
 3328SOL     OW21619   3.877   0.318   4.358 -0.0769 -0.6941  0.7210
 3328SOL    HW121620   3.810   0.362   4.306  0.4698 -1.7310 -0.8590
 3328SOL    HW221621   3.925   0.381   4.411  1.0170  1.1392 -2.4933
 3329SOL     OW21622   2.199   0.692   6.582  0.1172 -0.1417  0.1767
 3329SOL    HW121623   2.234   0.655   6.663 -0.8527 -1.5841 -0.0753
 3329SOL    HW221624   2.263   0.667   6.515 -0.2078  1.6215 -0.8001
 3330SOL     OW21625   1.364   0.978   6.909  0.4483  0.1434  0.2610
 3330SOL    HW121626   1.401   0.912   6.968  3.2466 -1.3335 -3.1401
 3330SOL    HW221627   1.272   0.952   6.907  0.1624  1.2298 -0.8296
 3331SOL     OW21628   3.956   4.576   9.461 -0.1570  0.2981  0.0732
 3331SOL    HW121629   3.996   4.663   9.465  0.5974 -0.0988  1.1802
 3331SOL    HW221630   4.033   4.521   9.443  0.2108 -0.7158  4.8584
 3332SOL     OW21631   4.683   2.928   2.881  0.1413  0.6326 -0.1846
 3332SOL    HW121632   4.655   2.928   2.973 -0.5912  1.7484 -0.4129
 3332SOL    HW221633   4.624   2.858   2.853  1.9933 -0.3438 -1.6120
 3333SOL     OW21634   2.652   1.158  11.711  0.5524 -0.3345  0.1364
 3333SOL    HW121635   2.710   1.230  11.688 -0.6338  0.6248  0.1482
 3333SOL    HW221636   2.622   1.180  11.799 -1.0569  0.6150 -0.6513
 3334SOL     OW21637   4.368   1.172   0.675  0.2867 -0.1906 -0.3777
 3334SOL    HW121638   4.367   1.261   0.640  2.5861 -0.1968 -0.4318
 3334SOL    HW221639   4.284   1.133   0.649 -1.5761  2.3814  1.7272
 3335SOL     OW21640   1.846   2.692  14.089  0.3663 -0.6574  0.1876
 3335SOL    HW121641   1.785   2.681  14.162 -1.1348 -0.6016 -1.0654
 3335SOL    HW221642   1.816   2.630  14.023 -1.1872  2.2351 -1.8088
 3336SOL     OW21643   0.369   0.646   1.655 -0.5254  0.0919  0.0252
 3336SOL    HW121644   0.419   0.568   1.678 -0.2946  0.4050  0.5764
 3336SOL    HW221645   0.297   0.615   1.599 -1.1474  0.3186  0.6888
 3337SOL     OW21646   1.936   0.649   6.571 -0.5447 -0.5643 -0.3054
 3337SOL    HW121647   2.017   0.683   6.533  0.4600 -1.3065  1.1519
 3337SOL    HW221648   1.953   0.641   6.665 -0.5496 -0.5781 -0.3056
 3338SOL     OW21649   2.105   2.862  10.353 -0.3579  0.0627 -0.0601
 3338SOL    HW121650   2.181   2.885  10.405  0.6100 -2.5083 -0.3160
 3338SOL    HW221651   2.127   2.775  10.319 -2.1849  0.2972 -1.8898
 3339SOL     OW21652   1.305   2.649   0.296 -0.3003 -0.2669 -0.3391
 3339SOL    HW121653   1.382   2.614   0.251  0.1860  2.1767 -1.3705
 3339SOL    HW221654   1.229   2.620   0.245  0.5172 -0.0124 -1.6814
 3340SOL     OW21655   0.349   0.286   7.272 -0.5376  0.3288 -0.2110
 3340SOL    HW121656   0.299   0.269   7.192 -0.2076  4.1405 -1.2205
 3340SOL    HW221657   0.379   0.376   7.259 -0.6031  0.2946 -0.5923
 3341SOL     OW21658   2.428   3.001   5.713  0.4091 -0.4637 -0.3392
 3341SOL    HW121659   2.501   2.976   5.657  0.0264  0.3473 -1.2039
 3341SOL    HW221660   2.474   3.008   5.797 -1.8988 -2.1935  1.0671
 3342SOL     OW21661   2.731   0.292   1.111 -0.5465 -0.4152  0.2319
 3342SOL    HW121662   2.704   0.312   1.021 -1.8810 -1.3875  0.4100
 3342SOL    HW221663   2.820   0.328   1.110 -1.2425  1.3396  4.3507
 3343SOL     OW21664   1.090   0.478   5.406 -0.1953  0.0807 -0.0487
 3343SOL    HW121665   1.028   0.494   5.478  0.0694 -0.8101  0.3720
 3343SOL    HW221666   1.035   0.508   5.333 -0.1630  0.6090  0.1416
 3344SOL     OW21667   4.088   0.369   5.957 -0.4655 -0.0903  0.0356
 3344SOL    HW121668   4.172   0.413   5.942 -1.1658  1.1518 -0.2099
 3344SOL    HW221669   4.104   0.289   5.906 -0.8173 -0.0792 -0.0944
 3345SOL     OW21670   2.785   3.177   7.768  0.1220 -0.3911 -0.1403
 3345SOL    HW121671   2.697   3.140   7.772 -0.4666  1.1991  1.6567
 3345SOL    HW221672   2.814   3.125   7.693 -1.1641 -1.0833 -0.1693
 3346SOL     OW21673   4.673   1.438   6.013  0.2558 -0.6502 -0.3916
 3346SOL    HW121674   4.714   1.356   6.041  0.6760 -0.7974 -1.4671
 3346SOL    HW221675   4.685   1.488   6.094 -0.1678 -1.2217  0.0300
 3347SOL     OW21676   1.155   1.440  12.465  0.2655 -0.3130  0.6638
 3347SOL    HW121677   1.228   1.472  12.412 -2.6362 -0.1788 -3.2353
 3347SOL    HW221678   1.176   1.347  12.472 -1.3564 -0.7449 -0.1341
 3348SOL     OW21679   1.218   3.731   9.272 -0.2605  0.1282 -0.2240
 3348SOL    HW121680   1.267   3.813   9.283 -0.9312  0.7203 -1.5568
 3348SOL    HW221681   1.248   3.692   9.354  0.8234 -0.8860 -1.0991
 3349SOL     OW21682   0.375   4.006  12.644 -0.2589 -0.2388  0.1339
 3349SOL    HW121683   0.304   4.010  12.708  1.1667 -2.8028  1.8547
 3349SOL    HW221684   0.366   4.099  12.621  0.2848  0.1783  1.6076
 3350SOL     OW21685   3.616   1.381   8.412 -0.1505  0.2779 -0.5313
 3350SOL    HW121686   3.650   1.432   8.339  0.9798  0.0962 -0.1188
 3350SOL    HW221687   3.701   1.366   8.453 -0.5876 -0.0288  0.2712
 3351SOL     OW21688   3.361   1.326   8.306 -0.7333  0.1584  0.4408
 3351SOL    HW121689   3.335   1.395   8.245  1.6809  0.4315 -0.3102
 3351SOL    HW221690   3.454   1.348   8.318 -0.6537 -0.5668  1.1854
 3352SOL     OW21691   4.146   1.670   1.882  0.6125  0.0266  0.1559
 3352SOL    HW121692   4.069   1.723   1.904 -0.3539 -2.6846  3.3479
 3352SOL    HW221693   4.110   1.589   1.845  0.5482 -0.7593  1.9495
 3353SOL     OW21694   1.457   2.682   7.575 -0.3542 -0.4575  0.0693
 3353SOL    HW121695   1.510   2.725   7.642  0.6862 -1.6956  0.0390
 3353SOL    HW221696   1.447   2.753   7.510  0.3079 -1.2873 -0.9425
 3354SOL     OW21697   4.092   0.770   5.948  0.1867 -0.4651 -0.0765
 3354SOL    HW121698   4.162   0.705   5.949  1.4377  0.8886  0.0860
 3354SOL    HW221699   4.113   0.818   6.028 -0.8643  1.9920 -1.2744
 3355SOL     OW21700   4.317   1.468   2.761 -0.6524 -0.7282 -0.6899
 3355SOL    HW121701   4.245   1.450   2.822  1.2880 -1.5274  1.3704
 3355SOL    HW221702   4.264   1.517   2.698 -1.6561  1.8354  2.1284
 3356SOL     OW21703   4.341   4.467   4.792 -0.5574 -0.2362  0.0420
 3356SOL    HW121704   4.291   4.386   4.808  0.0098 -0.7053 -0.5779
 3356SOL    HW221705   4.430   4.435   4.778 -1.2828 -1.2923 -2.1884
 3357SOL     OW21706   2.627   3.866  11.759  0.1729  0.1756  0.4786
 3357SOL    HW121707   2.630   3.826  11.673  0.3608 -0.7189  0.9076
 3357SOL    HW221708   2.682   3.806  11.809  2.5711  1.2836 -0.8451
 3358SOL     OW21709   1.593   0.383   9.877 -0.1598  0.2529 -0.0158
 3358SOL    HW121710   1.558   0.472   9.873  0.0071  0.3919  1.4203
 3358SOL    HW221711   1.530   0.354   9.812  0.2668  0.2526 -0.4260
 3359SOL     OW21712   1.663   2.336  10.558  0.7013  0.0965 -0.5209
 3359SOL    HW121713   1.634   2.263  10.613 -0.6095 -1.6719 -3.5548
 3359SOL    HW221714   1.697   2.398  10.622  0.3999 -0.3511  0.0727
 3360SOL     OW21715   0.683   0.465   0.749 -0.0159  0.4641 -0.0800
 3360SOL    HW121716   0.646   0.516   0.677  0.2909 -0.7311 -1.0818
 3360SOL    HW221717   0.615   0.441   0.812  0.0264  1.1443  0.2245
 3361SOL     OW21718   1.982   2.228   2.901  0.5019 -0.0995  0.3452
 3361SOL    HW121719   2.044   2.202   2.969  1.0414 -1.1704 -0.5607
 3361SOL    HW221720   2.035   2.265   2.830  0.2043 -0.8206 -0.2526
 3362SOL     OW21721   3.131   2.439   1.188 -0.0653 -0.0063  0.1845
 3362SOL    HW121722   3.072   2.504   1.225 -1.9619 -0.7227 -1.5753
 3362SOL    HW221723   3.074   2.373   1.149  0.4665 -1.1041  1.2689
 3363SOL     OW21724   1.765   1.394   8.579  0.1935  0.4470  0.2643
 3363SOL    HW121725   1.807   1.352   8.653 -0.8624 -0.7087  0.2009
 3363SOL    HW221726   1.847   1.424   8.539  0.2298  1.8960  1.4095
 3364SOL     OW21727   4.090   0.845   8.070  0.5107  0.2411 -0.2902
 3364SOL    HW121728   4.103   0.833   7.975  0.3662 -0.6413 -0.2044
 3364SOL    HW221729   4.175   0.819   8.105  1.2501  0.2549 -2.0374
 3365SOL     OW21730   2.744   3.582   3.090  0.0166  0.6610 -0.3278
 3365SOL    HW121731   2.838   3.589   3.105  0.1206  0.0320 -0.7055
 3365SOL    HW221732   2.710   3.651   3.147  0.4642  0.9896 -0.4572
 3366SOL     OW21733   0.507   0.944   7.164  0.2240 -0.4417 -0.7627
 3366SOL    HW121734   0.584   0.902   7.203  0.0747 -0.8174 -0.8775
 3366SOL    HW221735   0.524   1.038   7.157  0.9534 -0.2979  3.0734
 3367SOL     OW21736   0.072   1.364   2.110 -0.7071 -0.1104 -0.0283
 3367SOL    HW121737   0.037   1.297   2.169 -2.5786  2.3072  1.5810
 3367SOL    HW221738   4.733   1.411   2.085 -0.0977  2.7071  3.1918
 3368SOL     OW21739   1.121   0.171   8.263  0.4151  0.1889  0.0390
 3368SOL    HW121740   1.133   0.137   8.174 -0.8733 -0.1585 -0.0130
 3368SOL    HW221741   1.170   0.251   8.248  1.2598 -0.3668 -0.1717
 3369SOL     OW21742   0.480   0.641   4.047 -0.1317  0.6526 -0.2769
 3369SOL    HW121743   0.571   0.629   4.073  0.1341  0.1957 -1.4243
 3369SOL    HW221744   0.493   0.683   3.961  0.6800  1.1892  0.1013
 3370SOL     OW21745   2.945   2.544   4.228  0.1660  0.1436  0.0546
 3370SOL    HW121746   2.900   2.533   4.312  1.4425  3.4205  1.1555
 3370SOL    HW221747   2.909   2.470   4.179 -0.2103  0.6177 -0.3836
 3371SOL     OW21748   3.380   3.262   4.981  0.0570  0.0438 -0.3099
 3371SOL    HW121749   3.441   3.267   5.054  2.1155 -2.4050 -1.8679
 3371SOL    HW221750   3.388   3.351   4.948  0.9932 -0.0913 -0.4586
 3372SOL     OW21751   0.920   3.653   9.370 -0.3092 -0.0156 -0.0039
 3372SOL    HW121752   0.898   3.678   9.280 -0.6669 -2.9272 -0.7040
 3372SOL    HW221753   1.008   3.691   9.374 -0.6070  0.9114 -2.1107
 3373SOL     OW21754   3.476   0.956   7.561 -0.6750  1.0438  0.1839
 3373SOL    HW121755   3.571   0.956   7.574 -0.6460  0.6865 -0.0166
 3373SOL    HW221756   3.448   0.889   7.623  0.9122  2.5324  2.4894
 3374SOL     OW21757   4.401   3.408  11.218  0.8861 -0.0247  0.0972
 3374SOL    HW121758   4.386   3.411  11.312  0.7828 -1.1408  0.1134
 3374SOL    HW221759   4.308   3.401  11.197  0.6100 -0.1581  1.4053
 3375SOL     OW21760   1.348   0.174   1.481 -0.1314 -0.0848  0.1178
 3375SOL    HW121761   1.417   0.108   1.474  1.5923  1.9514 -1.8883
 3375SOL    HW221762   1.394   0.249   1.519 -1.1176  0.2390  0.6690
 3376SOL     OW21763   0.464   1.706  13.068  0.0315 -0.1059  0.7294
 3376SOL    HW121764   0.476   1.688  13.161 -1.0925 -0.2936  0.8464
 3376SOL    HW221765   0.376   1.667  13.062  0.2564 -0.5096 -0.0084
 3377SOL     OW21766   0.019   3.731  11.915  0.2302  0.1470 -0.4904
 3377SOL    HW121767   0.054   3.674  11.847  1.1898 -0.8529  0.8466
 3377SOL    HW221768   0.049   3.819  11.891  1.8420 -0.4851 -0.7782
 3378SOL     OW21769   2.614   0.355   6.105  0.2749 -0.2407  0.4431
 3378SOL    HW121770   2.630   0.282   6.045  0.7861  1.7879 -1.9436
 3378SOL    HW221771   2.547   0.324   6.166 -0.0144  2.8981  1.7222
 3379SOL     OW21772   3.296   4.507   2.562  0.1907 -0.0881  0.1920
 3379SOL    HW121773   3.220   4.473   2.515  0.5523 -0.6834  0.0313
 3379SOL    HW221774   3.259   4.547   2.641  0.5158  1.0960 -0.2550
 3380SOL     OW21775   0.885   0.918  16.494  0.1014 -0.5035  0.1285
 3380SOL    HW121776   0.856   0.837  16.536  2.4478 -0.0924  2.4942
 3380SOL    HW221777   0.963   0.881  16.453  0.4150 -0.2383  0.4828
 3381SOL     OW21778   1.155   4.493   3.427 -0.8839 -0.1436  0.7817
 3381SOL    HW121779   1.227   4.555   3.414 -1.0722  0.2485  1.5912
 3381SOL    HW221780   1.205   4.411   3.426  1.8911  1.5710 -1.1951
 3382SOL     OW21781   0.199   3.706   5.907  0.5769  0.2388 -0.2374
 3382SOL    HW121782   0.234   3.619   5.925 -1.4654 -0.4292  0.5668
 3382SOL    HW221783   0.190   3.737   5.997 -0.2302 -0.3746 -0.1135
 3383SOL     OW21784   1.502   2.806   9.477 -0.8522  0.0188  0.4579
 3383SOL    HW121785   1.471   2.748   9.406 -0.4262 -0.5177  0.7144
 3383SOL    HW221786   1.421   2.800   9.528  0.1932 -3.2354  1.7352
 3384SOL     OW21787   4.130   4.451   3.628 -0.6205 -0.1735 -0.1145
 3384SOL    HW121788   4.225   4.457   3.640 -0.7787 -0.9238  1.5452
 3384SOL    HW221789   4.101   4.507   3.700 -2.1000 -1.1652  0.0508
 3385SOL     OW21790   0.215   1.292  12.748  0.7541 -0.2403 -0.1841
 3385SOL    HW121791   0.303   1.262  12.727  1.0636 -0.3538  1.3025
 3385SOL    HW221792   0.168   1.208  12.741 -0.6405  0.6730 -1.9078
 3386SOL     OW21793   0.145   3.719  13.448  0.2708 -0.1713  0.1130
 3386SOL    HW121794   0.202   3.652  13.484 -1.4597 -1.5703  0.2416
 3386SOL    HW221795   0.070   3.661  13.440  0.1404  0.2070 -1.3748
 3387SOL     OW21796   4.233   3.204   5.852  0.1505 -0.4597 -0.6022
 3387SOL    HW121797   4.156   3.152   5.872 -0.3687  0.8314  0.7436
 3387SOL    HW221798   4.245   3.174   5.762 -1.3486  1.9053 -1.6088
 3388SOL     OW21799   0.954   0.928   8.198 -0.4129 -0.2054 -1.0770
 3388SOL    HW121800   0.881   0.982   8.228 -0.0491 -1.9501  2.8667
 3388SOL    HW221801   0.956   0.853   8.257  2.3480  1.2140  0.5774
 3389SOL     OW21802   4.316   4.500  11.302  0.1883  0.0605 -0.5018
 3389SOL    HW121803   4.228   4.464  11.297  0.1285  0.0575  0.6974
 3389SOL    HW221804   4.303   4.591  11.276 -0.4597  0.2080  0.3571
 3390SOL     OW21805   4.708   2.972   4.018 -0.0751  0.1131 -0.5499
 3390SOL    HW121806   4.649   2.971   3.943  0.8201  1.1064 -1.2660
 3390SOL    HW221807   4.656   2.926   4.084  0.3236  1.5001  0.7422
 3391SOL     OW21808   0.152   2.844   6.055 -0.1131 -0.0956 -0.3343
 3391SOL    HW121809   0.110   2.928   6.033 -0.4267 -0.1911 -0.0878
 3391SOL    HW221810   0.116   2.826   6.141 -1.9039 -0.4498 -1.1606
 3392SOL     OW21811   2.619   3.812   5.421 -0.1227  0.3862 -0.3364
 3392SOL    HW121812   2.544   3.767   5.382 -0.3443  0.4654 -0.0037
 3392SOL    HW221813   2.573   3.888   5.457 -0.7683 -0.4204  0.5550
 3393SOL     OW21814   0.179   1.666   2.075  0.2228  0.2446  0.2526
 3393SOL    HW121815   0.113   1.598   2.085  1.0888 -0.3206  2.0190
 3393SOL    HW221816   0.255   1.627   2.119  0.0541  0.6924  0.9411
 3394SOL     OW21817   4.248   3.618   7.530  0.2486  0.0959  0.2685
 3394SOL    HW121818   4.185   3.673   7.482 -0.7577 -0.5246  0.8748
 3394SOL    HW221819   4.270   3.547   7.470 -0.5866 -0.4913  0.6489
 3395SOL     OW21820   0.354   0.145  16.938 -0.3310  0.0012  0.3469
 3395SOL    HW121821   0.351   0.049  16.938 -0.0361 -0.0090 -0.3656
 3395SOL    HW221822   0.400   0.169  16.858 -0.7013 -1.8005 -0.4188
 3396SOL     OW21823   3.917   3.224   9.814  0.1304  0.0636  0.4033
 3396SOL    HW121824   3.938   3.248   9.723 -2.5417  1.0391  0.0384
 3396SOL    HW221825   3.936   3.130   9.812  1.4051  0.3221  0.1312
 3397SOL     OW21826   2.507   4.390  14.696 -0.0920  0.2693 -0.1560
 3397SOL    HW121827   2.492   4.301  14.665  1.7494  0.3954 -1.3846
 3397SOL    HW221828   2.599   4.384  14.723 -0.8973 -1.4232  2.2804
 3398SOL     OW21829   1.833   3.011   3.711  0.1676  0.2922 -0.3903
 3398SOL    HW121830   1.822   3.061   3.792 -2.0455  0.1433 -0.6015
 3398SOL    HW221831   1.904   3.058   3.669 -0.6197  0.8785 -1.0654
 3399SOL     OW21832   1.453   2.271  17.566 -0.0457 -0.2041  0.0450
 3399SOL    HW121833   1.544   2.247  17.579 -0.0376 -0.7484 -1.0108
 3399SOL    HW221834   1.455   2.264  17.470  0.7350  0.9236 -0.0115
 3400SOL     OW21835   4.485   3.448  10.804  0.5354 -0.6049 -0.0748
 3400SOL    HW121836   4.478   3.389  10.878 -2.2398 -1.0094 -0.6820
 3400SOL    HW221837   4.437   3.399  10.737 -0.4800 -0.5917  0.6526
 3401SOL     OW21838   3.293   3.909   6.737 -0.0256  0.5636 -0.0278
 3401SOL    HW121839   3.207   3.920   6.696 -0.8840 -1.0922  1.3210
 3401SOL    HW221840   3.262   3.891   6.825 -0.1269  1.3336  0.0859
 3402SOL     OW21841   2.769   3.094   1.066  0.6513 -0.2943  0.3341
 3402SOL    HW121842   2.860   3.116   1.086  0.4827  1.3280 -0.6559
 3402SOL    HW221843   2.769   2.998   1.067 -2.0774 -0.3322 -2.4724
 3403SOL     OW21844   3.445   1.972   7.520  0.5137  0.3123  0.5025
 3403SOL    HW121845   3.428   1.919   7.443  2.5473 -1.3650  1.2300
 3403SOL    HW221846   3.494   2.044   7.480 -0.1948 -0.5511 -1.9249
 3404SOL     OW21847   3.533   3.209   8.612  0.2835  0.2092 -0.0704
 3404SOL    HW121848   3.456   3.154   8.629  0.1528  0.3593 -0.1704
 3404SOL    HW221849   3.570   3.221   8.699  1.0491 -1.4202 -0.1617
 3405SOL     OW21850   4.534   4.716  13.980  0.1000  0.0043  0.3582
 3405SOL    HW121851   4.532   4.676  13.893 -0.8092  0.9083 -0.0384
 3405SOL    HW221852   4.619   0.019  13.974 -0.1239  0.6273  1.6591
 3406SOL     OW21853   2.744   4.737  14.075 -0.2391  0.1030 -0.4230
 3406SOL    HW121854   2.661   0.043  14.085  0.1396  0.1011  2.7536
 3406SOL    HW221855   2.751   4.739  13.979  0.2008 -0.4687 -0.4006
 3407SOL     OW21856   2.335   3.108   4.861 -0.6669  0.1730 -0.2486
 3407SOL    HW121857   2.425   3.083   4.884 -1.3630 -0.9348  1.2518
 3407SOL    HW221858   2.319   3.198   4.890  1.3544  0.2120  0.7419
 3408SOL     OW21859   4.027   0.484   6.227  0.4067 -0.4011 -0.3942
 3408SOL    HW121860   4.029   0.444   6.140 -1.8142 -0.8556 -0.2507
 3408SOL    HW221861   3.942   0.529   6.227 -0.4422 -2.0114  1.1722
 3409SOL     OW21862   0.108   1.376   1.678  0.6497 -0.1480 -0.0715
 3409SOL    HW121863   0.203   1.370   1.664  0.8186  2.4133 -0.1063
 3409SOL    HW221864   0.091   1.446   1.615  0.3742  0.5645  0.7880
 3410SOL     OW21865   3.479   4.526  10.256  0.1892 -0.0670 -0.5641
 3410SOL    HW121866   3.552   4.583  10.231  1.2160 -1.1460 -0.0207
 3410SOL    HW221867   3.429   4.588  10.310 -1.7112 -1.6901 -0.4653
 3411SOL     OW21868   0.114   1.749  12.067  0.5235  0.1401  0.0638
 3411SOL    HW121869   0.026   1.762  12.030  0.6442  0.1756 -0.2113
 3411SOL    HW221870   0.150   1.703  11.991 -0.9769 -2.8002  1.1265
 3412SOL     OW21871   2.059   4.625   0.832  1.0819 -0.3810  0.0813
 3412SOL    HW121872   2.040   4.646   0.741  0.5108 -3.4004 -0.5029
 3412SOL    HW221873   2.137   4.681   0.839  1.5347 -1.0266  0.2204
 3413SOL     OW21874   3.039   0.087  14.664  0.5400  0.3728 -0.4395
 3413SOL    HW121875   3.101   0.153  14.696  1.0276 -0.1310 -0.3535
 3413SOL    HW221876   3.000   0.138  14.592 -3.2286 -2.2359 -0.2231
 3414SOL     OW21877   3.314   4.290   5.181  0.1366 -0.8793 -0.1969
 3414SOL    HW121878   3.317   4.291   5.085 -0.0934 -0.6000 -0.2008
 3414SOL    HW221879   3.406   4.288   5.208 -0.3840 -0.5211  1.5643
 3415SOL     OW21880   3.044   1.350  15.028  0.3749 -0.4162  0.6856
 3415SOL    HW121881   3.140   1.351  15.035  0.5621 -0.1211 -1.8743
 3415SOL    HW221882   3.038   1.306  15.113  0.1030  0.4199  1.0957
 3416SOL     OW21883   0.150   2.371   6.544  0.2380 -0.0299  0.2697
 3416SOL    HW121884   0.203   2.319   6.483  1.6806 -0.8164  2.1886
 3416SOL    HW221885   0.216   2.436   6.568  0.9497 -0.7361  0.2618
 3417SOL     OW21886   3.409   2.609  10.534  0.2991 -0.3633 -0.5852
 3417SOL    HW121887   3.352   2.672  10.491 -1.4122 -2.6919 -1.6958
 3417SOL    HW221888   3.400   2.626  10.627  0.1636 -2.0156 -0.2825
 3418SOL     OW21889   2.541   4.399   7.188 -0.3601 -0.0836  0.2217
 3418SOL    HW121890   2.578   4.345   7.258 -0.4573 -0.0632  0.2885
 3418SOL    HW221891   2.452   4.405   7.222 -0.4782 -2.4847  0.3290
 3419SOL     OW21892   0.117   0.496   4.972 -0.3350 -0.7114 -0.6780
 3419SOL    HW121893   0.084   0.433   5.037 -0.0169  0.3328  0.4973
 3419SOL    HW221894   0.164   0.564   5.020 -2.3642 -1.8366  2.9063
 3420SOL     OW21895   2.346   4.474   1.662 -0.7465 -0.6951 -0.3328
 3420SOL    HW121896   2.306   4.449   1.579 -1.1027  0.5331 -0.5338
 3420SOL    HW221897   2.273   4.452   1.719  0.5371  0.6323  1.8456
 3421SOL     OW21898   2.780   0.405   1.768  0.3360 -0.6726  0.1448
 3421SOL    HW121899   2.708   0.360   1.724 -0.1481 -0.5623  0.8309
 3421SOL    HW221900   2.852   0.342   1.774  1.4950  0.5833 -0.5160
 3422SOL     OW21901   4.226   0.850   0.809 -0.2170  0.0588  0.0469
 3422SOL    HW121902   4.227   0.889   0.896 -1.5370 -0.7977  0.4459
 3422SOL    HW221903   4.202   0.924   0.754  1.1912  0.4078 -0.0833
 3423SOL     OW21904   3.864   1.203   0.430 -0.1368  0.3455  0.8641
 3423SOL    HW121905   3.822   1.234   0.510  1.9476 -0.1591  2.1333
 3423SOL    HW221906   3.825   1.260   0.363  0.6309 -0.5718 -0.3623
 3424SOL     OW21907   3.284   1.065  10.983  0.1073  0.4157  0.2334
 3424SOL    HW121908   3.379   1.057  10.989  0.2549  1.0898 -1.1980
 3424SOL    HW221909   3.267   1.063  11.077  0.9249  1.4382  0.4101
 3425SOL     OW21910   0.315   3.196   6.051  0.4999  0.5943 -0.4338
 3425SOL    HW121911   0.298   3.271   5.994  0.3694  0.4456 -0.5886
 3425SOL    HW221912   0.238   3.144   6.028  0.9011  0.0918 -0.6439
 3426SOL     OW21913   2.051   3.988   4.766 -0.0517  0.5648 -0.4157
 3426SOL    HW121914   2.136   4.027   4.784  0.4213 -0.3956 -0.5968
 3426SOL    HW221915   2.037   4.013   4.674 -2.2239  0.5248 -0.0928
 3427SOL     OW21916   2.471   3.501   5.557  0.3506 -0.2843  0.2437
 3427SOL    HW121917   2.531   3.564   5.597  2.0847 -1.4263 -0.5508
 3427SOL    HW221918   2.468   3.541   5.470  0.4676 -2.5515 -0.8096
 3428SOL     OW21919   1.544   1.604   7.019  0.0085 -0.0552 -0.2217
 3428SOL    HW121920   1.606   1.531   7.026 -0.8391 -0.5773  1.6685
 3428SOL    HW221921   1.506   1.587   6.933 -0.3173  1.7317 -0.4376
 3429SOL     OW21922   3.741   3.786  11.785 -0.8410 -0.1506 -0.4173
 3429SOL    HW121923   3.720   3.709  11.838 -0.2752  0.8404  1.2410
 3429SOL    HW221924   3.799   3.838  11.840 -0.9382  0.1061 -0.5570
 3430SOL     OW21925   2.164   3.134   3.436 -0.0611  0.3795 -0.5473
 3430SOL    HW121926   2.101   3.113   3.367 -0.5599 -2.1484  0.7051
 3430SOL    HW221927   2.108   3.157   3.510  1.4347 -2.6653  1.5012
 3431SOL     OW21928   3.527   1.969  16.699 -0.1694  0.0495  0.4799
 3431SOL    HW121929   3.601   1.937  16.751 -0.9679 -1.7496  0.5108
 3431SOL    HW221930   3.477   2.025  16.757 -1.3106  0.0400 -0.4977
 3432SOL     OW21931   2.813   4.244   6.586  0.4014  0.5712 -0.8250
 3432SOL    HW121932   2.852   4.205   6.664  1.7632  2.2591 -0.6673
 3432SOL    HW221933   2.878   4.211   6.524  1.0195  1.6776 -0.7700
 3433SOL     OW21934   1.663   3.908   4.269  0.0551  0.2129  0.0418
 3433SOL    HW121935   1.665   3.959   4.350 -1.4477  0.6844 -0.2148
 3433SOL    HW221936   1.758   3.910   4.262  0.1182  3.1963  1.9538
 3434SOL     OW21937   0.214   0.857   6.738  0.5198 -0.6185  0.1007
 3434SOL    HW121938   0.250   0.802   6.808  0.1036  0.8865  1.5150
 3434SOL    HW221939   0.248   0.940   6.772  1.1157  0.3595 -2.9068
 3435SOL     OW21940   1.241   2.951   3.997  0.2167  0.4143  1.0245
 3435SOL    HW121941   1.160   2.993   4.024 -1.0450 -1.1444 -0.3410
 3435SOL    HW221942   1.197   2.868   3.979  0.1601  0.7524 -0.4706
 3436SOL     OW21943   2.743   0.721   1.911 -0.1989 -0.0121 -0.1511
 3436SOL    HW121944   2.661   0.741   1.865 -0.4316  0.7588  0.6006
 3436SOL    HW221945   2.809   0.755   1.852  1.3324 -1.3233  0.8249
 3437SOL     OW21946   1.221   0.852   3.014 -0.4378 -0.5375 -0.0993
 3437SOL    HW121947   1.175   0.767   3.014 -0.5413 -0.4749 -2.8099
 3437SOL    HW221948   1.303   0.819   3.051 -0.7416 -1.2618 -0.0566
 3438SOL     OW21949   3.766   2.136   2.212 -0.3025 -0.2984  0.4921
 3438SOL    HW121950   3.803   2.127   2.124 -2.1320  2.5191 -0.5416
 3438SOL    HW221951   3.766   2.232   2.219 -0.5536 -0.2930  0.4109
 3439SOL     OW21952   3.371   4.205   4.502  0.1125 -0.4532  0.6946
 3439SOL    HW121953   3.438   4.157   4.453 -0.6081 -0.6077 -0.1270
 3439SOL    HW221954   3.354   4.125   4.552 -1.0938  0.0764  1.1245
 3440SOL     OW21955   0.053   1.856   9.100  0.1190 -0.3876 -0.1849
 3440SOL    HW121956   4.714   1.803   9.111 -1.4224  1.6401 -1.3935
 3440SOL    HW221957   0.083   1.856   9.191 -2.3334  0.6387  0.6220
 3441SOL     OW21958   2.221   2.647   1.345  0.0478 -0.1535  0.0572
 3441SOL    HW121959   2.204   2.741   1.337  1.9580 -0.0161 -2.0577
 3441SOL    HW221960   2.137   2.616   1.311  1.5166 -1.9136 -1.8808
 3442SOL     OW21961   0.511   4.445   6.572 -0.3554 -0.0947  0.0941
 3442SOL    HW121962   0.582   4.420   6.630 -0.4847  1.2033  0.8045
 3442SOL    HW221963   0.475   4.362   6.541  0.9090 -1.2600  1.8117
 3443SOL     OW21964   3.637   2.949   9.065 -0.1855 -0.3104 -0.5598
 3443SOL    HW121965   3.566   2.930   9.004 -2.4072 -1.6140  2.4819
 3443SOL    HW221966   3.580   2.960   9.141  0.9235 -0.4090  0.3033
 3444SOL     OW21967   2.900   1.278  15.938 -0.4096 -0.1158 -0.1669
 3444SOL    HW121968   2.856   1.361  15.921 -0.8420 -0.3502 -0.2006
 3444SOL    HW221969   2.980   1.293  15.889 -1.4754 -0.5855 -2.0550
 3445SOL     OW21970   3.456   1.117   5.260  0.3583 -0.1188  0.4185
 3445SOL    HW121971   3.529   1.099   5.319 -1.9750 -0.2895  3.2526
 3445SOL    HW221972   3.456   1.040   5.203  2.7021 -0.3736  0.7620
 3446SOL     OW21973   0.437   0.855   5.420  0.1364 -0.5901  0.2589
 3446SOL    HW121974   0.349   0.887   5.438  0.6970  1.1259  0.0260
 3446SOL    HW221975   0.459   0.881   5.330  1.9243 -4.6415 -0.4458
 3447SOL     OW21976   0.051   4.273   8.824  0.7806  0.1712 -0.6652
 3447SOL    HW121977   0.085   4.360   8.804  3.6771 -0.8554 -0.1428
 3447SOL    HW221978   0.047   4.234   8.737  0.4841  0.6146 -0.8495
 3448SOL     OW21979   4.092   3.527   9.894  0.0106 -0.3424 -0.4485
 3448SOL    HW121980   4.118   3.438   9.919  2.8473  0.8593  0.8392
 3448SOL    HW221981   4.157   3.558   9.831  0.7866 -0.0264  0.5012
 3449SOL     OW21982   0.578   3.963   0.458  0.5711  0.1029  0.4922
 3449SOL    HW121983   0.630   4.008   0.525  1.1856  2.4220 -1.5186
 3449SOL    HW221984   0.573   3.875   0.493 -2.0056  0.1632  0.2812
 3450SOL     OW21985   1.216   1.759   5.891 -0.2127 -0.0642  0.0332
 3450SOL    HW121986   1.245   1.760   5.983 -1.7333 -0.1933  0.5140
 3450SOL    HW221987   1.241   1.850   5.874  0.0766 -0.0846  0.3307
 3451SOL     OW21988   2.035   3.004   6.939  0.2304 -0.2606  0.1778
 3451SOL    HW121989   2.107   2.951   6.905  0.6410 -0.9017  2.0914
 3451SOL    HW221990   1.966   2.956   6.894 -1.3495 -0.5361  2.9377
 3452SOL     OW21991   1.595   3.478  16.288 -0.0121  0.2312  0.2150
 3452SOL    HW121992   1.578   3.528  16.368  1.0873 -0.1708  0.7021
 3452SOL    HW221993   1.563   3.544  16.227  0.0702 -0.7580 -0.8834
 3453SOL     OW21994   4.539   0.175  13.343  0.1396 -0.3847  0.5530
 3453SOL    HW121995   4.446   0.183  13.364 -0.1325  1.0869 -1.2537
 3453SOL    HW221996   4.575   0.118  13.411 -0.0182 -0.3407  0.6728
 3454SOL     OW21997   0.448   1.214   9.181  0.3221  0.4100 -0.5135
 3454SOL    HW121998   0.468   1.221   9.087  2.4184  1.4544  0.0404
 3454SOL    HW221999   0.519   1.155   9.206  1.8274  3.7914  3.0729
 3455SOL     OW22000   4.496   0.384   4.484  0.0727 -0.7521  0.4406
 3455SOL    HW122001   4.590   0.392   4.470  0.1210  1.0262  1.7646
 3455SOL    HW222002   4.484   0.290   4.499  1.1248 -0.7451  1.3488
 3456SOL     OW22003   1.326   4.601   5.431  0.0101  0.0565 -0.2291
 3456SOL    HW122004   1.289   4.644   5.509  1.1593  1.3673 -0.4043
 3456SOL    HW222005   1.407   4.652   5.431  0.3304 -0.4438  0.3148
 3457SOL     OW22006   1.455   3.246   9.642  0.2823 -0.5288  0.2732
 3457SOL    HW122007   1.482   3.202   9.562  1.2689  0.8499 -0.1654
 3457SOL    HW222008   1.485   3.336   9.632 -0.4179 -0.5905 -2.2601
 3458SOL     OW22009   3.763   3.647  10.810  0.0189  0.0914  0.0049
 3458SOL    HW122010   3.841   3.663  10.758  0.0639 -1.8222 -0.5273
 3458SOL    HW222011   3.790   3.569  10.858  0.5761 -0.6728 -1.5583
 3459SOL     OW22012   1.163   4.693   7.783 -0.2961  0.1963  0.0457
 3459SOL    HW122013   1.094   4.681   7.848 -0.2498 -0.9657 -0.1204
 3459SOL    HW222014   1.195   4.606   7.761 -1.0377 -0.1105  0.1668
 3460SOL     OW22015   4.709   1.749   1.028  0.2462  0.5428 -0.2339
 3460SOL    HW122016   4.679   1.662   1.050  1.7413  0.6759  2.3451
 3460SOL    HW222017   0.004   1.789   1.108 -2.3473  0.2550  1.0371
 3461SOL     OW22018   0.698   0.200   6.013  0.0701  0.2174  0.0754
 3461SOL    HW122019   0.685   0.109   5.986  2.5607  0.0891 -0.7014
 3461SOL    HW222020   0.769   0.191   6.076  1.1753 -0.3944 -1.2701
 3462SOL     OW22021   3.144   1.596   3.336 -0.3995 -0.0216  0.3772
 3462SOL    HW122022   3.120   1.534   3.405 -0.2113 -2.2553 -1.5307
 3462SOL    HW222023   3.240   1.588   3.337 -0.3560  0.4455 -0.0575
 3463SOL     OW22024   2.058   4.548  15.584 -0.2438 -0.5924  0.0610
 3463SOL    HW122025   2.045   4.617  15.650 -1.9786 -0.7176 -0.1425
 3463SOL    HW222026   2.097   4.592  15.508  3.3207  1.5835  3.1823
 3464SOL     OW22027   4.273   2.758   6.718 -0.7332  0.0760 -0.5174
 3464SOL    HW122028   4.357   2.719   6.697 -1.0228  1.0856 -3.5720
 3464SOL    HW222029   4.259   2.720   6.805 -1.3154  1.5756  0.0424
 3465SOL     OW22030   4.420   0.670  17.503  0.0024 -0.0548  0.7097
 3465SOL    HW122031   4.353   0.738  17.510 -1.9696 -2.0828  1.3543
 3465SOL    HW222032   4.385   0.631  17.423  3.0460 -0.6004 -0.3848
 3466SOL     OW22033   1.581   2.920  14.250  0.4906 -0.2554  0.0328
 3466SOL    HW122034   1.601   2.936  14.158  1.2210  2.4646  0.6516
 3466SOL    HW222035   1.656   2.881  14.294 -1.3174 -0.7898  2.6177
 3467SOL     OW22036   2.114   4.543   3.986 -0.5643 -0.1243 -0.1368
 3467SOL    HW122037   2.121   4.589   4.070  2.8755 -2.3395  0.7996
 3467SOL    HW222038   2.162   4.604   3.930  1.7176 -1.6645  0.1628
 3468SOL     OW22039   1.551   4.077   6.832 -0.4279  0.0823 -0.3800
 3468SOL    HW122040   1.601   4.083   6.913  1.1138 -0.0323 -1.3321
 3468SOL    HW222041   1.599   4.140   6.779 -1.0263  0.7653 -0.1234
 3469SOL     OW22042   2.845   1.571   2.969 -0.0951  0.5442  0.4694
 3469SOL    HW122043   2.849   1.638   3.037  1.4818 -0.2723  1.1869
 3469SOL    HW222044   2.798   1.611   2.896 -1.6723  0.0809  1.2269
 3470SOL     OW22045   2.627   2.405   5.886  0.1683  1.0279 -0.0074
 3470SOL    HW122046   2.609   2.341   5.954  1.5265  2.2846  1.5326
 3470SOL    HW222047   2.616   2.351   5.807  0.6634 -0.8318  1.1950
 3471SOL     OW22048   2.266   3.134   0.714 -0.2569  0.2217  0.1360
 3471SOL    HW122049   2.322   3.060   0.738 -0.6488  0.3288  1.4002
 3471SOL    HW222050   2.178   3.106   0.740 -0.1421  0.0889  0.3870
 3472SOL     OW22051   4.515   2.123   8.246 -0.2872 -0.3447  0.0914
 3472SOL    HW122052   4.438   2.068   8.259  0.8284 -1.2507  2.9388
 3472SOL    HW222053   4.581   2.070   8.291  1.2676  2.8894  1.6028
 3473SOL     OW22054   2.919   1.507   4.128 -0.3373 -0.3697 -0.0964
 3473SOL    HW122055   2.974   1.582   4.104  0.5195 -0.6548  1.0225
 3473SOL    HW222056   2.923   1.510   4.223  0.1151  0.6283 -0.1490
 3474SOL     OW22057   3.313   2.488   8.596 -0.1975  0.3498 -0.5057
 3474SOL    HW122058   3.319   2.488   8.501  1.2652 -0.2620 -0.4023
 3474SOL    HW222059   3.254   2.415   8.614  2.4505 -1.9494 -1.1799
 3475SOL     OW22060   1.456   2.333  12.680  0.2897  0.3303 -0.1876
 3475SOL    HW122061   1.516   2.408  12.689 -0.7834  1.2442 -0.6475
 3475SOL    HW222062   1.496   2.292  12.602  0.3189 -0.7292  0.3863
 3476SOL     OW22063   3.307   1.015   6.197 -0.2529  0.4489 -0.2389
 3476SOL    HW122064   3.227   1.001   6.147  1.6910  2.2287 -3.8682
 3476SOL    HW222065   3.349   1.083   6.144  0.0372 -0.5801 -1.3204
 3477SOL     OW22066   2.503   0.638   6.148  0.0065  0.1279 -0.7775
 3477SOL    HW122067   2.564   0.565   6.140  0.8187  0.9416 -1.9986
 3477SOL    HW222068   2.484   0.656   6.056  0.0078  2.3477 -0.3600
 3478SOL     OW22069   0.331   2.899   7.776 -0.2175  0.5838 -0.0374
 3478SOL    HW122070   0.277   2.973   7.803  3.0815  2.5567  1.0708
 3478SOL    HW222071   0.413   2.914   7.823 -0.6603 -0.5916  1.1181
 3479SOL     OW22072   0.016   3.295   8.565 -0.0084  0.5800  0.0633
 3479SOL    HW122073   0.081   3.307   8.634  0.3140  1.0009 -0.3129
 3479SOL    HW222074   4.685   3.358   8.578 -0.9593 -0.3001 -0.8055
 3480SOL     OW22075   0.840   1.181  11.453  0.0339 -0.0426 -0.5772
 3480SOL    HW122076   0.810   1.260  11.498 -0.7722 -0.7443  0.1095
 3480SOL    HW222077   0.792   1.192  11.371  0.8633 -2.5012 -1.4025
 3481SOL     OW22078   3.151   0.671   8.893  0.4565 -0.3071 -0.2065
 3481SOL    HW122079   3.101   0.685   8.974 -0.0930 -1.0531 -0.4218
 3481SOL    HW222080   3.218   0.609   8.924  2.0667 -0.0084 -3.0785
 3482SOL     OW22081   1.303   3.860   8.146  0.3282 -0.8101  0.4652
 3482SOL    HW122082   1.358   3.935   8.122  0.0880 -0.1902  1.8040
 3482SOL    HW222083   1.220   3.898   8.116  0.8540 -0.8353 -1.0363
 3483SOL     OW22084   1.091   3.065   2.605 -0.5591 -0.4160 -0.1302
 3483SOL    HW122085   1.130   3.129   2.664 -0.9702  0.0951 -0.4134
 3483SOL    HW222086   1.123   2.987   2.650 -0.3531 -0.2767 -0.0362
 3484SOL     OW22087   0.757   2.845   1.805  0.0785 -0.1188 -0.2188
 3484SOL    HW122088   0.726   2.853   1.895 -1.0305  0.5094 -0.6512
 3484SOL    HW222089   0.704   2.770   1.780  0.8777 -0.8591  0.3432
 3485SOL     OW22090   2.968   1.319   6.678  0.1325  0.0102  0.6889
 3485SOL    HW122091   2.992   1.245   6.622  0.5353  0.8989 -0.3090
 3485SOL    HW222092   2.920   1.270   6.745  0.6993  0.3025  1.3094
 3486SOL     OW22093   1.028   4.591  10.158  0.2388 -0.0154 -0.2712
 3486SOL    HW122094   1.117   4.558  10.155  0.1059 -0.4339  0.6221
 3486SOL    HW222095   0.979   4.514  10.185  0.4403  0.3759  1.2070
 3487SOL     OW22096   3.725   1.791   3.612 -0.1089 -0.4772  0.0249
 3487SOL    HW122097   3.786   1.857   3.645  0.3000  0.1360 -1.9971
 3487SOL    HW222098   3.785   1.721   3.588  0.6145 -0.4125  1.6250
 3488SOL     OW22099   2.041   0.883   7.806  0.1482  0.0659 -0.0756
 3488SOL    HW122100   2.096   0.934   7.746 -1.0885  1.4067 -0.0679
 3488SOL    HW222101   2.004   0.958   7.852  0.0473 -1.6749  2.6627
 3489SOL     OW22102   2.907   2.220  15.071 -0.3982  0.4964  0.8002
 3489SOL    HW122103   2.990   2.228  15.119  0.5853  0.0456 -0.8445
 3489SOL    HW222104   2.942   2.157  15.008 -0.4499  2.1307 -0.8700
 3490SOL     OW22105   1.136   2.161  13.700  0.3872 -0.2394  0.6811
 3490SOL    HW122106   1.046   2.131  13.705  0.7056 -1.3641 -0.4535
 3490SOL    HW222107   1.156   2.185  13.791  1.4883  0.4850  0.2516
 3491SOL     OW22108   1.960   1.549  15.955 -0.0165  0.0010  0.3604
 3491SOL    HW122109   1.961   1.468  15.905 -0.4479  1.4459 -1.9900
 3491SOL    HW222110   1.870   1.575  15.937 -0.4871 -1.0356  1.2502
 3492SOL     OW22111   1.911   0.111   7.015  0.2368 -0.0932  0.5415
 3492SOL    HW122112   1.995   0.071   6.995  0.1854 -0.0900  0.3124
 3492SOL    HW222113   1.939   0.195   7.053 -0.6400  0.8980 -0.9884
 3493SOL     OW22114   2.623   0.416   4.056 -0.4574 -0.2373 -0.4239
 3493SOL    HW122115   2.695   0.360   4.025  1.1816  2.2863 -1.2372
 3493SOL    HW222116   2.645   0.502   4.020 -1.8729  0.8629  1.4087
 3494SOL     OW22117   3.283   1.947  16.603  0.2538 -0.2380 -0.2377
 3494SOL    HW122118   3.238   1.987  16.677 -0.8538 -1.0445 -0.4835
 3494SOL    HW222119   3.374   1.978  16.611  0.3753 -0.1794 -1.7527
 3495SOL     OW22120   4.274   3.054   2.374  0.0246  0.3670 -0.4187
 3495SOL    HW122121   4.247   3.012   2.293 -0.0720  0.7790 -0.5984
 3495SOL    HW222122   4.266   2.973   2.424  0.4337  0.2905 -0.4789
 3496SOL     OW22123   3.332   3.838  15.121 -0.2963  0.3609 -0.2338
 3496SOL    HW122124   3.274   3.909  15.147 -0.8893  0.7418 -2.5833
 3496SOL    HW222125   3.284   3.760  15.147 -0.7974  0.0646 -2.0245
 3497SOL     OW22126   2.041   4.050   7.543  0.5594 -0.2110  0.7830
 3497SOL    HW122127   1.989   3.977   7.575 -0.4381  0.1805  0.0493
 3497SOL    HW222128   2.129   4.023   7.568  0.2178 -1.2433  0.8665
 3498SOL     OW22129   1.931   1.312  15.822 -0.2052  0.2276 -0.5982
 3498SOL    HW122130   1.953   1.309  15.729 -1.9644 -0.5769 -0.9707
 3498SOL    HW222131   1.886   1.229  15.832 -0.1415  0.4960  1.9836
 3499SOL     OW22132   0.083   3.499  17.019  0.2056 -0.1809  0.1504
 3499SOL    HW122133   0.064   3.592  17.020  0.9764 -0.0271 -0.5639
 3499SOL    HW222134   0.074   3.481  16.926 -0.9570  0.5893  0.1257
 3500SOL     OW22135   3.991   3.033   8.435 -0.1555  0.0736  0.0305
 3500SOL    HW122136   3.910   3.019   8.386  0.0751  0.2879 -0.4167
 3500SOL    HW222137   4.051   3.050   8.363  1.0931  4.1617  1.9981
 3501SOL     OW22138   4.443   4.443   1.441 -0.2503  0.2935  0.4498
 3501SOL    HW122139   4.512   4.470   1.502 -0.1683  0.0402  0.4703
 3501SOL    HW222140   4.472   4.472   1.355  1.5982 -0.8455  0.6829
 3502SOL     OW22141   0.246   1.291   7.254 -0.7324  0.4029  0.3807
 3502SOL    HW122142   0.163   1.309   7.298 -0.3160  2.1164  0.4699
 3502SOL    HW222143   0.247   1.368   7.198 -1.9399 -0.1017 -0.3221
 3503SOL     OW22144   2.261   2.104   7.580 -0.3472 -0.0107  0.4664
 3503SOL    HW122145   2.240   2.120   7.672  0.4284 -0.3985  0.7082
 3503SOL    HW222146   2.281   2.194   7.553 -0.8461 -0.5047 -1.5330
 3504SOL     OW22147   4.345   2.456  13.640  0.2961  0.1904 -0.2526
 3504SOL    HW122148   4.415   2.440  13.703  1.3310  0.2079 -1.4075
 3504SOL    HW222149   4.283   2.491  13.705  1.0932 -0.7118  0.9990
 3505SOL     OW22150   0.166   4.043   2.433  0.3990 -0.2862  0.2647
 3505SOL    HW122151   0.260   4.039   2.414  0.5716 -0.1951  1.0948
 3505SOL    HW222152   0.145   3.954   2.405 -0.2531  0.2122 -0.8093
 3506SOL     OW22153   0.312   4.497   8.415 -0.3878  0.3923  0.1663
 3506SOL    HW122154   0.235   4.545   8.445 -0.1970 -0.2986  1.7534
 3506SOL    HW222155   0.370   4.553   8.363 -1.0029 -0.8305 -1.8114
 3507SOL     OW22156   0.496   1.896   7.046 -0.1896  0.5231 -0.2438
 3507SOL    HW122157   0.547   1.968   7.084  0.1417  0.4946 -0.6318
 3507SOL    HW222158   0.405   1.927   7.041  0.0170  1.0117 -0.9270
 3508SOL     OW22159   0.674   1.664  12.934 -0.2647 -0.3141  0.1276
 3508SOL    HW122160   0.730   1.697  13.005 -3.0234  1.5373  1.4564
 3508SOL    HW222161   0.592   1.653  12.982 -0.9746  1.7731 -0.6000
 3509SOL     OW22162   3.053   1.257   6.177  0.2216  0.3441  0.1354
 3509SOL    HW122163   2.978   1.302   6.216  0.4178  2.8709 -2.4139
 3509SOL    HW222164   3.011   1.200   6.113  1.5853  0.6587 -1.0215
 3510SOL     OW22165   1.184   4.515  12.419  0.4677 -0.2251  0.1423
 3510SOL    HW122166   1.217   4.496  12.331  0.3589 -1.1209  0.2958
 3510SOL    HW222167   1.268   4.547  12.452  1.2312 -0.2856 -1.6935
 3511SOL     OW22168   2.981   0.895   8.217  0.1534 -0.2320 -0.4088
 3511SOL    HW122169   2.964   0.833   8.288  0.9977 -0.5120 -0.4484
 3511SOL    HW222170   2.990   0.839   8.140  3.1312 -0.9540  0.4708
 3512SOL     OW22171   0.501   1.103   4.862  0.7720  0.7685  0.1047
 3512SOL    HW122172   0.588   1.122   4.826  0.3576  2.9200  0.2557
 3512SOL    HW222173   0.465   1.065   4.783  0.1620  2.3604 -0.3854
 3513SOL     OW22174   4.679   4.636   5.998 -0.0868  0.4582 -0.2396
 3513SOL    HW122175   0.001   4.656   5.928  0.4467 -1.5110 -0.3452
 3513SOL    HW222176   4.730   4.604   6.073 -0.9924 -1.0920 -0.2833
 3514SOL     OW22177   0.551   3.089   5.923  0.0917 -0.2587  0.1876
 3514SOL    HW122178   0.487   3.129   5.983  0.3992  1.8062 -0.8670
 3514SOL    HW222179   0.540   3.001   5.958  0.8158 -0.0787  0.8519
 3515SOL     OW22180   2.939   1.094   2.330 -0.2407 -0.6999 -0.0375
 3515SOL    HW122181   2.896   1.052   2.404 -0.2648  1.3077  1.0599
 3515SOL    HW222182   2.913   1.184   2.312 -2.4114 -1.6429 -1.6539
 3516SOL     OW22183   4.170   0.026   2.307  0.3519 -0.1162 -0.4563
 3516SOL    HW122184   4.168   4.692   2.246 -0.8964 -0.4530 -0.0002
 3516SOL    HW222185   4.215   0.090   2.250 -0.0708 -0.2740 -0.9664
 3517SOL     OW22186   4.024   1.488   4.728  0.1350  0.3484 -0.5854
 3517SOL    HW122187   4.036   1.506   4.635 -0.5384  0.5434 -0.6321
 3517SOL    HW222188   4.075   1.561   4.762 -0.8955  0.8249 -0.0828
 3518SOL     OW22189   3.538   0.067   7.563 -0.4803  0.5171 -0.4918
 3518SOL    HW122190   3.531   0.118   7.481 -1.7044 -0.5110 -1.0235
 3518SOL    HW222191   3.450   0.031   7.561 -0.5812  0.7931 -1.2300
 3519SOL     OW22192   3.494   1.206   2.101 -0.0849 -0.3723  0.0762
 3519SOL    HW122193   3.528   1.117   2.101 -0.8086 -0.6512 -0.4050
 3519SOL    HW222194   3.455   1.203   2.188  0.5093  0.1648  0.3569
 3520SOL     OW22195   1.535   0.239   7.726 -0.1857 -0.2626  0.5075
 3520SOL    HW122196   1.550   0.210   7.636 -0.2478  1.3285 -0.0288
 3520SOL    HW222197   1.502   0.328   7.710 -2.1716 -1.2459 -0.7859
 3521SOL     OW22198   4.691   1.627   3.187 -0.0647  0.8000 -0.1094
 3521SOL    HW122199   0.004   1.558   3.225 -2.4421 -0.7437  0.4311
 3521SOL    HW222200   4.722   1.624   3.097 -1.6200 -0.2191 -0.6058
 3522SOL     OW22201   0.656   1.824   8.041 -0.6574 -0.4532 -0.0796
 3522SOL    HW122202   0.718   1.751   8.046  0.8656  0.7338 -1.7189
 3522SOL    HW222203   0.640   1.834   8.135  0.1312 -1.1643  0.1292
 3523SOL     OW22204   1.888   1.890  14.709 -0.1886 -0.4398 -0.3802
 3523SOL    HW122205   1.796   1.897  14.735 -0.0875 -0.1984 -0.0770
 3523SOL    HW222206   1.883   1.885  14.614  1.4599  0.4838 -0.5179
 3524SOL     OW22207   0.576   1.277  12.458 -0.0432 -0.1126 -0.2094
 3524SOL    HW122208   0.648   1.282  12.395  0.1883 -0.8447 -0.0049
 3524SOL    HW222209   0.529   1.357  12.437  1.0294  0.7904  0.7814
 3525SOL     OW22210   0.712   3.320   1.731 -0.1793 -0.0703 -0.3509
 3525SOL    HW122211   0.648   3.303   1.800  1.6074 -2.6140  0.6579
 3525SOL    HW222212   0.756   3.237   1.716  0.1444  0.0268  0.0950
 3526SOL     OW22213   3.381   2.378   4.468  0.0377  0.4143  0.6156
 3526SOL    HW122214   3.472   2.405   4.460  0.2333 -0.3675  0.2979
 3526SOL    HW222215   3.383   2.290   4.431  0.6708  0.7796 -0.2153
 3527SOL     OW22216   1.908   1.556   3.943 -0.1107 -0.3528  0.0708
 3527SOL    HW122217   1.993   1.522   3.972  0.7805  1.0744 -0.8676
 3527SOL    HW222218   1.916   1.559   3.847 -1.4909 -1.4874 -0.0800
 3528SOL     OW22219   1.750   4.008   4.509 -0.7198  0.2836  0.2011
 3528SOL    HW122220   1.846   4.015   4.509 -0.6875 -0.1582 -0.2518
 3528SOL    HW222221   1.727   4.063   4.584 -1.1897 -0.4833  0.6126
 3529SOL     OW22222   0.874   3.014   2.129 -0.0876  0.1092  0.3061
 3529SOL    HW122223   0.779   3.012   2.126 -0.0964  2.8252 -1.4012
 3529SOL    HW222224   0.892   3.096   2.083  0.5448 -0.8422 -1.1848
 3530SOL     OW22225   1.126   1.384   1.695  0.3362  0.5178  0.3349
 3530SOL    HW122226   1.047   1.353   1.650  1.7652  2.2363 -3.4015
 3530SOL    HW222227   1.182   1.307   1.683 -2.5308 -1.6774  0.9724
 3531SOL     OW22228   0.085   4.222   3.367 -0.0615 -0.2227 -0.3152
 3531SOL    HW122229   0.121   4.202   3.454  0.5384 -1.4906 -0.8613
 3531SOL    HW222230   0.101   4.316   3.360 -0.6496 -0.0668  0.3901
 3532SOL     OW22231   1.418   2.811   2.464  0.2295 -0.1477  0.3376
 3532SOL    HW122232   1.456   2.871   2.528  0.1560 -1.4505  1.5972
 3532SOL    HW222233   1.465   2.836   2.385  1.8545 -2.2633  0.6379
 3533SOL     OW22234   2.695   4.735   6.856 -0.4371  0.0847 -0.2397
 3533SOL    HW122235   2.713   0.022   6.946  0.6021  0.5015 -0.5645
 3533SOL    HW222236   2.646   4.653   6.862  2.2276 -1.5201 -0.1315
 3534SOL     OW22237   2.114   3.950  13.611  0.1342 -0.2343 -0.4803
 3534SOL    HW122238   2.113   3.862  13.574 -1.7868 -0.8048  0.9644
 3534SOL    HW222239   2.185   3.928  13.671  1.7377  1.2112 -1.8515
 3535SOL     OW22240   2.624   2.270   7.558 -0.7019  0.0367  0.4456
 3535SOL    HW122241   2.582   2.292   7.641  1.6056  1.2169  1.2971
 3535SOL    HW222242   2.553   2.306   7.504 -1.7978 -0.3422  1.6373
 3536SOL     OW22243   2.200   1.050   3.148  0.4012 -0.2283 -0.4782
 3536SOL    HW122244   2.129   0.986   3.155  0.4926 -0.2443  0.3324
 3536SOL    HW222245   2.208   1.056   3.053 -0.4234 -0.6754 -0.5759
 3537SOL     OW22246   1.788   2.219   7.259 -0.3755 -0.0065  0.0881
 3537SOL    HW122247   1.799   2.151   7.326 -0.9224 -0.1965 -0.0209
 3537SOL    HW222248   1.832   2.291   7.306 -0.3239 -0.2441  0.4060
 3538SOL     OW22249   0.905   0.832  13.355 -0.6927 -0.0382  0.5424
 3538SOL    HW122250   0.820   0.790  13.370 -0.5774 -0.1041  1.0127
 3538SOL    HW222251   0.890   0.926  13.366  1.0010  0.3743 -0.7358
 3539SOL     OW22252   0.363   4.362   6.987  0.4338 -0.4209 -0.2813
 3539SOL    HW122253   0.394   4.271   6.996 -0.8421 -0.8453 -0.1996
 3539SOL    HW222254   0.278   4.337   7.023  0.4042  0.8450  0.5164
 3540SOL     OW22255   3.220   3.519   2.866  0.2027  0.2770 -0.5965
 3540SOL    HW122256   3.142   3.550   2.914  2.1789  0.5214  2.4497
 3540SOL    HW222257   3.227   3.428   2.894  0.3432  0.4629 -0.0342
 3541SOL     OW22258   3.322   0.802  16.853 -0.5693 -0.4736  0.1653
 3541SOL    HW122259   3.359   0.872  16.906  1.0059 -0.6729 -0.6764
 3541SOL    HW222260   3.378   0.810  16.775 -0.7765 -1.0442 -0.0466
 3542SOL     OW22261   2.321   2.683  14.902 -0.0077 -0.3973  0.2821
 3542SOL    HW122262   2.402   2.643  14.934 -1.9100 -3.7319  0.8918
 3542SOL    HW222263   2.360   2.770  14.889  0.7243 -0.6529  0.7914
 3543SOL     OW22264   0.450   2.425   5.842 -0.5132 -0.0774 -0.0917
 3543SOL    HW122265   0.534   2.444   5.884 -2.0191 -0.7473  3.2807
 3543SOL    HW222266   0.470   2.474   5.763  0.5479  0.6991  0.6648
 3544SOL     OW22267   0.173   1.397   9.266 -0.0576  0.3608 -0.1272
 3544SOL    HW122268   0.220   1.451   9.330 -1.5298  2.2209 -0.6037
 3544SOL    HW222269   0.080   1.402   9.288 -0.1858 -1.2076 -0.3124
 3545SOL     OW22270   1.266   1.783  16.529 -0.1001  0.1636  0.4378
 3545SOL    HW122271   1.186   1.794  16.579  0.5536 -0.6941  1.6664
 3545SOL    HW222272   1.271   1.688  16.524  0.7136  0.3166 -1.7941
 3546SOL     OW22273   3.767   0.361   9.140  0.1937 -0.6738  0.4606
 3546SOL    HW122274   3.785   0.299   9.211 -1.7811  0.8337  2.2864
 3546SOL    HW222275   3.671   0.363   9.135  0.4257 -0.7599 -3.4587
 3547SOL     OW22276   1.126   1.995   4.794  0.4565 -0.5445 -0.2866
 3547SOL    HW122277   1.112   2.088   4.773 -1.1417 -0.9107 -0.8519
 3547SOL    HW222278   1.218   1.985   4.770  0.7140 -0.6646  0.7416
 3548SOL     OW22279   0.836   2.379   2.418  0.1869  0.1192  0.3443
 3548SOL    HW122280   0.814   2.343   2.504 -1.3888 -1.6892 -0.8219
 3548SOL    HW222281   0.830   2.473   2.433 -2.2302  0.1114 -0.4723
 3549SOL     OW22282   0.928   2.784   2.802 -0.0515 -0.3191  0.1536
 3549SOL    HW122283   0.845   2.813   2.765  0.9457  1.4449 -0.6977
 3549SOL    HW222284   0.901   2.789   2.893 -2.6502 -1.3271 -0.5732
 3550SOL     OW22285   3.258   4.552   6.612  0.4815 -0.4015  0.2769
 3550SOL    HW122286   3.335   4.496   6.607 -0.8037 -2.0866 -1.1079
 3550SOL    HW222287   3.194   4.488   6.643 -2.0510  1.2696 -1.5223
 3551SOL     OW22288   3.158   0.789   2.950  0.6327  0.0537 -0.1632
 3551SOL    HW122289   3.147   0.884   2.946  1.6906  0.1472 -1.0296
 3551SOL    HW222290   3.130   0.778   3.040  1.8000 -0.1197  0.1825
 3552SOL     OW22291   1.223   2.187  13.992  0.0706  0.8629  0.1197
 3552SOL    HW122292   1.285   2.114  13.986  1.3814  1.8349  1.9172
 3552SOL    HW222293   1.280   2.263  13.998 -1.6416  2.2407 -1.0528
 3553SOL     OW22294   2.283   4.546   5.061  0.5859 -0.5479 -0.4833
 3553SOL    HW122295   2.379   4.537   5.060  0.2578 -3.6710 -2.5121
 3553SOL    HW222296   2.285   4.635   5.027  0.8238 -0.5620 -0.5098
 3554SOL     OW22297   2.147   3.148   3.898  0.1646  0.1129  0.1754
 3554SOL    HW122298   2.120   3.136   3.989 -0.5969 -2.1340 -0.3449
 3554SOL    HW222299   2.233   3.188   3.906  0.3213 -0.4930  1.5153
 3555SOL     OW22300   2.870   0.853   3.982 -0.2051 -0.5439 -0.3943
 3555SOL    HW122301   2.851   0.862   4.075  1.6330  0.7987 -0.1463
 3555SOL    HW222302   2.832   0.933   3.944  1.4360  1.5259  2.3076
 3556SOL     OW22303   2.664   2.464   5.235 -0.0391  0.1638 -0.1799
 3556SOL    HW122304   2.608   2.405   5.185  1.7160 -1.1604 -0.6168
 3556SOL    HW222305   2.606   2.494   5.305 -0.1496 -0.7681  0.1271
 3557SOL     OW22306   1.956   4.574   1.943  0.3123 -0.3853 -0.2060
 3557SOL    HW122307   1.929   4.660   1.975  0.3461 -0.1090 -0.9213
 3557SOL    HW222308   1.897   4.568   1.868  0.8613 -1.0489 -0.5833
 3558SOL     OW22309   3.248   1.316   3.427  0.0333 -0.0772  0.2370
 3558SOL    HW122310   3.309   1.243   3.416 -0.9289 -0.8194 -0.2137
 3558SOL    HW222311   3.178   1.274   3.378 -1.1127  1.4964  0.5186
 3559SOL     OW22312   2.044   2.835   8.304 -0.1619 -0.2109 -0.2683
 3559SOL    HW122313   1.977   2.775   8.336  2.0859 -1.8145  1.3670
 3559SOL    HW222314   1.981   2.903   8.278  0.3661 -1.0933 -3.9567
 3560SOL     OW22315   0.573   3.817  11.598 -0.4218  0.3651  0.4782
 3560SOL    HW122316   0.659   3.822  11.640 -0.5105  0.6755  0.6251
 3560SOL    HW222317   0.581   3.881  11.527 -1.6835 -2.2950 -2.0325
 3561SOL     OW22318   0.117   0.476   9.530 -0.5767 -0.4094  0.0625
 3561SOL    HW122319   0.136   0.566   9.556  0.1090 -0.3389 -0.6629
 3561SOL    HW222320   0.081   0.499   9.445  0.4066 -0.0220 -0.2474
 3562SOL     OW22321   4.213   2.277  10.026 -0.5083 -0.1510 -0.6614
 3562SOL    HW122322   4.210   2.369  10.050 -3.9190 -0.1501 -1.1122
 3562SOL    HW222323   4.122   2.256  10.047 -0.4804 -0.0458 -0.4339
 3563SOL     OW22324   0.447   0.980   8.859  0.5844  0.0636  0.5587
 3563SOL    HW122325   0.453   0.979   8.763  0.3450  3.9369  0.5046
 3563SOL    HW222326   0.432   1.073   8.871  2.7879  0.2267  2.1125
 3564SOL     OW22327   2.329   4.181   2.632 -0.1892 -0.0521 -0.0030
 3564SOL    HW122328   2.304   4.118   2.700 -0.6275  0.3439  0.2037
 3564SOL    HW222329   2.417   4.149   2.612 -0.3278 -1.2822  1.3365
 3565SOL     OW22330   4.321   0.798   4.404  0.0344 -0.1100 -0.6586
 3565SOL    HW122331   4.289   0.878   4.445  0.2675 -1.0853  1.4682
 3565SOL    HW222332   4.323   0.825   4.313  2.2611 -0.2196 -0.6404
 3566SOL     OW22333   4.283   3.372  16.839 -0.1502 -0.3605  0.2321
 3566SOL    HW122334   4.204   3.426  16.837  0.7422  0.8802 -1.2596
 3566SOL    HW222335   4.238   3.290  16.819  0.6223 -0.7544  0.1162
 3567SOL     OW22336   3.648   0.689   3.695  0.4329 -0.0587 -0.3137
 3567SOL    HW122337   3.576   0.705   3.635 -1.3473  0.8014  2.0383
 3567SOL    HW222338   3.686   0.775   3.711  2.6107 -1.2656  0.9482
 3568SOL     OW22339   1.574   4.268   5.181 -0.5050  0.3515  0.1404
 3568SOL    HW122340   1.558   4.334   5.113  0.6647  1.5534  1.0134
 3568SOL    HW222341   1.493   4.268   5.231  0.6714 -1.6429  2.0395
 3569SOL     OW22342   0.029   0.516   7.676  0.6682 -0.5981 -0.2815
 3569SOL    HW122343   4.739   0.457   7.745  0.1451  0.0329  0.0270
 3569SOL    HW222344   0.056   0.595   7.723  1.8335 -0.7653 -0.6697
 3570SOL     OW22345   2.074   1.292   4.110 -0.0957 -0.4911  0.1202
 3570SOL    HW122346   2.107   1.371   4.067  0.4409 -1.2796 -0.9128
 3570SOL    HW222347   2.054   1.333   4.195 -0.9011 -1.5968  0.4521
 3571SOL     OW22348   1.136   4.693   4.949  0.2252  0.6583  0.2362
 3571SOL    HW122349   1.150   4.672   5.041 -1.0128  0.3461  0.3615
 3571SOL    HW222350   1.060   0.010   4.961  0.6715  1.9984 -3.2912
 3572SOL     OW22351   0.047   2.812   6.322 -0.2460  0.2797  0.3641
 3572SOL    HW122352   0.031   2.842   6.411  0.2190 -0.4665  0.6977
 3572SOL    HW222353   0.123   2.756   6.331  0.2549  1.0404  0.8559
 3573SOL     OW22354   2.823   2.417   9.119 -0.4246  0.2471 -0.2718
 3573SOL    HW122355   2.735   2.419   9.155  0.4344  0.8548  1.8262
 3573SOL    HW222356   2.867   2.353   9.175 -1.3810  0.4799  0.7456
 3574SOL     OW22357   3.458   1.381   8.619 -0.0428  0.6121 -0.4304
 3574SOL    HW122358   3.501   1.411   8.699 -0.8027 -0.1463  0.2620
 3574SOL    HW222359   3.523   1.403   8.552 -1.0594  0.8021 -1.3542
 3575SOL     OW22360   2.731   0.745   2.709 -0.4853  0.4388 -1.0708
 3575SOL    HW122361   2.807   0.690   2.688  0.6180  1.0007  1.3811
 3575SOL    HW222362   2.663   0.685   2.681  1.7136 -3.2116  1.2989
 3576SOL     OW22363   0.191   2.701  16.503 -0.0629  0.4327  0.1611
 3576SOL    HW122364   0.104   2.689  16.539 -0.6177  1.3136 -0.9055
 3576SOL    HW222365   0.223   2.620  16.543  0.3054  0.3211 -0.3556
 3577SOL     OW22366   0.692   0.316   4.978 -0.2877  0.2147 -0.1399
 3577SOL    HW122367   0.725   0.335   4.891  0.0505  1.3961  0.2384
 3577SOL    HW222368   0.613   0.265   4.962 -0.4352  0.9825 -1.8057
 3578SOL     OW22369   1.045   4.293   8.761 -0.2538  0.1154 -0.2207
 3578SOL    HW122370   1.005   4.277   8.676 -1.2220 -0.3181  0.3077
 3578SOL    HW222371   0.999   4.222   8.808 -0.3494  0.7404  0.6290
 3579SOL     OW22372   1.122   3.041   2.304  0.3433 -0.7358  0.5913
 3579SOL    HW122373   1.044   3.005   2.262  0.8996 -0.5241 -0.6270
 3579SOL    HW222374   1.094   3.049   2.395  1.4575  2.3882  0.6308
 3580SOL     OW22375   2.683   1.571  13.396  0.4640 -0.3875  0.6188
 3580SOL    HW122376   2.614   1.587  13.461  0.1235  1.6236 -0.2404
 3580SOL    HW222377   2.649   1.626  13.325  3.7121 -0.3136 -0.8665
 3581SOL     OW22378   4.142   0.964   7.553 -0.0166  0.1889 -0.1763
 3581SOL    HW122379   4.071   1.027   7.557 -0.8395 -0.6546 -1.3107
 3581SOL    HW222380   4.127   0.921   7.637 -1.7106 -0.4921 -0.8171
 3582SOL     OW22381   4.312   1.938   8.326  0.1781  0.3072 -0.5424
 3582SOL    HW122382   4.224   1.906   8.348  0.1958 -0.6146 -1.7962
 3582SOL    HW222383   4.359   1.888   8.393 -1.0277  1.5850  1.2489
 3583SOL     OW22384   2.911   0.788   8.452  0.4063 -0.0140 -0.0029
 3583SOL    HW122385   2.960   0.712   8.481  1.2304  0.8790  0.9325
 3583SOL    HW222386   2.910   0.843   8.530  1.8873 -0.0966  0.0613
 3584SOL     OW22387   1.823   0.754   8.933 -0.0010 -0.1759  0.2189
 3584SOL    HW122388   1.843   0.785   8.845  1.9820  1.4660  1.2391
 3584SOL    HW222389   1.750   0.693   8.924  0.6799 -0.8700 -0.6493
 3585SOL     OW22390   2.402   1.526   6.478 -0.1710  0.8442  0.4334
 3585SOL    HW122391   2.328   1.585   6.495 -0.8117  0.5859 -1.4849
 3585SOL    HW222392   2.356   1.455   6.434  0.4268  0.3157  0.6697
 3586SOL     OW22393   0.327   3.919   7.288 -0.7121 -0.0805 -0.0778
 3586SOL    HW122394   0.392   3.848   7.290 -1.5699 -0.8435  0.9876
 3586SOL    HW222395   0.373   3.983   7.343  0.7491 -0.8552 -0.3950
 3587SOL     OW22396   0.497   1.315   3.826 -1.0294  0.0854  0.3815
 3587SOL    HW122397   0.557   1.374   3.781 -0.1863 -1.3403 -0.3917
 3587SOL    HW222398   0.422   1.309   3.766  0.4519  0.2992 -1.4760
 3588SOL     OW22399   1.973   3.751   8.173 -0.3401  0.4822  0.1099
 3588SOL    HW122400   1.915   3.682   8.204  0.4476  0.0366  0.5920
 3588SOL    HW222401   2.045   3.755   8.236 -0.5850 -0.0811  0.4270
 3589SOL     OW22402   1.571   3.626   5.817 -0.0303  0.4398 -0.6641
 3589SOL    HW122403   1.503   3.616   5.883 -1.4093  3.4511 -1.6210
 3589SOL    HW222404   1.530   3.576   5.746  0.0910 -0.5752 -0.0161
 3590SOL     OW22405   2.647   3.570   6.704 -0.7304 -0.7614  0.2298
 3590SOL    HW122406   2.593   3.493   6.720  0.6137 -2.0899 -1.6357
 3590SOL    HW222407   2.624   3.588   6.613 -0.8362  0.0438  0.4141
 3591SOL     OW22408   1.296   2.907   0.366 -0.3063  0.4004 -0.0215
 3591SOL    HW122409   1.220   2.919   0.310 -0.2104  0.6305 -0.1037
 3591SOL    HW222410   1.301   2.814   0.348  1.3866  0.2324  1.2817
 3592SOL     OW22411   4.007   3.897   8.333 -0.6178 -0.0323  0.1956
 3592SOL    HW122412   3.920   3.872   8.365 -0.4209 -3.0611 -1.6821
 3592SOL    HW222413   4.016   3.987   8.364 -0.0307 -0.7876  2.2082
 3593SOL     OW22414   4.514   3.619   4.777  0.3019 -0.3920 -0.4677
 3593SOL    HW122415   4.606   3.617   4.802  0.6312 -0.4444 -1.6703
 3593SOL    HW222416   4.502   3.714   4.780  0.4664 -0.4692  2.0353
 3594SOL     OW22417   3.628   0.145   6.199 -0.1918  0.2284 -0.5480
 3594SOL    HW122418   3.708   0.093   6.199 -1.3597 -1.6016  0.8199
 3594SOL    HW222419   3.620   0.169   6.292 -0.3425  2.2792 -1.0901
 3595SOL     OW22420   2.737   2.002   4.281 -0.8012  0.3748  0.1589
 3595SOL    HW122421   2.751   1.907   4.283  1.1786  0.5616 -3.6917
 3595SOL    HW222422   2.787   2.025   4.359 -2.5161  2.2792  0.6871
 3596SOL     OW22423   4.136   4.708  11.810  0.4381  0.3525 -0.5196
 3596SOL    HW122424   4.169   4.683  11.896 -0.6437  1.6711  0.2791
 3596SOL    HW222425   4.159   0.061  11.807  0.2548  0.4307  0.4115
 3597SOL     OW22426   0.999   1.281   1.927 -0.5194  0.8013  0.5131
 3597SOL    HW122427   1.057   1.326   1.866 -2.0238  2.9584  0.6717
 3597SOL    HW222428   0.961   1.348   1.985 -0.8288  1.2688 -0.2272
 3598SOL     OW22429   4.529   2.354   4.021  0.2730  0.1136 -0.0364
 3598SOL    HW122430   4.447   2.316   4.054  1.9297 -1.8198  1.8668
 3598SOL    HW222431   4.551   2.405   4.099 -0.5525 -0.3023  0.4731
 3599SOL     OW22432   0.108   0.271   2.931  0.3319 -0.3861  0.6957
 3599SOL    HW122433   0.070   0.219   2.860  1.6314 -0.2682 -0.0791
 3599SOL    HW222434   0.192   0.291   2.891 -1.7092  2.4530 -2.1921
 3600SOL     OW22435   4.010   3.286   9.492  0.4219  0.4274  0.1296
 3600SOL    HW122436   4.013   3.308   9.398  0.2789 -2.0208 -0.4394
 3600SOL    HW222437   4.088   3.333   9.522 -0.3102  0.8722  1.3275
 3601SOL     OW22438   0.886   3.196   6.914  0.1016 -1.2756  0.4068
 3601SOL    HW122439   0.930   3.221   6.833 -2.7704  1.7232 -0.2309
 3601SOL    HW222440   0.950   3.138   6.954  3.2794  2.6735  0.9808
 3602SOL     OW22441   0.214   2.936   0.688 -0.3772 -0.1584 -0.3820
 3602SOL    HW122442   0.196   2.843   0.707  2.5540 -0.7805 -0.6879
 3602SOL    HW222443   0.137   2.959   0.636 -0.5412 -0.2658 -0.1909
 3603SOL     OW22444   3.857   3.832   6.352 -0.2904 -0.0067  0.0782
 3603SOL    HW122445   3.826   3.781   6.428  0.2742 -1.3185 -0.5675
 3603SOL    HW222446   3.952   3.823   6.363 -0.5715 -1.0601  1.6592
 3604SOL     OW22447   2.054   2.375   8.117 -0.0857  0.3330 -0.4753
 3604SOL    HW122448   2.149   2.369   8.127 -0.4084 -1.8107  1.2262
 3604SOL    HW222449   2.030   2.283   8.110 -0.5144  0.5081 -1.2952
 3605SOL     OW22450   1.888   4.177   8.247  0.2958 -0.4256  0.5780
 3605SOL    HW122451   1.954   4.233   8.287  1.4807 -1.6356  0.3141
 3605SOL    HW222452   1.832   4.233   8.193  0.9945 -1.0136 -0.7394
 3606SOL     OW22453   2.332   3.530   7.809 -0.2564  0.0552 -0.2216
 3606SOL    HW122454   2.343   3.622   7.785 -0.3723  0.5160  1.5178
 3606SOL    HW222455   2.243   3.508   7.780  0.1849 -0.5087 -1.1447
 3607SOL     OW22456   0.265   2.199  12.063 -0.3829  0.2066 -0.3730
 3607SOL    HW122457   0.265   2.235  12.152  0.9169 -0.2690 -0.1728
 3607SOL    HW222458   0.186   2.148  12.048 -0.7202  0.7778 -0.5443
 3608SOL     OW22459   0.617   1.031   0.229  0.1477  0.4842  0.0044
 3608SOL    HW122460   0.696   1.070   0.266 -0.6202  2.1403 -0.1075
 3608SOL    HW222461   0.647   0.948   0.193  1.6796  0.2760  1.7537
 3609SOL     OW22462   3.931   1.312  12.645  0.3905  0.2388 -0.4095
 3609SOL    HW122463   3.900   1.387  12.696 -1.0279 -0.6062 -0.0176
 3609SOL    HW222464   4.018   1.346  12.622  1.0361 -2.1322 -1.4845
 3610SOL     OW22465   4.286   3.023   2.943 -0.1116 -0.6276  0.1069
 3610SOL    HW122466   4.312   2.931   2.948  0.9148 -0.3664 -0.2744
 3610SOL    HW222467   4.322   3.066   3.020 -0.0818  1.1849 -0.9174
 3611SOL     OW22468   1.514   0.402  16.676 -0.5034 -0.0656  0.1930
 3611SOL    HW122469   1.459   0.421  16.752 -0.4386 -2.1318  0.7530
 3611SOL    HW222470   1.590   0.352  16.706 -0.6094  1.7922  3.5341
 3612SOL     OW22471   3.078   0.187  16.806  0.4833 -0.1717  0.0823
 3612SOL    HW122472   3.081   0.226  16.718  2.6906 -0.7219 -0.0679
 3612SOL    HW222473   3.012   0.117  16.802 -2.1419  2.2932  0.0285
 3613SOL     OW22474   1.111   1.083   9.413  0.4538 -0.0788  0.1019
 3613SOL    HW122475   1.131   1.058   9.503  0.0911 -1.2482 -0.1394
 3613SOL    HW222476   1.134   1.001   9.368 -1.0430  0.3374 -1.4283
 3614SOL     OW22477   0.175   1.186   9.666  0.0736 -0.1012  0.5356
 3614SOL    HW122478   0.220   1.207   9.584  2.2114 -2.6505  1.0694
 3614SOL    HW222479   0.110   1.256   9.657  0.4451 -0.0700 -1.9816
 3615SOL     OW22480   3.027   0.020   3.846  0.2352 -0.0502  0.1367
 3615SOL    HW122481   3.081   4.714   3.910  0.3635 -0.5227 -0.3146
 3615SOL    HW222482   2.941   4.721   3.861  0.5605 -0.5001  0.8599
 3616SOL     OW22483   0.636   0.961   3.171  0.2121  0.4426 -0.0502
 3616SOL    HW122484   0.666   1.045   3.137 -3.2444  1.3793 -0.8351
 3616SOL    HW222485   0.555   0.985   3.216  0.5497  0.9318  0.2955
 3617SOL     OW22486   1.929   1.940   7.069 -0.4070  0.2638 -0.2099
 3617SOL    HW122487   1.951   1.906   6.982  1.0627 -0.4350  0.4265
 3617SOL    HW222488   1.854   1.995   7.046  1.5875  2.9043 -0.3130
 3618SOL     OW22489   2.357   3.878  16.869 -0.1325  0.3301 -0.0943
 3618SOL    HW122490   2.367   3.788  16.838 -0.9313 -0.4595  1.9424
 3618SOL    HW222491   2.301   3.864  16.945  0.7118  0.8914  0.6206
 3619SOL     OW22492   4.619   0.084   6.844  0.3891  0.2786 -0.3974
 3619SOL    HW122493   4.555   0.039   6.788  1.4086 -1.0747 -0.4736
 3619SOL    HW222494   4.654   0.152   6.786 -0.6216  1.8985  0.8840
 3620SOL     OW22495   2.004   2.949   7.719  0.0241  0.0126  0.3808
 3620SOL    HW122496   2.057   2.878   7.683 -0.1102  1.3268 -2.4517
 3620SOL    HW222497   2.022   2.943   7.813  1.8233  0.0300  0.0314
 3621SOL     OW22498   1.440   0.855   5.168 -0.1017 -0.3865 -0.3612
 3621SOL    HW122499   1.468   0.913   5.238 -2.1280  0.8466 -0.5906
 3621SOL    HW222500   1.348   0.843   5.190  0.3336 -0.7089  1.2699
 3622SOL     OW22501   3.374   1.697  16.700 -0.9477  0.5839  0.0321
 3622SOL    HW122502   3.334   1.737  16.777  1.9278  1.3908  1.0920
 3622SOL    HW222503   3.389   1.771  16.642  2.6078 -1.6997 -1.9215
 3623SOL     OW22504   4.689   1.232  17.160  0.0173 -0.4298 -0.1361
 3623SOL    HW122505   4.686   1.137  17.161  0.3982 -0.4728 -2.9861
 3623SOL    HW222506   4.721   1.247  17.249 -0.7862  1.8563 -0.2334
 3624SOL     OW22507   3.327   3.764   8.665 -0.2744  0.7394  0.3741
 3624SOL    HW122508   3.290   3.690   8.616 -1.3255  2.7378 -1.8125
 3624SOL    HW222509   3.301   3.840   8.614 -1.8088  0.5464  0.8539
 3625SOL     OW22510   3.778   1.409   4.259  0.4429  0.5334  0.4423
 3625SOL    HW122511   3.725   1.449   4.329  1.7470 -0.6559  2.0907
 3625SOL    HW222512   3.852   1.468   4.244  0.8028 -0.7245 -2.6125
 3626SOL     OW22513   2.919   1.371   2.376  0.5715 -0.0138  0.2259
 3626SOL    HW122514   2.900   1.359   2.469  0.0087 -0.4795  0.0507
 3626SOL    HW222515   3.009   1.403   2.374  1.2844 -2.0243  0.3472
 3627SOL     OW22516   0.488   0.227  12.097 -0.2411 -0.3807  0.1854
 3627SOL    HW122517   0.567   0.239  12.150 -0.0060  3.3804 -1.0278
 3627SOL    HW222518   0.445   0.311  12.112 -0.8386 -1.0934  2.4761
 3628SOL     OW22519   4.631   0.220  13.093 -0.2085 -0.0207  0.5546
 3628SOL    HW122520   4.594   0.202  13.180 -1.5540  1.1352  0.2216
 3628SOL    HW222521   4.612   0.314  13.088  1.5722  0.2905 -0.1289
 3629SOL     OW22522   3.071   3.015   2.183  0.8682 -0.2233  0.0623
 3629SOL    HW122523   3.027   3.071   2.247 -1.3541 -2.4162  0.4662
 3629SOL    HW222524   3.149   3.069   2.172  0.1783  0.6954 -0.3339
 3630SOL     OW22525   3.534   3.199   7.477  0.3148 -0.3476 -0.4472
 3630SOL    HW122526   3.532   3.175   7.570  0.1658  0.3685 -0.2628
 3630SOL    HW222527   3.572   3.119   7.441  1.9363  0.1935  0.0531
 3631SOL     OW22528   4.726   2.621   5.638  0.4154 -0.2009  0.0045
 3631SOL    HW122529   0.036   2.541   5.623 -1.5038 -1.7061  1.7690
 3631SOL    HW222530   4.698   2.606   5.728  1.1725 -1.4378  0.0280
 3632SOL     OW22531   3.469   0.679   1.897 -0.4181 -0.5421 -0.6847
 3632SOL    HW122532   3.398   0.738   1.872 -0.4449 -0.0578  0.5312
 3632SOL    HW222533   3.476   0.684   1.992  0.9561  1.3174 -0.8985
 3633SOL     OW22534   1.959   1.198   3.424 -0.2098  0.0161  0.4692
 3633SOL    HW122535   2.049   1.225   3.404 -0.5839  0.6121 -0.4178
 3633SOL    HW222536   1.928   1.264   3.486  0.7740  1.1434 -0.2449
 3634SOL     OW22537   1.198   1.999   4.418 -0.4692  0.1612 -0.5740
 3634SOL    HW122538   1.261   1.926   4.423  0.9902  1.5064  0.9146
 3634SOL    HW222539   1.259   2.070   4.396  0.2227 -0.2045  0.1339
 3635SOL     OW22540   4.027   2.023   4.356  0.2597  0.2221 -0.1993
 3635SOL    HW122541   4.053   2.113   4.336  0.1028  0.6127  1.3512
 3635SOL    HW222542   4.069   2.008   4.441 -0.4717 -2.6948 -0.3379
 3636SOL     OW22543   3.767   0.852   2.914  0.4884 -0.2521  0.6401
 3636SOL    HW122544   3.767   0.868   2.820 -1.5751  1.7380  0.9887
 3636SOL    HW222545   3.673   0.850   2.932  0.1266  0.6460 -1.2126
 3637SOL     OW22546   2.952   3.941   8.169 -0.6258  0.0837 -0.1133
 3637SOL    HW122547   2.973   3.861   8.217  1.2456 -0.6731 -2.2118
 3637SOL    HW222548   2.865   3.929   8.130 -0.8542  1.3784 -0.0151
 3638SOL     OW22549   2.306   3.756   4.739  0.5857  0.3567  0.0620
 3638SOL    HW122550   2.242   3.687   4.721  0.3573  0.2409  1.3749
 3638SOL    HW222551   2.255   3.836   4.721 -1.2243 -1.1453 -1.5538
 3639SOL     OW22552   3.633   1.684   7.044  0.3270  0.5830 -0.5048
 3639SOL    HW122553   3.623   1.619   7.114 -0.6276  1.3388  0.0706
 3639SOL    HW222554   3.675   1.757   7.089  0.3698 -0.4229  1.0836
 3640SOL     OW22555   4.159   3.815   1.891  0.0678  0.0595 -0.2839
 3640SOL    HW122556   4.171   3.730   1.848 -2.4276 -0.4310 -0.0070
 3640SOL    HW222557   4.192   3.791   1.977  1.0845 -0.7456 -0.8927
 3641SOL     OW22558   1.947   0.553   1.958 -0.7235 -0.3239 -0.3397
 3641SOL    HW122559   1.856   0.571   1.935 -0.4238  1.6305 -0.0208
 3641SOL    HW222560   1.962   0.477   1.902 -1.1282 -0.6337 -0.0280
 3642SOL     OW22561   4.331   0.503  15.947  0.3190  0.1788 -0.3340
 3642SOL    HW122562   4.301   0.593  15.938  1.4422  0.6387  0.4420
 3642SOL    HW222563   4.373   0.489  15.862  0.1674 -0.4691 -0.3015
 3643SOL     OW22564   4.691   1.324   1.261 -0.0596 -0.0917 -0.9598
 3643SOL    HW122565   4.658   1.349   1.347 -1.9813 -1.1228 -1.4081
 3643SOL    HW222566   4.636   1.246   1.262 -0.5168  0.2341 -0.4804
 3644SOL     OW22567   4.149   4.250   1.918 -0.0326 -0.6416  0.0251
 3644SOL    HW122568   4.097   4.198   1.857 -0.6507  1.7272 -1.4859
 3644SOL    HW222569   4.210   4.185   1.953 -0.1444 -0.5437  0.4013
 3645SOL     OW22570   0.179   0.882  14.295  0.3006 -0.3165 -0.1123
 3645SOL    HW122571   0.106   0.822  14.312 -0.0570 -0.2136 -1.3424
 3645SOL    HW222572   0.200   0.915  14.383 -1.4854  1.6063 -0.4155
 3646SOL     OW22573   2.803   2.362  14.568  0.5609 -0.5916 -0.0506
 3646SOL    HW122574   2.817   2.273  14.600 -0.3637  0.4350  3.1777
 3646SOL    HW222575   2.763   2.344  14.483 -0.9555 -2.2997  1.0428
 3647SOL     OW22576   4.199   0.816  17.637 -0.0181 -0.4735 -0.4703
 3647SOL    HW122577   4.165   0.776  17.717  0.3892  0.3572  0.1289
 3647SOL    HW222578   4.123   0.857  17.597 -1.8841 -1.2300  2.3007
 3648SOL     OW22579   3.031   4.007   5.121  0.4998 -0.3199 -0.1398
 3648SOL    HW122580   2.967   4.069   5.086  1.5842  1.4890  1.1192
 3648SOL    HW222581   2.968   3.957   5.174  0.0581  1.7316  1.2543
 3649SOL     OW22582   1.992   3.726   4.048 -0.0278  0.3420  0.0376
 3649SOL    HW122583   1.945   3.790   3.995  0.4578 -1.4778 -2.5745
 3649SOL    HW222584   2.069   3.778   4.071 -0.3588  0.6106  0.5374
 3650SOL     OW22585   1.746   2.144   6.994  0.0253 -0.5690  0.6484
 3650SOL    HW122586   1.810   2.175   6.930  0.8147 -1.0231  1.2168
 3650SOL    HW222587   1.770   2.190   7.075 -0.5219 -0.5840  0.8187
 3651SOL     OW22588   1.200   0.711   4.603  0.5953 -0.1862  0.6281
 3651SOL    HW122589   1.209   0.803   4.630 -0.1789 -0.1451  0.7663
 3651SOL    HW222590   1.223   0.663   4.683 -3.3903 -0.2851  1.7356
 3652SOL     OW22591   3.107   1.388  15.840 -0.8076 -0.1307  0.0494
 3652SOL    HW122592   3.167   1.452  15.878 -1.7068  0.0176  1.1935
 3652SOL    HW222593   3.156   1.358  15.763  0.9732 -0.2121  1.2193
 3653SOL     OW22594   3.660   1.948   8.027  1.0070 -0.2090  0.1090
 3653SOL    HW122595   3.594   1.878   8.026 -0.3204  1.0928 -1.1525
 3653SOL    HW222596   3.722   1.910   7.965  0.9957 -1.5601  0.9045
 3654SOL     OW22597   2.107   4.145   9.199  0.1879 -0.3484  0.5721
 3654SOL    HW122598   2.078   4.235   9.209  1.7314  0.3041 -0.8135
 3654SOL    HW222599   2.145   4.130   9.286 -1.8533 -0.5147  1.4268
 3655SOL     OW22600   1.690   3.378   2.354  0.3054  0.0279  0.0171
 3655SOL    HW122601   1.651   3.424   2.279  0.1784 -1.8674 -1.0763
 3655SOL    HW222602   1.714   3.450   2.412 -1.9903  0.0397  0.9497
 3656SOL     OW22603   1.847   2.382  10.377  0.0032  0.4547 -0.6397
 3656SOL    HW122604   1.809   2.346  10.458 -2.1174  1.3291 -1.2591
 3656SOL    HW222605   1.762   2.411  10.343  0.3037 -1.8254 -3.3255
 3657SOL     OW22606   3.757   3.007   0.472  0.2512  0.6522  0.1485
 3657SOL    HW122607   3.666   2.981   0.483  0.5460 -0.2399  0.5164
 3657SOL    HW222608   3.742   3.087   0.423 -2.6765 -0.2671 -0.4379
 3658SOL     OW22609   3.210   0.212   7.433  0.8504  0.6853 -0.1746
 3658SOL    HW122610   3.200   0.269   7.357 -0.6209 -0.0076 -0.5064
 3658SOL    HW222611   3.289   0.164   7.407  2.2932  2.5796  0.7781
 3659SOL     OW22612   3.130   0.989   4.228 -0.0807  0.3925  0.2611
 3659SOL    HW122613   3.050   1.042   4.226 -1.9342 -2.5056 -3.0097
 3659SOL    HW222614   3.102   0.900   4.206  0.9069  0.5591 -1.6901
 3660SOL     OW22615   2.197   2.460   2.422  0.1261 -0.6831 -0.0161
 3660SOL    HW122616   2.293   2.458   2.416 -0.0266 -1.6109 -2.3421
 3660SOL    HW222617   2.177   2.526   2.357  1.4241 -0.1931  0.0879
 3661SOL     OW22618   1.244   0.023   0.182  0.6582 -0.5452  0.0933
 3661SOL    HW122619   1.281   0.011   0.270  3.5347  0.9962 -0.8999
 3661SOL    HW222620   1.197   4.680   0.173  0.9235 -0.7073  0.2180
 3662SOL     OW22621   1.679   0.108  16.277  0.3127  0.7787  0.0168
 3662SOL    HW122622   1.677   0.090  16.371 -3.2527 -1.1597 -0.4163
 3662SOL    HW222623   1.639   0.027  16.245  1.0696 -0.1159  1.3064
 3663SOL     OW22624   1.756   4.296  15.860  0.5783 -0.2425 -1.1072
 3663SOL    HW122625   1.686   4.248  15.816 -0.5856  2.4474 -2.1528
 3663SOL    HW222626   1.809   4.298  15.779 -0.6883 -0.7893 -1.9459
 3664SOL     OW22627   0.286   4.087  15.395  0.3649 -0.0753  0.2334
 3664SOL    HW122628   0.320   4.100  15.306 -0.2334  0.4082  0.0829
 3664SOL    HW222629   0.326   4.007  15.430  0.9166 -1.2964 -3.2108
 3665SOL     OW22630   0.568   3.794   5.693 -0.2072  0.1970  0.4546
 3665SOL    HW122631   0.604   3.866   5.640 -1.3564  1.0015  0.7626
 3665SOL    HW222632   0.646   3.781   5.746  0.7389  0.6656 -0.8130
 3666SOL     OW22633   2.312   0.080   1.995 -0.4518  0.5644  0.5622
 3666SOL    HW122634   2.395   0.127   2.009  0.3704 -0.4501 -1.0257
 3666SOL    HW222635   2.259   0.132   2.056 -1.4610 -0.3869  0.4791
 3667SOL     OW22636   0.801   2.976   0.159  0.3372  0.3100 -0.3963
 3667SOL    HW122637   0.758   3.021   0.231  0.3126  0.4257 -0.4830
 3667SOL    HW222638   0.759   2.890   0.160  0.9085 -0.0006 -1.8697
 3668SOL     OW22639   0.098   2.065   5.002 -0.3551 -0.4773 -0.0355
 3668SOL    HW122640   0.093   1.973   5.029  0.1815 -1.4286 -3.2601
 3668SOL    HW222641   0.042   2.109   5.066 -1.4105 -1.2558 -0.4122
 3669SOL     OW22642   3.938   0.071   9.084  0.1529 -0.1454 -0.4404
 3669SOL    HW122643   3.883   0.018   9.142  2.0222 -1.2236  0.3274
 3669SOL    HW222644   4.007   0.092   9.147  0.3500 -0.5596 -0.5193
 3670SOL     OW22645   0.337   4.628   1.868 -0.3102 -0.3527 -0.0035
 3670SOL    HW122646   0.364   4.554   1.922 -0.6001  1.4924  2.6520
 3670SOL    HW222647   0.387   4.610   1.789  2.8179  1.2434  1.6090
 3671SOL     OW22648   0.500   2.197  14.891 -0.0191 -0.1012 -0.4154
 3671SOL    HW122649   0.542   2.211  14.806 -0.0122 -0.1057 -0.4126
 3671SOL    HW222650   0.416   2.235  14.864  0.5739  1.8351  0.4641
 3672SOL     OW22651   0.229   0.148   7.609 -0.2981 -0.0399 -0.5129
 3672SOL    HW122652   0.314   0.179   7.577  0.3494 -0.5280  0.7796
 3672SOL    HW222653   0.221   0.066   7.561  0.5588  0.0164 -0.7480
 3673SOL     OW22654   3.047   2.937   7.427 -0.3601  0.0103  0.3074
 3673SOL    HW122655   2.984   2.908   7.493 -1.7705 -1.0945 -1.4972
 3673SOL    HW222656   3.039   3.029   7.452 -0.8175 -0.2599  1.1576
 3674SOL     OW22657   4.061   0.913   3.097  0.4392  0.4214 -0.5601
 3674SOL    HW122658   4.019   0.943   3.016 -1.9944  0.8887  0.8687
 3674SOL    HW222659   4.146   0.953   3.079  1.1559 -0.4124  0.9607
 3675SOL     OW22660   4.591   4.419   6.399  0.1698 -0.6632 -0.2095
 3675SOL    HW122661   4.513   4.410   6.454  0.3380 -0.1344  0.1190
 3675SOL    HW222662   4.659   4.432   6.464 -0.9212  1.0784  0.5950
 3676SOL     OW22663   1.334   3.883   3.207 -0.0270  0.9841  0.3198
 3676SOL    HW122664   1.269   3.816   3.185  2.4687 -0.7752 -1.7332
 3676SOL    HW222665   1.299   3.906   3.293 -0.4592 -0.6645  0.5899
 3677SOL     OW22666   2.791   3.111  10.018  0.0651  0.4666 -0.0974
 3677SOL    HW122667   2.836   3.050   9.959 -0.6105 -1.7524  1.6748
 3677SOL    HW222668   2.746   3.172   9.960 -0.7685 -1.4621 -1.4630
 3678SOL     OW22669   3.824   1.973   2.474  0.1798 -0.1171 -0.2400
 3678SOL    HW122670   3.813   2.031   2.399  1.1876 -0.3310 -0.5454
 3678SOL    HW222671   3.917   1.952   2.466  0.1103 -0.4066 -0.2511
 3679SOL     OW22672   4.148   1.520   1.030 -0.3665  0.8390  0.1349
 3679SOL    HW122673   4.218   1.530   1.093 -0.2056  2.0491 -0.2367
 3679SOL    HW222674   4.195   1.527   0.947 -1.9716 -2.2263 -1.0755
 3680SOL     OW22675   3.374   0.162   2.503 -0.0869 -0.1633  0.4276
 3680SOL    HW122676   3.284   0.130   2.500  0.1195 -0.6756 -0.4317
 3680SOL    HW222677   3.410   0.103   2.569  2.3325  1.0141  0.1749
 3681SOL     OW22678   0.113   2.946   8.057  0.1935  0.8227  0.4359
 3681SOL    HW122679   0.028   2.902   8.049  1.0098 -0.8357  0.8720
 3681SOL    HW222680   0.167   2.867   8.063 -0.8245  0.0238 -0.9306
 3682SOL     OW22681   4.097   0.099   3.608 -0.0139  0.6031  0.9509
 3682SOL    HW122682   4.183   0.067   3.634  2.7165  5.0240 -2.6517
 3682SOL    HW222683   4.109   0.080   3.515 -4.2521  0.3350  0.4655
 3683SOL     OW22684   2.655   0.369  16.043  0.4367  0.0031 -0.3541
 3683SOL    HW122685   2.570   0.382  16.002 -0.4397 -0.3144  1.3401
 3683SOL    HW222686   2.626   0.297  16.099 -0.6303 -0.3172 -1.3247
 3684SOL     OW22687   2.408   3.247   3.419  0.3362 -0.1505  0.3797
 3684SOL    HW122688   2.368   3.313   3.476  2.1536  0.6263  0.7671
 3684SOL    HW222689   2.330   3.202   3.386  0.2986 -0.5533  1.0257
 3685SOL     OW22690   0.300   0.552   8.795 -0.0940  0.0550 -0.0755
 3685SOL    HW122691   0.374   0.575   8.739 -1.2688  0.4730 -1.4683
 3685SOL    HW222692   0.286   0.641   8.826  0.4468  0.8035 -1.9718
 3686SOL     OW22693   3.871   3.803   3.450  0.0297 -0.0325  0.2182
 3686SOL    HW122694   3.899   3.891   3.426 -3.5190  0.6065 -1.5916
 3686SOL    HW222695   3.778   3.816   3.435 -0.2353 -0.0326  1.8359
 3687SOL     OW22696   0.455   1.480   8.112  0.6731  0.3423 -0.2548
 3687SOL    HW122697   0.376   1.457   8.063  1.6613 -0.1965 -1.5907
 3687SOL    HW222698   0.526   1.481   8.048  1.2993  1.0133  0.4558
 3688SOL     OW22699   1.252   0.573   8.598 -0.1831  0.3256  0.3498
 3688SOL    HW122700   1.305   0.504   8.558 -0.1483  0.2421  0.5373
 3688SOL    HW222701   1.311   0.647   8.606  0.1167  0.2836 -1.5083
 3689SOL     OW22702   3.901   3.188  12.524  0.2443  0.4413 -0.0246
 3689SOL    HW122703   3.827   3.175  12.464  0.6620  1.0741 -0.6737
 3689SOL    HW222704   3.867   3.251  12.588  0.7822 -0.0400  0.7386
 3690SOL     OW22705   3.193   2.851  12.885 -0.0867 -0.1164 -0.1028
 3690SOL    HW122706   3.109   2.825  12.847  0.8141 -1.0226 -1.4952
 3690SOL    HW222707   3.195   2.942  12.858 -0.5095 -0.3100 -0.7897
 3691SOL     OW22708   4.504   3.040   8.964 -0.5851 -0.0331 -0.6636
 3691SOL    HW122709   4.498   3.130   8.998  1.6149  0.2532 -1.0026
 3691SOL    HW222710   4.455   2.995   9.032  0.7618  0.2627  0.5276
 3692SOL     OW22711   2.673   2.614   7.651 -0.0986 -0.2003 -0.3612
 3692SOL    HW122712   2.610   2.655   7.711 -0.6475  0.6112 -1.4924
 3692SOL    HW222713   2.623   2.550   7.600  0.8928 -0.8707 -0.4822
 3693SOL     OW22714   2.100   1.377   0.084  0.4707 -0.5798  0.3249
 3693SOL    HW122715   2.191   1.383   0.113  0.5233  1.1335 -0.2148
 3693SOL    HW222716   2.064   1.426   0.158 -1.9400  0.5390 -1.5651
 3694SOL     OW22717   0.689   0.396   3.705 -0.1510 -0.0349 -0.2085
 3694SOL    HW122718   0.614   0.373   3.759 -0.7690 -0.2151 -1.1567
 3694SOL    HW222719   0.678   0.326   3.641  0.2010  1.6675 -2.1391
 3695SOL     OW22720   3.999   0.539   4.787 -0.3791 -0.5369  0.7033
 3695SOL    HW122721   3.967   0.453   4.811  1.1037 -1.3238 -0.1228
 3695SOL    HW222722   4.002   0.528   4.692 -2.0138 -1.3778  0.7470
 3696SOL     OW22723   2.162   1.689   5.093  0.1508 -0.3496  0.2958
 3696SOL    HW122724   2.196   1.677   5.004  0.2460  0.5348  0.2157
 3696SOL    HW222725   2.216   1.763   5.119  2.0604 -1.6900  0.1245
 3697SOL     OW22726   4.094   2.373   2.102 -0.1876 -0.2652 -0.4507
 3697SOL    HW122727   4.166   2.429   2.073 -1.2140  0.5704 -1.3806
 3697SOL    HW222728   4.128   2.369   2.191  0.0445  1.2426 -0.4751
 3698SOL     OW22729   4.036   3.157   4.389 -0.1257  0.3071  0.0759
 3698SOL    HW122730   4.110   3.213   4.363  0.0302  1.0631  2.1958
 3698SOL    HW222731   4.057   3.077   4.340 -0.4199  0.0410  0.3864
 3699SOL     OW22732   2.864   4.499   6.829 -0.1530  0.0176  0.0808
 3699SOL    HW122733   2.805   4.468   6.898  1.0036 -1.3633  0.4339
 3699SOL    HW222734   2.814   4.580   6.815  1.4948  0.6840 -1.8743
 3700SOL     OW22735   4.224   2.070   9.427 -0.4553  0.6537 -0.2214
 3700SOL    HW122736   4.254   2.070   9.518 -1.7068  0.5690  0.1809
 3700SOL    HW222737   4.257   2.157   9.404  0.3199  0.4706  0.1710
 3701SOL     OW22738   2.780   1.754   7.667  0.4463 -0.3891  0.1990
 3701SOL    HW122739   2.742   1.842   7.660  0.3382 -0.5008 -0.6057
 3701SOL    HW222740   2.875   1.765   7.678  0.6331 -0.5407 -1.2583
 3702SOL     OW22741   1.949   1.927   6.358 -0.2942  0.0003  0.2582
 3702SOL    HW122742   1.927   1.907   6.267 -1.2017  0.8836  0.2794
 3702SOL    HW222743   2.045   1.935   6.359 -0.3969  1.3362 -0.6549
 3703SOL     OW22744   3.874   0.880   5.375 -0.9604  0.6494  0.3696
 3703SOL    HW122745   3.938   0.945   5.346 -1.0489  0.3263 -0.5540
 3703SOL    HW222746   3.923   0.816   5.427 -0.1306 -0.2473 -1.4979
 3704SOL     OW22747   1.935   3.932  17.065 -0.8480  0.3737 -0.0396
 3704SOL    HW122748   1.917   3.973  16.980 -1.3278  0.0246 -0.0988
 3704SOL    HW222749   1.853   3.952  17.109 -0.2700  1.8651  0.3941
 3705SOL     OW22750   2.453   4.680   6.140 -0.1087 -0.9620  0.1802
 3705SOL    HW122751   2.458   4.638   6.226 -1.9389 -1.5640  0.0002
 3705SOL    HW222752   2.369   4.643   6.113 -0.3705  0.8330 -1.4189
 3706SOL     OW22753   3.666   1.193   9.599  0.1991 -0.1415 -0.0875
 3706SOL    HW122754   3.725   1.119   9.585 -1.1271 -0.8050 -2.1832
 3706SOL    HW222755   3.709   1.267   9.555  1.5718  0.4094  2.1651
 3707SOL     OW22756   3.780   0.098  13.401  0.5977 -0.2213 -0.1497
 3707SOL    HW122757   3.799   0.073  13.310 -2.7670  0.7641 -1.1231
 3707SOL    HW222758   3.853   0.062  13.451  0.5775 -0.2641 -0.1510
 3708SOL     OW22759   1.501   2.054   9.364  0.1198  0.0300  0.5011
 3708SOL    HW122760   1.567   2.048   9.433  1.5522 -1.8059 -1.0429
 3708SOL    HW222761   1.520   2.139   9.323  1.2010 -0.1351  0.6580
 3709SOL     OW22762   2.308   3.279   1.932  0.9252 -0.1159  0.4897
 3709SOL    HW122763   2.393   3.304   1.895  0.0360  1.0577 -0.7863
 3709SOL    HW222764   2.257   3.330   1.869  1.4164 -0.4240 -0.1582
 3710SOL     OW22765   1.626   2.732   4.361  0.3311  0.0023 -0.4389
 3710SOL    HW122766   1.553   2.728   4.298 -0.1624  0.9592  0.0674
 3710SOL    HW222767   1.623   2.645   4.402  1.0183  0.0641 -0.2592
 3711SOL     OW22768   0.632   2.339   6.335 -0.0875 -0.0282 -0.1496
 3711SOL    HW122769   0.666   2.330   6.425  0.7401 -0.3754 -0.4931
 3711SOL    HW222770   0.711   2.377   6.297 -0.7836  0.7270 -0.8442
 3712SOL     OW22771   2.035   3.054   5.245 -0.4722  0.2771  0.4489
 3712SOL    HW122772   2.102   3.045   5.313 -1.4981 -0.7772  1.3057
 3712SOL    HW222773   2.047   2.978   5.188  1.0194  1.2376 -0.5508
 3713SOL     OW22774   2.980   3.548   6.373 -0.3061 -0.2540  0.7241
 3713SOL    HW122775   2.922   3.580   6.304 -1.1982  0.1828  1.6664
 3713SOL    HW222776   3.006   3.636   6.402 -0.4711 -0.6133  1.9539
 3714SOL     OW22777   3.723   3.977   1.329 -0.4979  0.5967 -0.3630
 3714SOL    HW122778   3.757   4.058   1.290  0.6278  0.2592 -0.0998
 3714SOL    HW222779   3.655   4.013   1.385 -0.9841  0.6615 -0.9894
 3715SOL     OW22780   1.197   1.968   6.714  0.1640 -0.2191  0.3327
 3715SOL    HW122781   1.206   1.889   6.661  0.3783 -0.5555  0.8698
 3715SOL    HW222782   1.239   1.936   6.794  3.1712 -0.4099 -1.2988
 3716SOL     OW22783   0.482   1.291   5.060  0.1184 -0.0602  0.4306
 3716SOL    HW122784   0.467   1.355   4.991 -1.1973 -1.4357 -0.5736
 3716SOL    HW222785   0.436   1.215   5.023 -0.1867 -0.0356  0.7570
 3717SOL     OW22786   0.835   2.909   7.118  0.8468 -0.6030  0.0533
 3717SOL    HW122787   0.882   2.863   7.187 -0.0823  0.3853  1.3466
 3717SOL    HW222788   0.912   2.948   7.076  1.4746 -0.4362  1.3731
 3718SOL     OW22789   1.711   0.602   6.902 -0.2522 -0.1822  0.8400
 3718SOL    HW122790   1.735   0.688   6.938  2.7421 -0.6368 -0.0835
 3718SOL    HW222791   1.804   0.581   6.892 -0.4677 -1.1832  0.9640
 3719SOL     OW22792   0.230   3.727   4.494 -0.0979  0.6735  0.2910
 3719SOL    HW122793   0.195   3.643   4.522  1.0626  0.0304 -0.2043
 3719SOL    HW222794   0.150   3.780   4.502  0.9225  2.3035 -0.1467
 3720SOL     OW22795   4.237   3.347   3.955  0.2344  0.0253  0.7902
 3720SOL    HW122796   4.144   3.361   3.970  0.0029 -1.0245  0.3379
 3720SOL    HW222797   4.275   3.396   4.027  2.4390  1.4549 -1.3585
 3721SOL     OW22798   4.024   4.479   3.176  0.3990 -0.2400  0.0207
 3721SOL    HW122799   4.074   4.555   3.145 -0.6944 -0.4778 -2.4113
 3721SOL    HW222800   3.939   4.492   3.132  0.6693 -0.5275 -0.5925
 3722SOL     OW22801   3.197   3.220   7.055 -0.1207  0.1021 -0.0629
 3722SOL    HW122802   3.280   3.210   7.009 -1.4752 -1.1398 -2.2582
 3722SOL    HW222803   3.221   3.193   7.143  0.7366  0.2327 -0.2562
 3723SOL     OW22804   4.241   0.096   7.020  0.5477 -0.5869 -0.2861
 3723SOL    HW122805   4.219   0.008   7.050 -1.5170 -0.0579 -0.2450
 3723SOL    HW222806   4.295   0.134   7.089  0.0112  0.4833 -0.4582
 3724SOL     OW22807   3.430   3.009   0.592  0.8907 -0.1153  0.0997
 3724SOL    HW122808   3.377   2.944   0.546 -0.8475  0.9406  0.6115
 3724SOL    HW222809   3.384   3.013   0.675 -0.2519 -0.3500 -0.5202
 3725SOL     OW22810   0.818   4.462   6.399  0.6105 -0.3413 -0.0494
 3725SOL    HW122811   0.863   4.400   6.457 -0.2430 -1.3881 -0.5036
 3725SOL    HW222812   0.847   4.540   6.447  0.8550  0.5374 -1.6261
 3726SOL     OW22813   3.388   2.009   9.000  0.2657  0.0774  0.5478
 3726SOL    HW122814   3.416   2.007   9.092 -0.6979 -3.5995  0.7484
 3726SOL    HW222815   3.388   2.104   8.987  0.1149 -0.2853 -2.1182
 3727SOL     OW22816   2.937   3.175  12.367  0.7732 -0.1237 -0.2380
 3727SOL    HW122817   2.866   3.231  12.398  0.4414 -0.4094 -0.4740
 3727SOL    HW222818   2.947   3.116  12.442 -0.2995 -0.1685 -0.1297
 3728SOL     OW22819   1.418   1.256   4.265 -0.4936  0.1998  0.0328
 3728SOL    HW122820   1.398   1.164   4.282 -0.0393  0.0983  0.0085
 3728SOL    HW222821   1.351   1.300   4.318 -0.1367  2.4195 -1.3984
 3729SOL     OW22822   0.883   0.044   2.642  0.2587 -0.2157  0.1571
 3729SOL    HW122823   0.881   0.130   2.684  0.2830 -0.8278  1.4053
 3729SOL    HW222824   0.936   4.731   2.702  3.0965  1.5509 -0.7583
 3730SOL     OW22825   3.650   1.559   3.711  0.1778 -0.5187  0.6203
 3730SOL    HW122826   3.634   1.568   3.805  1.9419  2.6953  0.6330
 3730SOL    HW222827   3.649   1.652   3.688  0.3349 -0.8734 -0.8186
 3731SOL     OW22828   1.267   2.059   8.838 -0.5619 -0.2355  0.0760
 3731SOL    HW122829   1.190   2.063   8.781  0.4409  1.5481 -1.1724
 3731SOL    HW222830   1.262   2.147   8.878 -1.0056 -1.1577  2.0543
 3732SOL     OW22831   4.417   0.780   5.644  0.2255  0.1261 -0.1440
 3732SOL    HW122832   4.371   0.706   5.605 -0.4733 -0.1231  1.1821
 3732SOL    HW222833   4.414   0.749   5.734  0.4643  1.7171  0.4089
 3733SOL     OW22834   1.221   0.827   6.690 -0.6338  0.4412 -0.2815
 3733SOL    HW122835   1.166   0.842   6.766 -0.9633  0.8613 -0.6033
 3733SOL    HW222836   1.250   0.917   6.676 -1.9308  0.9561  0.4501
 3734SOL     OW22837   4.545   4.429  11.143 -0.4167 -0.2639 -0.1936
 3734SOL    HW122838   4.459   4.457  11.175  0.4166  2.6349 -0.4642
 3734SOL    HW222839   4.599   4.495  11.188  0.5033 -0.1804 -1.4267
 3735SOL     OW22840   0.840   1.935   5.690  0.6352  0.1198  0.0189
 3735SOL    HW122841   0.763   1.975   5.649  1.8284  0.5962 -1.7731
 3735SOL    HW222842   0.892   2.010   5.720  1.2582 -0.4742  0.4354
 3736SOL     OW22843   3.420   3.156   8.194  1.0594  0.2664 -0.3018
 3736SOL    HW122844   3.494   3.129   8.140  1.1633 -0.6040  0.2762
 3736SOL    HW222845   3.344   3.115   8.152  2.7266 -1.0703 -2.0011
 3737SOL     OW22846   3.615   1.215   7.217 -0.0219  0.5833  0.2874
 3737SOL    HW122847   3.636   1.127   7.248 -2.2153  0.2694  0.8953
 3737SOL    HW222848   3.583   1.194   7.129  2.3418  1.6639 -0.8145
 3738SOL     OW22849   4.255   4.181   8.233 -0.3148 -0.2497 -0.2424
 3738SOL    HW122850   4.331   4.127   8.256 -1.2543 -1.6785 -0.4774
 3738SOL    HW222851   4.221   4.143   8.152  0.1855  0.3706 -0.7388
 3739SOL     OW22852   4.490   3.220   4.653  0.4884 -0.2221 -0.0105
 3739SOL    HW122853   4.502   3.135   4.610  1.5285  0.1496 -0.4584
 3739SOL    HW222854   4.410   3.202   4.703 -1.7773  3.5758 -2.3167
 3740SOL     OW22855   2.624   1.928   7.155 -0.2659  1.1956 -0.2761
 3740SOL    HW122856   2.541   1.975   7.161 -0.2274  1.3255 -0.7442
 3740SOL    HW222857   2.590   1.846   7.190  0.9539 -0.2625 -2.4771
 3741SOL     OW22858   1.437   0.732   5.906 -0.4043 -0.0492  0.7225
 3741SOL    HW122859   1.463   0.800   5.968 -0.6918  2.3952 -1.8317
 3741SOL    HW222860   1.395   0.667   5.963 -1.7717  0.0629 -0.1433
 3742SOL     OW22861   4.571   4.351   5.383 -0.1570 -0.2004 -0.0119
 3742SOL    HW122862   4.660   4.368   5.413 -1.2556  1.1372  2.4865
 3742SOL    HW222863   4.532   4.288   5.444  0.8655 -0.7725  0.0542
 3743SOL     OW22864   1.805   4.118   2.960  0.0448 -0.1975  0.3841
 3743SOL    HW122865   1.764   4.042   3.000  0.4522 -1.1146 -0.9697
 3743SOL    HW222866   1.817   4.079   2.874 -0.9954  1.1250 -0.3806
 3744SOL     OW22867   4.042   0.334   2.026 -0.2031 -0.4566 -0.3093
 3744SOL    HW122868   4.106   0.276   2.068  0.6897  2.5003  2.4313
 3744SOL    HW222869   4.083   0.421   2.031 -0.3793 -0.5567  2.5852
 3745SOL     OW22870   2.281   3.135  12.723  0.5172 -0.1402  0.3217
 3745SOL    HW122871   2.295   3.055  12.672  1.6708 -0.5758  1.3375
 3745SOL    HW222872   2.261   3.197  12.652 -1.1366 -0.5032  0.4712
 3746SOL     OW22873   2.093   2.963  17.647  0.2503 -0.5844 -0.4051
 3746SOL    HW122874   2.162   2.986  17.584  1.2101 -0.1459  0.8198
 3746SOL    HW222875   2.020   2.949  17.586  0.5730 -0.1676 -0.8886
 3747SOL     OW22876   1.242   4.699  16.564 -0.0150  0.5479 -0.3381
 3747SOL    HW122877   1.275   0.049  16.563  0.6679  0.2835 -1.1734
 3747SOL    HW222878   1.318   4.647  16.589 -0.0061  1.0724  0.7580
 3748SOL     OW22879   4.666   3.998   3.425 -0.6792  0.1172  0.3477
 3748SOL    HW122880   4.707   4.085   3.417  1.4514 -0.9260 -0.0354
 3748SOL    HW222881   4.633   3.987   3.336 -0.7198  0.9794  0.2511
 3749SOL     OW22882   2.408   0.615   7.402  0.0720  0.1199 -0.2184
 3749SOL    HW122883   2.483   0.660   7.439  0.0786  0.2328 -0.3714
 3749SOL    HW222884   2.338   0.626   7.467  1.3429  1.3907  0.9293
 3750SOL     OW22885   0.695   3.429   6.352 -0.3983 -0.3225 -0.0568
 3750SOL    HW122886   0.759   3.377   6.401  0.9792 -1.0277 -2.6057
 3750SOL    HW222887   0.665   3.356   6.297  0.2829 -0.7403  0.1228
 3751SOL     OW22888   0.713   3.855   7.548  0.5311 -0.1053  0.3139
 3751SOL    HW122889   0.715   3.939   7.595 -1.1471  1.2353 -1.9760
 3751SOL    HW222890   0.799   3.854   7.506  0.8220 -1.2904  0.9473
 3752SOL     OW22891   2.947   4.083   6.384  0.6632 -0.0644 -0.1863
 3752SOL    HW122892   2.930   4.110   6.294  0.4936  1.1451  0.2199
 3752SOL    HW222893   3.042   4.077   6.372  0.3921 -2.0951 -1.3205
 3753SOL     OW22894   0.320   3.535  10.452  0.2503  0.4302  0.2276
 3753SOL    HW122895   0.234   3.575  10.443 -0.4067 -1.0897 -0.1097
 3753SOL    HW222896   0.317   3.484  10.371  1.3613  0.7470 -0.0222
 3754SOL     OW22897   3.513   4.616   0.702  0.0658  0.4413  0.6735
 3754SOL    HW122898   3.516   4.668   0.622  2.6438 -0.0316  0.4563
 3754SOL    HW222899   3.436   4.641   0.752 -0.2188  2.2893 -0.7063
 3755SOL     OW22900   4.614   1.300   2.362 -0.8284 -0.1939  0.3737
 3755SOL    HW122901   4.526   1.318   2.330 -0.4150 -1.1343 -1.3101
 3755SOL    HW222902   4.610   1.204   2.365 -1.3157 -0.1550  0.9520
 3756SOL     OW22903   4.409   3.950   5.401  0.0633 -0.6559 -0.4122
 3756SOL    HW122904   4.391   4.041   5.379 -1.2414 -1.2000 -1.6631
 3756SOL    HW222905   4.328   3.905   5.375 -1.9800  2.0589  1.3144
 3757SOL     OW22906   2.862   4.506   2.375 -0.1569 -0.3108  0.2113
 3757SOL    HW122907   2.868   4.538   2.285 -1.9981 -1.5234 -0.3315
 3757SOL    HW222908   2.826   4.587   2.410 -0.9785 -0.8548  0.6230
 3758SOL     OW22909   4.103   3.078   4.037 -0.4558  0.1769  0.2227
 3758SOL    HW122910   4.044   3.152   4.025  0.5827  0.7594 -1.2900
 3758SOL    HW222911   4.118   3.051   3.946 -3.0587 -0.8592  0.0714
 3759SOL     OW22912   4.034   2.483   7.443 -0.5099 -0.5863  0.2139
 3759SOL    HW122913   4.035   2.501   7.349 -1.1778 -0.4895  0.2260
 3759SOL    HW222914   3.954   2.523   7.477 -0.6463 -1.4246  0.8969
 3760SOL     OW22915   2.153   3.144   7.311  0.0111 -0.3073 -0.3307
 3760SOL    HW122916   2.137   3.161   7.403 -2.8408  1.4209 -1.1415
 3760SOL    HW222917   2.135   3.231   7.275 -1.0882 -1.2174 -1.9934
 3761SOL     OW22918   1.725   0.107   7.914 -0.0773  0.2939  0.2907
 3761SOL    HW122919   1.666   0.158   7.859  1.0924 -0.3920 -1.6047
 3761SOL    HW222920   1.771   0.176   7.961  1.0858 -0.3575  0.1311
 3762SOL     OW22921   0.623   2.387   4.748 -0.5879 -0.3354 -0.2847
 3762SOL    HW122922   0.617   2.464   4.804  1.7873  1.0633 -1.9606
 3762SOL    HW222923   0.694   2.404   4.687 -0.3875  1.2603  0.3840
 3763SOL     OW22924   1.839   0.743   5.341  0.1139  0.1588 -0.2257
 3763SOL    HW122925   1.934   0.741   5.332  0.1613 -2.1131  0.7248
 3763SOL    HW222926   1.825   0.833   5.371  1.0385 -0.6901  2.7906
 3764SOL     OW22927   0.618   3.769   1.483  0.4090  1.2272  0.4780
 3764SOL    HW122928   0.695   3.821   1.459  2.1223 -1.1742  0.8366
 3764SOL    HW222929   0.612   3.791   1.576 -1.6424 -0.5689  0.7649
 3765SOL     OW22930   4.015   2.336   4.616 -0.0759 -0.1742  0.0264
 3765SOL    HW122931   4.060   2.342   4.700 -0.3009 -0.6270  0.1781
 3765SOL    HW222932   4.089   2.310   4.561 -0.0551 -1.1480  0.5192
 3766SOL     OW22933   3.986   0.088  16.440 -0.3171 -0.0213 -0.4145
 3766SOL    HW122934   3.994   4.738  16.410  2.2406  0.8650 -2.3442
 3766SOL    HW222935   3.937   0.072  16.520 -0.3702 -0.7001 -0.5825
 3767SOL     OW22936   4.357   3.798  10.905  0.8682  0.0838 -0.0012
 3767SOL    HW122937   4.312   3.757  10.979 -1.8061  0.2708 -1.5222
 3767SOL    HW222938   4.337   3.891  10.915 -0.2203 -0.2099  0.6104
 3768SOL     OW22939   1.110   2.367   6.257  0.5511  0.0633  0.6137
 3768SOL    HW122940   1.087   2.414   6.337  0.6248  2.0517 -0.5044
 3768SOL    HW222941   1.203   2.383   6.237  0.5920  0.9022  1.4620
 3769SOL     OW22942   1.981   3.807   5.526 -0.7499  0.3685  0.1975
 3769SOL    HW122943   2.018   3.869   5.462  0.0090 -0.7802 -0.4619
 3769SOL    HW222944   2.058   3.764   5.562 -2.0175 -0.0759  2.3798
 3770SOL     OW22945   2.564   3.462   0.054  0.0818  0.2969  0.0122
 3770SOL    HW122946   2.475   3.432   0.037 -0.8268  3.2275 -0.3750
 3770SOL    HW222947   2.612   3.462  17.730  1.5268 -3.1903  0.8183
 3771SOL     OW22948   0.952   2.125  16.087  0.3920  0.2894  0.2875
 3771SOL    HW122949   1.021   2.137  16.021 -1.6735 -3.6080 -2.5203
 3771SOL    HW222950   0.880   2.100  16.030  1.3563  2.1654 -1.7659
 3772SOL     OW22951   1.314   1.075   3.654  0.3363 -0.0306  0.0023
 3772SOL    HW122952   1.303   1.135   3.580 -1.8019  0.9195  1.1192
 3772SOL    HW222953   1.404   1.091   3.683  0.8305 -1.6193 -0.6557
 3773SOL     OW22954   4.010   0.193  12.177  0.5351  0.4277 -0.0030
 3773SOL    HW122955   3.962   0.114  12.200  0.1299  0.4571 -0.7440
 3773SOL    HW222956   4.055   0.209  12.260  1.4904 -1.8361 -0.0768
 3774SOL     OW22957   0.813   1.601   2.853 -0.3693 -0.3869 -0.7005
 3774SOL    HW122958   0.806   1.557   2.937  0.0431 -1.2955 -1.1446
 3774SOL    HW222959   0.900   1.578   2.820 -0.4306 -3.3306  1.1680
 3775SOL     OW22960   0.740   0.140   5.241 -0.6147 -0.3883 -0.3000
 3775SOL    HW122961   0.819   0.091   5.264 -0.6044 -0.5667 -0.7334
 3775SOL    HW222962   0.777   0.197   5.174  1.5262 -3.9226 -2.1116
 3776SOL     OW22963   0.911   2.360   4.149 -0.1403  0.8739 -0.2673
 3776SOL    HW122964   0.964   2.432   4.184  2.4587 -0.6975 -0.9773
 3776SOL    HW222965   0.957   2.282   4.180  0.1905  0.1205 -2.6531
 3777SOL     OW22966   3.851   0.628  16.680  0.0476  0.1631 -0.2570
 3777SOL    HW122967   3.799   0.640  16.759  0.2694 -1.9113  0.2212
 3777SOL    HW222968   3.815   0.702  16.632  0.0187  0.2200 -0.1450
 3778SOL     OW22969   0.047   1.678   6.735  0.2724  0.0461 -0.5883
 3778SOL    HW122970   0.035   1.680   6.830  0.5042 -0.7199 -0.5506
 3778SOL    HW222971   0.054   1.583   6.727 -1.2290 -0.0607 -0.7040
 3779SOL     OW22972   3.194   1.630   4.600 -0.2558  0.5177  1.1389
 3779SOL    HW122973   3.249   1.561   4.563 -0.5247  1.7230 -1.5459
 3779SOL    HW222974   3.246   1.702   4.564 -0.8564  0.9964  1.2163
 3780SOL     OW22975   4.174   0.820  16.152 -0.3750 -0.1542 -0.1869
 3780SOL    HW122976   4.164   0.815  16.057  0.0433  1.0340 -0.2993
 3780SOL    HW222977   4.175   0.731  16.187  2.0877  0.8254  2.2542
 3781SOL     OW22978   3.610   3.042  13.364  0.2686 -0.0730  0.2423
 3781SOL    HW122979   3.694   2.998  13.358  0.3597  0.3813 -1.9118
 3781SOL    HW222980   3.606   3.058  13.458 -1.1905 -0.7090  0.2915
 3782SOL     OW22981   1.975   0.732  11.212 -0.3420 -0.0508 -0.0256
 3782SOL    HW122982   1.941   0.729  11.301  4.1686 -1.3602  1.6328
 3782SOL    HW222983   1.931   0.656  11.174 -0.2933  0.1760 -0.5359
 3783SOL     OW22984   0.736   1.883   7.267  0.2386  0.0521 -0.4618
 3783SOL    HW122985   0.809   1.906   7.210 -1.7440 -0.4735 -3.1903
 3783SOL    HW222986   0.689   1.955   7.226  0.0797 -1.1594 -2.3873
 3784SOL     OW22987   3.744   3.874   8.401 -0.4413  0.0327  0.2871
 3784SOL    HW122988   3.672   3.822   8.437 -0.3739  0.9053  1.6778
 3784SOL    HW222989   3.766   3.926   8.479 -1.9680  0.1742  0.6299
 3785SOL     OW22990   4.431   4.691   6.679 -0.2065 -0.0036 -0.2009
 3785SOL    HW122991   4.412   4.605   6.641  0.4939  0.3159 -1.2625
 3785SOL    HW222992   4.346   4.736   6.685 -0.6616 -0.7684 -0.9664
 3786SOL     OW22993   0.015   0.304   3.416 -0.1083 -0.0682 -0.6612
 3786SOL    HW122994   4.710   0.234   3.464 -0.0496  1.3703  1.4877
 3786SOL    HW222995   4.689   0.371   3.402  0.0851  0.0404 -1.0661
 3787SOL     OW22996   4.527   0.291   4.864  0.2179 -0.3253  0.2747
 3787SOL    HW122997   4.515   0.200   4.837  0.0545  0.6457 -2.9422
 3787SOL    HW222998   4.598   0.325   4.810 -0.5103  0.4856 -0.1822
 3788SOL     OW22999   3.454   0.693   2.174  0.0999 -0.2716  0.3366
 3788SOL    HW123000   3.482   0.699   2.265  0.4165  0.1602  0.2129
 3788SOL    HW223001   3.396   0.618   2.160  0.1481 -0.1943 -0.2804
 3789SOL     OW23002   1.626   3.863  16.249 -0.2911 -0.4086 -0.4248
 3789SOL    HW123003   1.687   3.931  16.278 -0.6612  0.1133 -0.8779
 3789SOL    HW223004   1.607   3.914  16.170  1.6066  1.7971  0.5312
 3790SOL     OW23005   0.048   0.508   2.472  0.2672 -0.5286 -0.8645
 3790SOL    HW123006   4.697   0.507   2.500  1.4813 -0.7698  3.1252
 3790SOL    HW223007   0.053   0.599   2.442 -1.2114 -0.0559  0.3249
 3791SOL     OW23008   3.820   4.406   6.588  0.1405 -0.1389  0.1873
 3791SOL    HW123009   3.732   4.432   6.561  0.9972  0.2180 -2.2407
 3791SOL    HW223010   3.866   4.489   6.579  0.5492 -0.4111 -0.1839
 3792SOL     OW23011   0.340   0.485  12.152 -0.1144  0.2080  0.0184
 3792SOL    HW123012   0.252   0.515  12.176  0.0616  0.0960  0.8083
 3792SOL    HW223013   0.360   0.539  12.075  0.1369  0.0622 -0.0190
 3793SOL     OW23014   0.173   0.917   2.611  0.0115 -0.1760  0.1466
 3793SOL    HW123015   0.268   0.913   2.606  0.2374 -0.3136  4.0920
 3793SOL    HW223016   0.164   0.989   2.675 -1.6665 -2.4597  2.5038
 3794SOL     OW23017   4.024   2.595   5.855  0.8513  0.1044 -0.1590
 3794SOL    HW123018   3.984   2.610   5.769  1.5182 -0.2842 -0.5351
 3794SOL    HW223019   4.061   2.681   5.874  3.2940 -0.5270 -2.0371
 3795SOL     OW23020   2.312   2.767   2.890 -0.4951  0.0587  0.0882
 3795SOL    HW123021   2.363   2.711   2.831 -0.6695 -0.2742  0.2486
 3795SOL    HW223022   2.340   2.730   2.974 -0.4450 -0.7442 -0.2768
 3796SOL     OW23023   0.133   0.846   7.391  0.2012 -0.2261 -0.6160
 3796SOL    HW123024   0.137   0.781   7.321 -4.5283 -1.8829  0.6525
 3796SOL    HW223025   0.182   0.919   7.354  1.9064 -1.0254  0.0431
 3797SOL     OW23026   3.037   2.546   1.947  0.1655  0.6055 -0.4961
 3797SOL    HW123027   2.992   2.523   2.029  2.2464  0.5065  0.6131
 3797SOL    HW223028   3.039   2.642   1.949  1.1429  0.6127 -2.2262
 3798SOL     OW23029   2.171   2.491  13.215  0.2433 -0.0926  0.4791
 3798SOL    HW123030   2.162   2.469  13.308 -2.9490  0.8379  0.3653
 3798SOL    HW223031   2.098   2.441  13.180  0.6049  0.5746 -1.1934
 3799SOL     OW23032   1.535   1.275   6.217 -0.1282  0.3246 -0.0962
 3799SOL    HW123033   1.506   1.192   6.181  2.1242 -1.2736  1.7721
 3799SOL    HW223034   1.468   1.282   6.286 -1.0199 -1.1094 -0.8218
 3800SOL     OW23035   1.851   2.534  12.380 -0.0245 -0.0698  0.1235
 3800SOL    HW123036   1.916   2.556  12.312 -1.7444  1.5551 -1.0039
 3800SOL    HW223037   1.829   2.624  12.406  0.8028  0.3428 -0.5841
 3801SOL     OW23038   3.787   2.580   7.515  0.1587  0.1007 -0.6162
 3801SOL    HW123039   3.832   2.662   7.536  0.6217  0.3015 -2.3540
 3801SOL    HW223040   3.723   2.570   7.586  0.8439 -3.5914 -0.5447
 3802SOL     OW23041   4.517   1.957   0.575  0.0726 -0.5005  0.1925
 3802SOL    HW123042   4.587   1.908   0.619 -0.2563  0.6229  1.9708
 3802SOL    HW223043   4.524   1.942   0.481 -0.4427 -0.7517  0.1975
 3803SOL     OW23044   4.194   1.280   1.981  0.0213  0.0452  0.3850
 3803SOL    HW123045   4.139   1.279   2.059  3.5587 -2.4368  2.7950
 3803SOL    HW223046   4.144   1.327   1.914  0.6727 -1.0761 -0.8870
 3804SOL     OW23047   0.133   3.289   3.340  0.1197  0.1237  0.2786
 3804SOL    HW123048   0.083   3.299   3.421  1.3665 -2.6130  1.4043
 3804SOL    HW223049   0.163   3.198   3.339 -1.6022 -0.4637  1.8106
 3805SOL     OW23050   1.636   1.134   9.480 -0.6342  0.0391 -0.0764
 3805SOL    HW123051   1.541   1.143   9.485 -0.3635  3.0884 -0.2258
 3805SOL    HW223052   1.657   1.132   9.387  0.3488  1.9695  0.0959
 3806SOL     OW23053   2.803   2.516  11.220  0.3898  0.1074 -0.0231
 3806SOL    HW123054   2.765   2.566  11.147 -0.3376 -0.7200 -0.2030
 3806SOL    HW223055   2.807   2.584  11.287  0.2453  1.7872 -1.7034
 3807SOL     OW23056   3.299   3.982   9.520  0.3821  0.1550  0.0641
 3807SOL    HW123057   3.277   3.969   9.428 -0.3604 -0.8641  0.3892
 3807SOL    HW223058   3.391   4.009   9.514 -0.2762  2.5095  0.7022
 3808SOL     OW23059   4.154   2.885  14.897  0.2339 -0.3523  0.2246
 3808SOL    HW123060   4.130   2.903  14.987  0.6435 -0.9958  0.4631
 3808SOL    HW223061   4.153   2.971  14.855 -0.6180  0.0572  1.0973
 3809SOL     OW23062   2.026   0.314  16.967 -0.0389 -0.4753 -0.0503
 3809SOL    HW123063   2.079   0.302  17.046  1.0123 -3.6652 -1.2321
 3809SOL    HW223064   2.090   0.310  16.895 -0.9111  3.5194 -1.0647
 3810SOL     OW23065   2.281   4.113   8.693 -0.2639 -0.0827  0.6553
 3810SOL    HW123066   2.225   4.125   8.770  1.0390  1.7255  1.3411
 3810SOL    HW223067   2.367   4.123   8.733  0.0619 -2.2671  0.4798
 3811SOL     OW23068   2.419   4.122   9.577 -0.5074 -0.5448  0.4303
 3811SOL    HW123069   2.397   4.206   9.617  2.6347  0.8367 -0.7370
 3811SOL    HW223070   2.468   4.083   9.649  0.9609 -0.6683 -0.6390
 3812SOL     OW23071   1.290   1.741   4.925  0.5087 -0.1703 -0.2446
 3812SOL    HW123072   1.374   1.714   4.964 -0.4674 -1.1603  1.1741
 3812SOL    HW223073   1.322   1.818   4.878 -0.7650  1.2360  1.2107
 3813SOL     OW23074   0.535   0.583   5.451  0.0444 -0.2421  0.0187
 3813SOL    HW123075   0.548   0.677   5.460 -0.5497 -0.4491  2.9419
 3813SOL    HW223076   0.537   0.569   5.356  2.6873  2.1492 -0.2713
 3814SOL     OW23077   1.369   2.974  16.459 -0.4063  0.2440  0.7132
 3814SOL    HW123078   1.441   3.034  16.440  0.9167 -1.1860  1.1521
 3814SOL    HW223079   1.381   2.911  16.389 -2.4874  1.0973 -0.3971
 3815SOL     OW23080   2.048   2.579   0.881  0.3183  0.4930  0.6442
 3815SOL    HW123081   2.085   2.512   0.822 -0.9064  0.5012 -0.1493
 3815SOL    HW223082   2.094   2.556   0.962  1.3049 -0.8748 -0.2905
 3816SOL     OW23083   1.543   0.306  16.180 -0.3388  0.5205  0.8172
 3816SOL    HW123084   1.586   0.222  16.199  0.8296  0.8042 -0.6054
 3816SOL    HW223085   1.528   0.340  16.268  2.3284 -0.2355  1.5712
 3817SOL     OW23086   0.232   1.076  16.324  0.0966  0.7180 -0.7063
 3817SOL    HW123087   0.191   1.081  16.410  0.9142  0.5642 -0.3059
 3817SOL    HW223088   0.320   1.050  16.352 -0.3327  0.2126  0.1890
 3818SOL     OW23089   3.369   3.892  10.760 -0.2489 -0.0985 -0.0314
 3818SOL    HW123090   3.436   3.824  10.767  0.4753  0.7707  1.5261
 3818SOL    HW223091   3.408   3.948  10.693 -0.5316  1.2753  0.9369
 3819SOL     OW23092   2.338   1.855   8.789 -0.1005 -0.2840 -0.1837
 3819SOL    HW123093   2.394   1.817   8.856  0.0272  1.0981  0.5030
 3819SOL    HW223094   2.400   1.890   8.725 -3.2992 -1.0339 -3.7022
 3820SOL     OW23095   1.421   0.913   1.294 -0.6830 -0.2012 -0.3365
 3820SOL    HW123096   1.445   0.893   1.384 -0.5479  3.7663  0.4668
 3820SOL    HW223097   1.351   0.849   1.278  0.1500 -1.0881 -0.4786
 3821SOL     OW23098   4.666   3.146  10.201  0.3302  0.1050 -0.1433
 3821SOL    HW123099   4.631   3.061  10.227  0.4509  0.3386  0.8035
 3821SOL    HW223100   4.735   3.123  10.139 -0.1503 -1.5108 -0.0983
 3822SOL     OW23101   3.694   0.707   1.727 -0.5364 -0.3300 -0.3577
 3822SOL    HW123102   3.628   0.663   1.780  0.7873 -2.8775 -0.8683
 3822SOL    HW223103   3.656   0.795   1.734 -0.6883 -0.3273 -1.1747
 3823SOL     OW23104   4.342   3.900  12.462 -0.3368  0.3622  0.1145
 3823SOL    HW123105   4.331   3.820  12.513  1.5029 -0.0569 -0.1227
 3823SOL    HW223106   4.400   3.869  12.392  0.4546 -2.6701  2.0958
 3824SOL     OW23107   1.993   0.197   7.346  0.1658 -0.0575  0.3538
 3824SOL    HW123108   1.901   0.201   7.319 -0.2444 -0.3589  1.7087
 3824SOL    HW223109   2.027   0.286   7.349 -0.2235  0.1176 -0.2788
 3825SOL     OW23110   2.086   2.818   2.706 -0.3270 -0.2556  0.0431
 3825SOL    HW123111   2.111   2.725   2.711  0.2298 -0.1048  0.0053
 3825SOL    HW223112   2.153   2.856   2.763  1.0264  0.4358 -2.0016
 3826SOL     OW23113   3.134   2.669   4.734  0.3758  0.0104 -0.3354
 3826SOL    HW123114   3.215   2.710   4.764 -0.7404  1.5642  0.5117
 3826SOL    HW223115   3.158   2.644   4.644 -1.7354 -0.8922 -0.6514
 3827SOL     OW23116   0.095   1.562   2.970 -0.3256 -0.0819  0.2429
 3827SOL    HW123117   0.165   1.545   2.908 -1.4973 -1.0293 -0.8356
 3827SOL    HW223118   0.035   1.487   2.976 -2.9277  1.9378 -0.7060
 3828SOL     OW23119   0.498   4.676   6.449  0.2100 -0.0554  0.0316
 3828SOL    HW123120   0.409   4.663   6.415  0.0516  0.5121  0.2313
 3828SOL    HW223121   0.512   4.590   6.488 -0.4414 -1.1774 -2.2197
 3829SOL     OW23122   1.665   4.628   6.435  0.3240  0.5354 -0.1071
 3829SOL    HW123123   1.720   4.565   6.482 -0.8056 -0.5425 -0.2230
 3829SOL    HW223124   1.688   4.610   6.344 -1.6404 -2.4308 -0.0005
 3830SOL     OW23125   2.964   2.624   3.918  0.3333  0.0617 -0.1628
 3830SOL    HW123126   3.004   2.710   3.927  0.9947 -0.1978 -0.6493
 3830SOL    HW223127   3.025   2.587   3.853 -1.6047 -1.4450 -1.1498
 3831SOL     OW23128   3.452   0.047  10.447  0.5721  0.0786 -0.1619
 3831SOL    HW123129   3.481   0.132  10.414 -0.8451  0.7215  0.2477
 3831SOL    HW223130   3.374   0.079  10.492  0.3979 -0.6630  0.0659
 3832SOL     OW23131   3.469   4.102   7.176 -0.0153  0.4677 -0.7127
 3832SOL    HW123132   3.463   4.149   7.093  1.2150  3.4683  0.8998
 3832SOL    HW223133   3.380   4.067   7.178  0.2591 -0.1261  1.1114
 3833SOL     OW23134   0.328   1.157   6.295 -0.0829 -0.2392  0.0912
 3833SOL    HW123135   0.316   1.226   6.230 -0.5316 -0.2660  0.1457
 3833SOL    HW223136   0.403   1.114   6.252  1.0666  1.5073  0.3538
 3834SOL     OW23137   1.656   2.901   2.258 -0.1240  0.7663  0.2926
 3834SOL    HW123138   1.731   2.848   2.282  0.0366  0.9563  0.2070
 3834SOL    HW223139   1.690   2.991   2.264 -1.7840  1.3459  1.0960
 3835SOL     OW23140   4.345   0.775  13.779 -0.1908 -0.3582 -0.5966
 3835SOL    HW123141   4.414   0.749  13.718  3.6702 -0.5573  3.8934
 3835SOL    HW223142   4.302   0.692  13.798  1.2075 -1.4757 -2.3357
 3836SOL     OW23143   0.311   3.928   5.556  0.2953 -0.3878 -0.1956
 3836SOL    HW123144   0.283   3.942   5.646 -1.8867  0.4272 -0.9769
 3836SOL    HW223145   0.246   3.862   5.533  0.1759 -0.7988  1.3368
 3837SOL     OW23146   3.357   0.337   7.663 -0.0295 -0.2674 -0.6432
 3837SOL    HW123147   3.296   0.271   7.630  0.4479 -1.5743  1.0903
 3837SOL    HW223148   3.315   0.347   7.749  2.1956  1.9347  0.1943
 3838SOL     OW23149   4.018   0.594   9.263  0.1224 -0.2033  0.0198
 3838SOL    HW123150   4.090   0.658   9.260  3.1362 -3.5583  0.4019
 3838SOL    HW223151   3.939   0.634   9.227  1.3345  0.1957 -2.2244
 3839SOL     OW23152   4.266   0.420  14.490 -0.5407  0.4803  0.0027
 3839SOL    HW123153   4.351   0.424  14.533  0.3515  1.0206 -1.7975
 3839SOL    HW223154   4.211   0.477  14.543 -2.0590 -2.1224  1.2597
 3840SOL     OW23155   2.196   3.963   3.848 -0.6697  0.1125 -0.3848
 3840SOL    HW123156   2.241   4.039   3.810  1.0231  0.1301  1.5929
 3840SOL    HW223157   2.243   3.887   3.814 -1.1818  0.3528 -1.5998
 3841SOL     OW23158   3.144   1.665   7.199 -0.0265 -0.1483  0.3309
 3841SOL    HW123159   3.051   1.680   7.177  0.5067  2.0321 -0.4880
 3841SOL    HW223160   3.132   1.597   7.265  0.6625 -2.4097 -1.9182
 3842SOL     OW23161   2.873   3.059   3.421 -0.3620 -0.3500 -0.4804
 3842SOL    HW123162   2.810   3.028   3.487 -1.5727 -0.9529 -1.9180
 3842SOL    HW223163   2.822   3.126   3.377 -1.4183  0.7532  2.3991
 3843SOL     OW23164   4.329   3.942  10.424 -0.3380  0.4701  0.1171
 3843SOL    HW123165   4.327   3.896  10.340  0.9615  1.9904 -0.7510
 3843SOL    HW223166   4.355   4.026  10.385 -0.4203  0.0489 -0.8564
 3844SOL     OW23167   0.907   0.387   7.052  0.0759  0.2724  0.1820
 3844SOL    HW123168   0.919   0.292   7.046 -1.0999  0.0793  1.0494
 3844SOL    HW223169   0.917   0.391   7.147  0.9543 -2.7639  0.2199
 3845SOL     OW23170   3.020   2.112   3.467  0.2478  0.0753 -0.5832
 3845SOL    HW123171   2.950   2.067   3.420  0.2566 -1.5909  1.0149
 3845SOL    HW223172   3.012   2.081   3.557 -1.7926 -0.0032 -0.8008
 3846SOL     OW23173   2.569   4.697  13.649 -0.0295  0.1358  0.9707
 3846SOL    HW123174   2.515   4.728  13.576  2.1563  0.9280 -0.2997
 3846SOL    HW223175   2.505   4.705  13.721  0.4543  0.1425  1.3960
 3847SOL     OW23176   0.503   0.959  13.663  0.1825 -0.0041 -0.2416
 3847SOL    HW123177   0.418   0.966  13.621  0.3380  0.1806 -0.5247
 3847SOL    HW223178   0.518   1.047  13.698  2.6205 -0.4246 -0.2174
 3848SOL     OW23179   3.219   0.261   8.271 -0.4585  0.0493  0.5541
 3848SOL    HW123180   3.195   0.354   8.272 -2.2712 -0.3915 -2.4785
 3848SOL    HW223181   3.145   0.213   8.236 -1.8312  1.2070  1.8509
 3849SOL     OW23182   2.557   4.285   9.776  0.1647 -0.4488  0.1364
 3849SOL    HW123183   2.614   4.361   9.787 -0.0886 -0.1142 -0.8804
 3849SOL    HW223184   2.619   4.215   9.754  0.6556  0.3704 -1.1148
 3850SOL     OW23185   1.480   3.192   2.405 -0.3176  0.0521  0.2564
 3850SOL    HW123186   1.556   3.249   2.394 -0.6209  0.2553 -0.7891
 3850SOL    HW223187   1.517   3.122   2.459 -1.6023 -1.3487 -0.6942
 3851SOL     OW23188   3.058   2.500   5.645  0.4496  0.2288 -0.4758
 3851SOL    HW123189   3.119   2.571   5.627 -0.2923  0.4864 -2.0012
 3851SOL    HW223190   3.067   2.443   5.568 -1.4069  0.5628 -0.9274
 3852SOL     OW23191   0.095   2.253   3.762 -0.1490 -0.0776 -0.4343
 3852SOL    HW123192   0.070   2.227   3.673  0.8787  0.5830 -0.9182
 3852SOL    HW223193   0.133   2.172   3.797  1.4630  1.0940  0.4966
 3853SOL     OW23194   3.457   3.675   4.074  0.6703 -0.2372 -0.0740
 3853SOL    HW123195   3.510   3.726   4.013 -2.0390  0.7653 -1.5602
 3853SOL    HW223196   3.491   3.703   4.159  1.2937 -1.5053  0.1097
 3854SOL     OW23197   3.334   3.497   7.361 -0.1670  0.3325 -0.1159
 3854SOL    HW123198   3.422   3.534   7.369  0.7219 -1.4694 -1.6725
 3854SOL    HW223199   3.350   3.459   7.275 -3.4212  1.1342 -1.0476
 3855SOL     OW23200   4.607   3.962   7.489  0.6318  0.4968 -0.3207
 3855SOL    HW123201   4.593   3.871   7.465  1.7758  0.3074 -0.2420
 3855SOL    HW223202   4.652   4.002   7.414 -0.8452  0.6168 -1.1467
 3856SOL     OW23203   2.304   4.216   3.787  0.5221  0.6392 -0.2760
 3856SOL    HW123204   2.395   4.197   3.811 -0.1003 -1.5873  0.2430
 3856SOL    HW223205   2.308   4.228   3.692  1.3552  0.2682 -0.2915
 3857SOL     OW23206   0.998   2.534  14.109 -0.1781 -0.0096  0.8653
 3857SOL    HW123207   1.089   2.562  14.099 -0.0391 -0.7515  0.1247
 3857SOL    HW223208   0.992   2.540  14.205 -2.0066 -1.2790  0.8272
 3858SOL     OW23209   3.727   4.003   8.683 -0.2111  0.3672  0.0895
 3858SOL    HW123210   3.760   4.093   8.688 -0.9750  0.5492  1.8572
 3858SOL    HW223211   3.658   3.994   8.749 -1.5775  0.7203 -1.2996
 3859SOL     OW23212   4.133   2.323   2.739 -0.6734  0.0886  0.0067
 3859SOL    HW123213   4.167   2.252   2.684 -0.2301  0.5110 -0.2740
 3859SOL    HW223214   4.146   2.283   2.825 -2.4496  0.4281  0.4340
 3860SOL     OW23215   0.163   0.276   3.863  0.0904 -0.6923  0.8364
 3860SOL    HW123216   0.156   0.313   3.951  2.5762  2.4781 -0.2991
 3860SOL    HW223217   0.126   0.187   3.868 -0.2147 -0.4871  2.3227
 3861SOL     OW23218   2.061   0.546   1.283 -0.3206 -0.2875 -0.0167
 3861SOL    HW123219   1.981   0.505   1.317  1.1055 -3.2454 -0.2367
 3861SOL    HW223220   2.038   0.535   1.190 -1.3172 -0.3509  0.2396
 3862SOL     OW23221   4.629   1.193   3.927  0.8181  0.2928  0.4621
 3862SOL    HW123222   4.610   1.144   4.007 -0.8643  1.3428  0.7161
 3862SOL    HW223223   4.670   1.271   3.964 -0.6023  1.4306 -0.3497
 3863SOL     OW23224   2.891   4.428   3.372 -0.2902 -0.2733  0.1938
 3863SOL    HW123225   2.971   4.479   3.368 -1.0002  0.6841 -1.8369
 3863SOL    HW223226   2.869   4.410   3.280 -1.9544  0.3999  0.4515
 3864SOL     OW23227   0.108   0.615   0.903 -0.1959  0.0894 -0.2480
 3864SOL    HW123228   0.053   0.590   0.829 -1.5334  1.9140  0.1308
 3864SOL    HW223229   0.192   0.611   0.858  0.2300 -1.0536  0.6333
 3865SOL     OW23230   0.923   4.450   4.157  0.5544  0.1426  0.1319
 3865SOL    HW123231   0.938   4.363   4.193 -0.4837 -0.1994 -0.2669
 3865SOL    HW223232   0.927   4.465   4.063  0.5848 -0.8392 -0.0213
 3866SOL     OW23233   0.953   4.143   6.107  0.4757  0.5975  0.1896
 3866SOL    HW123234   1.025   4.196   6.144  1.4504  0.4136 -1.4334
 3866SOL    HW223235   0.986   4.053   6.103 -0.8839  0.0617  1.1239
 3867SOL     OW23236   3.639   3.980  15.812 -0.6355 -0.3193 -0.3067
 3867SOL    HW123237   3.659   4.074  15.818 -1.3680 -0.1696 -0.1914
 3867SOL    HW223238   3.667   3.961  15.723  0.2823 -1.7436  0.2812
 3868SOL     OW23239   4.704   1.908   8.410  0.3023  0.6486  0.3000
 3868SOL    HW123240   0.044   1.857   8.419 -0.8605 -1.0081  1.3483
 3868SOL    HW223241   4.645   1.871   8.476 -0.6205  0.0961 -0.8294
 3869SOL     OW23242   1.002   0.784   5.620  0.4089  0.0716 -0.6937
 3869SOL    HW123243   1.021   0.692   5.601  1.3092 -0.1627  1.4103
 3869SOL    HW223244   1.081   0.795   5.672 -2.3488  0.4181  3.4631
 3870SOL     OW23245   0.027   1.970   6.031  0.0553  0.1810  0.2165
 3870SOL    HW123246   4.704   1.899   6.026  1.9396 -1.4023 -0.7665
 3870SOL    HW223247   0.025   1.995   6.124 -2.6050  1.0740 -0.0743
 3871SOL     OW23248   0.170   3.551   8.570 -0.4701  0.2546 -0.4661
 3871SOL    HW123249   0.169   3.489   8.642  1.5079  0.4049 -0.2923
 3871SOL    HW223250   0.235   3.617   8.596 -0.9153 -1.0731  4.0072
 3872SOL     OW23251   1.677   2.768   6.249 -0.0272  0.2347  0.2846
 3872SOL    HW123252   1.601   2.768   6.307 -0.9938  2.0753 -1.0056
 3872SOL    HW223253   1.709   2.857   6.236  2.0783 -0.9835 -2.8159
 3873SOL     OW23254   1.619   2.721   5.952 -0.3874  0.1729  0.1775
 3873SOL    HW123255   1.675   2.710   6.029 -0.6462 -1.5237  0.1411
 3873SOL    HW223256   1.535   2.742   5.992 -0.5603  0.3677 -0.2857
 3874SOL     OW23257   0.224   1.584   7.756  0.3644  0.7414 -0.3040
 3874SOL    HW123258   0.211   1.563   7.848  1.8491 -0.9752 -0.4880
 3874SOL    HW223259   0.198   1.506   7.708  1.6549  0.7659 -1.0632
 3875SOL     OW23260   1.001   0.441   7.582  0.1356  0.1473 -0.1453
 3875SOL    HW123261   1.019   0.365   7.638  0.9033 -0.3940 -1.1247
 3875SOL    HW223262   1.089   0.453   7.547  1.6940  0.1431  3.7487
 3876SOL     OW23263   4.428   2.782   2.921  0.1068  0.3390  0.0905
 3876SOL    HW123264   4.475   2.740   2.993 -1.8256  1.0927  1.7797
 3876SOL    HW223265   4.348   2.731   2.927 -0.9439  1.7670 -1.7804
 3877SOL     OW23266   2.723   4.350   5.636  0.2756  0.3812  0.1080
 3877SOL    HW123267   2.788   4.368   5.567 -1.8776  0.7815 -1.7969
 3877SOL    HW223268   2.705   4.433   5.680 -2.7441 -1.0750  1.5389
 3878SOL     OW23269   0.737   1.052   8.308 -0.2920  0.0378  0.3194
 3878SOL    HW123270   0.717   0.990   8.378  0.0244  2.4255  2.5665
 3878SOL    HW223271   0.678   1.125   8.329  0.6368  1.1479 -0.9649
 3879SOL     OW23272   0.442   0.018   7.951  0.1336 -0.4122 -0.0657
 3879SOL    HW123273   0.386   0.096   7.944 -0.4240 -0.8652 -0.5948
 3879SOL    HW223274   0.488   0.013   7.867 -1.0168  2.1147 -0.8433
 3880SOL     OW23275   1.573   3.004   2.607  0.0304 -0.4563  0.2670
 3880SOL    HW123276   1.560   3.015   2.702 -0.8657  1.3284 -0.0625
 3880SOL    HW223277   1.662   2.969   2.601 -0.7290 -2.2948 -0.0630
 3881SOL     OW23278   1.855   2.889   1.542  0.0740 -0.5231 -0.0998
 3881SOL    HW123279   1.809   2.839   1.609  0.7315 -1.4852 -0.3668
 3881SOL    HW223280   1.934   2.922   1.586 -0.1040  0.0859 -0.2354
 3882SOL     OW23281   2.414   3.918   2.460  0.0982  0.3336  0.5837
 3882SOL    HW123282   2.439   3.846   2.518 -1.7146  0.2330  1.2444
 3882SOL    HW223283   2.431   3.872   2.377 -1.5064  2.5914 -0.9745
 3883SOL     OW23284   1.348   2.339   3.061 -0.0169  0.9544 -0.2481
 3883SOL    HW123285   1.360   2.314   3.153 -0.0979 -3.0114 -1.3093
 3883SOL    HW223286   1.371   2.261   3.011 -1.1041 -1.2049  2.5846
 3884SOL     OW23287   2.409   2.233   6.873 -0.2555 -0.1433  0.0205
 3884SOL    HW123288   2.368   2.208   6.956 -0.1150  0.4978  0.2894
 3884SOL    HW223289   2.394   2.328   6.875  1.1174  0.0899 -0.8608
 3885SOL     OW23290   3.721   2.661   3.013  0.2307 -0.2789 -0.0184
 3885SOL    HW123291   3.663   2.709   3.072 -1.5249 -0.7585 -1.3490
 3885SOL    HW223292   3.672   2.579   3.010  0.2570 -0.2368 -1.4468
 3886SOL     OW23293   3.148   4.068   3.934  0.4619 -0.2441  0.1421
 3886SOL    HW123294   3.163   4.141   3.873  0.7174  1.5285  2.3238
 3886SOL    HW223295   3.106   4.120   4.002 -1.0016  0.4032 -1.2588
 3887SOL     OW23296   0.134   3.011  11.380  0.7452 -0.4873 -0.6713
 3887SOL    HW123297   0.130   2.994  11.474  0.4789  2.1788 -0.1950
 3887SOL    HW223298   0.063   2.954  11.351  0.0030 -0.2277  0.6480
 3888SOL     OW23299   1.813   4.282   6.005 -0.1921  0.0556  0.2037
 3888SOL    HW123300   1.757   4.237   5.942 -0.9617  0.5086  0.5645
 3888SOL    HW223301   1.754   4.343   6.049  1.7730  1.8245  0.3733
 3889SOL     OW23302   2.199   2.544   3.558 -0.0132 -0.0357  0.5933
 3889SOL    HW123303   2.269   2.494   3.516  0.5698 -0.2790  1.8353
 3889SOL    HW223304   2.173   2.602   3.487 -1.7935 -1.0869  0.3872
 3890SOL     OW23305   0.788   1.339   3.833  0.3734 -0.1431 -1.0024
 3890SOL    HW123306   0.830   1.308   3.913  1.1363 -0.8312 -1.6695
 3890SOL    HW223307   0.813   1.432   3.834 -0.9153  0.1902 -0.3962
 3891SOL     OW23308   3.021   2.774  17.153 -1.3107 -0.4025 -0.2467
 3891SOL    HW123309   3.047   2.866  17.159  1.1966 -1.0617 -0.8251
 3891SOL    HW223310   3.042   2.756  17.245  3.6164 -0.7502 -1.4403
 3892SOL     OW23311   4.084   2.561   3.145 -0.2709 -0.3132 -0.2075
 3892SOL    HW123312   4.135   2.534   3.222 -1.6829 -2.5556 -0.0538
 3892SOL    HW223313   4.046   2.473   3.137  1.6260 -1.1542 -0.1118
 3893SOL     OW23314   3.519   2.431   5.184  0.6453 -0.5223  0.0401
 3893SOL    HW123315   3.485   2.400   5.268 -1.3994 -0.9824 -0.9444
 3893SOL    HW223316   3.608   2.396   5.183  1.2334  1.0905 -3.0780
 3894SOL     OW23317   0.672   0.344   2.467 -0.0015 -0.0478  0.1545
 3894SOL    HW123318   0.628   0.351   2.382  1.3634  2.2409 -0.3714
 3894SOL    HW223319   0.601   0.304   2.517 -1.1676  2.0444  0.1776
 3895SOL     OW23320   3.900   3.370   5.585 -0.3192  0.4475 -0.1009
 3895SOL    HW123321   3.981   3.381   5.636 -1.8150  3.3224  1.6806
 3895SOL    HW223322   3.846   3.449   5.596 -0.6872  0.5186 -2.4483
 3896SOL     OW23323   4.261   2.065   3.665  0.0286  0.2582  0.2323
 3896SOL    HW123324   4.275   1.972   3.681  2.2752  0.4029 -0.8986
 3896SOL    HW223325   4.348   2.092   3.634  1.1821 -0.2821  2.9695
 3897SOL     OW23326   1.528   3.005  13.691  0.2361  0.0441 -0.0764
 3897SOL    HW123327   1.495   2.920  13.662  1.7803 -0.9107  0.9715
 3897SOL    HW223328   1.531   3.048  13.605  1.1214  0.6193  0.2435
 3898SOL     OW23329   2.101   4.471   3.354 -0.0145  0.3885  0.0331
 3898SOL    HW123330   2.151   4.501   3.430 -0.0803  1.2861 -0.2838
 3898SOL    HW223331   2.014   4.458   3.393 -0.7901 -1.7410 -2.4528
 3899SOL     OW23332   2.948   0.382   4.398 -0.1572  0.3539 -0.0525
 3899SOL    HW123333   2.938   0.289   4.378  0.2093 -0.1516  2.1192
 3899SOL    HW223334   2.947   0.379   4.494 -1.9665 -1.3657 -0.1155
 3900SOL     OW23335   1.533   4.575  15.017  0.3306  0.0279 -0.3075
 3900SOL    HW123336   1.547   4.646  15.079  0.4212 -2.6045  2.6715
 3900SOL    HW223337   1.620   4.579  14.977  0.8916 -1.4401  0.7545
 3901SOL     OW23338   1.091   3.297  13.827  0.0451  0.2943  0.6827
 3901SOL    HW123339   1.132   3.238  13.890 -1.5258 -1.1100  0.3989
 3901SOL    HW223340   1.035   3.345  13.889 -0.3260 -2.4887  2.5221
 3902SOL     OW23341   1.026   1.300   3.571 -0.4246  0.1864 -0.4302
 3902SOL    HW123342   0.987   1.233   3.627 -0.3748  0.2214 -0.3535
 3902SOL    HW223343   0.956   1.304   3.506  0.6433 -2.3606 -1.7248
 3903SOL     OW23344   0.342   0.587   4.393  0.4291 -0.3768 -0.0327
 3903SOL    HW123345   0.279   0.659   4.403 -3.3281 -3.4306 -1.6082
 3903SOL    HW223346   0.363   0.580   4.299  1.1254  1.5252 -0.0272
 3904SOL     OW23347   1.282   3.102  13.757  0.1340  0.1368 -0.8067
 3904SOL    HW123348   1.252   3.017  13.725  0.3221 -0.0048 -0.6040
 3904SOL    HW223349   1.375   3.082  13.759  0.3155  0.6970 -4.1364
 3905SOL     OW23350   0.006   0.092  16.442 -0.4497  0.2876 -0.1051
 3905SOL    HW123351   4.696   0.174  16.448  0.0577  0.5697  0.3255
 3905SOL    HW223352   0.039   0.075  16.530  1.7591 -1.8527 -1.3601
 3906SOL     OW23353   0.380   2.945   8.915 -0.2417  0.2012 -0.2235
 3906SOL    HW123354   0.411   2.871   8.967 -0.4638  0.7219  0.6565
 3906SOL    HW223355   0.286   2.935   8.932  0.0625  1.8703  2.3187
 3907SOL     OW23356   2.624   0.408   3.386 -0.1503  0.3164 -0.2137
 3907SOL    HW123357   2.679   0.342   3.344  0.5385  0.9365 -0.2706
 3907SOL    HW223358   2.691   0.466   3.420 -1.7690  1.7178  0.5911
 3908SOL     OW23359   2.271   4.209  13.217  0.1498  0.1669 -0.5592
 3908SOL    HW123360   2.257   4.114  13.215  1.5081 -0.0522  0.1714
 3908SOL    HW223361   2.301   4.214  13.126  1.1101 -0.6054 -0.2934
 3909SOL     OW23362   2.286   0.972   7.636 -0.4100 -0.3005 -0.2556
 3909SOL    HW123363   2.303   0.878   7.645  0.0743 -0.0872  1.0436
 3909SOL    HW223364   2.305   0.978   7.542  0.0437  0.5646 -0.1087
 3910SOL     OW23365   3.598   4.505  11.705  0.1080 -0.0984 -0.1806
 3910SOL    HW123366   3.583   4.536  11.616  1.3325  2.4130  0.4708
 3910SOL    HW223367   3.568   4.576  11.764  1.5523 -1.8451  2.6646
 3911SOL     OW23368   0.758   2.582   8.988 -0.3885  0.1137  0.0008
 3911SOL    HW123369   0.716   2.648   8.932 -0.4769 -0.9426 -1.1721
 3911SOL    HW223370   0.753   2.627   9.072  2.1977 -0.8383  0.6443
 3912SOL     OW23371   3.198   0.786   3.433 -0.3460 -0.1137 -0.4591
 3912SOL    HW123372   3.240   0.769   3.518 -2.6425 -3.5626  0.0087
 3912SOL    HW223373   3.257   0.852   3.397  0.3147 -0.6274 -0.3292
 3913SOL     OW23374   0.626   0.905   5.948  0.4142  0.2398  0.2819
 3913SOL    HW123375   0.656   0.942   5.864 -0.2339 -2.4415 -1.1409
 3913SOL    HW223376   0.533   0.926   5.938  0.2810 -0.1159  0.7989
 3914SOL     OW23377   0.892   0.638   7.739  0.2469 -0.1840 -0.5356
 3914SOL    HW123378   0.903   0.717   7.686 -0.3682 -0.5659 -1.2405
 3914SOL    HW223379   0.945   0.581   7.683  2.3147  2.5987 -1.4160
 3915SOL     OW23380   1.166   2.732   2.410 -0.1237  0.1766 -0.0034
 3915SOL    HW123381   1.259   2.752   2.408  0.1793 -1.4612 -1.6658
 3915SOL    HW223382   1.133   2.816   2.377 -0.4116  1.5393  3.7192
 3916SOL     OW23383   4.246   1.009  14.834 -0.2821  0.1394 -0.0955
 3916SOL    HW123384   4.158   1.033  14.866 -0.7026 -1.1137 -0.3042
 3916SOL    HW223385   4.292   1.091  14.852 -0.5277  0.5992 -1.5668
 3917SOL     OW23386   0.618   3.102  12.598 -0.3539 -0.0585 -0.2033
 3917SOL    HW123387   0.571   3.177  12.562  0.0902  0.7568  0.9346
 3917SOL    HW223388   0.697   3.103  12.544 -2.1185  1.0219 -2.7971
 3918SOL     OW23389   2.440   3.001  15.587 -0.0199  0.0299  0.1453
 3918SOL    HW123390   2.376   3.006  15.516  0.0432  1.6522  0.2043
 3918SOL    HW223391   2.418   3.083  15.632  1.3529  0.4139  0.0911
 3919SOL     OW23392   2.753   3.454   5.343  0.4073 -0.0099  0.1986
 3919SOL    HW123393   2.808   3.375   5.344  0.0466 -0.2890 -1.2787
 3919SOL    HW223394   2.705   3.429   5.264 -2.0311  3.0986  0.7077
 3920SOL     OW23395   4.127   3.224   0.109  0.0883 -0.1727 -0.4236
 3920SOL    HW123396   4.138   3.286   0.037 -2.0905  0.2572 -0.4083
 3920SOL    HW223397   4.180   3.148   0.083  0.4454  0.0486 -0.3408
 3921SOL     OW23398   0.352   0.636   7.745 -0.2855  0.6058 -0.2362
 3921SOL    HW123399   0.337   0.551   7.704  2.5612  0.5589 -1.1493
 3921SOL    HW223400   0.447   0.632   7.749 -0.3266  0.2738  0.3591
 3922SOL     OW23401   0.477   2.561   6.168 -0.5903  0.4166  0.0108
 3922SOL    HW123402   0.486   2.489   6.229 -2.1095  0.6784  0.5347
 3922SOL    HW223403   0.398   2.543   6.118 -0.5287  1.9041 -0.6472
 3923SOL     OW23404   1.733   4.176   4.716 -0.0921  0.0912 -0.0069
 3923SOL    HW123405   1.725   4.148   4.808  0.9385  0.8305  0.3143
 3923SOL    HW223406   1.735   4.271   4.726  1.1722  0.0520  0.0974
 3924SOL     OW23407   4.057   3.266   0.361 -0.3913  0.0060  0.0129
 3924SOL    HW123408   4.094   3.225   0.283  1.1148 -1.3455  1.4330
 3924SOL    HW223409   4.119   3.339   0.362  3.2380 -3.0034 -1.7363
 3925SOL     OW23410   0.282   2.808   1.391 -0.0662 -0.1174  0.9993
 3925SOL    HW123411   0.334   2.747   1.338 -1.7473 -1.3956  0.8391
 3925SOL    HW223412   0.235   2.854   1.321  0.0884 -1.0415  0.2961
 3926SOL     OW23413   3.746   4.219  10.272  0.4257 -0.8439 -0.2925
 3926SOL    HW123414   3.776   4.249  10.186 -0.5741  0.5253 -0.1618
 3926SOL    HW223415   3.810   4.250  10.335 -0.6152  0.9120 -0.1118
 3927SOL     OW23416   1.042   3.935   8.599  0.2234  0.2757 -0.0907
 3927SOL    HW123417   1.104   3.873   8.561 -2.1644 -2.9306  1.3074
 3927SOL    HW223418   1.085   3.951   8.683 -0.1271  0.5700  0.0301
 3928SOL     OW23419   2.294   4.688   9.305  0.0807 -0.4831 -0.0114
 3928SOL    HW123420   2.324   0.030   9.266  2.8648 -0.5365  1.9846
 3928SOL    HW223421   2.295   4.706   9.399  0.6895 -0.0360 -0.1014
 3929SOL     OW23422   1.509   3.269   1.812 -0.5759 -0.3353  0.0401
 3929SOL    HW123423   1.436   3.244   1.869 -1.3646  1.5800 -0.1181
 3929SOL    HW223424   1.461   3.296   1.734  2.2006  0.6868 -1.3241
 3930SOL     OW23425   2.061   1.644   7.860 -0.0804 -0.1375 -0.0304
 3930SOL    HW123426   2.116   1.645   7.782  1.9181 -0.7959  1.3752
 3930SOL    HW223427   2.119   1.596   7.919 -0.1961 -1.4839 -1.0170
 3931SOL     OW23428   2.888   1.212  14.874  0.2505 -0.0848  0.6669
 3931SOL    HW123429   2.941   1.271  14.928 -0.1036 -0.7068  1.6988
 3931SOL    HW223430   2.895   1.136  14.932 -0.7602  1.4008  2.7267
 3932SOL     OW23431   3.976   2.243  16.960 -0.0724  0.1896 -0.5752
 3932SOL    HW123432   4.008   2.288  16.881  0.3300 -2.5329 -1.9692
 3932SOL    HW223433   3.895   2.288  16.985  0.5191  1.3440 -0.7205
 3933SOL     OW23434   0.550   1.257   8.306 -0.4209 -0.3569 -0.3508
 3933SOL    HW123435   0.585   1.335   8.349  0.8283  0.7416 -3.3499
 3933SOL    HW223436   0.484   1.300   8.251 -1.7961  0.5921  2.0468
 3934SOL     OW23437   3.921   0.405   2.894 -0.2992 -0.4045  0.3447
 3934SOL    HW123438   3.864   0.459   2.840 -0.0853 -3.4017 -2.8664
 3934SOL    HW223439   3.974   0.363   2.827  1.2953 -0.6305  1.7572
 3935SOL     OW23440   2.101   3.403   7.284  0.3914  0.2323  0.5843
 3935SOL    HW123441   2.177   3.459   7.302  0.0379  0.2318  2.0912
 3935SOL    HW223442   2.085   3.426   7.193  1.2288 -1.2222  0.0643
 3936SOL     OW23443   3.090   0.059   8.530 -0.5148 -0.5215  0.2889
 3936SOL    HW123444   3.086   4.730   8.464 -3.1832  0.5381 -0.6738
 3936SOL    HW223445   3.071   0.011   8.611 -0.0473 -1.9677 -0.4695
 3937SOL     OW23446   3.477   2.296   9.570  0.5052 -0.0432 -0.0072
 3937SOL    HW123447   3.475   2.355   9.645  0.4914 -0.5782  0.4117
 3937SOL    HW223448   3.512   2.346   9.495 -0.8177 -1.0407 -1.2875
 3938SOL     OW23449   2.993   2.957   5.566 -0.4244 -0.2036  0.6296
 3938SOL    HW123450   2.969   2.937   5.656 -1.0097 -1.4566  0.1944
 3938SOL    HW223451   3.072   3.011   5.575  0.1546 -0.9472  0.0038
 3939SOL     OW23452   1.906   4.127  10.401  0.1505 -0.5572  0.5719
 3939SOL    HW123453   1.975   4.083  10.352  0.4819 -1.3176  1.7336
 3939SOL    HW223454   1.951   4.159  10.479  0.4469 -1.6755  0.8645
 3940SOL     OW23455   1.226   3.123  10.362 -0.8047 -0.0710  0.0837
 3940SOL    HW123456   1.165   3.181  10.317 -1.0197  0.6518  1.3065
 3940SOL    HW223457   1.219   3.164  10.449  3.4690  0.8304  0.0099
 3941SOL     OW23458   2.217   4.377   7.259  0.6532  0.8102 -0.0985
 3941SOL    HW123459   2.163   4.336   7.327  0.9226  0.2647 -0.2086
 3941SOL    HW223460   2.187   4.466   7.275 -1.3124  0.2480 -0.7533
 3942SOL     OW23461   1.590   4.711   5.082 -0.1356  0.9146  0.1365
 3942SOL    HW123462   1.647   4.707   5.159  0.5605  0.9876 -0.3668
 3942SOL    HW223463   1.651   0.015   5.023 -0.1132 -0.4488 -0.8701
 3943SOL     OW23464   2.118   0.910   5.339  0.2466 -0.0748  0.4044
 3943SOL    HW123465   2.119   0.821   5.304 -1.0836  0.2747 -0.5422
 3943SOL    HW223466   2.061   0.965   5.285  0.6293 -0.2424 -0.1815
 3944SOL     OW23467   3.826   0.509   5.020 -0.0421  0.0612  0.2091
 3944SOL    HW123468   3.817   0.598   5.053 -1.2546 -0.0449  0.1604
 3944SOL    HW223469   3.784   0.514   4.934 -2.2589  3.1603  1.4869
 3945SOL     OW23470   0.119   4.001   8.109  0.0947 -0.2174  0.0787
 3945SOL    HW123471   0.023   3.998   8.112  0.0638 -0.8926 -1.5357
 3945SOL    HW223472   0.142   3.933   8.045 -0.3318  0.5549 -0.8828
 3946SOL     OW23473   4.086   0.803   6.969  0.1377  0.0927 -0.1988
 3946SOL    HW123474   4.055   0.725   7.015  2.0591  0.6789  2.1355
 3946SOL    HW223475   4.015   0.865   6.985 -1.3357 -1.5820 -0.2942
 3947SOL     OW23476   0.531   0.416  14.597  0.1489 -0.0598  0.3337
 3947SOL    HW123477   0.598   0.395  14.662  0.5095  1.1752  0.3500
 3947SOL    HW223478   0.583   0.475  14.542 -2.3403  0.1266 -1.8297
 3948SOL     OW23479   1.186   2.581   5.362 -0.3088 -0.0191 -0.1882
 3948SOL    HW123480   1.145   2.502   5.326 -1.3160  0.5622 -0.3241
 3948SOL    HW223481   1.256   2.589   5.297  0.8887  0.9831  1.2288
 3949SOL     OW23482   1.859   4.652   2.598 -0.5979  0.9160 -0.2461
 3949SOL    HW123483   1.893   4.563   2.608 -3.1035  0.0139  0.3142
 3949SOL    HW223484   1.881   4.700   2.678  1.8905  1.8309 -1.4855
 3950SOL     OW23485   3.052   4.722   6.648 -0.0859 -0.0293  0.0549
 3950SOL    HW123486   3.125   4.660   6.654 -0.9749 -1.3397 -2.2379
 3950SOL    HW223487   2.975   4.666   6.636 -1.3433  1.5831  0.6349
 3951SOL     OW23488   2.526   1.078   2.071  1.1610 -0.2392 -0.0426
 3951SOL    HW123489   2.509   1.059   2.163  1.5649  0.7370  0.2355
 3951SOL    HW223490   2.560   1.168   2.075 -1.9044  0.9579 -1.0604
 3952SOL     OW23491   4.190   1.339  12.556  0.0236  0.3929  0.3900
 3952SOL    HW123492   4.168   1.249  12.578  1.1384 -0.4419 -1.8458
 3952SOL    HW223493   4.259   1.308  12.497  1.1203  1.8140  0.9108
 3953SOL     OW23494   4.659   3.192   8.095 -0.1670  0.1147 -0.1663
 3953SOL    HW123495   4.593   3.123   8.092  0.7782 -0.7487 -0.9407
 3953SOL    HW223496   4.700   3.167   8.178  1.9032 -0.2688 -1.3186
 3954SOL     OW23497   0.972   2.929   6.283  0.4931 -0.4011  0.0409
 3954SOL    HW123498   0.899   2.989   6.269  0.6524 -0.4569 -1.0272
 3954SOL    HW223499   0.935   2.842   6.277  1.2154 -0.6827 -0.3664
 3955SOL     OW23500   3.584   1.525   9.793  0.3001  0.0462  0.4498
 3955SOL    HW123501   3.498   1.561   9.772  0.5802  0.4549  0.0145
 3955SOL    HW223502   3.549   1.445   9.833  2.7958 -1.0158  0.5114
 3956SOL     OW23503   0.912   1.639   6.872 -0.1173  0.4635 -0.1258
 3956SOL    HW123504   0.869   1.725   6.872  0.1571  0.6017  0.6444
 3956SOL    HW223505   0.889   1.609   6.785 -0.2699 -0.8301  0.3596
 3957SOL     OW23506   4.482   1.916  10.541 -0.1658  0.4596  0.4886
 3957SOL    HW123507   4.486   1.948  10.632 -1.9437  1.2850  0.2720
 3957SOL    HW223508   4.403   1.958  10.506 -1.4268 -1.0170  1.5531
 3958SOL     OW23509   2.338   0.092  12.109  0.1299  0.3261 -0.0047
 3958SOL    HW123510   2.298   0.151  12.046 -1.1023 -0.5782 -0.0587
 3958SOL    HW223511   2.267   0.028  12.120 -0.0505  0.5129 -0.0981
 3959SOL     OW23512   1.597   3.616  17.729 -0.2591  0.1738  0.4906
 3959SOL    HW123513   1.620   3.523  17.724  0.8739  0.5117 -0.5515
 3959SOL    HW223514   1.518   3.625  17.676 -0.4382  0.5770  0.8245
 3960SOL     OW23515   2.856   0.724  14.219  0.0446  0.5046 -0.1597
 3960SOL    HW123516   2.835   0.810  14.183  1.0511 -1.0211 -4.4452
 3960SOL    HW223517   2.817   0.735  14.306  1.1760 -2.8743  0.7682
 3961SOL     OW23518   1.724   1.912   3.580  0.4099 -0.2222  0.2115
 3961SOL    HW123519   1.677   1.916   3.663  0.3238  2.4092  0.0395
 3961SOL    HW223520   1.650   1.909   3.519  0.0506 -0.5020  0.6569
 3962SOL     OW23521   0.400   3.850  10.240  1.1436 -0.1396  0.0822
 3962SOL    HW123522   0.439   3.933  10.266  0.3774  0.2994 -0.1783
 3962SOL    HW223523   0.458   3.791  10.290  2.5523  0.1609 -1.1855
 3963SOL     OW23524   4.064   2.884   7.998 -0.0420  0.1742  0.0581
 3963SOL    HW123525   3.989   2.831   7.970  1.0142 -0.6931 -1.1317
 3963SOL    HW223526   4.132   2.818   7.987 -1.5256 -1.2685 -0.5831
 3964SOL     OW23527   2.387   3.170  11.907  0.4195 -0.7279 -0.3139
 3964SOL    HW123528   2.414   3.234  11.973 -0.0116 -1.5724  0.6775
 3964SOL    HW223529   2.298   3.202  11.892  0.5653 -0.7971 -1.2936
 3965SOL     OW23530   1.268   2.968  14.710  0.5133  0.0257 -0.3652
 3965SOL    HW123531   1.178   2.986  14.681  0.4538 -0.9746 -0.7771
 3965SOL    HW223532   1.259   2.899  14.776  0.1387 -0.9821 -1.4660
 3966SOL     OW23533   1.508   1.002  12.807  0.0068  0.0602 -0.1976
 3966SOL    HW123534   1.482   1.066  12.741  2.1903  1.2986  0.1510
 3966SOL    HW223535   1.596   0.995  12.771 -0.8051  0.2628 -2.2025
 3967SOL     OW23536   4.129   4.242   4.115  0.1017 -0.1007  0.5421
 3967SOL    HW123537   4.071   4.307   4.076  1.2411  0.4825 -0.1715
 3967SOL    HW223538   4.075   4.218   4.190 -1.1993 -1.1851 -0.7590
 3968SOL     OW23539   1.241   0.896  13.000  0.3958  0.5287  1.1583
 3968SOL    HW123540   1.306   0.960  12.972 -0.6049  1.4692  1.0085
 3968SOL    HW223541   1.163   0.952  13.002  0.2327  0.3336 -0.0159
 3969SOL     OW23542   2.364   0.484   4.991  0.2584  0.4881  0.0494
 3969SOL    HW123543   2.308   0.421   4.945  1.1686 -0.5044  0.2954
 3969SOL    HW223544   2.445   0.458   4.947 -0.3114 -0.5961 -0.3752
 3970SOL     OW23545   4.124   1.569  12.743 -0.4398 -0.2720  0.6127
 3970SOL    HW123546   4.117   1.609  12.656 -0.8464 -0.9969  0.3089
 3970SOL    HW223547   4.205   1.524  12.718 -1.5939 -1.3285 -1.2517
 3971SOL     OW23548   1.008   3.050  10.053 -0.1921 -0.3088 -0.2692
 3971SOL    HW123549   1.023   2.963  10.016 -2.6337 -0.5211 -0.7347
 3971SOL    HW223550   1.003   3.026  10.145 -4.7560 -1.7170 -0.8849
 3972SOL     OW23551   1.543   1.113   7.919 -0.5225 -0.1593 -0.1312
 3972SOL    HW123552   1.578   1.149   8.001 -0.8625  0.7058 -0.3580
 3972SOL    HW223553   1.626   1.106   7.872  0.0097 -0.8130  0.9127
 3973SOL     OW23554   1.758   1.253   8.087 -0.8251 -0.2307 -0.4861
 3973SOL    HW123555   1.812   1.202   8.148  1.3078  1.5077 -0.9367
 3973SOL    HW223556   1.715   1.320   8.140  1.8437  0.6653  0.5526
 3974SOL     OW23557   2.387   1.737   8.433  0.8284  0.5838  0.1488
 3974SOL    HW123558   2.353   1.683   8.504 -1.4556 -0.5666 -1.8538
 3974SOL    HW223559   2.477   1.749   8.464  1.6226 -0.5707 -1.7644
 3975SOL     OW23560   3.436   4.114   6.702 -0.2643 -0.2570 -0.1110
 3975SOL    HW123561   3.382   4.036   6.715 -0.3253 -0.2165 -0.1224
 3975SOL    HW223562   3.519   4.072   6.678  0.3502  1.3009 -0.7313
 3976SOL     OW23563   3.993   0.040  10.554  0.4527 -0.5641  0.2736
 3976SOL    HW123564   3.923   0.099  10.581 -0.2079 -0.3064 -1.9915
 3976SOL    HW223565   4.024   0.015  10.641 -2.1428 -1.7554  0.8819
 3977SOL     OW23566   2.669   1.579  15.548  0.0951 -0.1385  0.2166
 3977SOL    HW123567   2.663   1.501  15.492  0.4326 -0.1493  0.1967
 3977SOL    HW223568   2.763   1.591  15.557  0.3754 -1.3743 -1.0592
 3978SOL     OW23569   0.213   1.378   4.311  0.1110  0.0626 -0.2273
 3978SOL    HW123570   0.139   1.430   4.344  1.1123  1.5450 -0.3159
 3978SOL    HW223571   0.290   1.416   4.355  0.2966 -2.6152  1.7570
 3979SOL     OW23572   3.212   1.688   5.347 -0.3736  0.0535  0.0142
 3979SOL    HW123573   3.190   1.688   5.254  0.9555 -0.7936 -0.2938
 3979SOL    HW223574   3.302   1.721   5.338 -0.5997  1.1809  1.8514
 3980SOL     OW23575   1.076   3.410   3.692 -0.2964 -0.4627 -0.0133
 3980SOL    HW123576   0.989   3.374   3.708  0.8239 -2.4369  1.6530
 3980SOL    HW223577   1.089   3.452   3.778  0.8390 -0.9257  0.0398
 3981SOL     OW23578   2.997   2.084   8.794  0.4339  0.2917 -0.9289
 3981SOL    HW123579   3.005   1.990   8.805 -1.7306  0.2145 -0.0487
 3981SOL    HW223580   3.001   2.109   8.886  0.6443 -2.3191 -0.2423
 3982SOL     OW23581   1.819   3.830   4.808  0.0029  0.3314  0.6018
 3982SOL    HW123582   1.896   3.887   4.807 -0.2168  0.6772  4.1168
 3982SOL    HW223583   1.796   3.816   4.716  1.2481 -0.8601  0.4816
 3983SOL     OW23584   1.132   3.468  11.403 -0.2995 -0.2167  0.0053
 3983SOL    HW123585   1.216   3.511  11.416 -0.7734  0.8775 -0.5238
 3983SOL    HW223586   1.076   3.539  11.372 -0.7982  0.5849  2.7527
 3984SOL     OW23587   1.193   0.860  16.013 -0.2063  0.0634  0.1068
 3984SOL    HW123588   1.103   0.856  16.047  0.5838 -0.3553  2.1568
 3984SOL    HW223589   1.215   0.767  16.008  0.4297  0.2607 -0.6857
 3985SOL     OW23590   3.886   2.731  14.907  0.3836  0.1439 -0.2449
 3985SOL    HW123591   3.862   2.731  14.999  0.8227  0.1673 -0.1287
 3985SOL    HW223592   3.954   2.798  14.903  1.5005 -0.9847 -0.0051
 3986SOL     OW23593   2.803   3.928   5.252 -0.1011  0.4541  0.5397
 3986SOL    HW123594   2.717   3.919   5.294 -0.5023  1.0050 -0.1712
 3986SOL    HW223595   2.849   3.848   5.278  0.1739  0.2043 -0.7209
 3987SOL     OW23596   2.773   4.690   7.915  0.4744 -0.7345  0.0103
 3987SOL    HW123597   2.683   4.710   7.941  0.1871 -0.3900 -1.2190
 3987SOL    HW223598   2.753   4.616   7.857  1.9260 -0.7365 -0.4950
 3988SOL     OW23599   4.430   3.892   4.841  0.1925 -0.1745 -0.5113
 3988SOL    HW123600   4.373   3.894   4.764  0.3658 -1.6711 -0.6713
 3988SOL    HW223601   4.372   3.918   4.912 -0.4412 -2.1831 -0.3142
 3989SOL     OW23602   4.221   0.054   2.823 -0.3387 -0.1112 -0.0336
 3989SOL    HW123603   4.251   0.060   2.732  3.3238  1.0033  1.2471
 3989SOL    HW223604   4.270   4.718   2.855 -0.5143 -1.4927 -3.0845
 3990SOL     OW23605   1.753   0.566   5.952 -0.3541  0.0580 -0.1910
 3990SOL    HW123606   1.778   0.487   5.904  3.0925  1.3132 -0.4690
 3990SOL    HW223607   1.712   0.532   6.032 -1.6166  2.1974  0.0564
 3991SOL     OW23608   3.056   3.946   9.340 -0.1156 -0.2611  0.3728
 3991SOL    HW123609   2.989   4.011   9.320  0.3677  0.1453  0.0794
 3991SOL    HW223610   3.023   3.875   9.284 -0.2090  0.6518 -0.7056
 3992SOL     OW23611   1.203   4.332  13.488 -0.6800 -0.0048  0.7576
 3992SOL    HW123612   1.153   4.253  13.508 -1.7081  0.1238 -1.2454
 3992SOL    HW223613   1.270   4.288  13.434 -1.3358 -0.4969  0.3419
 3993SOL     OW23614   0.677   4.666   3.572  0.0236 -0.3447 -0.3308
 3993SOL    HW123615   0.745   4.691   3.634  1.0424 -0.6836 -1.3107
 3993SOL    HW223616   0.717   4.632   3.492  1.1653 -0.2942  0.2238
 3994SOL     OW23617   1.621   0.667   4.204  0.0608 -0.4257  0.2441
 3994SOL    HW123618   1.617   0.689   4.297  3.6152  2.6067 -0.3313
 3994SOL    HW223619   1.528   0.666   4.182  0.4588 -1.7377 -1.4548
 3995SOL     OW23620   2.260   0.320  11.661 -0.2829 -0.3841 -0.2842
 3995SOL    HW123621   2.266   0.229  11.690 -1.3210  0.0371  1.2674
 3995SOL    HW223622   2.300   0.368  11.734 -0.6856 -2.0714  1.0437
 3996SOL     OW23623   1.035   3.223   4.521 -0.2452  0.0784  0.3073
 3996SOL    HW123624   1.091   3.171   4.464 -2.3440 -0.4164 -1.3032
 3996SOL    HW223625   1.023   3.291   4.455 -0.1611  0.1533  0.3684
 3997SOL     OW23626   4.712   2.345  12.005 -0.4048 -0.7059  0.3442
 3997SOL    HW123627   4.706   2.254  11.975  3.0131 -1.2875  1.3880
 3997SOL    HW223628   4.649   2.338  12.076 -1.6264 -0.8042 -0.7506
 3998SOL     OW23629   0.305   4.438   5.647  0.3678  0.5250 -0.1226
 3998SOL    HW123630   0.287   4.417   5.739 -1.8141  1.7355 -0.2765
 3998SOL    HW223631   0.340   4.363   5.600  1.4326  1.2235 -0.4205
 3999SOL     OW23632   1.146   2.397   7.007 -0.6117 -0.8797 -0.1895
 3999SOL    HW123633   1.207   2.457   7.051 -0.5785 -0.3604 -0.9485
 3999SOL    HW223634   1.161   2.321   7.064 -2.1521 -2.1130 -1.4341
 4000SOL     OW23635   1.922   1.668  17.058  0.2952  0.3103  0.0649
 4000SOL    HW123636   1.953   1.754  17.029  2.3582 -0.0090  1.3647
 4000SOL    HW223637   1.828   1.685  17.050  0.0824 -0.3673  1.1505
 4001SOL     OW23638   3.897   3.087  16.833  0.1128 -0.2221  0.4754
 4001SOL    HW123639   3.988   3.070  16.809 -0.0459 -3.1647  1.9525
 4001SOL    HW223640   3.909   3.178  16.859 -1.1490  0.1055 -0.0792
 4002SOL     OW23641   0.414   1.516   3.163  0.2793 -0.0519  0.1822
 4002SOL    HW123642   0.330   1.554   3.138  0.5376  0.4840  0.1269
 4002SOL    HW223643   0.475   1.586   3.139 -0.7946  0.9845  0.4639
 4003SOL     OW23644   0.035   1.360   7.616 -0.6485  0.2645  0.2419
 4003SOL    HW123645   4.708   1.374   7.683  0.8391  0.3687  1.7114
 4003SOL    HW223646   0.062   1.269   7.626  3.1570  1.4833  1.0705
 4004SOL     OW23647   2.235   4.450  14.787 -0.1064  0.1169 -0.1169
 4004SOL    HW123648   2.223   4.404  14.704 -1.4778 -0.8382  0.6159
 4004SOL    HW223649   2.330   4.450  14.794 -0.0929 -1.4679 -0.3354
 4005SOL     OW23650   2.704   3.623  12.466 -0.1134 -0.5008  0.4575
 4005SOL    HW123651   2.630   3.679  12.445  1.1706  0.7853 -0.6429
 4005SOL    HW223652   2.727   3.666  12.549  0.9945 -1.5476  0.7094
 4006SOL     OW23653   1.329   0.540   9.613 -0.5178 -0.5473  0.2570
 4006SOL    HW123654   1.237   0.566   9.608 -0.2542 -0.0956 -2.1948
 4006SOL    HW223655   1.323   0.476   9.683  2.0196 -0.1622  0.8144
 4007SOL     OW23656   1.971   3.883  17.366 -0.6098 -0.0115  0.0086
 4007SOL    HW123657   1.976   3.862  17.273  3.2454 -0.0939  0.2383
 4007SOL    HW223658   1.924   3.806  17.398 -0.7921  0.0040 -0.2195
 4008SOL     OW23659   0.204   3.357   8.776 -0.1461  0.2659 -0.5605
 4008SOL    HW123660   0.267   3.285   8.775 -1.1272 -0.5910 -0.9779
 4008SOL    HW223661   0.206   3.390   8.866 -0.3391 -1.0253 -0.0767
 4009SOL     OW23662   4.608   0.113   7.116 -0.1808 -0.2429 -0.5134
 4009SOL    HW123663   4.550   0.189   7.117  0.2817  0.0899  0.5313
 4009SOL    HW223664   4.606   0.087   7.024 -0.2592 -0.2355 -0.5138
 4010SOL     OW23665   1.448   2.272   5.399 -0.3112 -0.6426  0.5952
 4010SOL    HW123666   1.365   2.229   5.383 -2.2255  2.9447  0.9009
 4010SOL    HW223667   1.463   2.253   5.492 -0.0725  0.6636  0.8237
 4011SOL     OW23668   4.124   3.592   2.173  0.0802  0.1780  0.2071
 4011SOL    HW123669   4.070   3.556   2.103  0.5084 -0.3925  0.1720
 4011SOL    HW223670   4.179   3.516   2.190  2.0664  1.4704 -0.4902
 4012SOL     OW23671   4.469   4.213   4.704 -0.7388 -0.3590 -0.4509
 4012SOL    HW123672   4.461   4.141   4.641  1.5971 -0.2751 -0.8759
 4012SOL    HW223673   4.528   4.270   4.653 -2.1724  1.8602  0.3779
 4013SOL     OW23674   2.834   1.181  12.135  0.2458  0.1815  0.1731
 4013SOL    HW123675   2.897   1.221  12.076  0.5096 -1.3003 -0.5531
 4013SOL    HW223676   2.795   1.114  12.079  0.3482  0.2806 -0.0130
 4014SOL     OW23677   3.752   4.644   9.286  0.6832  0.3871  0.4980
 4014SOL    HW123678   3.819   4.610   9.345 -0.9361 -1.8728  1.0300
 4014SOL    HW223679   3.690   4.574   9.262  2.2428 -0.8110 -0.0497
 4015SOL     OW23680   2.553   1.092   3.198  0.1309 -0.4085 -0.1488
 4015SOL    HW123681   2.511   1.007   3.188 -1.0541  0.1523  0.0011
 4015SOL    HW223682   2.483   1.152   3.170  0.0681  0.0177  0.9292
 4016SOL     OW23683   4.297   3.340   2.817  0.0420  0.4045 -0.6912
 4016SOL    HW123684   4.295   3.407   2.749  1.7250  0.1586 -0.9958
 4016SOL    HW223685   4.362   3.282   2.778  1.5498  1.9956 -0.5779
 4017SOL     OW23686   2.744   0.112   6.331 -0.9020  0.3623  0.8286
 4017SOL    HW123687   2.839   0.098   6.331 -0.8728  0.6665 -1.5529
 4017SOL    HW223688   2.732   0.138   6.240 -0.9707 -0.6280  0.5600
 4018SOL     OW23689   0.429   1.222  15.099 -0.2698 -0.1541  0.3939
 4018SOL    HW123690   0.518   1.234  15.066 -0.4729 -1.0136 -0.4884
 4018SOL    HW223691   0.443   1.226  15.193 -0.1450 -0.8982  0.4111
 4019SOL     OW23692   0.585   1.754   8.548 -0.0209 -0.6248 -0.1181
 4019SOL    HW123693   0.491   1.732   8.544 -0.4964  1.5493 -0.5780
 4019SOL    HW223694   0.631   1.670   8.558  0.2436 -0.5031 -0.3150
 4020SOL     OW23695   2.119   2.871   7.216  0.4452  0.0511  0.7596
 4020SOL    HW123696   2.141   2.880   7.123  0.7055 -0.5763  0.7616
 4020SOL    HW223697   2.095   2.962   7.231  0.1838 -0.5297  3.7421
 4021SOL     OW23698   2.843   0.536   2.090  0.0819  0.2355 -0.2408
 4021SOL    HW123699   2.816   0.582   2.170  1.4039 -0.8616  0.8273
 4021SOL    HW223700   2.810   0.589   2.018  1.4507  0.7516 -0.4880
 4022SOL     OW23701   2.206   3.754  12.534 -0.2081 -0.3250 -0.5739
 4022SOL    HW123702   2.155   3.774  12.456 -1.0341  0.0873  0.0785
 4022SOL    HW223703   2.144   3.777  12.603  0.4589 -1.9911  0.5825
 4023SOL     OW23704   4.186   2.644   2.913  0.1113 -0.2053 -0.1354
 4023SOL    HW123705   4.143   2.604   2.989 -1.7520 -0.2551 -1.2233
 4023SOL    HW223706   4.121   2.710   2.889  0.4584 -0.0632 -0.6975
 4024SOL     OW23707   0.386   4.377  16.344  0.2185  0.5396 -0.0505
 4024SOL    HW123708   0.408   4.308  16.406 -0.5466  0.2632 -0.0921
 4024SOL    HW223709   0.348   4.317  16.280  0.8381  0.0850  0.0119
 4025SOL     OW23710   3.422   2.999   6.705 -0.7138 -0.4796 -0.0246
 4025SOL    HW123711   3.513   3.026   6.716  0.2893 -4.0056  0.2705
 4025SOL    HW223712   3.389   3.076   6.659 -0.8609  0.2784  1.3556
 4026SOL     OW23713   1.535   3.119   2.853  0.3257  0.0369 -0.9012
 4026SOL    HW123714   1.609   3.141   2.909 -0.2294  1.5432 -0.7489
 4026SOL    HW223715   1.490   3.068   2.920 -1.4218 -0.0270 -2.1193
 4027SOL     OW23716   2.349   1.262   2.372 -0.4235 -0.0868  0.1166
 4027SOL    HW123717   2.330   1.341   2.322  0.9177 -0.9338 -1.7060
 4027SOL    HW223718   2.443   1.276   2.383 -0.2983  1.1209 -2.5067
 4028SOL     OW23719   3.772   3.373   7.250  0.0374  0.2649  0.3141
 4028SOL    HW123720   3.837   3.331   7.193 -1.5350 -2.5271  0.5841
 4028SOL    HW223721   3.826   3.387   7.328  1.9612 -1.2105 -0.7337
 4029SOL     OW23722   2.860   1.463   1.704  0.0160  0.0798  0.3716
 4029SOL    HW123723   2.934   1.484   1.760  0.6421  2.2445 -1.2937
 4029SOL    HW223724   2.883   1.507   1.622  2.0595 -1.7164 -0.0175
 4030SOL     OW23725   0.385   1.991   8.371 -0.1506  0.2135 -0.3003
 4030SOL    HW123726   0.357   2.081   8.358  0.4632  0.5567  0.8141
 4030SOL    HW223727   0.309   1.934   8.361 -0.9703  1.6954 -2.3610
 4031SOL     OW23728   2.963   1.476   9.275  1.0266  0.5651 -0.4398
 4031SOL    HW123729   2.911   1.402   9.306 -0.6268  2.4362  1.2878
 4031SOL    HW223730   2.915   1.479   9.193  0.6002  1.5598 -0.1533
 4032SOL     OW23731   3.528   3.217   4.429  0.9170  0.1899  0.0749
 4032SOL    HW123732   3.620   3.215   4.454 -0.2479 -2.6959  4.1006
 4032SOL    HW223733   3.531   3.159   4.353  3.3844  1.4492 -0.7920
 4033SOL     OW23734   0.679   0.407  15.806 -0.0123  0.0992  0.5697
 4033SOL    HW123735   0.669   0.502  15.802  0.7461  0.2364  2.0721
 4033SOL    HW223736   0.756   0.399  15.863  1.9515  0.7225 -1.9780
 4034SOL     OW23737   4.517   0.030   4.226 -0.1504  0.7694 -0.4027
 4034SOL    HW123738   4.543   0.076   4.146  2.4492  2.2556  1.2854
 4034SOL    HW223739   4.503   4.679   4.200  0.9844  0.5601 -0.2630
 4035SOL     OW23740   0.592   2.949   3.206  0.2272 -0.1260  0.0108
 4035SOL    HW123741   0.523   2.982   3.148 -0.9867  0.5089  1.8099
 4035SOL    HW223742   0.585   3.014   3.275  2.7866  0.3243 -0.1398
 4036SOL     OW23743   1.453   0.942   4.561  0.2478 -0.5937 -0.0114
 4036SOL    HW123744   1.418   0.962   4.474  1.3911 -1.9254 -0.7811
 4036SOL    HW223745   1.528   0.886   4.539 -0.8297 -1.9986 -0.0796
 4037SOL     OW23746   2.319   0.683   5.649  0.6800 -0.0483 -0.7743
 4037SOL    HW123747   2.314   0.779   5.652  1.9235 -0.1055  2.7461
 4037SOL    HW223748   2.275   0.666   5.566  0.6690  0.3422 -0.8518
 4038SOL     OW23749   3.684   2.621   8.890 -0.3599 -0.5889 -0.0776
 4038SOL    HW123750   3.611   2.612   8.829 -0.2059 -1.5821 -0.1091
 4038SOL    HW223751   3.749   2.580   8.834  1.0320  0.2776  0.9016
 4039SOL     OW23752   2.452   3.729  15.009  0.2690  0.4017  0.1337
 4039SOL    HW123753   2.397   3.660  15.046  1.4839 -0.1030  1.0192
 4039SOL    HW223754   2.505   3.761  15.081  0.4812  1.8767 -0.6702
 4040SOL     OW23755   0.238   4.363   5.923  0.1125 -0.8509 -0.2435
 4040SOL    HW123756   0.184   4.392   5.996  0.0918 -1.0991 -0.1585
 4040SOL    HW223757   0.318   4.324   5.960  0.4324 -0.4358 -0.4998
 4041SOL     OW23758   4.398   2.427   0.394  0.1229 -0.0342  0.1374
 4041SOL    HW123759   4.442   2.501   0.353  1.0795  0.9378  2.9206
 4041SOL    HW223760   4.426   2.433   0.485  1.0981  1.0098 -0.2313
 4042SOL     OW23761   2.466   4.653  13.014 -0.2821 -0.1882  0.2208
 4042SOL    HW123762   2.397   4.610  13.064  0.5982 -0.8479  0.8582
 4042SOL    HW223763   2.411   4.719  12.970  1.6768  1.2507 -0.0377
 4043SOL     OW23764   2.052   3.490   1.704  0.2355 -0.0105  0.3213
 4043SOL    HW123765   1.958   3.508   1.703  0.2233 -0.1257 -0.5920
 4043SOL    HW223766   2.080   3.511   1.793 -0.9409  0.2458  0.6393
 4044SOL     OW23767   2.544   1.234  15.655 -0.0054  0.0478  0.0421
 4044SOL    HW123768   2.580   1.307  15.705  2.2607 -0.8847 -0.2107
 4044SOL    HW223769   2.474   1.279  15.608 -1.3755  0.7404  2.7571
 4045SOL     OW23770   3.504   2.700  14.457 -0.1578 -0.6210  0.1472
 4045SOL    HW123771   3.596   2.681  14.473 -0.6972 -1.1898  2.5366
 4045SOL    HW223772   3.512   2.725  14.365 -0.5040  1.3262  0.6455
 4046SOL     OW23773   1.745   2.323   2.288  0.1761  0.3299  0.2955
 4046SOL    HW123774   1.661   2.293   2.253 -0.5096 -0.2866  2.4936
 4046SOL    HW223775   1.727   2.334   2.381  1.0790  0.2408  0.4847
 4047SOL     OW23776   2.370   3.677   3.756  0.4499  0.3930 -0.0642
 4047SOL    HW123777   2.441   3.721   3.708  2.2360  0.6746  2.8488
 4047SOL    HW223778   2.425   3.617   3.805  1.5881  1.8949  0.4977
 4048SOL     OW23779   3.119   4.528   3.678 -0.3518 -0.0556 -0.0500
 4048SOL    HW123780   3.188   4.569   3.626 -0.4078  2.4355  1.8773
 4048SOL    HW223781   3.070   4.605   3.706  0.6201 -0.4998  2.8333
 4049SOL     OW23782   2.101   3.345   5.413 -0.1369  0.3918  0.5039
 4049SOL    HW123783   2.075   3.425   5.367  1.3273 -1.2118 -3.0955
 4049SOL    HW223784   2.113   3.375   5.504 -0.5609  1.7524  0.1168
 4050SOL     OW23785   0.542   0.671   2.709 -0.2049 -0.2759 -0.4340
 4050SOL    HW123786   0.551   0.673   2.613  0.7953  1.1194 -0.3072
 4050SOL    HW223787   0.495   0.754   2.710  2.3932  1.2152 -1.6423
 4051SOL     OW23788   3.858   1.977  10.528  0.6862  0.1238 -0.4406
 4051SOL    HW123789   3.798   1.992  10.455  0.1542  0.3787  0.0501
 4051SOL    HW223790   3.796   1.920  10.573 -0.9720  0.6511 -2.0080
 4052SOL     OW23791   1.069   2.815   7.284  0.8397 -0.0804  0.0942
 4052SOL    HW123792   1.083   2.865   7.364  1.4854 -0.5654  0.2876
 4052SOL    HW223793   1.152   2.825   7.237  0.5963 -0.4787 -0.4225
 4053SOL     OW23794   3.868   0.563   8.795  0.9480 -0.2117 -0.1276
 4053SOL    HW123795   3.866   0.467   8.806 -1.6604 -0.0470  0.7930
 4053SOL    HW223796   3.905   0.556   8.707  3.1737 -1.4443  0.9109
 4054SOL     OW23797   4.143   0.200   3.999  0.2076 -0.1193  0.1625
 4054SOL    HW123798   4.138   0.293   4.018 -1.6909  0.2244 -2.0976
 4054SOL    HW223799   4.073   0.187   3.935  2.1722 -1.4665 -1.7312
 4055SOL     OW23800   3.260   2.711   8.767 -0.5492 -0.0165  0.2945
 4055SOL    HW123801   3.272   2.628   8.721  2.1096  1.6411 -1.9805
 4055SOL    HW223802   3.201   2.697   8.842 -0.3279 -0.6954  0.3337
 4056SOL     OW23803   1.079   4.275   2.807  0.1781 -0.6263 -0.3302
 4056SOL    HW123804   1.166   4.314   2.805 -0.1148  0.0891  0.9077
 4056SOL    HW223805   1.103   4.191   2.845 -0.7259 -0.0621  1.5034
 4057SOL     OW23806   3.792   4.231   5.422 -0.1813 -0.3195 -0.1850
 4057SOL    HW123807   3.855   4.301   5.438  1.1341 -1.5164 -0.1245
 4057SOL    HW223808   3.768   4.207   5.511  0.3860  0.6065  0.2130
 4058SOL     OW23809   1.528   2.256   3.656  0.0121 -0.2215  1.1279
 4058SOL    HW123810   1.606   2.214   3.620 -0.0319 -0.0508  0.8359
 4058SOL    HW223811   1.458   2.202   3.619  0.7857 -2.2554  2.6623
 4059SOL     OW23812   2.068   2.951  16.689  0.0851 -0.3861 -0.5245
 4059SOL    HW123813   1.976   2.926  16.697 -0.6947  3.0620  1.2729
 4059SOL    HW223814   2.085   2.967  16.782 -2.0427  2.2779 -0.5951
 4060SOL     OW23815   0.645   0.139   8.078  0.6479  0.0841  0.2540
 4060SOL    HW123816   0.572   0.082   8.052  1.1462 -0.5759  0.3120
 4060SOL    HW223817   0.606   0.219   8.114 -1.3313 -0.5818 -0.4225
 4061SOL     OW23818   3.440   1.768   5.870 -0.4876  0.1655 -0.6107
 4061SOL    HW123819   3.426   1.703   5.939  1.2600  0.1887 -0.2362
 4061SOL    HW223820   3.387   1.844   5.895 -0.8158 -0.4833  0.6500
 4062SOL     OW23821   2.533   2.826  17.555  0.0685  0.1179  0.0158
 4062SOL    HW123822   2.511   2.737  17.528 -2.4749  1.4118 -2.2034
 4062SOL    HW223823   2.594   2.813  17.628  1.9268  1.2758 -1.3188
 4063SOL     OW23824   3.790   1.828   7.841  0.1629  0.0410 -0.2857
 4063SOL    HW123825   3.813   1.751   7.789 -1.4590 -1.3552  1.0853
 4063SOL    HW223826   3.879   1.862   7.835  0.4127 -0.5021  0.4064
 4064SOL     OW23827   4.477   0.892  14.837 -0.1151  0.8059  0.7196
 4064SOL    HW123828   4.390   0.933  14.835 -1.6023 -2.4660 -2.1176
 4064SOL    HW223829   4.446   0.804  14.815 -0.7840  0.8528  1.4428
 4065SOL     OW23830   3.807   0.114  17.743  0.5120  0.0919 -0.2763
 4065SOL    HW123831   3.863   0.184   0.018  1.2924 -0.7337  0.1729
 4065SOL    HW223832   3.741   0.118   0.054  2.4420  0.3412  1.5335
 4066SOL     OW23833   1.149   4.501   6.738  1.0534 -0.2058  0.2624
 4066SOL    HW123834   1.162   4.576   6.797  1.4189 -0.2691  0.2627
 4066SOL    HW223835   1.116   4.552   6.664  1.3680 -3.4559 -2.1175
 4067SOL     OW23836   1.349   1.471   7.634  1.1910 -0.0791  0.1696
 4067SOL    HW123837   1.391   1.474   7.548 -0.5800 -1.3678 -0.7149
 4067SOL    HW223838   1.415   1.518   7.685  3.5870 -1.2906 -1.8072
 4068SOL     OW23839   1.390   1.920   4.700 -0.5402 -0.6802  0.0744
 4068SOL    HW123840   1.473   1.925   4.747 -0.0301  1.1536 -1.0412
 4068SOL    HW223841   1.417   1.881   4.617  0.3928 -1.9132  0.9713
 4069SOL     OW23842   2.107   0.291   0.098 -0.0082  0.3863 -0.0467
 4069SOL    HW123843   2.049   0.350   0.050  1.5260  0.6195 -1.6028
 4069SOL    HW223844   2.164   0.357   0.138  0.4563 -0.4831  0.7112
 4070SOL     OW23845   3.809   2.619   5.650 -0.0598  0.3515  0.2697
 4070SOL    HW123846   3.760   2.700   5.636 -0.9659 -0.5097 -1.5856
 4070SOL    HW223847   3.784   2.565   5.575  1.1258 -0.3572  0.3936
 4071SOL     OW23848   2.960   1.738  14.216 -0.9553  0.0078 -0.5121
 4071SOL    HW123849   3.000   1.700  14.295  0.5969  1.7393 -0.4910
 4071SOL    HW223850   2.948   1.827  14.248  0.2200 -0.4734  1.2775
 4072SOL     OW23851   0.877   1.975   6.073  0.2635 -0.5871 -0.3364
 4072SOL    HW123852   0.804   2.021   6.031  1.6168  0.6810 -1.3221
 4072SOL    HW223853   0.934   2.051   6.083 -0.1953 -0.2254 -0.4280
 4073SOL     OW23854   2.679   1.480   7.742 -0.2555  0.0022 -0.4033
 4073SOL    HW123855   2.738   1.505   7.813 -1.0106 -0.0294  0.2282
 4073SOL    HW223856   2.659   1.562   7.697 -0.7677  0.6905  1.0957
 4074SOL     OW23857   1.229   2.017   2.631 -0.0118 -0.4025  0.4187
 4074SOL    HW123858   1.270   1.991   2.548 -0.1422  0.0093  0.2301
 4074SOL    HW223859   1.220   2.110   2.612  0.2072 -0.6986 -1.1146
 4075SOL     OW23860   0.327   3.328   9.348 -0.5429 -0.9625  0.1190
 4075SOL    HW123861   0.297   3.309   9.259 -0.8643 -0.5102  0.1284
 4075SOL    HW223862   0.420   3.309   9.337 -0.1620  1.1082 -0.3633
 4076SOL     OW23863   3.910   1.769   6.601  0.3394  0.1048  0.2286
 4076SOL    HW123864   3.905   1.810   6.688 -1.8188 -0.4669  0.3873
 4076SOL    HW223865   3.905   1.677   6.628  0.4327  0.6012  1.9721
 4077SOL     OW23866   3.445   0.956  12.974 -0.1020  0.3558  0.1215
 4077SOL    HW123867   3.390   0.981  12.899  0.1328  1.8607  0.4496
 4077SOL    HW223868   3.535   0.966  12.942 -0.4670 -0.2666 -1.1095
 4078SOL     OW23869   0.942   1.580   8.872  0.2373  0.2077 -0.3374
 4078SOL    HW123870   0.901   1.598   8.957 -0.8942 -0.5669 -0.7072
 4078SOL    HW223871   0.947   1.668   8.835 -1.6375 -0.3043 -1.8304
 4079SOL     OW23872   2.128   2.827   0.146  0.1716  0.2275 -0.1114
 4079SOL    HW123873   2.162   2.899   0.201 -0.4079 -1.0986  1.9861
 4079SOL    HW223874   2.106   2.872   0.065  1.5940 -1.3360 -1.3456
 4080SOL     OW23875   2.848   1.652  13.596  0.5169  0.6328  0.0180
 4080SOL    HW123876   2.817   1.625  13.509 -0.1100  0.9330  0.1484
 4080SOL    HW223877   2.942   1.659  13.579  0.5678 -2.9610 -1.3658
 4081SOL     OW23878   2.959   0.737   7.755 -0.3870  0.2294 -0.4726
 4081SOL    HW123879   2.978   0.644   7.738  2.5731  0.4085  1.7629
 4081SOL    HW223880   3.015   0.749   7.832 -0.9924 -1.3000  0.2006
 4082SOL     OW23881   2.057   4.295   7.451 -0.0510  0.0434  0.3124
 4082SOL    HW123882   2.090   4.348   7.524 -0.5463 -0.0805  0.6312
 4082SOL    HW223883   2.044   4.210   7.493 -0.1552  0.7885  1.7954
 4083SOL     OW23884   1.301   2.746   7.973 -0.1237 -0.2231  1.1641
 4083SOL    HW123885   1.316   2.657   7.941 -1.9470 -0.7467  1.7506
 4083SOL    HW223886   1.388   2.775   7.999  1.0818 -1.4004 -1.4972
 4084SOL     OW23887   3.657   0.587   7.870 -0.2455  0.0915  0.1406
 4084SOL    HW123888   3.733   0.637   7.898 -1.9869  2.1394  1.2039
 4084SOL    HW223889   3.606   0.585   7.951 -1.8156  0.4559 -0.8294
 4085SOL     OW23890   3.843   0.573   8.074 -0.3616  0.0148  0.2230
 4085SOL    HW123891   3.858   0.499   8.015 -2.7149 -1.1151  1.0497
 4085SOL    HW223892   3.910   0.544   8.137  0.7329  1.3554 -0.3131
 4086SOL     OW23893   4.213   0.322   6.320 -0.1036 -0.3139 -0.1187
 4086SOL    HW123894   4.144   0.379   6.286  0.2673  0.1500 -0.0915
 4086SOL    HW223895   4.219   0.247   6.260  1.5370 -1.5908  1.6367
 4087SOL     OW23896   0.626   3.088  10.533 -0.0615  0.2756  0.0347
 4087SOL    HW123897   0.660   3.059  10.448 -1.7866 -2.6035  0.3171
 4087SOL    HW223898   0.573   3.164  10.511 -1.3537 -0.8722 -0.7748
 4088SOL     OW23899   1.619   2.138  10.806 -0.2126 -0.0000  0.2998
 4088SOL    HW123900   1.592   2.064  10.859 -2.1924 -0.3365 -1.1638
 4088SOL    HW223901   1.629   2.207  10.871 -2.2060  0.0806  0.5321
 4089SOL     OW23902   1.829   2.062   1.991  0.0026 -0.3531 -0.1789
 4089SOL    HW123903   1.804   2.147   1.955 -0.5452 -0.0807  0.8425
 4089SOL    HW223904   1.909   2.093   2.035 -0.2917  2.0997 -1.3735
 4090SOL     OW23905   3.992   1.133   9.247 -0.5422 -0.4138  0.0004
 4090SOL    HW123906   4.012   1.199   9.313 -0.4761 -1.8731  1.4344
 4090SOL    HW223907   4.019   1.164   9.160 -1.6377 -3.2613 -1.3571
 4091SOL     OW23908   2.236   1.429   2.936  0.7171 -0.5757  0.0165
 4091SOL    HW123909   2.199   1.364   2.876  1.7218 -0.7187 -0.4530
 4091SOL    HW223910   2.275   1.493   2.876 -4.1014 -0.7060 -3.3333
 4092SOL     OW23911   2.498   2.881   3.193  0.1929  0.4866 -0.1646
 4092SOL    HW123912   2.470   2.792   3.169 -0.4681  0.2736  1.3969
 4092SOL    HW223913   2.583   2.864   3.153 -0.7420 -0.3738 -1.8021
 4093SOL     OW23914   1.668   2.018   8.168  0.3620  0.4769  0.1660
 4093SOL    HW123915   1.580   2.009   8.132  1.1936 -0.0898 -1.7082
 4093SOL    HW223916   1.649   1.963   8.244 -1.9513  2.8020  1.2649
 4094SOL     OW23917   0.731   1.261   3.405  0.3125  0.2829  0.1369
 4094SOL    HW123918   0.768   1.206   3.336  1.9187  1.2665  0.2038
 4094SOL    HW223919   0.746   1.196   3.474 -0.9093 -0.2610 -0.1118
 4095SOL     OW23920   0.681   0.115   0.896  0.6005  0.0389 -0.0442
 4095SOL    HW123921   0.776   0.121   0.908  0.8536 -1.5005 -1.2537
 4095SOL    HW223922   0.653   0.173   0.967 -0.9798 -0.6507 -0.1052
 4096SOL     OW23923   0.938   0.567   0.854  0.0504  0.2952  0.0982
 4096SOL    HW123924   0.858   0.517   0.840  0.9020 -0.4431 -2.1760
 4096SOL    HW223925   0.922   0.627   0.927 -1.1220 -1.8332  1.6292
 4097SOL     OW23926   4.591   0.705  11.017  0.7537 -0.1637  0.6196
 4097SOL    HW123927   4.559   0.793  10.998  1.1053  0.0840  1.1596
 4097SOL    HW223928   4.604   0.665  10.931 -1.1482 -0.8400  0.6452
 4098SOL     OW23929   2.045   1.374   8.255 -0.3528  0.0456  0.2300
 4098SOL    HW123930   2.046   1.402   8.347  0.2030 -0.6500  0.4289
 4098SOL    HW223931   2.004   1.289   8.266 -0.7288  0.0384 -1.2462
 4099SOL     OW23932   3.725   1.966  17.498 -0.0277  0.3476  0.0345
 4099SOL    HW123933   3.770   1.969  17.413  0.4414 -0.7198  0.2564
 4099SOL    HW223934   3.754   2.049  17.537 -2.3678  0.0024  2.4968
 4100SOL     OW23935   2.991   3.291   9.066  0.2707 -0.0358 -0.3991
 4100SOL    HW123936   3.006   3.258   9.154  2.2152 -0.4370 -0.8831
 4100SOL    HW223937   2.936   3.368   9.074  2.3034  1.2971  0.7912
 4101SOL     OW23938   0.037   0.693   5.409  0.0309 -0.0137 -0.3163
 4101SOL    HW123939   0.017   0.678   5.316 -0.8772  1.8725 -0.4326
 4101SOL    HW223940   0.090   0.773   5.417  2.2592 -1.4582 -0.4720
 4102SOL     OW23941   4.508   4.593   5.314  0.0276  0.1763  0.0346
 4102SOL    HW123942   4.531   4.567   5.225  0.8392 -1.4320  0.7124
 4102SOL    HW223943   4.520   4.508   5.356 -3.7573  0.5068  1.7381
 4103SOL     OW23944   4.459   1.418   6.582 -0.3692  0.4978 -0.2141
 4103SOL    HW123945   4.363   1.423   6.578 -0.4264 -1.9313 -1.4843
 4103SOL    HW223946   4.475   1.381   6.669  0.9347  0.0610 -0.6504
 4104SOL     OW23947   2.907   1.655   2.512  0.0322  0.5299  0.7701
 4104SOL    HW123948   2.915   1.565   2.480  1.6687  1.1398 -0.5204
 4104SOL    HW223949   2.993   1.677   2.547 -0.1629  0.5873  1.2126
 4105SOL     OW23950   2.365   0.261   6.230 -0.0197 -0.3127 -0.1907
 4105SOL    HW123951   2.302   0.203   6.187 -0.1418 -0.3092 -0.0185
 4105SOL    HW223952   2.306   0.336   6.241 -1.0007 -1.3971  1.9291
 4106SOL     OW23953   0.366   0.360  17.121 -0.6737  0.0213  0.2257
 4106SOL    HW123954   0.330   0.439  17.082 -1.9552  0.0083  1.3899
 4106SOL    HW223955   0.363   0.301  17.046  0.6344  0.5237 -0.2110
 4107SOL     OW23956   1.469   2.812   5.582  0.3465 -0.1564  0.3319
 4107SOL    HW123957   1.531   2.866   5.630 -0.5705  1.2992 -0.1036
 4107SOL    HW223958   1.391   2.830   5.635 -1.0824  0.2121 -1.8506
 4108SOL     OW23959   1.277   0.867   2.073 -0.4049  0.5406  0.6906
 4108SOL    HW123960   1.266   0.784   2.027 -0.3435 -0.3875  2.3493
 4108SOL    HW223961   1.246   0.851   2.162  0.1961 -1.4803  0.5276
 4109SOL     OW23962   2.445   1.570   7.450 -0.2904 -0.0370 -0.1072
 4109SOL    HW123963   2.439   1.581   7.355  1.1324 -0.3287 -0.2291
 4109SOL    HW223964   2.486   1.655   7.466 -0.2248 -0.2883  1.1074
 4110SOL     OW23965   1.617   2.434   2.828  0.6606 -0.1819 -0.2018
 4110SOL    HW123966   1.643   2.352   2.872  0.6897 -0.2594 -0.3611
 4110SOL    HW223967   1.684   2.496   2.857  1.8967 -2.1528  1.2559
 4111SOL     OW23968   1.004   3.248   6.107  0.2550  0.6413 -0.4187
 4111SOL    HW123969   0.923   3.253   6.056  0.1342 -0.2306 -0.3277
 4111SOL    HW223970   1.043   3.335   6.101 -3.0238  2.2173  0.9936
 4112SOL     OW23971   3.479   3.399  12.519 -0.0300 -0.1160 -0.4404
 4112SOL    HW123972   3.496   3.310  12.552  1.4037  0.3508  0.1062
 4112SOL    HW223973   3.417   3.381  12.448 -0.1143 -0.8269 -0.1924
 4113SOL     OW23974   1.672   1.322   7.160 -0.0895  0.5704  0.1528
 4113SOL    HW123975   1.590   1.298   7.203 -0.7434  1.3019 -0.7029
 4113SOL    HW223976   1.686   1.408   7.200 -0.0426  1.0949 -1.0031
 4114SOL     OW23977   2.334   3.272   5.954 -0.3209  0.2925 -0.4556
 4114SOL    HW123978   2.408   3.299   5.901  0.4397 -0.5403  0.1807
 4114SOL    HW223979   2.266   3.307   5.897 -1.9304 -0.1469  1.1921
 4115SOL     OW23980   2.586   0.427   4.816 -0.2378  0.3590 -0.2810
 4115SOL    HW123981   2.570   0.453   4.725  1.5609  0.6665 -0.5148
 4115SOL    HW223982   2.680   0.448   4.820 -0.0626 -0.1257 -1.5789
 4116SOL     OW23983   1.664   3.715   7.880 -0.0994  0.6284 -0.5010
 4116SOL    HW123984   1.620   3.691   7.961  1.7394 -1.5399 -0.1377
 4116SOL    HW223985   1.727   3.643   7.876  0.5712  1.2166 -0.4615
 4117SOL     OW23986   0.140   2.148  15.726  0.1918  0.6490 -0.4027
 4117SOL    HW123987   0.113   2.217  15.666  3.3564  0.6041 -1.8648
 4117SOL    HW223988   0.059   2.097  15.737  0.1763  0.0233 -3.5422
 4118SOL     OW23989   1.735   4.538   1.656 -0.0647  0.4886 -0.3921
 4118SOL    HW123990   1.690   4.514   1.575  1.0985  1.9774 -1.4892
 4118SOL    HW223991   1.825   4.550   1.624 -0.3307  2.2225 -0.5134
 4119SOL     OW23992   0.201   4.080   6.187  0.3845  0.3224 -0.2400
 4119SOL    HW123993   0.283   4.116   6.154 -0.4295  1.3198 -1.1740
 4119SOL    HW223994   0.194   3.998   6.138 -1.6764  0.3181  0.0733
 4120SOL     OW23995   2.450   2.945   8.712  0.1101  0.1773  0.3149
 4120SOL    HW123996   2.402   2.898   8.780 -2.2363  1.7301 -0.2790
 4120SOL    HW223997   2.398   2.913   8.638 -2.7330 -0.9199  2.7876
 4121SOL     OW23998   0.152   3.740   7.956  0.2907  0.5710  0.3168
 4121SOL    HW123999   0.110   3.666   8.001  0.4880 -0.3245 -0.9738
 4121SOL    HW224000   0.091   3.746   7.882 -1.3353 -0.5748  1.5417
 4122SOL     OW24001   1.345   2.745   4.164  0.5507  0.2843 -0.2365
 4122SOL    HW124002   1.285   2.749   4.090  1.4761  3.4193 -0.8164
 4122SOL    HW224003   1.321   2.658   4.197 -2.0433  0.8573 -0.6662
 4123SOL     OW24004   3.906   4.333   4.280 -0.2580  0.4981 -0.8164
 4123SOL    HW124005   3.932   4.407   4.225  1.3459 -0.6240 -1.5713
 4123SOL    HW224006   3.835   4.374   4.331  0.4242  1.2260 -0.4544
 4124SOL     OW24007   0.708   2.878   2.676  0.3468 -0.1788 -0.3102
 4124SOL    HW124008   0.753   2.962   2.672  2.0535 -1.0378  0.9005
 4124SOL    HW224009   0.624   2.914   2.649  1.9068  2.1283 -2.0969
 4125SOL     OW24010   2.810   0.010   1.605  0.1389  0.9539 -0.1572
 4125SOL    HW124011   2.866   4.673   1.600  0.9426  1.4901  0.4953
 4125SOL    HW224012   2.837   0.042   1.519  0.9300 -0.2385 -0.3530
 4126SOL     OW24013   1.586   4.609  16.161  0.1568 -0.1970 -0.1312
 4126SOL    HW124014   1.614   4.517  16.155  2.0246  0.4111 -0.7081
 4126SOL    HW224015   1.594   4.644  16.072  0.1264 -0.3083 -0.1783
 4127SOL     OW24016   0.684   1.833   5.899 -0.0410 -0.0750  0.4738
 4127SOL    HW124017   0.747   1.856   5.831 -2.2000 -1.2271 -1.9401
 4127SOL    HW224018   0.617   1.899   5.880 -1.3410 -0.9425  2.0929
 4128SOL     OW24019   0.450   4.369   8.623  0.1463 -0.1513  0.3888
 4128SOL    HW124020   0.387   4.407   8.685  0.2576  1.7778 -0.6651
 4128SOL    HW224021   0.410   4.401   8.542  2.8177  0.3746 -0.7326
 4129SOL     OW24022   3.665   3.255   8.866 -0.0562  0.1740 -0.3765
 4129SOL    HW124023   3.651   3.236   8.958  0.0870 -0.6424 -0.5226
 4129SOL    HW224024   3.689   3.169   8.830  0.6900  1.3028 -2.6166
 4130SOL     OW24025   1.624   2.197   5.966 -0.0595 -0.4439 -0.0218
 4130SOL    HW124026   1.678   2.139   5.913  0.7899  0.9246 -0.6253
 4130SOL    HW224027   1.591   2.256   5.898  2.3292 -0.0505 -0.8243
 4131SOL     OW24028   0.502   1.445   9.314  0.0072 -0.2052  0.1603
 4131SOL    HW124029   0.579   1.478   9.268 -0.8526  2.3242  0.5011
 4131SOL    HW224030   0.479   1.361   9.274 -2.4029  1.0203 -1.0265
 4132SOL     OW24031   2.428   0.318   6.744 -0.0313  0.5435 -0.3778
 4132SOL    HW124032   2.463   0.288   6.661 -0.5270 -0.1414 -0.3384
 4132SOL    HW224033   2.334   0.300   6.735 -0.2072  0.2140  1.9568
 4133SOL     OW24034   0.478   0.113  12.814 -0.6565  0.0637 -0.3620
 4133SOL    HW124035   0.551   0.160  12.773  0.6960  0.5934  2.6125
 4133SOL    HW224036   0.439   0.067  12.740 -3.2266 -0.7014  1.4636
 4134SOL     OW24037   0.066   3.843  14.369 -0.5568  0.3788 -0.0872
 4134SOL    HW124038   0.090   3.755  14.399  0.5029  0.4157 -0.8245
 4134SOL    HW224039   0.064   3.833  14.274  0.1634 -0.6154  0.0027
 4135SOL     OW24040   0.236   0.843   8.684  0.4611  0.0816  0.0586
 4135SOL    HW124041   0.241   0.798   8.599  0.5816  2.1801 -1.0505
 4135SOL    HW224042   0.164   0.899   8.654  1.7312  1.5841 -0.2423
 4136SOL     OW24043   0.325   0.067   5.149  0.5740 -0.4896  0.1358
 4136SOL    HW124044   0.340   0.102   5.237 -1.2311 -1.9944  1.0522
 4136SOL    HW224045   0.275   4.730   5.175 -1.9678  1.5750  1.3679
 4137SOL     OW24046   2.708   3.883   6.650 -0.0766  0.2422  0.5467
 4137SOL    HW124047   2.729   3.917   6.562 -0.4082  1.2946  0.8764
 4137SOL    HW224048   2.642   3.819   6.624 -0.4607  0.9899 -0.3174
 4138SOL     OW24049   4.517   2.537   2.290  0.1973  0.4398 -0.0869
 4138SOL    HW124050   4.592   2.566   2.238 -0.2405  0.4013 -0.7344
 4138SOL    HW224051   4.566   2.501   2.364 -0.2415  1.0922  0.5160
 4139SOL     OW24052   1.038   4.439   9.602 -0.6962 -0.2628 -0.3665
 4139SOL    HW124053   0.944   4.438   9.621 -1.1680  2.7317 -2.5567
 4139SOL    HW224054   1.058   4.366   9.661 -2.2237 -0.9614 -0.7166
 4140SOL     OW24055   3.764   2.391   1.807  0.0601  0.4737 -0.6477
 4140SOL    HW124056   3.696   2.326   1.824  1.8347 -1.1136  0.4012
 4140SOL    HW224057   3.740   2.415   1.717 -1.0206 -0.7064 -0.6782
 4141SOL     OW24058   1.410   2.554   5.576  0.2227  0.3400 -0.1304
 4141SOL    HW124059   1.341   2.564   5.511 -0.0294 -0.7855 -0.0443
 4141SOL    HW224060   1.428   2.644   5.601  0.4570  0.7976 -1.9644
 4142SOL     OW24061   0.956   3.304  15.230 -0.6194  0.0305  0.8659
 4142SOL    HW124062   1.045   3.278  15.252  0.1195  0.8376 -1.1916
 4142SOL    HW224063   0.905   3.283  15.308  1.2861 -1.1639  1.7640
 4143SOL     OW24064   0.290   1.838   7.651 -0.0851  0.2025 -0.1749
 4143SOL    HW124065   0.233   1.850   7.575 -1.1854  2.2312  0.9592
 4143SOL    HW224066   0.256   1.759   7.693  0.8231  0.5978  1.2904
 4144SOL     OW24067   0.860   1.329   1.543 -0.0948  0.1417 -0.0717
 4144SOL    HW124068   0.846   1.323   1.448 -2.7646 -0.5100  0.3731
 4144SOL    HW224069   0.836   1.242   1.574 -1.5122  0.5775  0.0688
 4145SOL     OW24070   2.752   0.430  13.673 -0.0633  0.6992  0.0516
 4145SOL    HW124071   2.729   0.430  13.580 -1.3398 -1.4096  0.3652
 4145SOL    HW224072   2.668   0.407  13.713  0.0058 -0.2192 -0.3170
 4146SOL     OW24073   1.192   1.004   9.661 -0.3047  0.2149 -0.7154
 4146SOL    HW124074   1.152   0.970   9.742  1.2711 -2.4014 -1.0368
 4146SOL    HW224075   1.253   0.937   9.631 -1.7042 -0.4419 -2.0973
 4147SOL     OW24076   0.428   0.261   9.730  0.2742  0.1623 -0.2044
 4147SOL    HW124077   0.453   0.258   9.638 -0.3977 -1.3319 -0.3342
 4147SOL    HW224078   0.353   0.319   9.720 -1.2622 -1.5570  1.3655
 4148SOL     OW24079   1.147   3.212  14.355  0.5977 -0.1274  0.1225
 4148SOL    HW124080   1.173   3.284  14.412 -1.3433  0.7551 -0.1158
 4148SOL    HW224081   1.223   3.158  14.333 -0.4284 -1.9594  1.0779
 4149SOL     OW24082   4.319   0.258   5.654  1.0119  0.4148 -0.1178
 4149SOL    HW124083   4.410   0.248   5.625  0.4398  0.1080 -1.7747
 4149SOL    HW224084   4.279   0.199   5.590 -1.3851  0.4759  1.3083
 4150SOL     OW24085   4.449   1.949   8.950  0.1647 -0.7845  0.0191
 4150SOL    HW124086   4.448   1.911   8.862 -1.8039  4.1934 -2.1047
 4150SOL    HW224087   4.535   1.989   8.959 -1.1962  1.8815  1.2512
 4151SOL     OW24088   3.801   2.556   0.641  0.5345 -1.0463 -0.2491
 4151SOL    HW124089   3.878   2.612   0.627 -0.9124  1.0679  0.2068
 4151SOL    HW224090   3.816   2.528   0.731  0.1612 -0.7135 -0.0818
 4152SOL     OW24091   0.002   3.729   1.632 -0.2673 -0.1760 -0.5934
 4152SOL    HW124092   0.036   3.742   1.544  0.4827 -0.4519 -0.3448
 4152SOL    HW224093   4.719   3.637   1.634  0.0780 -0.2891 -1.9738
 4153SOL     OW24094   2.417   2.923   0.777 -0.3697  0.2258  0.8686
 4153SOL    HW124095   2.426   2.841   0.826  0.2863 -1.3435 -1.8372
 4153SOL    HW224096   2.508   2.952   0.769 -0.4375  0.3252  0.4299
 4154SOL     OW24097   4.644   2.473   7.543 -0.5906  0.4470  0.0089
 4154SOL    HW124098   4.603   2.444   7.624  3.3876 -0.0796  1.8138
 4154SOL    HW224099   4.597   2.549   7.508 -0.9543  0.8404  1.3576
 4155SOL     OW24100   3.947   0.412   6.809 -0.1469  0.9664  0.7076
 4155SOL    HW124101   3.892   0.333   6.811 -0.1837  0.9202 -2.8729
 4155SOL    HW224102   3.986   0.412   6.722 -1.5664 -0.6710  0.0657
 4156SOL     OW24103   3.665   1.717   9.043 -0.4830  0.2177 -0.3743
 4156SOL    HW124104   3.577   1.708   9.006 -0.4844  0.0827 -0.3362
 4156SOL    HW224105   3.648   1.728   9.137  2.7945 -1.6155  0.4298
 4157SOL     OW24106   0.848   2.531  10.882  0.1083 -0.2408  0.6469
 4157SOL    HW124107   0.822   2.612  10.840  0.7062  0.7599  2.1821
 4157SOL    HW224108   0.938   2.521  10.851 -0.8441 -1.8529 -1.5912
 4158SOL     OW24109   0.705   3.442   2.963  0.7575 -0.2082 -0.6549
 4158SOL    HW124110   0.686   3.353   2.934  1.1754  0.4197 -2.8883
 4158SOL    HW224111   0.726   3.491   2.883  0.2195  0.6134 -0.2961
 4159SOL     OW24112   3.546   0.986  11.044 -0.3327 -0.0194  0.0816
 4159SOL    HW124113   3.562   0.931  10.967 -1.2120 -0.7843  0.4452
 4159SOL    HW224114   3.585   1.063  11.004 -1.2358  1.1100  1.3724
 4160SOL     OW24115   4.087   4.371   2.160 -0.1756 -0.3547 -0.3702
 4160SOL    HW124116   4.090   4.342   2.069 -0.5834 -0.2753 -0.4109
 4160SOL    HW224117   4.046   4.456   2.146  1.5712  0.6243  0.5120
 4161SOL     OW24118   3.468   0.833   5.577  0.2723  0.6658 -0.1360
 4161SOL    HW124119   3.549   0.844   5.626  1.1784 -0.4204 -1.3951
 4161SOL    HW224120   3.422   0.775   5.639  0.5087  0.6907  0.0611
 4162SOL     OW24121   3.531   1.906   6.836 -0.4460 -0.4149 -0.1446
 4162SOL    HW124122   3.556   1.829   6.886 -0.4529  0.6673  1.4955
 4162SOL    HW224123   3.573   1.985   6.870  1.2871  0.3983 -4.0852
 4163SOL     OW24124   2.736   2.164   7.246 -0.2092 -0.0195  0.4813
 4163SOL    HW124125   2.711   2.210   7.326 -1.5057 -2.5667  1.5584
 4163SOL    HW224126   2.694   2.078   7.251 -0.8991  0.1541 -3.0006
 4164SOL     OW24127   1.373   2.309  15.605  0.3971  0.4932 -0.0161
 4164SOL    HW124128   1.301   2.355  15.649  0.4298  0.7355 -0.2155
 4164SOL    HW224129   1.384   2.354  15.521 -1.2683  1.0995  0.1020
 4165SOL     OW24130   4.478   4.739   4.787  0.0184 -0.4860  0.6732
 4165SOL    HW124131   4.409   4.704   4.730  1.4543 -0.6369 -0.9562
 4165SOL    HW224132   4.548   4.674   4.780 -2.0691 -3.0109  2.9390
 4166SOL     OW24133   1.846   4.403   8.590 -0.6441 -0.1283  0.1879
 4166SOL    HW124134   1.886   4.392   8.677 -0.0070 -0.5244 -0.1573
 4166SOL    HW224135   1.758   4.369   8.608 -0.6335  0.1346  0.7487
 4167SOL     OW24136   1.632   4.545   0.868  0.4263 -0.5329  0.1633
 4167SOL    HW124137   1.597   4.471   0.918 -0.9183 -1.1337 -1.6953
 4167SOL    HW224138   1.702   4.499   0.822  0.3171 -1.0848  0.5552
 4168SOL     OW24139   3.096   0.928  14.960  0.3438  0.5573  0.5238
 4168SOL    HW124140   3.131   0.843  14.986 -0.5786  0.2805  0.8486
 4168SOL    HW224141   3.080   0.922  14.866  1.5503 -1.0199  0.4155
 4169SOL     OW24142   3.210   2.316   0.144 -0.1644 -0.4092 -0.5445
 4169SOL    HW124143   3.278   2.297   0.208 -0.9691 -0.8110  0.1813
 4169SOL    HW224144   3.201   2.234   0.095 -1.9790  0.6876 -2.0828
 4170SOL     OW24145   3.363   4.223   6.941 -0.6538  0.1966 -0.5703
 4170SOL    HW124146   3.270   4.245   6.941  0.0682  3.3474  0.3123
 4170SOL    HW224147   3.379   4.192   6.852  2.4498 -1.3002  0.5066
 4171SOL     OW24148   1.564   3.196   4.786  0.0378 -0.2857 -0.8521
 4171SOL    HW124149   1.591   3.281   4.751 -1.3486  0.2645 -0.5879
 4171SOL    HW224150   1.651   3.165   4.812  0.7977  1.6693 -1.0727
 4172SOL     OW24151   4.674   0.958   9.047 -0.0767  0.0804 -0.0739
 4172SOL    HW124152   4.733   0.988   8.978  0.1362 -0.7844 -0.2649
 4172SOL    HW224153   4.592   0.995   9.014  1.2998  2.5259 -0.7831
 4173SOL     OW24154   4.273   1.496   5.579  0.5154 -0.1749  0.1798
 4173SOL    HW124155   4.291   1.440   5.654 -0.8853 -1.7337 -0.6442
 4173SOL    HW224156   4.181   1.475   5.562  0.5450 -1.4137  1.6008
 4174SOL     OW24157   1.591   4.434   2.403 -0.2424  0.7685  0.0312
 4174SOL    HW124158   1.620   4.381   2.476 -1.7651  1.0083  0.8074
 4174SOL    HW224159   1.668   4.442   2.347 -1.2656  1.4743 -1.2826
 4175SOL     OW24160   2.141   1.779   3.638 -0.2726 -0.0977 -0.4778
 4175SOL    HW124161   2.067   1.793   3.697  0.2009 -2.1798  0.5886
 4175SOL    HW224162   2.111   1.829   3.561 -0.6827  0.4628  0.0476
 4176SOL     OW24163   2.847   1.024   7.095 -0.2011  0.1340  0.0021
 4176SOL    HW124164   2.773   0.970   7.067  0.7744 -0.8724 -0.6406
 4176SOL    HW224165   2.923   1.000   7.043 -1.2290  0.4614 -1.6499
 4177SOL     OW24166   0.284   0.213   6.589 -0.5566 -0.9537 -0.1403
 4177SOL    HW124167   0.237   0.272   6.530  0.3809 -0.7919 -0.7178
 4177SOL    HW224168   0.359   0.260   6.624 -1.3826 -0.9739  1.6633
 4178SOL     OW24169   4.106   4.496   7.095  0.2644  0.0205 -0.2306
 4178SOL    HW124170   4.165   4.538   7.158 -0.1555  0.5785 -0.2086
 4178SOL    HW224171   4.120   4.405   7.122  2.2685  0.4331  0.1103
 4179SOL     OW24172   2.231   2.745   6.242 -0.0737 -0.6652  0.1949
 4179SOL    HW124173   2.258   2.691   6.317  2.3780 -0.2671 -0.3996
 4179SOL    HW224174   2.139   2.762   6.264 -0.8374 -0.9196 -2.8330
 4180SOL     OW24175   0.478   4.390   8.932  0.1477  0.0761 -0.5023
 4180SOL    HW124176   0.544   4.411   8.867  0.0695  0.3958 -0.4777
 4180SOL    HW224177   0.412   4.458   8.919 -0.4257 -0.4689 -0.4455
 4181SOL     OW24178   1.104   4.489   2.368  0.2460 -0.3712 -0.2789
 4181SOL    HW124179   1.159   4.415   2.392  0.5144 -0.3685 -0.8871
 4181SOL    HW224180   1.130   4.554   2.434 -2.0742  0.9336 -0.6429
 4182SOL     OW24181   1.971   1.401   5.483  0.1817 -0.1666  0.4944
 4182SOL    HW124182   1.994   1.481   5.436 -1.6181  0.4317  0.6612
 4182SOL    HW224183   1.989   1.336   5.415  0.6828  0.1961  0.2774
 4183SOL     OW24184   1.284   2.220   2.399  0.9047  0.4424 -0.1012
 4183SOL    HW124185   1.205   2.273   2.386 -0.2739 -0.2252  4.1688
 4183SOL    HW224186   1.328   2.252   2.478 -0.2255 -0.3936  0.8679
 4184SOL     OW24187   0.237   0.217   8.900  0.6415 -0.0203  0.6461
 4184SOL    HW124188   0.296   0.208   8.825 -0.0919  0.0704  0.0589
 4184SOL    HW224189   0.229   0.123   8.918 -0.8635 -0.3651 -1.8006
 4185SOL     OW24190   4.170   3.998  11.997 -0.2527  0.2136  0.0439
 4185SOL    HW124191   4.117   3.945  11.937  1.4765  1.4209 -2.5354
 4185SOL    HW224192   4.149   3.952  12.079 -1.0388  0.5295  0.0213
 4186SOL     OW24193   1.736   0.942   4.718  0.1757 -0.4660  0.0472
 4186SOL    HW124194   1.763   0.858   4.682 -0.5551 -0.8386  0.3628
 4186SOL    HW224195   1.804   1.005   4.694 -0.6950 -0.0634 -1.3638
 4187SOL     OW24196   4.351   1.398   1.754  0.0606 -0.1886  0.4331
 4187SOL    HW124197   4.372   1.307   1.773 -0.3380 -0.3576  0.0474
 4187SOL    HW224198   4.343   1.439   1.840  0.6400  0.9687 -0.0598
 4188SOL     OW24199   1.032   2.551   8.909  0.3697  0.5070 -0.0811
 4188SOL    HW124200   1.051   2.627   8.854 -2.6969  0.5048 -1.1571
 4188SOL    HW224201   0.941   2.577   8.927  0.5224  1.8151 -1.2394
 4189SOL     OW24202   2.027   2.677   7.009 -0.0354 -0.2436 -0.3973
 4189SOL    HW124203   1.982   2.703   6.928  2.2749  0.5767 -1.4016
 4189SOL    HW224204   2.074   2.596   6.987  2.2455  0.0326  3.6380
 4190SOL     OW24205   2.315   2.365   6.178  0.4287 -0.0936 -0.8413
 4190SOL    HW124206   2.232   2.405   6.205  1.6372  1.1636  0.9998
 4190SOL    HW224207   2.370   2.443   6.169  2.1516 -1.0361  1.8816
 4191SOL     OW24208   1.006   2.127   5.777 -0.0403  0.3215 -0.5943
 4191SOL    HW124209   0.930   2.185   5.769  0.5428  0.5163 -4.6990
 4191SOL    HW224210   1.006   2.097   5.868 -2.0434 -0.1539 -0.7649
 4192SOL     OW24211   4.726   2.248   2.540 -0.5609  0.3123  0.0619
 4192SOL    HW124212   4.658   2.254   2.607 -2.2176 -1.9283 -1.4307
 4192SOL    HW224213   0.034   2.328   2.562 -0.6020  0.5291 -0.6374
 4193SOL     OW24214   1.089   0.529  16.676 -0.3782  0.2419  0.0182
 4193SOL    HW124215   1.036   0.449  16.671  2.1007 -1.3317 -0.9955
 4193SOL    HW224216   1.116   0.544  16.586  2.1303 -2.7490  0.2409
 4194SOL     OW24217   2.823   1.916   1.751 -0.3032 -0.4579  0.8878
 4194SOL    HW124218   2.841   1.903   1.844  3.2513  1.4051  0.4453
 4194SOL    HW224219   2.733   1.883   1.754 -0.4217 -0.2527 -0.3502
 4195SOL     OW24220   1.231   0.557   1.365 -0.6934  0.1837  0.1401
 4195SOL    HW124221   1.307   0.499   1.351 -1.4166 -0.8053  0.3231
 4195SOL    HW224222   1.245   0.593   1.452  0.4536  1.3559 -0.5276
 4196SOL     OW24223   0.115   4.661   6.916 -0.0911 -0.0633  0.0261
 4196SOL    HW124224   0.203   4.667   6.880 -0.4991 -0.0976 -0.9790
 4196SOL    HW224225   0.067   4.720   6.858 -0.5032  0.7383  1.1807
 4197SOL     OW24226   0.283   3.967   1.467 -0.3612  0.1552  0.1849
 4197SOL    HW124227   0.271   4.040   1.407 -0.3380  1.1493  1.4032
 4197SOL    HW224228   0.239   3.897   1.419  2.6584 -0.0655 -2.3217
 4198SOL     OW24229   2.544   3.534   2.378  0.1057  0.2296  0.1325
 4198SOL    HW124230   2.575   3.448   2.406 -1.1275  0.3328  1.7752
 4198SOL    HW224231   2.490   3.508   2.304 -0.5207  0.0162  0.6649
 4199SOL     OW24232   3.258   1.051   1.765  0.1250 -0.2794  0.1503
 4199SOL    HW124233   3.241   1.002   1.845  1.9516 -1.4370 -0.1610
 4199SOL    HW224234   3.294   1.130   1.808  0.7559 -0.8745  0.7265
 4200SOL     OW24235   2.141   1.742  15.812 -0.1291 -0.5505 -0.0012
 4200SOL    HW124236   2.124   1.818  15.757 -1.2377  0.2115  1.3740
 4200SOL    HW224237   2.056   1.716  15.847 -1.4955 -0.0857 -3.0832
 4201SOL     OW24238   0.032   0.395   1.137  0.0884 -0.1563 -0.1399
 4201SOL    HW124239   0.099   0.335   1.169 -0.3857 -0.5856  0.0487
 4201SOL    HW224240   0.038   0.375   1.043 -0.6247  1.7869 -0.6027
 4202SOL     OW24241   4.110   2.928   2.170 -0.2884  0.2328  0.2122
 4202SOL    HW124242   4.161   2.928   2.089 -0.4521  0.5792  0.1086
 4202SOL    HW224243   4.061   2.846   2.174  0.5568 -0.3881 -2.2645
 4203SOL     OW24244   1.193   1.871   1.134 -0.5310 -0.4044  0.0168
 4203SOL    HW124245   1.107   1.897   1.100 -0.0383  0.1290 -0.8225
 4203SOL    HW224246   1.215   1.799   1.075 -0.1688 -0.2392 -0.0521
 4204SOL     OW24247   0.911   1.355   8.103 -0.4984 -0.0892  0.2954
 4204SOL    HW124248   0.859   1.316   8.033 -0.0787 -2.3624  1.2520
 4204SOL    HW224249   0.953   1.278   8.142 -1.6555  0.0629  1.8325
 4205SOL     OW24250   0.500   0.411   8.121  0.3787  0.6845  0.3450
 4205SOL    HW124251   0.422   0.413   8.066 -0.3191 -1.8199  1.2729
 4205SOL    HW224252   0.469   0.419   8.212  1.7911  1.1300  0.7837
 4206SOL     OW24253   2.684   2.288   6.860 -0.0631 -0.1642  0.4933
 4206SOL    HW124254   2.607   2.233   6.846  0.7633 -1.4326  0.8737
 4206SOL    HW224255   2.693   2.340   6.780 -0.2564 -2.3857 -0.9935
 4207SOL     OW24256   4.143   0.478   4.052 -0.2047  0.3892  0.2454
 4207SOL    HW124257   4.087   0.522   4.116 -1.2183  0.3360 -0.6072
 4207SOL    HW224258   4.228   0.509   4.084  1.0570 -1.0179 -1.7821
 4208SOL     OW24259   0.672   1.006  15.304  0.0841  0.3307 -0.2758
 4208SOL    HW124260   0.763   0.988  15.327 -0.6120 -0.4919  1.7789
 4208SOL    HW224261   0.630   0.922  15.321  0.6378  0.5417  2.0558
 4209SOL     OW24262   2.055   0.708   2.974  0.3975 -0.2264  0.0554
 4209SOL    HW124263   2.022   0.633   3.024 -0.4383  0.5559  0.6860
 4209SOL    HW224264   2.042   0.772   3.044  0.9869  0.0780 -0.1175
 4210SOL     OW24265   3.719   4.304   4.853  0.3005  0.3747 -0.1059
 4210SOL    HW124266   3.703   4.337   4.941  0.9724  0.5637 -0.0571
 4210SOL    HW224267   3.637   4.320   4.807  0.5445 -0.5562 -0.8712
 4211SOL     OW24268   3.916   3.061   1.395 -0.0307 -0.4458  0.1788
 4211SOL    HW124269   3.903   3.054   1.301 -0.8460  0.1507  0.2529
 4211SOL    HW224270   3.988   3.124   1.403 -1.3463  1.0912 -0.0873
 4212SOL     OW24271   3.720   3.717   2.656  0.1238 -0.3149  0.2241
 4212SOL    HW124272   3.682   3.635   2.625 -1.5563  0.5617 -0.0298
 4212SOL    HW224273   3.647   3.760   2.699 -0.3355 -0.9108  0.0385
 4213SOL     OW24274   3.375   1.795  16.392  0.2206  0.3661 -0.6232
 4213SOL    HW124275   3.464   1.822  16.368 -0.0024  1.2834 -0.4399
 4213SOL    HW224276   3.351   1.849  16.467  0.1037  0.1674 -0.5164
 4214SOL     OW24277   2.304   1.180  12.905 -0.0453 -0.4169  0.0127
 4214SOL    HW124278   2.366   1.251  12.885 -0.5901  0.0083 -0.1802
 4214SOL    HW224279   2.362   1.120  12.951  0.2153  0.2070  0.5058
 4215SOL     OW24280   3.525   3.292   7.222 -0.6313 -0.0097  0.1799
 4215SOL    HW124281   3.617   3.316   7.225 -1.3832  3.0040 -0.7324
 4215SOL    HW224282   3.518   3.253   7.309 -1.2119 -0.4059 -0.0435
 4216SOL     OW24283   1.473   0.094  16.978 -0.5338 -0.6777  0.3774
 4216SOL    HW124284   1.420   0.021  17.008 -0.8192  0.2384  2.0839
 4216SOL    HW224285   1.541   0.094  17.045  1.5047 -3.8091 -1.6590
 4217SOL     OW24286   3.208   2.131   1.407  0.0680 -0.3656  0.0592
 4217SOL    HW124287   3.152   2.141   1.329  0.7729  0.3137 -0.3519
 4217SOL    HW224288   3.289   2.094   1.372  2.5171  3.6325  1.6381
 4218SOL     OW24289   2.081   1.242  12.226 -0.0905  0.1661 -0.2871
 4218SOL    HW124290   2.172   1.267  12.246 -0.4040 -1.5303  3.2070
 4218SOL    HW224291   2.036   1.320  12.259  0.0962 -0.1136  0.6293
 4219SOL     OW24292   4.095   3.951  12.575 -0.3062  0.6897 -0.1848
 4219SOL    HW124293   4.033   4.022  12.557  0.0311  0.8870 -0.5783
 4219SOL    HW224294   4.170   3.970  12.519  3.2043 -0.0391  4.3270
 4220SOL     OW24295   0.641   2.909  17.040 -0.0525 -0.2101  0.0315
 4220SOL    HW124296   0.726   2.906  16.994  0.4893  0.8795  0.9739
 4220SOL    HW224297   0.655   2.837  17.102 -1.2386 -1.4726 -1.1531
 4221SOL     OW24298   4.176   0.690   3.576  0.1677  0.3303  0.5744
 4221SOL    HW124299   4.094   0.716   3.619  0.5677  0.2534  1.3786
 4221SOL    HW224300   4.222   0.651   3.650  0.6749  0.8250  0.5188
 4222SOL     OW24301   0.471   3.304  10.535 -0.1119  0.5374 -0.2127
 4222SOL    HW124302   0.390   3.348  10.510 -2.2206 -0.5639  4.6393
 4222SOL    HW224303   0.452   3.284  10.627 -1.3796 -1.3563 -0.8923
 4223SOL     OW24304   0.328   0.918   1.718 -0.2581 -0.3585  0.2975
 4223SOL    HW124305   0.321   0.826   1.694 -3.6668  0.2488 -1.0473
 4223SOL    HW224306   0.243   0.951   1.691 -0.1179  0.4260  0.8150
 4224SOL     OW24307   3.852   4.067   3.645 -0.4416  0.2610 -0.1022
 4224SOL    HW124308   3.927   4.080   3.588 -2.4625  0.6358 -2.6817
 4224SOL    HW224309   3.882   4.015   3.719  1.1755  0.8029 -0.3816
 4225SOL     OW24310   0.234   4.658   8.952 -0.3581  0.4394  0.0280
 4225SOL    HW124311   0.164   4.679   9.013 -0.9402 -1.6497  0.0630
 4225SOL    HW224312   0.313   4.694   8.992 -0.3159  0.5715 -0.1707
 4226SOL     OW24313   4.048   4.516  13.435  0.0638 -0.2119 -0.1162
 4226SOL    HW124314   4.016   4.476  13.354  0.1253  1.1592 -0.8274
 4226SOL    HW224315   4.133   4.546  13.405 -0.7689  1.1133 -1.1521
 4227SOL     OW24316   2.142   1.174  14.650 -0.0065  0.1940 -0.5778
 4227SOL    HW124317   2.135   1.258  14.604 -0.4819  0.3005 -0.3207
 4227SOL    HW224318   2.053   1.172  14.687 -0.7007  1.9812 -2.1296
 4228SOL     OW24319   1.078   1.946   1.761  0.2231  0.7353  0.0839
 4228SOL    HW124320   1.152   1.986   1.716  1.4661 -0.3700  1.1825
 4228SOL    HW224321   1.116   1.859   1.757  0.4543  0.7025  3.7683
 4229SOL     OW24322   4.661   0.721   8.024  0.1677  0.5051 -0.2258
 4229SOL    HW124323   4.657   0.655   8.093  1.9280  2.1590  1.4761
 4229SOL    HW224324   0.015   0.739   8.014  0.6421 -2.4263 -1.0179
 4230SOL     OW24325   1.921   1.894   1.798 -0.0786  0.2315 -0.3158
 4230SOL    HW124326   2.003   1.921   1.840 -0.3481  0.2440  0.2035
 4230SOL    HW224327   1.863   1.950   1.850  1.1290  0.1958  1.0789
 4231SOL     OW24328   0.838   1.891   3.588  0.6504  0.1171 -0.0228
 4231SOL    HW124329   0.827   1.830   3.661 -2.2130  0.5323 -0.1060
 4231SOL    HW224330   0.880   1.836   3.522 -0.2721 -0.1207 -0.4068
 4232SOL     OW24331   1.513   2.626  14.205 -0.6286  0.6328  0.1700
 4232SOL    HW124332   1.516   2.667  14.291 -0.9062 -2.1312  1.4799
 4232SOL    HW224333   1.580   2.559  14.213  0.2217  1.3803 -0.7300
 4233SOL     OW24334   1.946   1.637   6.423  0.3227  0.4068  0.1465
 4233SOL    HW124335   1.987   1.598   6.500 -1.4145 -0.1529  0.7828
 4233SOL    HW224336   1.914   1.722   6.452 -2.4945 -1.3973  2.4337
 4234SOL     OW24337   2.050   2.515  12.189  0.1097  0.0342  0.3748
 4234SOL    HW124338   2.139   2.520  12.154 -0.3234 -0.1435 -0.7697
 4234SOL    HW224339   2.017   2.428  12.168 -0.6290 -0.0891  2.0729
 4235SOL     OW24340   3.512   2.315   9.269 -0.0304  0.2709 -0.2529
 4235SOL    HW124341   3.595   2.343   9.232  0.6992  0.5564  1.6084
 4235SOL    HW224342   3.519   2.224   9.238 -0.4176  0.0396  0.3413
 4236SOL     OW24343   1.206   4.296   9.190  0.4443  0.3098  0.1287
 4236SOL    HW124344   1.287   4.317   9.143 -0.6316  0.8234 -1.5002
 4236SOL    HW224345   1.156   4.373   9.165 -0.6748 -0.3880  0.2044
 4237SOL     OW24346   3.743   2.591   8.217  0.2882  0.0167 -0.1033
 4237SOL    HW124347   3.707   2.625   8.135 -1.9848  0.6276  1.1281
 4237SOL    HW224348   3.669   2.531   8.233  0.4519  0.8744  3.9568
 4238SOL     OW24349   2.151   1.733   5.491  0.5048  0.1446 -0.2005
 4238SOL    HW124350   2.079   1.753   5.551  0.8557  0.7356  0.0118
 4238SOL    HW224351   2.196   1.817   5.480  3.2236 -1.4041 -0.9990
 4239SOL     OW24352   1.238   3.105   5.199 -0.1293 -0.8371 -0.0457
 4239SOL    HW124353   1.273   3.163   5.132  2.7978 -1.1919  1.1705
 4239SOL    HW224354   1.235   3.030   5.140  0.9214 -0.4392 -0.6126
 4240SOL     OW24355   1.093   1.589   3.332 -0.3244 -0.2336  0.1019
 4240SOL    HW124356   0.999   1.590   3.349 -0.0266  1.6614  1.6412
 4240SOL    HW224357   1.114   1.675   3.369  0.2706  0.7873 -2.5935
 4241SOL     OW24358   1.489   3.865   2.586  0.0342 -0.4257  0.2890
 4241SOL    HW124359   1.473   3.783   2.634 -1.2896 -0.5786 -0.4350
 4241SOL    HW224360   1.399   3.890   2.568  0.2160 -0.8916 -1.2415
 4242SOL     OW24361   3.432   1.230   3.910  0.6126 -0.2135  0.2349
 4242SOL    HW124362   3.388   1.315   3.908 -1.3046 -1.2807 -2.7319
 4242SOL    HW224363   3.448   1.216   4.003  0.2499 -0.0473  0.3206
 4243SOL     OW24364   4.465   3.555  16.032 -0.2798  0.3852  0.2723
 4243SOL    HW124365   4.535   3.494  16.056  1.1430  1.4704 -1.1525
 4243SOL    HW224366   4.415   3.508  15.966  0.6374 -0.2611  0.0343
 4244SOL     OW24367   3.385   3.247   3.937 -0.0153 -0.0463 -0.1813
 4244SOL    HW124368   3.346   3.332   3.955  1.4609  0.8500 -1.3041
 4244SOL    HW224369   3.321   3.210   3.876 -0.1685 -1.2852  0.7219
 4245SOL     OW24370   4.682   3.736   6.344  0.3178 -0.6779  0.6761
 4245SOL    HW124371   4.698   3.755   6.437  2.8837 -0.9975  0.2865
 4245SOL    HW224372   4.673   3.641   6.338 -2.6793 -0.2554 -1.3051
 4246SOL     OW24373   0.455   0.470   6.915  0.0217 -0.7605 -0.3897
 4246SOL    HW124374   0.542   0.430   6.910  0.8565  1.1598 -1.5223
 4246SOL    HW224375   0.487   0.557   6.890 -2.3465 -0.4038 -2.2358
 4247SOL     OW24376   4.375   1.330   8.961  0.0586  0.0657  0.1045
 4247SOL    HW124377   4.285   1.321   8.995  0.5352 -3.0130  0.5218
 4247SOL    HW224378   4.423   1.341   9.043  0.9452 -0.1275 -0.3973
 4248SOL     OW24379   3.491   0.672   8.635 -0.1128 -0.1762 -0.3944
 4248SOL    HW124380   3.471   0.594   8.583  1.5208 -0.1149 -1.1097
 4248SOL    HW224381   3.415   0.679   8.693 -1.2953  0.8617 -2.0823
 4249SOL     OW24382   1.207   1.455   6.187 -0.1090 -0.1856  0.4919
 4249SOL    HW124383   1.216   1.360   6.187 -4.5638 -0.5821 -0.1364
 4249SOL    HW224384   1.143   1.469   6.117 -0.8049 -2.1294  0.7609
 4250SOL     OW24385   1.904   2.222   6.354  0.0441 -0.2460 -0.2774
 4250SOL    HW124386   1.815   2.210   6.319 -1.0320 -0.1087  2.4273
 4250SOL    HW224387   1.948   2.141   6.329  1.9666  0.4562  0.8441
 4251SOL     OW24388   0.442   2.748  11.194  0.5190 -0.3726 -0.4183
 4251SOL    HW124389   0.395   2.826  11.164  0.6404 -0.1347  0.0192
 4251SOL    HW224390   0.501   2.785  11.260 -1.2096 -2.2373  2.1769
 4252SOL     OW24391   1.137   3.063  16.559 -0.2220  0.0708 -0.0496
 4252SOL    HW124392   1.094   2.981  16.535 -0.1555 -0.0158  0.1226
 4252SOL    HW224393   1.230   3.042  16.547 -0.5807 -1.2281 -0.5501
 4253SOL     OW24394   3.306   1.728   6.480  0.1234 -0.1615  0.7572
 4253SOL    HW124395   3.231   1.773   6.441 -0.8337  0.1131  2.9006
 4253SOL    HW224396   3.295   1.747   6.573  2.7387  3.5004  0.3252
 4254SOL     OW24397   3.651   3.789   5.208  0.3393  0.2059  0.5993
 4254SOL    HW124398   3.600   3.743   5.141 -0.7604  1.1594  0.7787
 4254SOL    HW224399   3.632   3.881   5.187 -1.7239 -0.2295  0.6375
 4255SOL     OW24400   0.773   3.843   6.608  0.5688  0.8612  0.4580
 4255SOL    HW124401   0.718   3.905   6.655 -1.0896 -0.0788 -0.2150
 4255SOL    HW224402   0.721   3.763   6.593 -0.6334  1.5543  0.9391
 4256SOL     OW24403   4.153   3.581  10.822  0.2100 -0.3362  0.0295
 4256SOL    HW124404   4.116   3.599  10.735  0.5479 -0.9491 -0.2400
 4256SOL    HW224405   4.232   3.635  10.813  1.5680 -2.3227  0.0939
 4257SOL     OW24406   2.483   2.298   5.108  0.0083  0.2750  0.1932
 4257SOL    HW124407   2.388   2.294   5.109 -0.1299  3.4507  0.4203
 4257SOL    HW224408   2.492   2.291   5.013 -0.0189  2.7464  0.0053
 4258SOL     OW24409   1.235   0.782   2.362  0.1522  0.0326 -0.2619
 4258SOL    HW124410   1.235   0.805   2.455  2.7258 -1.1470  0.0338
 4258SOL    HW224411   1.180   0.705   2.378  0.7239 -0.6221 -1.4904
 4259SOL     OW24412   4.662   3.440   5.856  0.1807 -0.2198  0.0657
 4259SOL    HW124413   4.731   3.406   5.800  0.5329  0.9161 -0.1858
 4259SOL    HW224414   4.608   3.362   5.871 -0.8509  0.1080 -2.0112
 4260SOL     OW24415   3.390   1.170   2.332  0.2079 -0.3890 -0.0333
 4260SOL    HW124416   3.419   1.122   2.410 -0.8437 -0.0367  0.5819
 4260SOL    HW224417   3.309   1.209   2.365 -0.8061 -1.2822 -1.4645
 4261SOL     OW24418   1.694   2.504   7.312 -0.5564 -0.7478 -0.8520
 4261SOL    HW124419   1.721   2.577   7.257  1.2825 -1.3278 -0.7082
 4261SOL    HW224420   1.766   2.510   7.375 -1.7032 -0.8895  0.4735
 4262SOL     OW24421   1.428   1.995   8.042 -0.3238 -0.2278  0.4351
 4262SOL    HW124422   1.415   2.020   7.951  1.6466 -0.1483  0.1843
 4262SOL    HW224423   1.369   1.920   8.045  0.7595 -1.1223 -0.4117
 4263SOL     OW24424   0.381   3.684   6.573 -0.4177 -0.5373  0.2428
 4263SOL    HW124425   0.474   3.689   6.597 -0.1684 -0.1624 -0.7933
 4263SOL    HW224426   0.397   3.611   6.514 -1.0908 -1.1970  0.8792
 4264SOL     OW24427   2.410   3.782   7.668 -0.4999  0.2448  0.0001
 4264SOL    HW124428   2.416   3.744   7.580  0.8239  0.4871 -0.0214
 4264SOL    HW224429   2.502   3.799   7.690  0.1938 -0.5521 -2.3037
 4265SOL     OW24430   1.423   1.323   1.423  0.0074  0.4633 -0.1159
 4265SOL    HW124431   1.415   1.307   1.329  0.9238 -0.1955 -0.0873
 4265SOL    HW224432   1.403   1.416   1.432  0.8830  0.6105  0.3752
 4266SOL     OW24433   1.193   0.434   2.232  0.3837 -0.2781  0.8146
 4266SOL    HW124434   1.147   0.405   2.311  3.1409 -2.4446  1.6685
 4266SOL    HW224435   1.168   0.364   2.173  0.3599  1.0181 -0.7016
 4267SOL     OW24436   1.570   4.449   9.635  0.2306 -0.0928  0.2493
 4267SOL    HW124437   1.567   4.537   9.597  1.7768  0.5858  1.7257
 4267SOL    HW224438   1.495   4.416   9.585 -1.7164  1.7099  1.9213
 4268SOL     OW24439   1.069   1.197   4.232 -0.8000  0.0655  0.3751
 4268SOL    HW124440   0.996   1.159   4.182  0.0001 -0.0299 -0.7114
 4268SOL    HW224441   1.097   1.244   4.154  1.1215 -2.5937 -0.5227
 4269SOL     OW24442   0.852   4.608  16.410 -0.6816 -0.3764  0.2316
 4269SOL    HW124443   0.764   4.608  16.372 -1.2012 -0.6858  1.4580
 4269SOL    HW224444   0.900   4.583  16.330  1.2838  0.6118  1.0846
 4270SOL     OW24445   4.217   3.138   4.671 -0.0206 -0.0201  0.1651
 4270SOL    HW124446   4.148   3.073   4.681  1.2695 -1.6270 -1.4169
 4270SOL    HW224447   4.201   3.175   4.584 -3.0243  0.9723  1.1594
 4271SOL     OW24448   2.110   3.848   6.739 -0.0362 -0.8371 -0.2512
 4271SOL    HW124449   2.182   3.824   6.798 -2.2407 -0.8328  2.4040
 4271SOL    HW224450   2.133   3.941   6.731 -3.5004  0.1434  1.4163
 4272SOL     OW24451   0.027   2.220   1.350 -0.3040  0.1469 -0.2333
 4272SOL    HW124452   4.674   2.237   1.363 -0.1107 -0.2756  1.8193
 4272SOL    HW224453   0.030   2.148   1.287 -2.1768  1.0956 -1.3954
 4273SOL     OW24454   1.822   2.484  10.758 -0.0109  0.2465 -0.1357
 4273SOL    HW124455   1.905   2.525  10.737  0.1167 -1.0877 -2.1709
 4273SOL    HW224456   1.799   2.530  10.839 -0.9029 -0.6743  0.1450
 4274SOL     OW24457   1.584   2.705  16.993 -0.0976 -0.7610  0.1724
 4274SOL    HW124458   1.497   2.704  16.953  0.1875 -0.7553 -0.4460
 4274SOL    HW224459   1.600   2.614  17.020  1.4198 -0.5807 -0.1451
 4275SOL     OW24460   4.612   4.274  12.680 -0.4215  0.3209  0.0120
 4275SOL    HW124461   4.675   4.201  12.689 -0.9147 -0.4525 -2.9033
 4275SOL    HW224462   4.535   4.219  12.665 -1.3683  1.4850  0.6609
 4276SOL     OW24463   2.187   1.478   3.952 -0.0339 -0.4506  0.2240
 4276SOL    HW124464   2.234   1.537   3.893 -1.7071  1.0351  0.4040
 4276SOL    HW224465   2.224   1.398   3.914 -1.2862  0.2543 -2.5078
 4277SOL     OW24466   0.298   4.023   0.600  0.2923 -0.5468 -0.0065
 4277SOL    HW124467   0.338   3.976   0.672 -1.5640 -0.1049  1.3269
 4277SOL    HW224468   0.367   4.044   0.537 -0.0959 -0.6871 -0.4848
 4278SOL     OW24469   3.838   0.113  16.711  0.1231  0.4375 -0.7370
 4278SOL    HW124470   3.794   0.042  16.756 -0.8861  0.4456 -1.7142
 4278SOL    HW224471   3.913   0.141  16.765  1.1630 -1.5071 -1.1794
 4279SOL     OW24472   2.037   2.386   5.281 -0.1997  1.0958 -0.2042
 4279SOL    HW124473   2.077   2.461   5.326  1.4805 -0.3481  0.6985
 4279SOL    HW224474   2.111   2.354   5.230  0.8603  0.4060  1.7835
 4280SOL     OW24475   3.671   2.180  10.120 -1.0150  0.3615  0.2707
 4280SOL    HW124476   3.659   2.151  10.210 -0.6508  0.4264  0.3424
 4280SOL    HW224477   3.606   2.250  10.128  0.9210  2.1029  0.9292
 4281SOL     OW24478   3.506   1.457   5.498  0.0931 -0.2388  0.2877
 4281SOL    HW124479   3.573   1.401   5.539 -0.2034 -0.1159  0.9455
 4281SOL    HW224480   3.560   1.532   5.473  1.6519 -0.4187  3.1247
 4282SOL     OW24481   4.603   4.624   8.401  0.4698 -0.3160  0.8668
 4282SOL    HW124482   4.654   4.590   8.327 -0.0404 -0.8064  0.7426
 4282SOL    HW224483   4.513   4.620   8.370  0.0279  4.1195  1.6114
 4283SOL     OW24484   0.228   0.681   3.289  0.0087  0.3217  0.0761
 4283SOL    HW124485   0.135   0.689   3.312  0.1478  2.4913 -0.1146
 4283SOL    HW224486   0.241   0.622   3.363  0.6554  0.1521 -0.1767
 4284SOL     OW24487   3.443   0.608   9.371 -0.2735 -0.1678  0.1660
 4284SOL    HW124488   3.480   0.624   9.284 -0.8376  1.3077  0.1900
 4284SOL    HW224489   3.489   0.531   9.402  0.1739  0.6107  1.4479
 4285SOL     OW24490   4.442   3.617   7.853  0.3588  0.1622  0.4843
 4285SOL    HW124491   4.442   3.656   7.940  0.9385  0.6734  0.2522
 4285SOL    HW224492   4.537   3.610   7.841  0.6325  2.1231  1.6243
 4286SOL     OW24493   1.210   1.285   2.895 -0.4325  0.2579 -0.0970
 4286SOL    HW124494   1.256   1.275   2.978 -1.3085  0.0611  0.3648
 4286SOL    HW224495   1.285   1.308   2.840  0.2168  0.5667  0.9249
 4287SOL     OW24496   3.012   1.762   9.170  0.3177 -0.0535  0.1511
 4287SOL    HW124497   3.103   1.791   9.164  0.4437 -0.5700 -0.4462
 4287SOL    HW224498   3.009   1.738   9.262 -0.1154  0.5576  0.2948
 4288SOL     OW24499   3.943   2.511   6.153 -0.1536  0.4494 -0.2929
 4288SOL    HW124500   3.965   2.524   6.061  2.4969  1.5851  0.4855
 4288SOL    HW224501   3.906   2.423   6.143  0.3137  0.1875  0.2985
 4289SOL     OW24502   2.994   0.758   9.325 -0.0382 -0.4266 -0.2039
 4289SOL    HW124503   3.063   0.726   9.384 -0.8218 -1.2063  0.2893
 4289SOL    HW224504   2.964   0.840   9.362 -0.4888  0.5784 -2.8264
 4290SOL     OW24505   3.972   1.503   6.277  0.1078  0.8692 -0.2687
 4290SOL    HW124506   4.038   1.572   6.275  1.7664 -0.6740  0.8502
 4290SOL    HW224507   4.022   1.439   6.226 -2.9879 -0.7069 -1.3118
 4291SOL     OW24508   4.599   2.004   7.506  0.4563 -0.3297 -0.5453
 4291SOL    HW124509   4.691   2.028   7.517 -0.1231  1.6809 -0.0548
 4291SOL    HW224510   4.574   2.029   7.594  0.0167  0.1783 -0.8154
 4292SOL     OW24511   2.694   1.397  14.799 -0.2508  0.2100 -0.0829
 4292SOL    HW124512   2.615   1.347  14.780  1.3703 -1.8351 -1.5050
 4292SOL    HW224513   2.759   1.328  14.786  0.4453  0.9861 -0.7000
 4293SOL     OW24514   3.196   1.295   1.064 -0.2490 -0.0112  0.4755
 4293SOL    HW124515   3.133   1.312   0.994 -0.1085  0.2174  0.4024
 4293SOL    HW224516   3.273   1.287   1.008 -0.7128  2.6979 -0.5730
 4294SOL     OW24517   3.182   1.023   2.190 -0.2060 -0.3124  0.0936
 4294SOL    HW124518   3.258   1.068   2.226  0.8430 -1.4546 -0.6954
 4294SOL    HW224519   3.113   1.062   2.243 -0.5271  2.8135 -2.5746
 4295SOL     OW24520   2.199   1.692   1.231  0.0043 -0.3809  0.7457
 4295SOL    HW124521   2.259   1.629   1.191  0.4216  1.9795 -2.3589
 4295SOL    HW224522   2.172   1.659   1.317  1.6427  1.8537  2.0914
 4296SOL     OW24523   3.890   0.644   8.523  0.0895 -0.1725 -0.2363
 4296SOL    HW124524   3.941   0.682   8.450 -1.0284 -0.0447 -0.9439
 4296SOL    HW224525   3.829   0.716   8.538  0.9358  0.8472 -1.6290
 4297SOL     OW24526   1.748   2.348   0.090  0.2283 -0.4688 -0.2794
 4297SOL    HW124527   1.746   2.252   0.092  2.0587 -0.5137 -0.3021
 4297SOL    HW224528   1.731   2.349  17.754 -2.3386 -0.3991  0.1994
 4298SOL     OW24529   3.558   1.082  15.335 -0.2693  0.5647 -0.2142
 4298SOL    HW124530   3.582   1.091  15.243 -2.2787  0.1799 -0.7868
 4298SOL    HW224531   3.519   0.995  15.331 -2.0716  1.3886 -0.5174
 4299SOL     OW24532   3.322   0.892   9.041  0.0530 -0.3472  0.2956
 4299SOL    HW124533   3.414   0.874   9.022 -0.3484 -0.9809 -0.9904
 4299SOL    HW224534   3.314   0.867   9.133  0.0158 -0.3271  0.2982
 4300SOL     OW24535   0.722   3.586  11.455 -0.4173 -0.2832  0.3149
 4300SOL    HW124536   0.724   3.527  11.380  1.5087  1.0331 -0.6598
 4300SOL    HW224537   0.627   3.596  11.450 -0.0299  1.9624 -2.5811
 4301SOL     OW24538   4.267   1.236  11.841 -0.9321  0.0896  0.3534
 4301SOL    HW124539   4.271   1.159  11.897 -0.5370  1.8243  2.6915
 4301SOL    HW224540   4.238   1.188  11.763  2.5644  0.4654 -1.1718
 4302SOL     OW24541   1.903   2.025  13.815 -0.3744  0.1895 -0.6877
 4302SOL    HW124542   1.978   2.001  13.870  0.8832  1.4884 -1.8401
 4302SOL    HW224543   1.921   2.116  13.792  0.9190  0.1821  0.2766
 4303SOL     OW24544   3.557   0.903   8.476 -0.6811  0.2913 -0.0311
 4303SOL    HW124545   3.489   0.970   8.485 -1.4253 -0.6587  1.2674
 4303SOL    HW224546   3.552   0.852   8.556  0.1061 -1.2712 -0.9843
 4304SOL     OW24547   2.808   2.239   3.251 -0.3367 -0.4151 -0.0288
 4304SOL    HW124548   2.824   2.316   3.305 -0.3589 -0.3294 -0.1474
 4304SOL    HW224549   2.721   2.247   3.211 -0.3305 -4.3865 -0.8810
 4305SOL     OW24550   3.588   4.137   6.268 -0.0808 -0.1841 -0.3755
 4305SOL    HW124551   3.538   4.208   6.229  0.9577  1.2752  0.9435
 4305SOL    HW224552   3.655   4.191   6.309 -0.9050  0.4993  0.0754
 4306SOL     OW24553   1.630   3.389   6.433 -0.1051 -0.2945 -0.5798
 4306SOL    HW124554   1.686   3.366   6.507  0.8062  1.4790 -0.7217
 4306SOL    HW224555   1.676   3.359   6.355  0.7051 -0.2115 -0.1349
 4307SOL     OW24556   1.406   2.621   5.178 -0.0522  0.1958 -0.4030
 4307SOL    HW124557   1.427   2.642   5.087  1.1231  0.5223 -0.0565
 4307SOL    HW224558   1.408   2.711   5.210  1.5904  0.0837 -0.2062
 4308SOL     OW24559   1.254   3.866   4.939  0.7643  0.0973 -1.1165
 4308SOL    HW124560   1.219   3.859   4.850 -0.2223 -0.6693 -0.6635
 4308SOL    HW224561   1.194   3.928   4.980  1.0613 -0.7827  0.6460
 4309SOL     OW24562   1.916   3.087   4.551  0.1526 -0.7071 -0.4630
 4309SOL    HW124563   1.829   3.053   4.570  1.0098 -1.3689  2.1819
 4309SOL    HW224564   1.955   3.022   4.492 -0.1017 -2.0835  0.8939
 4310SOL     OW24565   1.545   2.324   7.156 -0.9256  0.1017  0.6047
 4310SOL    HW124566   1.605   2.365   7.218  0.4238  2.3712 -2.1854
 4310SOL    HW224567   1.592   2.247   7.123 -1.1523  0.2924 -0.1572
 4311SOL     OW24568   0.991   0.274  16.835  0.4239 -0.4605 -0.3861
 4311SOL    HW124569   0.923   0.220  16.795 -0.5600 -0.5393  1.3964
 4311SOL    HW224570   1.028   0.208  16.894  0.4678 -2.0952 -2.2732
 4312SOL     OW24571   3.150   4.736   1.711 -0.2342 -0.4683 -0.1255
 4312SOL    HW124572   3.090   4.666   1.683  1.0459 -1.1570 -1.1699
 4312SOL    HW224573   3.225   4.726   1.653 -0.7067 -1.3209 -0.5998
 4313SOL     OW24574   4.601   1.689   1.640 -0.5254  0.1130 -0.5701
 4313SOL    HW124575   4.611   1.784   1.638 -1.0490  0.2231  2.0874
 4313SOL    HW224576   4.688   1.667   1.607 -1.4054 -1.0568 -2.1222
 4314SOL     OW24577   2.838   2.629   6.167  0.3929  0.2319 -0.2845
 4314SOL    HW124578   2.843   2.627   6.263 -1.1160  1.5858 -0.1772
 4314SOL    HW224579   2.858   2.537   6.151 -1.8904 -0.2406 -0.4614
 4315SOL     OW24580   0.358   2.817  11.874 -0.3325  0.5520 -0.2684
 4315SOL    HW124581   0.448   2.818  11.841 -1.0065 -1.2550 -2.1857
 4315SOL    HW224582   0.349   2.722  11.886 -3.2830  0.9126  0.3938
 4316SOL     OW24583   0.933   2.661   5.939  0.0250  0.0307  0.0676
 4316SOL    HW124584   1.003   2.695   5.882  0.2847  0.9422  0.9251
 4316SOL    HW224585   0.904   2.580   5.897 -0.0721 -0.2540  0.6928
 4317SOL     OW24586   2.094   1.971   3.940  0.9047 -0.0829  0.0202
 4317SOL    HW124587   2.027   1.926   3.888  1.2410 -1.1968  0.5667
 4317SOL    HW224588   2.057   2.059   3.933  2.4355  0.4405 -1.6412
 4318SOL     OW24589   0.668   2.085  13.049 -0.7660  0.1049  0.5364
 4318SOL    HW124590   0.747   2.116  13.095 -0.2761 -0.6761  0.2160
 4318SOL    HW224591   0.633   2.168  13.016 -0.2317  0.0840 -0.0894
 4319SOL     OW24592   2.433   3.474   8.430 -0.2133 -0.6574  0.2454
 4319SOL    HW124593   2.516   3.494   8.473 -0.9312  0.9402  0.8787
 4319SOL    HW224594   2.441   3.514   8.343  0.2760  1.7761  1.3985
 4320SOL     OW24595   0.159   3.984   7.575  0.0403 -0.0519 -0.3418
 4320SOL    HW124596   0.065   3.966   7.566 -0.2840  1.4322  0.0351
 4320SOL    HW224597   0.182   4.036   7.498 -0.1082  2.3424  1.2483
 4321SOL     OW24598   1.204   2.513  12.551  0.7778 -0.0447  0.1474
 4321SOL    HW124599   1.216   2.439  12.491 -0.6037  1.0100 -1.4421
 4321SOL    HW224600   1.293   2.525  12.582 -0.0777 -1.0646  2.9830
 4322SOL     OW24601   0.834   0.049   6.214 -0.2372  0.4023 -0.2497
 4322SOL    HW124602   0.756   0.070   6.266  1.2177  0.9835  1.7153
 4322SOL    HW224603   0.898   0.114   6.245 -0.2133 -1.2995  3.2734
 4323SOL     OW24604   2.905   4.207  17.414  0.7342  0.2171  0.4183
 4323SOL    HW124605   2.988   4.231  17.455  0.3325 -2.4474  2.7633
 4323SOL    HW224606   2.884   4.133  17.470  1.0760  0.5277  0.9501
 4324SOL     OW24607   3.700   3.506  15.254  0.0137 -0.1385  0.3431
 4324SOL    HW124608   3.712   3.463  15.169  1.4812 -0.5160  0.7372
 4324SOL    HW224609   3.607   3.490  15.268 -0.1141  1.4491  1.3260
 4325SOL     OW24610   1.721   3.317  17.421 -0.2457 -0.0790 -0.8207
 4325SOL    HW124611   1.717   3.221  17.425 -2.0767  0.0284  0.0809
 4325SOL    HW224612   1.794   3.333  17.362 -0.6879  1.5567 -0.9174
 4326SOL     OW24613   1.127   1.984   7.478  0.2664  0.1655 -1.0363
 4326SOL    HW124614   1.170   1.903   7.452  0.6206  0.2614 -0.7462
 4326SOL    HW224615   1.101   1.954   7.565 -1.5675  0.7660 -1.3704
 4327SOL     OW24616   0.750   3.710  11.011 -0.1564 -0.0010 -0.0556
 4327SOL    HW124617   0.820   3.662  11.056  1.2514  0.5566 -1.6736
 4327SOL    HW224618   0.799   3.732  10.932  1.1404 -1.8948  0.2412
 4328SOL     OW24619   3.847   3.712   7.718  0.0748 -0.7187  0.7040
 4328SOL    HW124620   3.911   3.674   7.778  1.2071  0.0699 -0.0099
 4328SOL    HW224621   3.890   3.711   7.633 -0.5191  0.6804  0.3861
 4329SOL     OW24622   2.176   0.026   6.998 -0.1598  0.2494  0.5725
 4329SOL    HW124623   2.269   0.045   6.996  0.1994 -1.4669  0.4547
 4329SOL    HW224624   2.164   4.739   7.090 -0.7992  0.1367  0.4571
 4330SOL     OW24625   3.601   0.973   1.830 -0.0029  0.3226 -0.2821
 4330SOL    HW124626   3.674   1.035   1.827  0.9904 -0.8798 -0.9257
 4330SOL    HW224627   3.591   0.957   1.924  3.3214 -0.8623 -0.1465
 4331SOL     OW24628   3.814   0.249   9.409  0.1094 -0.0638 -0.1541
 4331SOL    HW124629   3.836   0.325   9.464  0.3927  0.2759 -0.7359
 4331SOL    HW224630   3.883   0.186   9.425 -1.7294 -1.7943  1.0165
 4332SOL     OW24631   3.938   1.533   5.633  0.0914  0.1897 -0.2490
 4332SOL    HW124632   3.959   1.447   5.597 -1.7543 -0.5020  0.3288
 4332SOL    HW224633   3.880   1.509   5.706  0.0680  0.1804 -0.2705
 4333SOL     OW24634   3.421   2.875   4.037 -0.1641 -0.2245  0.1354
 4333SOL    HW124635   3.356   2.928   3.991 -1.0651 -0.5186  1.0527
 4333SOL    HW224636   3.491   2.879   3.972  0.0615 -0.1787  0.3816
 4334SOL     OW24637   0.004   0.270   5.940  0.4272  0.0250  0.2222
 4334SOL    HW124638   0.036   0.201   5.882 -0.1451 -2.1067  2.4291
 4334SOL    HW224639   0.052   0.254   6.022  1.5592 -3.7632 -1.1672
 4335SOL     OW24640   0.066   1.334   0.927  0.4509  0.8447  0.2243
 4335SOL    HW124641   0.152   1.345   0.968 -0.5738  0.4431  2.4723
 4335SOL    HW224642   0.010   1.396   0.973 -1.1597 -1.1345  0.9392
 4336SOL     OW24643   0.009   2.381  10.908  0.3532  0.2286 -0.5421
 4336SOL    HW124644   4.723   2.293  10.936  1.6532 -0.1989 -0.6898
 4336SOL    HW224645   0.072   2.392  10.979  0.1030 -1.8278 -0.0135
 4337SOL     OW24646   2.987   2.498   0.231 -0.2794 -0.1657  0.2796
 4337SOL    HW124647   2.968   2.556   0.305 -1.4425  0.8526 -0.8236
 4337SOL    HW224648   3.061   2.548   0.197 -0.9662  0.5747 -0.1333
 4338SOL     OW24649   2.836   1.743   4.315 -0.3148  0.0479 -0.6582
 4338SOL    HW124650   2.873   1.677   4.374  0.9466  0.4133 -1.0403
 4338SOL    HW224651   2.911   1.761   4.259 -0.4036 -1.1132 -1.1343
 4339SOL     OW24652   2.125   0.779   8.299 -0.3555 -0.2566  0.4086
 4339SOL    HW124653   2.110   0.755   8.207  1.1270 -0.5472  0.2432
 4339SOL    HW224654   2.134   0.695   8.344  0.4474 -0.2192  0.3299
 4340SOL     OW24655   4.131   3.312   1.751  0.2200  0.4232  0.5057
 4340SOL    HW124656   4.092   3.226   1.769  0.8733  0.3453  1.5443
 4340SOL    HW224657   4.055   3.370   1.750  0.5055  0.7372 -2.5161
 4341SOL     OW24658   1.560   0.310   9.095  0.2919  0.2564  0.1180
 4341SOL    HW124659   1.525   0.386   9.049 -0.3148  0.0357  0.2168
 4341SOL    HW224660   1.499   0.298   9.168  1.5903 -2.4542  0.7364
 4342SOL     OW24661   2.763   0.863   2.977  0.0334  0.5548 -0.9955
 4342SOL    HW124662   2.761   0.808   2.898  1.4757  1.2864 -1.5493
 4342SOL    HW224663   2.673   0.853   3.007  0.0120  0.7532 -0.9962
 4343SOL     OW24664   0.184   4.627   7.469 -0.3599 -0.3454 -0.2100
 4343SOL    HW124665   0.088   4.636   7.472 -0.2574  0.9856 -0.5627
 4343SOL    HW224666   0.192   4.576   7.549 -2.2453  1.1102  0.9144
 4344SOL     OW24667   0.268   3.155   2.655 -0.2190  0.2667 -0.3594
 4344SOL    HW124668   0.240   3.127   2.743 -0.3691 -0.0449 -0.5068
 4344SOL    HW224669   0.352   3.197   2.675  0.9825 -1.5298 -1.6010
 4345SOL     OW24670   4.454   3.117   0.017 -0.1288  0.0813 -0.0119
 4345SOL    HW124671   4.484   3.101  17.686  0.2987 -1.7579  0.4463
 4345SOL    HW224672   4.372   3.068   0.015  0.3333 -0.7282  0.4919
 4346SOL     OW24673   4.644   0.988  13.736  0.0341 -0.9942 -0.2235
 4346SOL    HW124674   4.682   0.900  13.725  0.1494 -1.1315  1.2390
 4346SOL    HW224675   4.719   1.047  13.726  0.5774 -2.2468 -3.5173
 4347SOL     OW24676   1.825   3.978   3.210 -0.2516  0.2810 -0.0418
 4347SOL    HW124677   1.912   4.002   3.241 -0.4959 -0.3064  1.1050
 4347SOL    HW224678   1.825   3.883   3.202  0.3884  0.2426  0.4556
 4348SOL     OW24679   0.095   0.536   2.862  0.3491  0.6966 -0.0707
 4348SOL    HW124680   0.063   0.448   2.878  0.2951  0.8056  0.4154
 4348SOL    HW224681   0.168   0.536   2.923  2.0139  0.8047 -2.0341
 4349SOL     OW24682   2.459   1.867   8.023  0.5211 -0.2725 -0.5655
 4349SOL    HW124683   2.551   1.889   8.037  0.4178 -0.5701  0.5349
 4349SOL    HW224684   2.452   1.783   8.068 -0.4615  1.1397  1.9140
 4350SOL     OW24685   3.258   1.175  10.692 -1.1859 -0.3246  0.5396
 4350SOL    HW124686   3.280   1.152  10.783 -0.3457 -1.7631 -0.0372
 4350SOL    HW224687   3.346   1.180  10.654 -2.2538  1.7913 -1.6659
 4351SOL     OW24688   0.114   4.315   2.671  0.0850 -0.3060 -0.0816
 4351SOL    HW124689   0.102   4.228   2.632 -0.0268 -0.4236  0.2138
 4351SOL    HW224690   0.056   4.315   2.747 -0.8681  0.1935 -0.8158
 4352SOL     OW24691   3.344   1.277   8.963  0.4892 -0.1806 -0.3445
 4352SOL    HW124692   3.358   1.201   8.906  1.0310 -1.0704  0.9779
 4352SOL    HW224693   3.408   1.336   8.923 -1.9499  3.1399  0.6516
 4353SOL     OW24694   2.831   4.468  16.876 -0.1559 -0.0223  0.0633
 4353SOL    HW124695   2.823   4.437  16.966  2.7588 -3.3863 -0.8668
 4353SOL    HW224696   2.847   4.385  16.832 -0.0328  0.6834 -1.2333
 4354SOL     OW24697   1.309   1.614   5.568  0.0848  0.0057  0.3422
 4354SOL    HW124698   1.300   1.563   5.648 -0.0109  0.9860  0.9553
 4354SOL    HW224699   1.261   1.563   5.502 -1.9237 -1.1078  2.6635
 4355SOL     OW24700   0.689   3.649   5.977  0.1674  0.3406 -0.5327
 4355SOL    HW124701   0.722   3.710   6.043 -1.0533  1.5679 -1.0676
 4355SOL    HW224702   0.739   3.677   5.900  0.1118 -0.6253 -0.9077
 4356SOL     OW24703   2.390   4.071   6.029  0.5292 -0.2353  0.5992
 4356SOL    HW124704   2.410   4.066   6.122  1.5410 -3.4026  0.1837
 4356SOL    HW224705   2.465   4.042   5.977 -0.4309 -2.2616  0.3561
 4357SOL     OW24706   2.402   4.100   4.063 -0.4335 -0.7174 -0.5638
 4357SOL    HW124707   2.386   4.091   4.156 -1.7768  1.2618 -0.6114
 4357SOL    HW224708   2.344   4.171   4.036  0.4749  0.0865 -0.4083
 4358SOL     OW24709   3.526   2.415  12.226  0.4925  0.0462  0.9017
 4358SOL    HW124710   3.544   2.499  12.269 -0.3027  0.4466  0.4442
 4358SOL    HW224711   3.539   2.453  12.139 -0.7381 -0.9665  0.2782
 4359SOL     OW24712   0.734   0.773  12.031  0.4727  0.2873  0.2764
 4359SOL    HW124713   0.829   0.782  12.024  0.5881  0.3255  1.8320
 4359SOL    HW224714   0.711   0.865  12.019  2.7108  1.2704  3.3947
 4360SOL     OW24715   1.286   0.589   6.938 -0.3887  0.0425 -0.1815
 4360SOL    HW124716   1.291   0.646   7.015 -3.4495  1.2306 -0.8651
 4360SOL    HW224717   1.311   0.502   6.970  0.8524 -0.4374 -2.4611
 4361SOL     OW24718   3.939   3.531   1.992 -0.1958  0.7851  0.5633
 4361SOL    HW124719   3.938   3.510   1.899  1.3608 -1.2367  1.0044
 4361SOL    HW224720   3.865   3.592   1.988  0.8315  2.2833  3.6234
 4362SOL     OW24721   1.554   0.168   6.890  0.1012 -0.8685  0.1112
 4362SOL    HW124722   1.527   0.250   6.848  1.1827 -0.0412  1.0194
 4362SOL    HW224723   1.476   0.114   6.886 -1.0849  0.8312 -0.0017
 4363SOL     OW24724   3.565   0.143   2.261  0.0160  0.1843 -0.2742
 4363SOL    HW124725   3.538   0.142   2.353 -3.9247 -1.6550 -1.4696
 4363SOL    HW224726   3.653   0.180   2.265  0.4099 -0.8180  0.3409
 4364SOL     OW24727   2.155   3.928   7.168 -0.1773  0.7216  0.0599
 4364SOL    HW124728   2.088   3.992   7.195 -0.9134  0.9989 -2.4427
 4364SOL    HW224729   2.227   3.989   7.150  1.4485 -1.0092  0.7896
 4365SOL     OW24730   3.212   2.402  15.444 -0.1366 -0.9930 -0.6152
 4365SOL    HW124731   3.179   2.368  15.527  1.9679 -0.4454  0.4348
 4365SOL    HW224732   3.306   2.388  15.445  0.2820  1.9146 -0.7559
 4366SOL     OW24733   0.376   3.494   4.215  0.2616  0.0223 -0.8468
 4366SOL    HW124734   0.438   3.463   4.149  1.1737  3.1612 -1.4616
 4366SOL    HW224735   0.384   3.587   4.194 -2.6741  0.3287 -0.6020
 4367SOL     OW24736   1.023   2.946  17.283 -0.3608  0.1499  0.5521
 4367SOL    HW124737   1.032   2.986  17.196 -0.2099  2.2432  1.5304
 4367SOL    HW224738   1.114   2.956  17.310  0.0514  2.2355 -1.6190
 4368SOL     OW24739   0.409   3.216   4.296  0.6489  0.1461  0.5488
 4368SOL    HW124740   0.366   3.284   4.244 -0.4600 -0.6293  0.4482
 4368SOL    HW224741   0.396   3.261   4.379  2.1935  0.4760  0.6073
 4369SOL     OW24742   1.958   1.280   7.496 -0.0728  0.2008 -0.1121
 4369SOL    HW124743   1.963   1.342   7.569  0.4974 -0.4083  0.3657
 4369SOL    HW224744   1.873   1.313   7.465 -1.1473 -1.0401  1.4915
 4370SOL     OW24745   3.641   0.943  17.450  0.2800  0.1381 -0.7226
 4370SOL    HW124746   3.721   0.899  17.418  0.6931  0.6107 -0.3352
 4370SOL    HW224747   3.599   0.885  17.514 -3.1903  1.7149 -1.5838
 4371SOL     OW24748   3.749   4.147  13.337  0.0284  0.2582  0.0855
 4371SOL    HW124749   3.817   4.081  13.352  1.3974  1.1834 -2.0389
 4371SOL    HW224750   3.691   4.110  13.271  0.9902  0.2448 -0.7509
 4372SOL     OW24751   3.381   2.112   7.929  0.1181  0.2942  0.0546
 4372SOL    HW124752   3.390   2.031   7.980  0.7646  0.9003  0.9185
 4372SOL    HW224753   3.326   2.165   7.987 -2.7782 -0.9709 -1.5483
 4373SOL     OW24754   0.574   0.893  10.484 -0.4598 -0.3414  0.4296
 4373SOL    HW124755   0.531   0.906  10.568 -2.2482 -0.3710 -0.4808
 4373SOL    HW224756   0.661   0.927  10.505 -0.8377 -0.3608  2.0304
 4374SOL     OW24757   0.456   1.528   0.270 -0.2575 -0.2331 -0.2448
 4374SOL    HW124758   0.386   1.463   0.276  1.8709 -2.4264  0.9229
 4374SOL    HW224759   0.421   1.584   0.201  1.1816 -0.6561 -1.3058
 4375SOL     OW24760   2.685   2.538   6.719  0.3637  0.1012 -0.3892
 4375SOL    HW124761   2.683   2.633   6.733 -0.3857  0.0131  0.1174
 4375SOL    HW224762   2.618   2.520   6.653  0.2053  0.1879 -0.2517
 4376SOL     OW24763   3.312   0.049  14.359 -0.1895  0.6282  0.3528
 4376SOL    HW124764   3.221   0.079  14.369 -0.2469 -0.3055  2.5937
 4376SOL    HW224765   3.358   0.127  14.389  1.6034 -0.5201  0.5628
 4377SOL     OW24766   0.656   0.299   8.742 -0.3399  0.4739 -0.6098
 4377SOL    HW124767   0.701   0.276   8.823  1.2274  1.0047 -1.3239
 4377SOL    HW224768   0.628   0.385   8.772  1.3161  0.3605  1.2686
 4378SOL     OW24769   3.594   3.029   5.843 -0.4514 -0.0183  0.0186
 4378SOL    HW124770   3.659   3.043   5.911 -0.8526 -2.4687  0.9009
 4378SOL    HW224771   3.579   3.109   5.793  1.7649 -0.2874 -1.0553
 4379SOL     OW24772   4.175   0.540   7.994  0.2998 -0.2717  0.0855
 4379SOL    HW124773   4.251   0.499   7.951  0.3247 -0.4202  0.2726
 4379SOL    HW224774   4.214   0.560   8.079  1.8450 -1.2754 -0.3696
 4380SOL     OW24775   2.626   1.564   6.345  0.5968 -0.4795  0.4020
 4380SOL    HW124776   2.595   1.654   6.334  2.5755 -0.0495 -1.4127
 4380SOL    HW224777   2.552   1.536   6.400  0.0187 -0.9455 -0.6151
 4381SOL     OW24778   1.656   4.369  12.070  0.1053  0.0656 -0.1382
 4381SOL    HW124779   1.680   4.327  12.153  0.3548  1.0344  0.2827
 4381SOL    HW224780   1.726   4.336  12.014 -1.3644 -2.0545 -0.7440
 4382SOL     OW24781   3.374   0.951   3.306 -0.6254  0.1376  0.3110
 4382SOL    HW124782   3.365   1.037   3.264  1.7047 -0.5918 -1.6464
 4382SOL    HW224783   3.456   0.958   3.354 -0.3777 -0.7889  0.0167
 4383SOL     OW24784   3.185   0.597  16.805 -0.2116  0.1884  0.2567
 4383SOL    HW124785   3.228   0.545  16.872  1.0947  0.6123 -0.2585
 4383SOL    HW224786   3.231   0.681  16.813 -1.4557  0.7857  1.1765
 4384SOL     OW24787   4.315   2.407   5.159  0.2975  0.2248 -0.2555
 4384SOL    HW124788   4.282   2.362   5.237  1.1933  1.3380  0.7856
 4384SOL    HW224789   4.363   2.476   5.205  0.1520  0.4882 -0.4983
 4385SOL     OW24790   2.766   4.106   4.136  0.0831  0.3025  0.1828
 4385SOL    HW124791   2.716   4.140   4.210  1.7421 -0.3816  1.6256
 4385SOL    HW224792   2.728   4.019   4.127 -0.2818  0.2738  2.0613
 4386SOL     OW24793   0.068   4.211   3.087 -0.0749 -0.5135  0.5393
 4386SOL    HW124794   0.098   4.204   3.178 -0.4852  0.8514  0.7782
 4386SOL    HW224795   0.072   4.120   3.059 -2.0481 -0.6894  0.8268
 4387SOL     OW24796   3.878   3.733  12.026  0.3997 -0.0829  0.5086
 4387SOL    HW124797   3.856   3.804  12.087 -3.2065 -1.0372  0.3133
 4387SOL    HW224798   3.951   3.696  12.075  0.4607 -1.6181 -0.7716
 4388SOL     OW24799   2.167   3.042   5.936 -0.4874  0.1398  0.1938
 4388SOL    HW124800   2.144   3.077   5.849 -0.7039 -2.0694 -0.6374
 4388SOL    HW224801   2.239   3.102   5.954  0.7855 -1.6618  1.1216
 4389SOL     OW24802   2.992   1.951   6.623 -0.0498 -0.1251 -0.2345
 4389SOL    HW124803   3.014   2.038   6.655 -2.6092  0.4584 -0.1425
 4389SOL    HW224804   3.041   1.885   6.673 -1.3405 -1.1925 -0.3803
 4390SOL     OW24805   2.466   2.174  15.685 -0.1413 -0.4911 -0.2635
 4390SOL    HW124806   2.464   2.268  15.668  1.3306 -0.5529 -0.7527
 4390SOL    HW224807   2.381   2.165  15.727 -0.7723  2.5533 -0.8735
 4391SOL     OW24808   0.135   3.782   6.143  0.6428 -0.0288 -0.0598
 4391SOL    HW124809   0.172   3.787   6.232  1.0837  1.5552 -0.3296
 4391SOL    HW224810   0.042   3.780   6.166  0.2939 -3.3448 -1.8081
 4392SOL     OW24811   0.382   4.711   5.427  0.6912 -0.3202  0.1573
 4392SOL    HW124812   0.364   4.666   5.510  2.2275  0.1206  0.7344
 4392SOL    HW224813   0.465   4.669   5.402 -0.5712 -2.3216 -0.6870
 4393SOL     OW24814   0.112   4.447   6.138 -0.1935  0.0629 -0.1007
 4393SOL    HW124815   0.188   4.425   6.191 -0.0405  1.2500  0.1696
 4393SOL    HW224816   0.049   4.385   6.175 -0.1654 -0.3856 -0.8105
 4394SOL     OW24817   4.092   3.818   0.559 -0.2742  0.0601 -0.3467
 4394SOL    HW124818   4.185   3.822   0.537 -0.2870  0.6832 -0.2711
 4394SOL    HW224819   4.047   3.879   0.502 -0.1700  0.9319  0.5003
 4395SOL     OW24820   1.181   0.161  17.000 -0.0451  0.4208 -0.0252
 4395SOL    HW124821   1.194   0.069  17.020 -2.9681  0.3385  1.4144
 4395SOL    HW224822   1.236   0.205  17.065 -0.3317  1.2740 -0.3521
 4396SOL     OW24823   1.290   4.529  10.113  0.1026  0.4305 -0.6152
 4396SOL    HW124824   1.317   4.546  10.023  0.2074  0.6685 -0.5365
 4396SOL    HW224825   1.369   4.504  10.161 -1.0577  1.2457  1.7357
 4397SOL     OW24826   0.480   4.377   2.796  0.1054  0.3458 -0.5071
 4397SOL    HW124827   0.524   4.443   2.849 -0.5038  0.6939 -0.4404
 4397SOL    HW224828   0.397   4.363   2.841  1.2732  0.4769  1.6917
 4398SOL     OW24829   1.505   3.896   5.064  0.1787 -0.1868  0.4187
 4398SOL    HW124830   1.508   3.804   5.037 -1.7823 -0.2408  0.3532
 4398SOL    HW224831   1.413   3.908   5.041 -0.4270 -1.3693  2.2759
 4399SOL     OW24832   3.275   2.712   7.587  0.3164  0.1598 -0.0783
 4399SOL    HW124833   3.197   2.690   7.637  1.6270  1.2941  2.4565
 4399SOL    HW224834   3.285   2.798   7.630 -1.2322 -0.5103  1.6261
 4400SOL     OW24835   4.340   1.065   8.258  0.1942 -0.1468  0.0555
 4400SOL    HW124836   4.371   1.091   8.344 -0.0383  2.5770 -0.6838
 4400SOL    HW224837   4.420   1.058   8.206 -1.1235 -0.8235 -1.8827
 4401SOL     OW24838   1.712   0.868   7.012 -0.0783  0.3502 -0.4382
 4401SOL    HW124839   1.632   0.838   7.055  0.2492  0.3240  0.1552
 4401SOL    HW224840   1.760   0.897   7.089  0.2730  0.0821 -0.5601
 4402SOL     OW24841   2.628   0.193   8.214  0.3330 -0.1645 -0.0206
 4402SOL    HW124842   2.596   0.130   8.149 -0.2655 -0.3299  0.4394
 4402SOL    HW224843   2.587   0.276   8.189 -0.4738 -0.8879 -1.1225
 4403SOL     OW24844   0.895   3.779   4.257  0.1866 -0.3853  0.5904
 4403SOL    HW124845   0.884   3.736   4.172 -0.2682  2.4131 -0.7878
 4403SOL    HW224846   0.990   3.766   4.262  0.3628 -0.1993 -2.0768
 4404SOL     OW24847   1.014   0.755   1.640 -0.5451 -0.2251 -0.2847
 4404SOL    HW124848   1.093   0.732   1.689  0.3656  0.1298 -1.5808
 4404SOL    HW224849   1.035   0.840   1.602  0.6536 -0.5061 -0.2644
 4405SOL     OW24850   3.466   4.597   0.161  0.4483 -0.3850 -0.6898
 4405SOL    HW124851   3.427   4.668   0.109  0.0115 -0.4719 -0.4788
 4405SOL    HW224852   3.550   4.620   0.200  0.2296  0.3956 -0.6697
 4406SOL     OW24853   0.056   3.429   6.882  0.3113  0.3792  0.2046
 4406SOL    HW124854   0.101   3.441   6.798  1.0053  0.0658  0.5265
 4406SOL    HW224855   0.121   3.380   6.933  0.0700  1.4368  1.5231
 4407SOL     OW24856   1.085   3.075   8.698  0.1493 -0.1998 -0.0772
 4407SOL    HW124857   1.090   3.166   8.669  0.0704  0.1719  1.0960
 4407SOL    HW224858   1.175   3.040   8.698 -0.1753 -1.0393 -0.5509
 4408SOL     OW24859   1.247   3.531  14.930  0.1059  0.0965 -0.4946
 4408SOL    HW124860   1.262   3.619  14.964 -0.0756 -0.6798  1.6164
 4408SOL    HW224861   1.327   3.529  14.878  0.6062  1.2223  0.2239
 4409SOL     OW24862   0.746   3.521   1.412  0.3910 -0.7146 -0.6316
 4409SOL    HW124863   0.681   3.467   1.366 -1.4324  0.4962  0.5206
 4409SOL    HW224864   0.698   3.600   1.436  1.5015  0.3221 -1.8436
 4410SOL     OW24865   1.045   3.607   4.565 -0.5919  0.5086  0.7115
 4410SOL    HW124866   0.976   3.651   4.615 -1.4886  0.2363 -0.2811
 4410SOL    HW224867   1.081   3.559   4.640  1.6020  0.6829 -0.2296
 4411SOL     OW24868   0.412   1.378   6.444 -0.1282 -0.5261  0.3226
 4411SOL    HW124869   0.343   1.328   6.401  0.9297  1.1594 -3.3049
 4411SOL    HW224870   0.370   1.459   6.472 -2.3738 -1.6227  0.1071
 4412SOL     OW24871   1.111   1.020   1.542 -0.6381  0.0606  0.5276
 4412SOL    HW124872   1.135   0.994   1.453 -1.9778  0.6997 -0.0344
 4412SOL    HW224873   1.180   1.083   1.559 -1.3873  1.1558 -0.4342
 4413SOL     OW24874   1.722   3.556   7.136 -0.3417  0.1306  0.0955
 4413SOL    HW124875   1.776   3.630   7.164  1.3074 -0.4532 -1.5482
 4413SOL    HW224876   1.676   3.595   7.061 -0.4840 -1.0109 -0.3986
 4414SOL     OW24877   2.751   4.437   6.107  0.1003  0.0070  0.8100
 4414SOL    HW124878   2.689   4.472   6.170  0.2867  1.1225  0.3782
 4414SOL    HW224879   2.739   4.343   6.118 -1.1541 -0.0836 -1.2975
 4415SOL     OW24880   3.505   0.079   7.842  0.1698  0.6825 -0.1530
 4415SOL    HW124881   3.413   0.058   7.858  0.2545 -0.8308 -1.6456
 4415SOL    HW224882   3.509   0.074   7.747 -0.8278  0.3665 -0.1780
 4416SOL     OW24883   0.239   4.437   9.259  0.3299  0.1511  0.1037
 4416SOL    HW124884   0.224   4.400   9.346 -0.8875 -0.4878 -0.3775
 4416SOL    HW224885   0.156   4.429   9.212  0.1462 -0.3182  0.5126
 4417SOL     OW24886   0.996   2.695  17.677  0.1976 -0.3037 -0.2608
 4417SOL    HW124887   1.042   2.779  17.679  0.0221 -0.1953 -0.6631
 4417SOL    HW224888   0.927   2.723  17.617  1.7432  1.4536 -1.2033
 4418SOL     OW24889   0.780   3.436   0.405 -1.1552  0.3607  0.2867
 4418SOL    HW124890   0.687   3.416   0.397 -0.4272 -1.5502 -3.1060
 4418SOL    HW224891   0.785   3.471   0.494 -1.2913  0.8852  0.0855
 4419SOL     OW24892   0.291   2.648  13.567  0.4232 -0.3524 -0.6371
 4419SOL    HW124893   0.251   2.560  13.567  0.6686 -0.4734  0.9194
 4419SOL    HW224894   0.279   2.684  13.480 -1.3126  1.1455  0.2213
 4420SOL     OW24895   2.685   2.490  12.568  0.0355  0.3648 -0.0739
 4420SOL    HW124896   2.622   2.422  12.592  1.1689 -0.3167  0.9991
 4420SOL    HW224897   2.712   2.446  12.488 -2.2173 -0.4495 -0.3854
 4421SOL     OW24898   3.704   2.136   6.550 -0.7308 -0.4891  0.3266
 4421SOL    HW124899   3.661   2.051   6.536  1.3900 -1.5102 -0.1427
 4421SOL    HW224900   3.631   2.186   6.585  0.7034  1.8460  0.0019
 4422SOL     OW24901   0.125   3.486   3.806  0.4120  0.3653  0.3977
 4422SOL    HW124902   0.079   3.452   3.883 -0.4253 -2.7454 -1.4962
 4422SOL    HW224903   0.103   3.578   3.820  1.5736  0.8625 -1.1252
 4423SOL     OW24904   0.825   2.821   3.435  0.0410 -0.3590  0.3724
 4423SOL    HW124905   0.812   2.758   3.364  0.2028 -0.0249  0.0512
 4423SOL    HW224906   0.741   2.841   3.477  0.7618  0.6503  1.3055
 4424SOL     OW24907   2.308   1.710   3.854 -0.3594 -0.2813  0.4147
 4424SOL    HW124908   2.322   1.784   3.914  2.0389 -0.6435  0.2762
 4424SOL    HW224909   2.261   1.761   3.789 -1.0643 -1.9184 -0.3652
 4425SOL     OW24910   1.685   4.485   9.066 -0.0539 -0.5301 -0.0314
 4425SOL    HW124911   1.678   4.543   9.142  1.3137  0.4602 -0.6752
 4425SOL    HW224912   1.753   4.529   9.016 -1.8979  1.0684 -1.1299
 4426SOL     OW24913   2.197   1.029   5.022 -0.2043  0.1839  0.3667
 4426SOL    HW124914   2.261   1.100   5.026 -1.1019  1.0002  0.1895
 4426SOL    HW224915   2.253   0.959   4.989 -2.2602 -2.2966  2.1154
 4427SOL     OW24916   1.813   4.011  10.140 -0.7366 -0.1903 -0.2961
 4427SOL    HW124917   1.849   3.926  10.113  1.2365  0.5967 -0.1670
 4427SOL    HW224918   1.795   3.999  10.233  1.6065 -1.5543 -0.0175
 4428SOL     OW24919   4.457   4.214   3.247  0.1015 -0.5507 -0.0080
 4428SOL    HW124920   4.369   4.240   3.220  0.9759  1.5461 -0.7945
 4428SOL    HW224921   4.459   4.127   3.206  0.0277 -1.4939  1.9766
 4429SOL     OW24922   3.563   3.380   5.147  0.2744 -0.5001 -0.0251
 4429SOL    HW124923   3.617   3.350   5.220  3.0804  1.5675 -1.2439
 4429SOL    HW224924   3.636   3.394   5.086  0.0740  0.2092 -0.1020
 4430SOL     OW24925   1.930   3.195   0.764  0.3730 -0.1452  0.5015
 4430SOL    HW124926   1.879   3.190   0.844  1.0037  2.4392  1.0643
 4430SOL    HW224927   2.005   3.244   0.798  1.4126 -1.7705  0.5296
 4431SOL     OW24928   2.971   0.604   8.676  0.0361  0.6062  0.4583
 4431SOL    HW124929   3.044   0.583   8.617  0.3772 -3.3109  2.2849
 4431SOL    HW224930   3.023   0.600   8.756  0.0342  0.6257  0.4607
 4432SOL     OW24931   1.935   3.098   8.333  0.5332 -0.5784 -0.2253
 4432SOL    HW124932   1.941   3.100   8.429 -3.6269  0.2864 -0.0161
 4432SOL    HW224933   1.851   3.141   8.322  0.8285  0.4219  1.4588
 4433SOL     OW24934   0.232   2.619  10.228 -0.2534 -0.3910 -0.4048
 4433SOL    HW124935   0.240   2.536  10.181 -1.6735  0.3051 -1.8617
 4433SOL    HW224936   0.194   2.586  10.309  2.3262 -1.2377  0.4596
 4434SOL     OW24937   1.477   2.094   1.535  0.1327 -0.1862  0.2297
 4434SOL    HW124938   1.534   2.078   1.610 -0.6186 -0.4192  0.7551
 4434SOL    HW224939   1.546   2.087   1.469  0.3137  2.0746  0.1773
 4435SOL     OW24940   1.658   0.654  16.283  0.1691  0.5327 -0.3040
 4435SOL    HW124941   1.712   0.638  16.206 -0.0927 -3.0147  0.2897
 4435SOL    HW224942   1.616   0.740  16.274 -1.9749 -0.3439  1.3211
 4436SOL     OW24943   0.980   3.638   6.626  0.5615  0.0136 -0.3298
 4436SOL    HW124944   0.956   3.727   6.600  0.0173 -0.5193 -1.7107
 4436SOL    HW224945   1.048   3.620   6.561 -0.2966  2.9391 -2.0530
 4437SOL     OW24946   1.672   2.123   1.161 -0.2193 -0.0902 -0.2188
 4437SOL    HW124947   1.765   2.107   1.176 -0.0303  0.2903 -0.9301
 4437SOL    HW224948   1.673   2.153   1.070 -0.1150  1.3959  0.2691
 4438SOL     OW24949   1.976   1.852   4.946  0.2378  0.1218 -0.3593
 4438SOL    HW124950   1.881   1.847   4.954  0.0448  3.1234 -0.7292
 4438SOL    HW224951   2.014   1.777   4.992  1.7504 -0.4571 -2.5488
 4439SOL     OW24952   2.550   4.582   5.078 -0.9171 -0.2758 -0.5890
 4439SOL    HW124953   2.594   4.530   5.011  1.2860 -1.2446  1.5543
 4439SOL    HW224954   2.629   4.610   5.126  0.4907 -2.1005 -1.8333
 4440SOL     OW24955   3.972   2.233   4.968 -0.3276 -0.3225  0.5866
 4440SOL    HW124956   4.012   2.169   5.027 -0.4490 -1.2163 -0.2969
 4440SOL    HW224957   4.050   2.260   4.919  0.2462  2.3316  2.9847
 4441SOL     OW24958   0.940   0.553   6.213  0.0684 -0.4876  0.4615
 4441SOL    HW124959   0.909   0.573   6.302  2.2074  1.2194  0.8385
 4441SOL    HW224960   0.865   0.591   6.168  2.1097  0.9281 -1.7478
 4442SOL     OW24961   4.324   1.598   1.565 -0.0963  0.0205  0.2210
 4442SOL    HW124962   4.415   1.620   1.586 -0.7513 -1.8038  4.9809
 4442SOL    HW224963   4.321   1.520   1.620 -0.7718  1.7527  2.6804
 4443SOL     OW24964   2.921   2.080   5.727  0.5720  0.4411  0.1759
 4443SOL    HW124965   2.836   2.063   5.768  1.6474  1.7866  2.9360
 4443SOL    HW224966   2.964   2.147   5.780 -0.8055  1.2968  0.2167
 4444SOL     OW24967   3.067   1.697  13.402  0.4792  0.0946  0.6285
 4444SOL    HW124968   3.134   1.684  13.334  1.9097  1.5848  1.7573
 4444SOL    HW224969   3.125   1.729  13.471 -0.7890 -1.0221  2.1746
 4445SOL     OW24970   1.049   0.662   4.085 -0.1705  0.1148 -0.1383
 4445SOL    HW124971   1.023   0.652   4.177  0.4007 -1.3720 -0.1438
 4445SOL    HW224972   1.079   0.572   4.070  1.6772  0.8118 -0.6068
 4446SOL     OW24973   1.632   1.660   6.305  0.3611 -0.1122 -0.3736
 4446SOL    HW124974   1.603   1.714   6.231 -0.3757  0.1217  0.0827
 4446SOL    HW224975   1.676   1.728   6.355  0.7652 -1.2895  0.8414
 4447SOL     OW24976   2.720   2.270  14.271 -0.0525  0.7409  0.4752
 4447SOL    HW124977   2.672   2.322  14.206  0.4832 -0.6391 -1.0399
 4447SOL    HW224978   2.811   2.269  14.240  0.3504  0.3970  1.6914
 4448SOL     OW24979   0.759   0.420   4.261  0.2284  0.3516 -0.2633
 4448SOL    HW124980   0.843   0.423   4.307 -0.0764  2.8172  0.1444
 4448SOL    HW224981   0.765   0.488   4.194  0.7050 -1.9308 -2.5471
 4449SOL     OW24982   2.982   4.326  13.345 -0.3534 -0.2306  0.2900
 4449SOL    HW124983   2.891   4.338  13.319 -0.3880 -0.8466  0.1242
 4449SOL    HW224984   2.983   4.369  13.430 -0.7229  0.5019 -0.0783
 4450SOL     OW24985   2.139   1.903   4.204 -0.1223  0.1362 -0.3513
 4450SOL    HW124986   2.062   1.854   4.234  0.4217 -0.2865  0.3588
 4450SOL    HW224987   2.128   1.906   4.109 -0.0817  0.9269 -0.3344
 4451SOL     OW24988   4.153   3.632   4.220  0.1380 -0.0861  0.2062
 4451SOL    HW124989   4.243   3.602   4.225  0.1372 -0.3678 -1.4229
 4451SOL    HW224990   4.154   3.660   4.128  0.1552 -3.7906 -0.9570
 4452SOL     OW24991   2.576   1.181   2.729 -0.1228 -0.0602  0.8438
 4452SOL    HW124992   2.635   1.219   2.794  1.3908 -1.8196  0.5233
 4452SOL    HW224993   2.587   1.244   2.657 -0.3755 -1.0122 -0.0391
 4453SOL     OW24994   4.616   3.543  11.172 -0.2007 -0.2442  0.4293
 4453SOL    HW124995   4.534   3.495  11.162 -1.3070  1.8385 -0.5183
 4453SOL    HW224996   4.581   3.607  11.235  1.1812  1.4656 -0.5442
 4454SOL     OW24997   3.574   2.487   3.500  0.3202 -0.0294  0.1849
 4454SOL    HW124998   3.666   2.495   3.475 -0.3470 -0.0176 -2.3019
 4454SOL    HW224999   3.565   2.393   3.512  0.2037 -0.5042 -3.6563
 4455SOL     OW25000   3.808   0.377   7.743 -0.0204 -0.1436  0.2460
 4455SOL    HW125001   3.825   0.289   7.774  1.5439 -0.1865 -0.6801
 4455SOL    HW225002   3.743   0.414   7.802  1.3191  1.5947  0.6273
 4456SOL     OW25003   3.418   0.987  14.907 -0.3731  0.2822  0.3914
 4456SOL    HW125004   3.458   1.071  14.929 -1.9227  1.4958 -1.3987
 4456SOL    HW225005   3.350   1.013  14.845 -1.4163 -1.1029  0.9523
 4457SOL     OW25006   3.445   1.036   3.702  0.4585 -0.2957  0.3887
 4457SOL    HW125007   3.434   1.103   3.769 -2.6198 -1.2680  0.8573
 4457SOL    HW225008   3.381   0.973   3.733 -1.2319  1.2038 -0.0302
 4458SOL     OW25009   2.249   1.882   1.029  0.9658  0.3011 -0.5331
 4458SOL    HW125010   2.259   1.963   1.079  0.2065 -1.1043  1.8908
 4458SOL    HW225011   2.220   1.823   1.099 -2.4925 -0.4967 -2.6172
 4459SOL     OW25012   1.855   2.835   2.979  0.0189 -0.3622  0.0227
 4459SOL    HW125013   1.943   2.869   2.960  0.3975 -2.0592 -1.2028
 4459SOL    HW225014   1.808   2.917   2.994 -0.8398 -0.4669 -2.0733
 4460SOL     OW25015   2.530   1.740  10.883 -0.1989  0.1848 -0.0942
 4460SOL    HW125016   2.608   1.713  10.836 -1.1113  0.9841 -2.0498
 4460SOL    HW225017   2.528   1.834  10.868 -2.6013 -0.0620 -1.4380
 4461SOL     OW25018   2.559   3.904  10.689 -0.3852  0.3868  0.4787
 4461SOL    HW125019   2.619   3.928  10.619  1.2993 -3.2736  0.6384
 4461SOL    HW225020   2.526   3.989  10.718 -0.6031  0.9906 -1.5402
 4462SOL     OW25021   4.251   2.323   2.317 -0.2972  0.3759  0.5168
 4462SOL    HW125022   4.263   2.279   2.401  3.1602  1.0754  0.3960
 4462SOL    HW225023   4.263   2.242   2.267 -0.3972 -0.2617  1.5319
 4463SOL     OW25024   1.362   0.816   9.561  0.0204  0.6987  0.4457
 4463SOL    HW125025   1.370   0.724   9.586  2.5455  0.3227 -1.7296
 4463SOL    HW225026   1.389   0.816   9.469  0.9432  2.2944  0.7150
 4464SOL     OW25027   2.841   1.402   9.001 -0.0750 -0.1343  0.0895
 4464SOL    HW125028   2.818   1.427   8.912  1.2799 -0.0394 -0.2265
 4464SOL    HW225029   2.912   1.344   8.975 -0.8489 -0.9559 -0.1734
 4465SOL     OW25030   4.589   4.388   8.061 -0.1122 -0.0739  0.5697
 4465SOL    HW125031   4.640   4.309   8.077 -0.8328 -0.9095 -1.1721
 4465SOL    HW225032   4.660   4.440   8.024  0.7254 -2.0443 -0.5559
 4466SOL     OW25033   2.547   3.263  13.580 -0.2589 -0.1271  0.4369
 4466SOL    HW125034   2.579   3.281  13.492 -4.4022  0.5424 -0.9120
 4466SOL    HW225035   2.592   3.179  13.594 -1.3846 -1.0132 -1.2069
 4467SOL     OW25036   2.678   2.455   2.809  0.2998 -0.2638  0.1182
 4467SOL    HW125037   2.705   2.507   2.733  0.5701  0.4636  0.7122
 4467SOL    HW225038   2.733   2.377   2.801 -0.6412 -1.0968  1.6721
 4468SOL     OW25039   1.262   1.768   7.965  0.0491  0.1829 -0.0705
 4468SOL    HW125040   1.324   1.720   8.019 -1.2613  0.0868  1.3492
 4468SOL    HW225041   1.182   1.765   8.018 -1.0499 -0.4258 -1.7337
 4469SOL     OW25042   0.959   4.637   7.959  0.0012 -0.4829 -0.2283
 4469SOL    HW125043   0.995   4.558   7.998  2.5716  0.9375  0.2983
 4469SOL    HW225044   0.872   4.602   7.938 -0.1493  0.8176 -1.7931
 4470SOL     OW25045   0.134   1.645   1.556  0.6379 -0.1209 -0.1386
 4470SOL    HW125046   0.193   1.619   1.485 -1.1438 -2.1046 -0.8663
 4470SOL    HW225047   0.176   1.724   1.591 -2.0819  0.7658  1.1009
 4471SOL     OW25048   2.129   1.421   9.235  0.9078  0.1908 -0.0912
 4471SOL    HW125049   2.087   1.336   9.225  0.3712  0.2405  1.7284
 4471SOL    HW225050   2.122   1.427   9.331 -0.7579  1.1782 -0.2668
 4472SOL     OW25051   4.313   2.778   3.318 -0.6114  0.3230  0.8734
 4472SOL    HW125052   4.370   2.853   3.302 -0.4147  0.2617  1.3061
 4472SOL    HW225053   4.361   2.708   3.274 -2.5471 -0.3900 -0.1238
 4473SOL     OW25054   1.527   0.671   6.332  0.0152 -0.1849  0.0742
 4473SOL    HW125055   1.581   0.705   6.261 -0.0146 -0.5424 -0.1175
 4473SOL    HW225056   1.559   0.726   6.404 -0.2804 -2.1555  1.7122
 4474SOL     OW25057   3.131   1.155  13.005  0.0167  0.1745 -0.0661
 4474SOL    HW125058   3.117   1.249  12.998  0.7966  0.2562 -0.5397
 4474SOL    HW225059   3.209   1.144  12.952  0.7042 -0.9404  1.1642
 4475SOL     OW25060   0.983   0.092   8.872 -0.2030 -0.5218  0.5873
 4475SOL    HW125061   1.031   0.010   8.859 -0.1313 -0.3803 -0.0458
 4475SOL    HW225062   0.897   0.056   8.850 -1.0120  2.1146 -0.6001
 4476SOL     OW25063   2.955   0.242   4.962  0.3156  0.0512 -0.0953
 4476SOL    HW125064   2.880   0.183   4.957  1.6274 -1.4989 -1.4923
 4476SOL    HW225065   3.020   0.196   5.016  0.6507 -1.7336 -1.9977
 4477SOL     OW25066   0.569   3.755   3.004  0.3581 -0.3479  0.0882
 4477SOL    HW125067   0.536   3.665   3.005 -1.5671  0.3495 -2.2746
 4477SOL    HW225068   0.485   3.800   3.009  1.8083  2.3296  0.0607
 4478SOL     OW25069   0.098   2.765  10.051 -0.3961 -0.1413 -0.0756
 4478SOL    HW125070   0.119   2.689   9.998 -0.5342 -1.0039  1.1102
 4478SOL    HW225071   0.150   2.742  10.128  1.8667 -0.4835 -1.6993
 4479SOL     OW25072   2.405   4.544   3.098  0.6007 -0.2074 -0.5547
 4479SOL    HW125073   2.326   4.564   3.048  1.5617  1.5556 -1.3895
 4479SOL    HW225074   2.376   4.453   3.107 -1.4576  0.4174 -0.7372
 4480SOL     OW25075   2.664   0.025   4.071 -0.0516  0.0858 -0.0255
 4480SOL    HW125076   2.717   4.690   4.044 -0.4253 -0.4084  0.6254
 4480SOL    HW225077   2.703   0.077   4.000  0.6453 -3.1943 -2.0943
 4481SOL     OW25078   2.196   4.004  10.665 -0.1375 -0.0585 -0.0357
 4481SOL    HW125079   2.120   4.029  10.718 -1.0087 -1.1639 -0.7716
 4481SOL    HW225080   2.159   3.994  10.577 -0.1685 -0.3116  0.0073
 4482SOL     OW25081   2.910   1.809  14.611 -0.2891  0.1335  0.3526
 4482SOL    HW125082   2.928   1.754  14.536  1.4907  0.9052  0.2063
 4482SOL    HW225083   2.843   1.759  14.657 -0.6718  1.0171  0.7596
 4483SOL     OW25084   4.252   4.485   4.228  0.0832  0.0667  0.7562
 4483SOL    HW125085   4.256   4.395   4.198 -1.0684  0.5129 -0.7853
 4483SOL    HW225086   4.165   4.514   4.198  0.7447  0.1292 -1.1487
 4484SOL     OW25087   1.134   3.661   3.211  0.2551  0.5686  0.0887
 4484SOL    HW125088   1.084   3.646   3.291  0.0883  1.4028  0.1400
 4484SOL    HW225089   1.085   3.604   3.152  0.5608  0.9369 -0.5210
 4485SOL     OW25090   2.572   1.447   1.769  0.5030 -0.7191  0.6051
 4485SOL    HW125091   2.666   1.460   1.756  0.3458 -0.7328 -0.5369
 4485SOL    HW225092   2.550   1.375   1.711  0.7896 -2.0860  2.1669
 4486SOL     OW25093   4.637   1.702   6.526 -0.0254 -0.4597 -0.1127
 4486SOL    HW125094   4.702   1.692   6.596  0.1442 -0.8857 -0.3323
 4486SOL    HW225095   4.689   1.718   6.448  0.9982  0.8819  0.8454
 4487SOL     OW25096   3.668   2.414  12.910 -0.7289  0.3244 -0.1728
 4487SOL    HW125097   3.634   2.353  12.974 -1.0330 -0.0198 -0.6657
 4487SOL    HW225098   3.762   2.399  12.919 -0.0867  3.3287 -1.6388
 4488SOL     OW25099   3.996   1.940   6.373  0.1686  0.2857 -0.1119
 4488SOL    HW125100   3.982   1.887   6.451 -1.0696  1.3045  0.3413
 4488SOL    HW225101   3.906   1.949   6.344 -0.2603 -1.0114  0.8342
 4489SOL     OW25102   1.950   0.877  16.724 -0.3878 -0.3954 -0.3042
 4489SOL    HW125103   1.972   0.790  16.756 -2.1297 -0.8105 -0.2210
 4489SOL    HW225104   1.923   0.924  16.803 -2.9250 -1.7192 -0.3831
 4490SOL     OW25105   0.513   0.369   4.724  0.3897  0.1282 -0.4661
 4490SOL    HW125106   0.467   0.323   4.794 -0.1718  1.0328 -0.2320
 4490SOL    HW225107   0.566   0.308   4.673  0.0269  0.4099 -1.1777
 4491SOL     OW25108   2.286   2.978   1.790 -0.6260  0.2036 -0.1744
 4491SOL    HW125109   2.341   2.915   1.837 -2.8503 -2.7406 -1.4649
 4491SOL    HW225110   2.277   3.047   1.856  0.4411  0.2119 -0.0408
 4492SOL     OW25111   0.733   2.096   6.797 -0.2015  0.0070 -0.7801
 4492SOL    HW125112   0.783   2.154   6.854 -0.4757  0.2526 -0.7880
 4492SOL    HW225113   0.646   2.130   6.817 -0.9535 -1.2641 -1.8425
 4493SOL     OW25114   1.187   4.053   2.073 -0.5054 -0.0512 -0.2440
 4493SOL    HW125115   1.106   4.091   2.109  0.8755 -0.2260  3.0930
 4493SOL    HW225116   1.240   4.132   2.063  1.7960 -1.5527  0.1584
 4494SOL     OW25117   1.772   4.666   7.596 -0.1079 -0.0509 -0.4961
 4494SOL    HW125118   1.715   4.590   7.611  0.4265 -0.9503 -3.0421
 4494SOL    HW225119   1.704   4.720   7.556  0.3546  1.0635  0.2084
 4495SOL     OW25120   4.514   3.727   6.892 -0.1005 -0.2130  0.0777
 4495SOL    HW125121   4.484   3.646   6.934  1.2407 -0.8368 -0.1870
 4495SOL    HW225122   4.569   3.768   6.958 -1.5750  3.2957 -0.8843
 4496SOL     OW25123   0.051   3.741   3.552  0.4447 -0.6519  0.7774
 4496SOL    HW125124   4.732   3.691   3.496 -0.7316  0.6499  0.8536
 4496SOL    HW225125   0.048   3.829   3.514  2.1376 -1.0111 -0.1894
 4497SOL     OW25126   1.686   3.620   4.038 -0.1759  0.6436 -0.4755
 4497SOL    HW125127   1.765   3.669   4.061 -0.1069 -0.2918  1.3030
 4497SOL    HW225128   1.619   3.639   4.104 -0.4805 -1.2639 -0.2281
 4498SOL     OW25129   1.955   1.332   6.516  0.0577  0.0164 -0.0782
 4498SOL    HW125130   1.876   1.368   6.476  0.2040  0.0287 -0.3611
 4498SOL    HW225131   1.971   1.257   6.459 -0.5161  0.9521 -1.4670
 4499SOL     OW25132   0.829   1.386   1.283 -0.0996 -0.0503 -0.3026
 4499SOL    HW125133   0.867   1.354   1.201 -0.8700 -0.4614 -0.4997
 4499SOL    HW225134   0.864   1.474   1.292 -1.5745  0.5843 -0.7673
 4500SOL     OW25135   3.295   2.313  14.735 -0.3424  0.4095  0.2521
 4500SOL    HW125136   3.322   2.320  14.827 -0.8777 -0.5653  0.4815
 4500SOL    HW225137   3.204   2.332  14.754  0.0594  0.9850  1.6471
 4501SOL     OW25138   0.291   2.166   4.326 -0.3378  0.2489 -0.0158
 4501SOL    HW125139   0.223   2.112   4.367  0.4865 -0.9669 -0.2469
 4501SOL    HW225140   0.281   2.153   4.232 -1.8453 -1.6371  0.4225
 4502SOL     OW25141   0.047   1.788   2.360  0.0193 -0.1484 -0.0378
 4502SOL    HW125142   0.116   1.722   2.364  0.2422  0.0608 -0.4401
 4502SOL    HW225143   4.714   1.742   2.321 -0.4045  0.1787  0.3677
 4503SOL     OW25144   4.054   2.155  14.992 -0.3167 -0.3915  0.3864
 4503SOL    HW125145   4.093   2.242  14.996 -1.2810 -0.0063  1.4098
 4503SOL    HW225146   3.978   2.165  14.934 -1.6413 -1.0865  2.0132
 4504SOL     OW25147   4.612   4.595   1.221 -0.0265  0.1108 -0.3521
 4504SOL    HW125148   4.628   4.652   1.146 -1.7988  1.3770  0.2443
 4504SOL    HW225149   4.637   4.659   1.287 -1.3738 -0.3276  0.5867
 4505SOL     OW25150   2.078   3.539  15.366 -0.5705  0.3592  0.5728
 4505SOL    HW125151   2.146   3.605  15.353 -1.9860  1.6120 -0.5170
 4505SOL    HW225152   2.119   3.463  15.408  0.9536 -0.1018 -1.7534
 4506SOL     OW25153   2.549   4.645  16.371  0.1360 -0.2642 -0.2890
 4506SOL    HW125154   2.482   4.659  16.304  0.7053 -0.0432 -0.8207
 4506SOL    HW225155   2.564   4.551  16.370  1.5634 -0.0707  1.6600
 4507SOL     OW25156   0.443   3.136  13.487  0.2303 -0.1760  0.1456
 4507SOL    HW125157   0.375   3.073  13.512  0.6342 -1.1727 -1.3070
 4507SOL    HW225158   0.491   3.091  13.418 -3.4147 -1.6683 -1.4219
 4508SOL     OW25159   4.490   3.185   5.647  0.0552  0.1800  0.1343
 4508SOL    HW125160   4.482   3.167   5.740  2.1641 -0.4348  0.2049
 4508SOL    HW225161   4.501   3.095   5.616 -1.2606  0.6619 -1.7675
 4509SOL     OW25162   3.132   3.715   0.099 -0.0926 -0.3343 -0.1633
 4509SOL    HW125163   3.201   3.773   0.068  0.7951 -0.9358  0.6921
 4509SOL    HW225164   3.151   3.691   0.189  1.4237 -1.1017 -0.6895
 4510SOL     OW25165   3.208   2.083   8.129  0.4598 -0.7082 -0.0830
 4510SOL    HW125166   3.169   2.063   8.213 -0.7140 -0.8889 -0.6660
 4510SOL    HW225167   3.205   2.000   8.081 -0.8396  0.2437 -1.6935
 4511SOL     OW25168   3.270   1.355   5.715  0.0850  0.5564  0.7757
 4511SOL    HW125169   3.233   1.294   5.651  1.0110  0.3442  0.4561
 4511SOL    HW225170   3.341   1.389   5.662 -0.3174 -0.5107 -0.4564
 4512SOL     OW25171   3.928   0.944   4.034  0.0353  0.3755  0.3601
 4512SOL    HW125172   3.952   0.858   3.998 -3.0654 -0.4622  0.2571
 4512SOL    HW225173   3.859   0.971   3.972  0.1467 -0.6138 -0.2066
 4513SOL     OW25174   4.076   0.535   7.097  0.1677 -0.1468 -0.5801
 4513SOL    HW125175   4.133   0.473   7.052  1.3375  1.7430 -1.7198
 4513SOL    HW225176   4.061   0.498   7.184  0.2907  1.1763  0.0070
 4514SOL     OW25177   1.566   2.682   3.127 -0.8281 -0.1068  0.4104
 4514SOL    HW125178   1.552   2.633   3.208 -1.3485  0.8100  0.8750
 4514SOL    HW225179   1.642   2.636   3.090 -0.3374  0.8967  0.1479
 4515SOL     OW25180   0.616   4.152   5.844  0.3513 -0.2532  0.5593
 4515SOL    HW125181   0.657   4.109   5.769 -2.2129 -0.1403 -0.8907
 4515SOL    HW225182   0.697   4.196   5.871  1.2923 -1.5808 -0.0910
 4516SOL     OW25183   2.876   2.670  16.774  0.3641  0.1139 -0.0429
 4516SOL    HW125184   2.921   2.694  16.693  0.8719  0.7513  0.4335
 4516SOL    HW225185   2.797   2.634  16.733 -0.9583  2.8979  0.1155
 4517SOL     OW25186   0.172   1.812   3.041  0.1403 -0.1422  0.0049
 4517SOL    HW125187   0.164   1.717   3.030 -0.0339  0.1813 -2.5745
 4517SOL    HW225188   0.097   1.848   2.993 -1.5391 -2.0863  1.1456
 4518SOL     OW25189   2.007   4.177   6.905 -0.4841  0.2829  0.0135
 4518SOL    HW125190   1.960   4.239   6.960  1.0211  1.6031 -0.1929
 4518SOL    HW225191   2.051   4.127   6.974  2.9215  1.6176 -1.1958
 4519SOL     OW25192   1.835   4.437   9.744 -0.3755 -0.3718 -0.1568
 4519SOL    HW125193   1.824   4.350   9.784  0.3363  0.3907  1.7144
 4519SOL    HW225194   1.746   4.466   9.724 -0.6324 -1.7215 -0.9235
 4520SOL     OW25195   0.648   4.567   3.302  0.6384 -0.3462  0.3069
 4520SOL    HW125196   0.735   4.526   3.295  0.5730 -0.6089  1.0425
 4520SOL    HW225197   0.606   4.537   3.221 -0.4113  1.6559  0.1137
 4521SOL     OW25198   1.988   3.000   0.539  0.2963 -0.5275  0.1751
 4521SOL    HW125199   1.978   2.916   0.584 -0.5300 -0.3572  0.2968
 4521SOL    HW225200   1.943   3.053   0.604  2.5987 -0.6500  1.8823
 4522SOL     OW25201   3.721   1.592   4.777  0.2687  0.0458  0.1020
 4522SOL    HW125202   3.755   1.653   4.842 -0.1078  1.3142 -0.9007
 4522SOL    HW225203   3.639   1.561   4.815  0.4331 -0.2357  0.2309
 4523SOL     OW25204   2.606   2.012   8.424  0.4695 -0.1402  0.0134
 4523SOL    HW125205   2.645   1.929   8.451  1.0335 -0.1276 -0.7781
 4523SOL    HW225206   2.530   2.003   8.482  0.6222 -0.0201  0.2320
 4524SOL     OW25207   4.178   2.345   5.956  0.5451  1.0256  0.2520
 4524SOL    HW125208   4.134   2.416   5.908 -1.4622  1.5284  2.8592
 4524SOL    HW225209   4.153   2.275   5.896  0.3405  1.5722 -0.3081
 4525SOL     OW25210   3.387   0.003   4.302 -0.3635 -0.0484 -0.5486
 4525SOL    HW125211   3.338   0.004   4.220 -1.0872 -1.7925 -0.1340
 4525SOL    HW225212   3.352   0.082   4.344 -0.7392  1.1326 -3.0586
 4526SOL     OW25213   3.699   3.520  12.353 -0.2220 -0.2103  0.0364
 4526SOL    HW125214   3.618   3.489  12.394 -0.1617  2.5292  2.2243
 4526SOL    HW225215   3.703   3.470  12.272 -2.0079  1.1125 -0.8644
 4527SOL     OW25216   4.715   2.874   1.023 -0.2494 -0.0489 -0.0190
 4527SOL    HW125217   4.655   2.948   1.024 -0.7188 -0.4387  1.0432
 4527SOL    HW225218   4.706   2.847   0.932  1.8174  1.7480 -0.7375
 4528SOL     OW25219   4.646   2.073   6.430 -0.3395 -0.0967  0.2884
 4528SOL    HW125220   4.694   2.003   6.386 -1.2145  0.1475 -1.0853
 4528SOL    HW225221   4.676   2.063   6.520  0.8411  1.0589  0.0220
 4529SOL     OW25222   0.584   1.187   0.622 -0.0124 -0.8907 -0.0749
 4529SOL    HW125223   0.497   1.214   0.652  0.6546  0.3891  0.7065
 4529SOL    HW225224   0.579   1.221   0.532 -2.1018 -0.1953  0.3089
 4530SOL     OW25225   0.191   3.242  11.546 -0.0507 -0.0478 -0.2257
 4530SOL    HW125226   0.188   3.184  11.623  0.3186 -1.4408 -1.2625
 4530SOL    HW225227   0.131   3.205  11.482 -1.7510 -1.7762  2.3330
 4531SOL     OW25228   2.280   2.825   8.171 -0.3299  0.4425 -0.3777
 4531SOL    HW125229   2.341   2.896   8.191  0.2479  0.2366 -1.4535
 4531SOL    HW225230   2.215   2.829   8.242  1.3870 -0.8056  1.2617
 4532SOL     OW25231   4.292   4.180   5.074 -0.1268 -0.2871  0.1840
 4532SOL    HW125232   4.283   4.159   5.167 -2.0829 -1.9819 -0.4103
 4532SOL    HW225233   4.385   4.204   5.073 -0.1398 -0.3070 -1.8068
 4533SOL     OW25234   1.740   4.317  16.202  0.2604  0.3588 -0.5661
 4533SOL    HW125235   1.701   4.249  16.147 -1.7339  1.6758 -0.7999
 4533SOL    HW225236   1.817   4.274  16.240 -0.1164 -1.4688 -1.8754
 4534SOL     OW25237   0.435   0.709  13.407  0.7001  0.9072 -0.2312
 4534SOL    HW125238   0.357   0.760  13.386 -0.8232 -1.5387 -0.4366
 4534SOL    HW225239   0.394   0.623  13.403  2.2034  0.2277 -1.4900
 4535SOL     OW25240   3.920   3.567   4.835 -0.3967 -0.4881  0.6900
 4535SOL    HW125241   3.950   3.501   4.773  0.5592  0.7712 -0.1881
 4535SOL    HW225242   4.003   3.610   4.857 -0.4506 -0.6690  1.2635
 4536SOL     OW25243   3.200   2.170   7.272  0.4798 -0.3350  0.4759
 4536SOL    HW125244   3.152   2.169   7.190  1.3903  0.1333 -0.0666
 4536SOL    HW225245   3.141   2.112   7.320 -0.3056  1.4337  1.6835
 4537SOL     OW25246   3.018   2.819   1.977  0.1756 -0.1473  0.1948
 4537SOL    HW125247   3.022   2.900   2.029 -1.3507  1.0126 -1.4946
 4537SOL    HW225248   3.095   2.834   1.923  2.5972 -4.9067  2.3309
 4538SOL     OW25249   3.651   0.106   4.256 -0.1411  0.0121  0.5471
 4538SOL    HW125250   3.563   0.069   4.258 -0.1335  0.1254  3.5002
 4538SOL    HW225251   3.629   0.188   4.301 -0.0944 -0.8411  2.1419
 4539SOL     OW25252   1.955   1.433   1.624  0.0311  0.0718  0.0033
 4539SOL    HW125253   1.955   1.356   1.682 -1.4793 -0.6819 -0.9917
 4539SOL    HW225254   1.914   1.405   1.542 -0.7384  0.3098  0.3033
 4540SOL     OW25255   0.966   0.289   0.087 -0.0140  0.8823 -0.3931
 4540SOL    HW125256   0.931   0.362   0.036  2.2085  1.5907 -0.9153
 4540SOL    HW225257   1.044   0.319   0.133 -1.0627  1.5996  0.8946
 4541SOL     OW25258   0.911   4.339  10.140  0.1485  0.5809  0.3088
 4541SOL    HW125259   0.992   4.321  10.187 -0.2999 -0.3077  0.7547
 4541SOL    HW225260   0.858   4.262  10.165  0.1691  0.0028 -1.3692
 4542SOL     OW25261   3.482   4.525   2.317 -0.7185  0.0100 -0.2977
 4542SOL    HW125262   3.505   4.437   2.289  2.4206  1.3125 -1.7504
 4542SOL    HW225263   3.410   4.519   2.380 -1.5764  0.8945 -1.1880
 4543SOL     OW25264   3.726   1.626   8.608  0.1676  0.1375  0.3850
 4543SOL    HW125265   3.795   1.635   8.542  1.6506 -1.3766  1.7514
 4543SOL    HW225266   3.760   1.566   8.674 -0.8163  0.1785  0.9332
 4544SOL     OW25267   2.712   2.968  15.542  0.3911  0.0517 -0.4419
 4544SOL    HW125268   2.733   3.058  15.520  0.7014  0.4347  1.4481
 4544SOL    HW225269   2.624   2.968  15.580  0.6781  0.6587  0.2059
 4545SOL     OW25270   0.619   1.520   0.910 -0.0381  0.5290 -0.2871
 4545SOL    HW125271   0.565   1.565   0.975  0.4189 -0.1961  0.6056
 4545SOL    HW225272   0.624   1.576   0.834  0.0477  1.4739  0.4171
 4546SOL     OW25273   3.735   2.630  14.543  0.0073 -0.0190  0.2416
 4546SOL    HW125274   3.779   2.553  14.580  1.5671  0.9623  0.4532
 4546SOL    HW225275   3.794   2.698  14.575 -1.3548  0.2537  2.1830
 4547SOL     OW25276   2.083   2.200   8.805  0.4070 -0.1527  0.2639
 4547SOL    HW125277   2.148   2.186   8.737  0.4488 -0.8764  0.4526
 4547SOL    HW225278   2.120   2.162   8.885  1.9460 -1.6333 -1.1460
 4548SOL     OW25279   0.342   3.173  16.190  0.3048  0.1903  0.2254
 4548SOL    HW125280   0.416   3.229  16.168  2.7218 -2.3201  1.8367
 4548SOL    HW225281   0.328   3.120  16.111  0.8726 -2.6705  2.0417
 4549SOL     OW25282   1.328   1.125   9.136 -0.3848  0.0298  0.1614
 4549SOL    HW125283   1.270   1.071   9.190 -0.8588  1.5687  1.1994
 4549SOL    HW225284   1.394   1.148   9.201  0.0608  0.0829 -0.3099
 4550SOL     OW25285   3.746   2.375  16.993 -0.2980 -0.3274 -0.1378
 4550SOL    HW125286   3.696   2.395  17.072  0.5344 -1.0742  0.5757
 4550SOL    HW225287   3.747   2.461  16.951  0.6175  0.0741  0.7028
 4551SOL     OW25288   1.336   0.868  17.505 -0.0044 -0.3025  0.1344
 4551SOL    HW125289   1.272   0.804  17.535 -0.4487  0.6173  1.1544
 4551SOL    HW225290   1.341   0.842  17.413 -1.7866  1.5923 -0.5279
 4552SOL     OW25291   2.805   1.949   3.317 -0.7590 -0.0264 -0.1851
 4552SOL    HW125292   2.753   1.996   3.252  0.1696 -0.1630 -1.0261
 4552SOL    HW225293   2.743   1.942   3.390 -0.2026 -0.3087  0.2649
 4553SOL     OW25294   2.777   1.183   1.637 -0.2248  0.0524 -0.3291
 4553SOL    HW125295   2.789   1.150   1.548  0.9137 -1.5011  0.3966
 4553SOL    HW225296   2.790   1.278   1.632  0.8950 -0.1304 -1.0596
 4554SOL     OW25297   3.928   4.010   5.966  0.1386 -0.2466  0.1262
 4554SOL    HW125298   3.952   4.099   5.943 -0.4902 -0.1093 -0.0092
 4554SOL    HW225299   3.981   4.003   6.046 -2.3079 -1.1817  1.6713
 4555SOL     OW25300   4.272   1.597  11.265  0.0290  0.6951  0.1704
 4555SOL    HW125301   4.232   1.605  11.351 -0.6315  0.7282 -0.1434
 4555SOL    HW225302   4.265   1.503  11.244  0.1942  1.0511 -1.5447
 4556SOL     OW25303   0.423   3.547   2.048 -0.0334  0.3160 -0.0290
 4556SOL    HW125304   0.516   3.535   2.064 -0.3721  1.7538  2.9562
 4556SOL    HW225305   0.415   3.643   2.053  2.4232  0.5853 -1.1410
 4557SOL     OW25306   4.553   0.690   4.914  0.3237 -0.2257 -1.0373
 4557SOL    HW125307   4.503   0.646   4.982  1.3398 -1.1649 -0.8896
 4557SOL    HW225308   4.490   0.673   4.844 -0.2307 -0.4704 -0.4724
 4558SOL     OW25309   3.550   3.968  13.243  0.3516 -1.0861 -0.8252
 4558SOL    HW125310   3.513   3.918  13.170 -1.8282 -0.2466 -0.3089
 4558SOL    HW225311   3.605   3.906  13.292  2.4651 -0.3907 -2.3128
 4559SOL     OW25312   1.280   2.423   8.556 -0.0432 -0.3239  0.0075
 4559SOL    HW125313   1.200   2.373   8.569 -0.0604 -0.2506  0.1783
 4559SOL    HW225314   1.332   2.422   8.637  1.4179 -0.3732 -0.9165
 4560SOL     OW25315   2.234   0.415   1.478 -0.3151  1.1831 -0.2880
 4560SOL    HW125316   2.201   0.468   1.551 -0.1505  1.0337 -0.1074
 4560SOL    HW225317   2.166   0.440   1.415 -0.3715 -0.9372 -1.0643
 4561SOL     OW25318   1.528   3.035  17.543  0.6767 -0.3501  0.1239
 4561SOL    HW125319   1.495   3.063  17.628  1.4598  0.1105  0.2680
 4561SOL    HW225320   1.521   2.939  17.550 -1.2582 -0.1792  0.6216
 4562SOL     OW25321   3.020   1.360   3.858  0.2412 -0.1355  0.2169
 4562SOL    HW125322   2.983   1.393   3.940  1.2507 -0.9937  1.0139
 4562SOL    HW225323   2.988   1.270   3.852  0.2721 -0.0134 -1.6125
 4563SOL     OW25324   4.093   4.333   0.404  0.1776  0.0322  0.1560
 4563SOL    HW125325   4.128   4.294   0.484 -1.0812  0.4576  0.9180
 4563SOL    HW225326   4.040   4.260   0.372  1.8057 -1.4163  0.7609
 4564SOL     OW25327   4.184   3.667  17.004 -0.3760  0.4914  0.3689
 4564SOL    HW125328   4.095   3.665  16.969 -0.2208  0.0290 -0.0000
 4564SOL    HW225329   4.159   3.681  17.095 -2.0967 -1.6829  0.2151
 4565SOL     OW25330   4.205   0.403   9.164  0.5885  0.1088  0.2609
 4565SOL    HW125331   4.244   0.464   9.102  1.1373 -1.8356 -1.3017
 4565SOL    HW225332   4.145   0.467   9.201 -0.2246 -0.8960  0.6732
 4566SOL     OW25333   1.406   3.403   6.132 -0.3149 -0.0181  0.0796
 4566SOL    HW125334   1.473   3.465   6.105 -0.6763  0.2320 -0.2376
 4566SOL    HW225335   1.410   3.343   6.058 -0.4767 -0.2272  0.2411
 4567SOL     OW25336   1.729   3.729  16.453 -0.3747 -0.0981  0.3993
 4567SOL    HW125337   1.655   3.706  16.510 -1.8356  0.1776 -1.3541
 4567SOL    HW225338   1.681   3.771  16.381  1.2458 -0.0978 -0.6707
 4568SOL     OW25339   3.947   2.810  12.112  0.1298  0.0596 -0.0313
 4568SOL    HW125340   3.986   2.824  12.026  2.0537 -1.6035  0.5785
 4568SOL    HW225341   4.020   2.825  12.172  1.1428 -0.8196 -1.0599
 4569SOL     OW25342   2.618   3.282   6.676 -0.3326  0.0435 -0.3357
 4569SOL    HW125343   2.593   3.195   6.645 -3.0543  1.0214 -0.9711
 4569SOL    HW225344   2.697   3.300   6.625  0.0353 -0.0154  0.2158
 4570SOL     OW25345   4.043   3.084   8.722 -0.5858  0.0768  0.4065
 4570SOL    HW125346   4.031   3.076   8.627  0.7375 -0.1685  0.2651
 4570SOL    HW225347   4.093   3.006   8.746 -1.8273 -1.1480 -1.0292
 4571SOL     OW25348   0.485   1.033  16.394 -0.0531 -0.6189 -0.1747
 4571SOL    HW125349   0.521   1.081  16.468  0.2135 -0.6795 -0.2626
 4571SOL    HW225350   0.451   0.958  16.443  2.1394 -0.5584  1.4761
 4572SOL     OW25351   2.141   2.430   1.751  0.3297  0.0661  0.0583
 4572SOL    HW125352   2.116   2.476   1.830  2.1896  0.0664  0.6570
 4572SOL    HW225353   2.205   2.491   1.714  1.0856  0.3225  1.7847
 4573SOL     OW25354   0.950   3.403   7.664 -0.0970  0.3405  0.1640
 4573SOL    HW125355   0.886   3.471   7.642 -0.6365 -0.3496 -0.4120
 4573SOL    HW225356   0.909   3.338   7.722  0.9180  1.2368  1.8785
 4574SOL     OW25357   3.023   4.602   8.127  0.5177 -0.3619  0.3889
 4574SOL    HW125358   2.993   4.547   8.054  0.5677 -0.1732  0.2268
 4574SOL    HW225359   3.019   4.691   8.094 -1.5174 -1.1226 -1.4049
 4575SOL     OW25360   2.139   0.619   1.680 -0.2322 -0.9165 -0.4167
 4575SOL    HW125361   2.112   0.666   1.601 -2.1135 -0.4269  0.5306
 4575SOL    HW225362   2.161   0.685   1.745 -3.8636 -0.4617  0.3383
 4576SOL     OW25363   1.143   0.517   6.625 -0.0864  0.1581 -0.2236
 4576SOL    HW125364   1.224   0.544   6.669  0.3824  0.4510 -1.2625
 4576SOL    HW225365   1.090   0.521   6.705  0.7572  0.5706  0.3191
 4577SOL     OW25366   2.231   0.370   3.897 -0.0726 -0.7013  0.4591
 4577SOL    HW125367   2.282   0.407   3.969  0.7349 -3.1417  1.1134
 4577SOL    HW225368   2.151   0.423   3.900  0.2643 -0.0599 -1.3051
 4578SOL     OW25369   2.224   4.145   1.748 -0.3406 -0.1827 -0.7885
 4578SOL    HW125370   2.148   4.202   1.735 -0.0238  0.0939 -1.4352
 4578SOL    HW225371   2.188   4.060   1.772 -0.1648  0.4356  1.6138
 4579SOL     OW25372   0.989   4.353   7.174 -0.3857  0.3766  0.2090
 4579SOL    HW125373   1.044   4.364   7.098  0.6889 -0.6897  0.8383
 4579SOL    HW225374   0.983   4.441   7.210 -0.8182 -0.3725  2.0234
 4580SOL     OW25375   3.081   1.513   7.970 -0.2527  0.0875  0.2452
 4580SOL    HW125376   3.089   1.496   8.064  0.2549  2.3694  0.6375
 4580SOL    HW225377   3.096   1.425   7.937 -0.1248  0.5925 -1.0729
 4581SOL     OW25378   3.010   4.350  15.020  0.0332  0.6744 -0.0012
 4581SOL    HW125379   2.997   4.385  15.108  1.9743  2.0743 -0.2718
 4581SOL    HW225380   2.967   4.420  14.972 -0.1927 -0.1713 -1.0143
 4582SOL     OW25381   3.424   0.689   6.029 -0.1061 -0.3736  0.2347
 4582SOL    HW125382   3.406   0.737   6.110 -2.7422 -0.4403 -0.3076
 4582SOL    HW225383   3.455   0.608   6.068  2.1812  0.3616 -0.0731
 4583SOL     OW25384   4.671   0.685   2.704  0.4764  0.3616  0.0782
 4583SOL    HW125385   4.737   0.749   2.677 -1.0054  0.9251 -2.2260
 4583SOL    HW225386   4.726   0.630   2.760 -0.6648 -0.8884 -0.0287
 4584SOL     OW25387   1.785   0.586   8.250  0.0162 -0.0171 -0.2145
 4584SOL    HW125388   1.831   0.521   8.303 -2.7855 -1.8058  0.0178
 4584SOL    HW225389   1.703   0.594   8.299  0.2010  0.2080  0.0591
 4585SOL     OW25390   3.185   1.571   6.223  0.4590  0.1509  0.3153
 4585SOL    HW125391   3.215   1.659   6.199  0.0543  0.7988  2.1166
 4585SOL    HW225392   3.128   1.592   6.297  0.8815  0.4815  0.5496
 4586SOL     OW25393   3.808   4.266   5.710 -0.2236 -0.4931  0.1032
 4586SOL    HW125394   3.842   4.347   5.748 -0.7885 -0.2732  0.1259
 4586SOL    HW225395   3.715   4.285   5.704 -0.1844 -0.5768 -0.7639
 4587SOL     OW25396   4.542   1.082   9.938 -0.3067 -0.2508 -0.3817
 4587SOL    HW125397   4.588   1.019   9.884 -0.7440  0.0352 -1.0848
 4587SOL    HW225398   4.614   1.131   9.979 -0.1225 -0.6711 -0.1995
 4588SOL     OW25399   2.442   2.604   2.732 -0.1948 -0.0006 -0.0507
 4588SOL    HW125400   2.513   2.551   2.769  0.9964  0.7537 -1.2253
 4588SOL    HW225401   2.463   2.603   2.638 -0.6057  2.7173 -0.1597
 4589SOL     OW25402   3.215   0.687  15.297  0.5974 -0.0403 -0.0461
 4589SOL    HW125403   3.296   0.732  15.275 -0.4350  0.9542 -1.8365
 4589SOL    HW225404   3.254   0.623  15.357  0.4385 -0.1142 -0.0201
 4590SOL     OW25405   4.048   1.344   8.756  0.1501 -0.1681 -0.4822
 4590SOL    HW125406   4.113   1.304   8.698  0.6685  0.9431 -0.6821
 4590SOL    HW225407   4.096   1.426   8.769  0.6054 -0.1897 -1.9103
 4591SOL     OW25408   3.248   4.080   3.599 -0.0440 -0.5657  0.8612
 4591SOL    HW125409   3.341   4.092   3.616 -0.5968  1.6227  2.4971
 4591SOL    HW225410   3.216   4.170   3.594  1.4753 -0.0669  0.4214
 4592SOL     OW25411   0.189   1.948   2.170  0.6387  0.7512 -0.0979
 4592SOL    HW125412   0.139   1.899   2.236  1.6097  1.7040  1.3278
 4592SOL    HW225413   0.143   1.939   2.086  0.3536 -2.7557  0.4360
 4593SOL     OW25414   0.717   0.043   3.870  0.0909 -0.0381 -0.3344
 4593SOL    HW125415   0.786   0.023   3.808  0.2090  1.7584 -0.7851
 4593SOL    HW225416   0.755   0.110   3.927 -1.6215  1.0230 -0.4144
 4594SOL     OW25417   1.535   1.525  10.763 -0.1636  0.3094 -0.2412
 4594SOL    HW125418   1.469   1.554  10.700 -0.0982 -0.8854 -0.8533
 4594SOL    HW225419   1.590   1.468  10.709 -0.4359 -0.8282  0.6909
 4595SOL     OW25420   4.562   4.468   3.072  0.3268 -0.1016  0.2478
 4595SOL    HW125421   4.549   4.478   3.166  0.5697  1.4775  0.1049
 4595SOL    HW225422   4.573   4.373   3.065 -1.3769 -0.4291  2.1067
 4596SOL     OW25423   3.183   0.911  12.749  0.2750  0.5215 -0.3164
 4596SOL    HW125424   3.155   1.001  12.733 -1.0393  0.0409 -0.7120
 4596SOL    HW225425   3.140   0.868  12.675 -0.2842  0.2663  0.1576
 4597SOL     OW25426   2.228   4.328  15.671 -1.0400 -0.4743  0.1024
 4597SOL    HW125427   2.206   4.421  15.663  2.5665  0.2188 -2.1418
 4597SOL    HW225428   2.263   4.323  15.760 -1.0534  0.0961  0.1404
 4598SOL     OW25429   4.705   3.856   8.967 -0.2512  0.0254  0.2680
 4598SOL    HW125430   4.614   3.871   8.941 -0.5785 -1.1081  0.7370
 4598SOL    HW225431   0.005   3.888   8.887  0.1863  0.7922  0.7877
 4599SOL     OW25432   2.313   1.997   6.416 -0.2035 -0.1019 -0.3052
 4599SOL    HW125433   2.295   2.069   6.355 -3.5424  0.2083  1.0666
 4599SOL    HW225434   2.297   1.923   6.357  0.1915  1.8092 -2.7912
 4600SOL     OW25435   2.794   2.289   3.539 -0.1606  0.3298 -0.3051
 4600SOL    HW125436   2.731   2.220   3.516  1.4054 -1.7337  1.5022
 4600SOL    HW225437   2.871   2.232   3.550  2.3473  4.0533  1.1444
 4601SOL     OW25438   0.830   2.692  17.179  0.1017 -0.6253  0.1392
 4601SOL    HW125439   0.823   2.625  17.112  1.3250 -0.1585 -0.4567
 4601SOL    HW225440   0.913   2.735  17.158  0.1860 -0.3583  1.0033
 4602SOL     OW25441   3.834   3.368   0.989 -0.0770  0.6296 -0.3962
 4602SOL    HW125442   3.875   3.437   1.041 -1.2657  1.2376 -0.2577
 4602SOL    HW225443   3.902   3.359   0.923  0.4800  1.9641 -0.0065
 4603SOL     OW25444   4.721   1.501  13.617  0.1067 -0.2202 -0.0656
 4603SOL    HW125445   4.660   1.530  13.684  0.4481 -0.4558  0.3423
 4603SOL    HW225446   0.046   1.570  13.622 -0.2191  0.0744  0.1359
 4604SOL     OW25447   2.956   1.105   7.800 -0.0836 -0.2579 -0.4093
 4604SOL    HW125448   2.870   1.072   7.775 -0.2491 -0.4840  0.4745
 4604SOL    HW225449   2.980   1.136   7.713 -1.1107  2.1536  0.1546
 4605SOL     OW25450   0.973   4.343   6.602 -0.2974  0.4431  0.3614
 4605SOL    HW125451   1.063   4.350   6.634  0.5743 -0.3551 -1.9113
 4605SOL    HW225452   0.979   4.248   6.590  1.4966  0.6785 -0.5498
 4606SOL     OW25453   1.411   4.709   3.392  0.0453  0.4508 -0.3849
 4606SOL    HW125454   1.473   4.654   3.344  0.6472  0.5983  0.2323
 4606SOL    HW225455   1.466   0.029   3.441 -0.7656  1.1009 -0.2611
 4607SOL     OW25456   3.722   4.227   1.217  0.0422 -0.4876 -0.4245
 4607SOL    HW125457   3.739   4.259   1.128 -0.2176  0.1727 -0.2339
 4607SOL    HW225458   3.773   4.283   1.275 -0.5499  1.5416 -1.8468
 4608SOL     OW25459   4.138   3.350   3.294 -0.1909  0.5836  0.0207
 4608SOL    HW125460   4.082   3.419   3.329 -0.0662  1.6261 -1.8185
 4608SOL    HW225461   4.163   3.385   3.208 -0.2880 -0.1334 -0.3027
 4609SOL     OW25462   2.244   4.322   4.146 -0.4979 -0.4972  0.5495
 4609SOL    HW125463   2.171   4.293   4.199 -0.9552  0.4701  0.4512
 4609SOL    HW225464   2.196   4.386   4.093  0.7123 -2.3448 -2.8261
 4610SOL     OW25465   3.352   3.400   5.307  0.0813  0.0036 -0.3698
 4610SOL    HW125466   3.347   3.309   5.336  2.3802 -0.4645 -1.4628
 4610SOL    HW225467   3.424   3.398   5.244 -0.4040  0.6988 -0.9494
 4611SOL     OW25468   1.872   4.473   2.986  0.2117 -0.2596  0.0536
 4611SOL    HW125469   1.920   4.451   2.906 -1.8902  2.4839 -1.9775
 4611SOL    HW225470   1.855   4.386   3.024 -0.1987 -0.3178 -0.2652
 4612SOL     OW25471   1.800   1.624   9.151 -0.0356 -0.0835  0.6260
 4612SOL    HW125472   1.819   1.718   9.150 -0.5182  0.0035 -0.2702
 4612SOL    HW225473   1.823   1.618   9.244 -0.2188 -2.1411  0.5376
 4613SOL     OW25474   2.421   0.131   6.956 -0.2714 -0.0187  0.6349
 4613SOL    HW125475   2.500   0.108   7.004 -1.6081 -1.0223  2.3399
 4613SOL    HW225476   2.448   0.210   6.908  2.8033 -0.6313  1.4114
 4614SOL     OW25477   0.509   0.202  15.908  0.2027  0.4290 -0.5629
 4614SOL    HW125478   0.536   0.291  15.883  0.2378  0.9376  1.2831
 4614SOL    HW225479   0.451   0.181  15.835  0.6486 -1.1753 -0.4388
 4615SOL     OW25480   2.077   0.211  11.960 -0.7719  0.2426  0.1604
 4615SOL    HW125481   2.120   0.158  11.892  0.1790  2.1639 -0.7166
 4615SOL    HW225482   2.001   0.158  11.983  0.2271 -1.0260  0.5359
 4616SOL     OW25483   1.707   3.029   7.513 -0.4189  0.1071 -0.3370
 4616SOL    HW125484   1.755   3.107   7.541 -2.2601  2.0251 -2.4883
 4616SOL    HW225485   1.694   3.050   7.421 -0.9933 -2.2598 -0.8033
 4617SOL     OW25486   4.262   0.769  14.400 -0.3261  0.6550  0.2896
 4617SOL    HW125487   4.237   0.763  14.493 -1.2112  1.2089  0.0833
 4617SOL    HW225488   4.205   0.837  14.365 -2.0605 -0.7125  0.4241
 4618SOL     OW25489   2.761   1.098   3.905 -0.3759 -0.6290  0.3841
 4618SOL    HW125490   2.765   1.121   3.812  0.8459 -1.8408  0.1431
 4618SOL    HW225491   2.753   1.188   3.936 -0.6170 -0.9446  1.2358
 4619SOL     OW25492   3.194   1.062   5.624  0.3652 -0.5736 -0.0754
 4619SOL    HW125493   3.253   1.016   5.683 -0.4414 -0.6482  0.6761
 4619SOL    HW225494   3.140   0.993   5.586 -1.6690  1.2123 -0.4643
 4620SOL     OW25495   3.255   1.949   5.970  0.5059 -0.1039 -0.5968
 4620SOL    HW125496   3.251   1.981   6.060 -0.7911 -2.4644  0.1858
 4620SOL    HW225497   3.255   2.033   5.925  1.9969 -0.2209 -0.8228
 4621SOL     OW25498   2.952   2.923   5.083  0.1826 -0.5174  0.2358
 4621SOL    HW125499   3.043   2.931   5.053  0.5058  0.8962  1.5726
 4621SOL    HW225500   2.948   2.974   5.164  1.3431  1.4094 -0.9216
 4622SOL     OW25501   2.140   1.011   8.403 -0.0949  0.0449 -0.2246
 4622SOL    HW125502   2.147   0.922   8.371  1.1269  0.2345 -0.5218
 4622SOL    HW225503   2.146   0.994   8.497  1.4987 -0.1723 -0.3511
 4623SOL     OW25504   3.446   2.595  14.996 -0.4981  0.5531 -0.0440
 4623SOL    HW125505   3.379   2.539  14.957  0.3626 -1.1223  0.8812
 4623SOL    HW225506   3.431   2.674  14.943  1.4277 -1.0493 -2.9964
 4624SOL     OW25507   2.367   4.261   4.538  0.1608  0.0895 -0.4062
 4624SOL    HW125508   2.336   4.352   4.532 -0.9476 -0.2307  0.4757
 4624SOL    HW225509   2.457   4.281   4.566  0.0847  1.4562 -1.1013
 4625SOL     OW25510   3.639   0.974   6.446 -0.3147 -0.0547  0.0361
 4625SOL    HW125511   3.545   0.966   6.463 -0.5330  0.3747 -0.9684
 4625SOL    HW225512   3.673   0.953   6.533 -1.9010 -1.0738  0.4089
 4626SOL     OW25513   2.412   0.057   5.251 -0.0559  0.1240 -0.3373
 4626SOL    HW125514   2.468   0.037   5.326  2.4323  4.1546 -1.1067
 4626SOL    HW225515   2.470   0.035   5.178  1.3901  0.0652  0.8126
 4627SOL     OW25516   0.170   0.431  11.289 -0.1534  0.4294  0.0712
 4627SOL    HW125517   0.132   0.449  11.375 -2.1618 -1.2605 -0.4720
 4627SOL    HW225518   0.195   0.339  11.282 -1.5612  0.1956 -2.1693
 4628SOL     OW25519   3.367   4.376  10.629  0.0969 -0.1626  0.4034
 4628SOL    HW125520   3.285   4.348  10.589 -0.1288 -0.1238  0.8425
 4628SOL    HW225521   3.425   4.358  10.555  0.1514 -1.4264  0.7541
 4629SOL     OW25522   4.156   3.013  14.528  0.1157 -0.0313  0.4390
 4629SOL    HW125523   4.202   3.068  14.591  1.7546 -4.5242  3.1173
 4629SOL    HW225524   4.147   3.072  14.453 -5.1376 -1.5774 -0.1621
 4630SOL     OW25525   1.285   4.129   6.926  0.3304  0.0886  0.1934
 4630SOL    HW125526   1.377   4.124   6.900  0.4069  0.6159  0.3481
 4630SOL    HW225527   1.285   4.063   6.995 -0.9136  0.3464  0.4330
 4631SOL     OW25528   3.670   1.562   6.795  0.5381 -0.2324 -0.3521
 4631SOL    HW125529   3.664   1.614   6.876  2.0792 -1.7069  0.7068
 4631SOL    HW225530   3.576   1.546   6.793  0.2237  1.5104 -0.2597
 4632SOL     OW25531   0.913   4.167   7.953 -0.4961 -0.0824  0.1089
 4632SOL    HW125532   0.967   4.244   7.969  0.4058 -0.8357  0.7059
 4632SOL    HW225533   0.821   4.194   7.945 -0.4756  0.1583  0.6805
 4633SOL     OW25534   2.167   1.339   7.803  0.3626 -0.3710 -0.3657
 4633SOL    HW125535   2.230   1.350   7.733  1.2316 -0.1920  0.4490
 4633SOL    HW225536   2.206   1.384   7.878  0.4841 -0.2494 -0.5012
 4634SOL     OW25537   3.785   4.222  10.964  0.7231  0.2239  0.0544
 4634SOL    HW125538   3.795   4.128  10.950  1.1613  0.2092  0.4664
 4634SOL    HW225539   3.700   4.240  11.003  0.9282 -1.3147  1.2111
 4635SOL     OW25540   1.216   0.303   0.209  0.1740  0.5862 -0.1365
 4635SOL    HW125541   1.282   0.329   0.273 -1.1046  0.2565  1.3186
 4635SOL    HW225542   1.212   0.208   0.221  2.5958  0.2005 -2.1483
 4636SOL     OW25543   1.398   3.948   6.626  0.0292  0.2177  0.7660
 4636SOL    HW125544   1.438   3.975   6.709  0.1824 -1.0107  1.0903
 4636SOL    HW225545   1.357   3.867   6.658 -0.1176 -0.2182 -0.5404
 4637SOL     OW25546   0.912   0.433   1.907 -0.1132  0.0769  0.4514
 4637SOL    HW125547   0.852   0.451   1.980 -1.4076  0.8450 -0.8103
 4637SOL    HW225548   0.852   0.452   1.835 -0.6093  1.6923  1.2765
 4638SOL     OW25549   3.955   2.377   8.230  0.2392  0.1613  0.0940
 4638SOL    HW125550   3.864   2.353   8.215  0.0172 -0.3482  2.2530
 4638SOL    HW225551   3.962   2.439   8.157 -1.4235  0.8483  0.5277
 4639SOL     OW25552   1.721   2.640   5.583  0.0135  0.1275  0.2742
 4639SOL    HW125553   1.680   2.570   5.531 -0.2695  0.5594 -0.0828
 4639SOL    HW225554   1.741   2.703   5.514 -1.3694  1.1020  0.7746
 4640SOL     OW25555   3.835   2.176  14.842  0.2191  0.1003 -0.1362
 4640SOL    HW125556   3.820   2.116  14.769  0.7686 -0.3969  0.1548
 4640SOL    HW225557   3.768   2.143  14.901 -0.7002  1.7425 -0.2793
 4641SOL     OW25558   1.533   4.463  10.215 -0.2120  0.1968 -0.1818
 4641SOL    HW125559   1.536   4.367  10.214  0.7197  0.2288 -0.2284
 4641SOL    HW225560   1.622   4.493  10.197  0.0608 -0.9237 -0.6824
 4642SOL     OW25561   0.892   3.940   4.702  0.1371  0.1120  0.2465
 4642SOL    HW125562   0.891   3.846   4.680  1.6053  0.2592 -0.4673
 4642SOL    HW225563   0.986   3.956   4.702  0.4916 -1.9025  0.5090
 4643SOL     OW25564   0.175   0.924   9.744  0.2418 -0.1000 -0.4216
 4643SOL    HW125565   0.194   1.018   9.749  0.4223 -0.2219  1.4386
 4643SOL    HW225566   0.145   0.915   9.654 -0.5707  1.5910 -0.3327
 4644SOL     OW25567   0.306   4.082   7.023 -0.3697 -0.4274  0.3213
 4644SOL    HW125568   0.276   4.024   7.093 -1.7226 -2.1785 -1.6935
 4644SOL    HW225569   0.235   4.078   6.959 -1.6593 -2.6047  1.8867
 4645SOL     OW25570   0.199   2.137  13.570 -0.0378 -0.6858  0.1453
 4645SOL    HW125571   0.208   2.068  13.504 -0.4965  1.8871 -2.5544
 4645SOL    HW225572   0.234   2.217  13.532 -0.7947 -0.1009  0.6733
 4646SOL     OW25573   3.832   4.389  11.533 -0.2178 -0.5139  0.3078
 4646SOL    HW125574   3.758   4.331  11.554 -0.4036 -1.0670 -1.9408
 4646SOL    HW225575   3.853   4.427  11.619  2.5108 -2.4392  0.4684
 4647SOL     OW25576   1.541   0.563   3.309  0.4466  0.1465  0.2839
 4647SOL    HW125577   1.452   0.594   3.325 -0.3623 -1.2863 -1.3028
 4647SOL    HW225578   1.564   0.609   3.228  0.9671  1.6344  1.2882
 4648SOL     OW25579   1.391   1.142   5.887 -0.3290 -0.1840  0.1067
 4648SOL    HW125580   1.300   1.128   5.859 -0.3248  1.6284 -0.7632
 4648SOL    HW225581   1.406   1.232   5.914  0.8978 -0.7527  1.3189
 4649SOL     OW25582   2.657   0.837   5.557  0.0351  0.0713 -0.4882
 4649SOL    HW125583   2.612   0.893   5.619 -1.1762 -1.1257 -0.2863
 4649SOL    HW225584   2.741   0.819   5.599 -0.3507 -0.9745 -0.1461
 4650SOL     OW25585   1.404   0.011   0.463  0.2324  0.2296  0.3836
 4650SOL    HW125586   1.434   4.672   0.506 -1.6622 -1.2693 -1.0615
 4650SOL    HW225587   1.483   0.066   0.464  0.9915 -0.8403 -0.3107
 4651SOL     OW25588   3.218   2.616   7.336  0.8380  0.3258  0.0452
 4651SOL    HW125589   3.260   2.533   7.355  0.2905  0.3243  1.2767
 4651SOL    HW225590   3.249   2.661   7.415  1.3886 -0.0494  0.0410
 4652SOL     OW25591   1.621   4.029  16.022 -0.3954  0.2028  0.9093
 4652SOL    HW125592   1.550   4.093  16.018 -1.0738 -0.5093  1.3977
 4652SOL    HW225593   1.590   3.963  15.960 -0.9670  0.6685  0.7100
 4653SOL     OW25594   0.840   3.958   1.163 -0.4373 -0.2363 -0.2587
 4653SOL    HW125595   0.856   3.905   1.241  2.1087  2.9720  1.4187
 4653SOL    HW225596   0.904   3.914   1.109 -1.5543 -1.8584 -0.2498
 4654SOL     OW25597   2.855   0.216   4.005 -0.2775  0.2596 -0.6221
 4654SOL    HW125598   2.912   0.286   3.974 -0.2751 -0.1311 -1.4991
 4654SOL    HW225599   2.902   0.190   4.084  1.9324  0.6802 -1.8187
 4655SOL     OW25600   1.717   3.688  12.964  0.1629  0.4373 -0.0052
 4655SOL    HW125601   1.714   3.715  13.056  0.5835 -0.9966  0.4297
 4655SOL    HW225602   1.640   3.630  12.961  1.5834 -1.3798 -1.5492
 4656SOL     OW25603   0.384   2.394   3.459 -0.5310 -0.7747  0.2611
 4656SOL    HW125604   0.387   2.337   3.382  0.8268 -1.0394  0.5001
 4656SOL    HW225605   0.390   2.323   3.523  0.6640  1.0530  2.1844
 4657SOL     OW25606   0.428   0.327   1.190  0.2687  0.0732  0.1868
 4657SOL    HW125607   0.517   0.296   1.175  0.6321  1.0381  0.3017
 4657SOL    HW225608   0.424   0.299   1.282 -2.6268 -0.7332 -0.2120
 4658SOL     OW25609   0.681   4.113   6.296 -0.3917 -0.0533  0.1225
 4658SOL    HW125610   0.730   4.139   6.218 -0.7340 -0.8186 -0.3576
 4658SOL    HW225611   0.751   4.106   6.360  0.8563 -1.4960 -1.3774
 4659SOL     OW25612   1.864   2.898  12.221 -0.0266 -0.8456 -0.4210
 4659SOL    HW125613   1.958   2.915  12.224  0.1446 -2.0586  0.8268
 4659SOL    HW225614   1.828   2.967  12.165  1.0329 -0.6460 -0.8748
 4660SOL     OW25615   4.429   0.084  15.827  0.3932  0.0237 -0.3620
 4660SOL    HW125616   4.336   0.105  15.821  0.3777  0.6327  2.1539
 4660SOL    HW225617   4.434   4.728  15.833  0.7808 -0.0230 -1.4311
 4661SOL     OW25618   3.913   3.484   6.910 -0.4142  0.6145 -0.0445
 4661SOL    HW125619   3.874   3.443   6.833  1.3118 -1.0060 -0.0478
 4661SOL    HW225620   3.841   3.532   6.950 -0.4159 -1.5974  2.5365
 4662SOL     OW25621   3.403   4.488   5.561 -0.2096 -0.5395  0.5460
 4662SOL    HW125622   3.330   4.522   5.612  0.3228 -1.7527  2.1026
 4662SOL    HW225623   3.441   4.568   5.523 -0.5593 -1.0136 -0.7921
 4663SOL     OW25624   2.815   4.101  16.443 -0.2217 -0.0921 -0.2138
 4663SOL    HW125625   2.853   4.163  16.381  1.8250 -0.8434  0.2751
 4663SOL    HW225626   2.884   4.034  16.440 -0.6457 -0.6007  1.8555
 4664SOL     OW25627   3.853   3.379   6.152  0.6842 -0.1185 -0.1759
 4664SOL    HW125628   3.924   3.381   6.216 -0.6587 -2.5409  1.3810
 4664SOL    HW225629   3.796   3.305   6.172  1.9131 -1.2668 -0.9053
 4665SOL     OW25630   2.950   1.619   9.884  0.5541  0.3012  0.1868
 4665SOL    HW125631   3.026   1.673   9.902 -0.4762  2.0875 -0.7703
 4665SOL    HW225632   2.999   1.547   9.846  1.9648  2.2473 -1.6516
 4666SOL     OW25633   2.797   2.390  13.813 -0.0251 -0.4644  0.5605
 4666SOL    HW125634   2.832   2.332  13.881  1.6650  0.8157  0.8030
 4666SOL    HW225635   2.882   2.430  13.795 -0.6674  0.8519  0.4276
 4667SOL     OW25636   0.125   0.751   4.453  0.1557 -0.4208 -0.3451
 4667SOL    HW125637   0.036   0.717   4.459  0.4759 -1.1861  0.0151
 4667SOL    HW225638   0.152   0.721   4.540 -1.8322 -2.7826 -0.5547
 4668SOL     OW25639   1.568   2.386  12.402  0.4850 -0.4653 -0.3140
 4668SOL    HW125640   1.655   2.426  12.410 -0.0739  0.2544  2.0650
 4668SOL    HW225641   1.542   2.431  12.321  0.6804  0.2943  0.0447
 4669SOL     OW25642   3.025   3.380   3.291  0.2991  0.4798  0.1346
 4669SOL    HW125643   2.957   3.432   3.334  1.1367 -0.1017  2.1760
 4669SOL    HW225644   3.057   3.317   3.355 -2.2945  0.6020  1.5486
 4670SOL     OW25645   1.303   1.998   5.759  0.7292 -0.0545  0.1397
 4670SOL    HW125646   1.301   2.094   5.756 -3.0714 -0.1871 -0.8547
 4670SOL    HW225647   1.301   1.972   5.667 -1.1811 -0.0311  0.1737
 4671SOL     OW25648   4.680   1.053   6.315 -0.5748 -0.1030 -0.2083
 4671SOL    HW125649   4.586   1.066   6.305 -1.0213 -1.4559  2.2534
 4671SOL    HW225650   4.693   1.080   6.406 -0.3345 -1.1038  0.0584
 4672SOL     OW25651   3.361   0.900   5.884  0.2274  0.2812 -0.3101
 4672SOL    HW125652   3.380   0.822   5.936  0.6017  1.9223  2.0348
 4672SOL    HW225653   3.432   0.955   5.918 -1.6860  1.4515  1.7478
 4673SOL     OW25654   2.119   3.783  12.283 -0.0299 -0.4114 -0.8015
 4673SOL    HW125655   2.143   3.725  12.210 -0.8285 -0.9932 -0.6112
 4673SOL    HW225656   2.027   3.806  12.269  0.1570  1.2744  0.7850
 4674SOL     OW25657   3.070   1.836  16.416 -0.3221 -0.0192 -0.5712
 4674SOL    HW125658   3.157   1.852  16.455 -1.3596  3.3568  0.3354
 4674SOL    HW225659   3.037   1.800  16.498 -0.1513 -0.9863 -0.9337
 4675SOL     OW25660   4.027   2.231   5.744 -0.2390 -0.1908 -0.3657
 4675SOL    HW125661   4.027   2.259   5.653  1.6687  0.3189 -0.1913
 4675SOL    HW225662   3.935   2.202   5.742  0.0589 -0.9961 -2.4674
 4676SOL     OW25663   2.536   1.656   5.236 -0.2985  0.3169  0.2709
 4676SOL    HW125664   2.475   1.609   5.293 -1.1590  0.0836 -0.8600
 4676SOL    HW225665   2.617   1.622   5.275  0.1810 -2.5772 -3.2895
 4677SOL     OW25666   3.035   4.109   6.120 -0.8242 -0.0716  0.1010
 4677SOL    HW125667   3.070   4.021   6.104  3.0387  1.1856  1.7618
 4677SOL    HW225668   2.958   4.120   6.064 -1.8748  0.5095  1.6505
 4678SOL     OW25669   3.194   4.404   8.997  0.4782 -0.1924  0.0743
 4678SOL    HW125670   3.214   4.459   8.922  3.4386 -0.9591  0.2941
 4678SOL    HW225671   3.227   4.322   8.960 -1.4709 -0.8521 -0.2309
 4679SOL     OW25672   3.108   0.074  11.123  0.4627  0.6108  0.2507
 4679SOL    HW125673   3.020   0.094  11.090  0.4745  1.8778  1.0128
 4679SOL    HW225674   3.109   0.102  11.214 -0.8467  1.7640 -0.0998
 4680SOL     OW25675   0.700   0.252   0.163  1.1631  0.4364 -0.0154
 4680SOL    HW125676   0.687   0.215   0.075 -2.5700 -0.0465  0.7798
 4680SOL    HW225677   0.791   0.282   0.154  1.2358 -0.2931 -1.8217
 4681SOL     OW25678   3.746   3.967  10.113 -0.3665 -0.3558 -0.1895
 4681SOL    HW125679   3.771   4.052  10.150  0.1323 -0.8604  0.6116
 4681SOL    HW225680   3.651   3.970  10.121 -0.1561  1.9145  1.5543
 4682SOL     OW25681   2.900   4.425   5.433  0.1330 -0.1508 -0.1488
 4682SOL    HW125682   2.980   4.374   5.427  1.0259  1.1581  0.4183
 4682SOL    HW225683   2.932   4.514   5.415  0.8429 -0.0525  1.5649
 4683SOL     OW25684   2.364   4.001   8.187 -0.0024  0.1479  0.3048
 4683SOL    HW125685   2.294   3.966   8.242  1.6792 -1.8800  1.1594
 4683SOL    HW225686   2.320   4.083   8.165  2.4587  0.9608 -1.6062
 4684SOL     OW25687   2.723   3.443  17.578 -0.1536 -0.3335 -0.3212
 4684SOL    HW125688   2.717   3.507  17.507 -1.5573  3.0694  2.8061
 4684SOL    HW225689   2.812   3.413  17.564 -0.3126  0.0535 -2.1487
 4685SOL     OW25690   2.243   4.419  17.372 -0.1794 -0.5895 -0.0256
 4685SOL    HW125691   2.321   4.424  17.426 -0.4063  1.9482  0.0860
 4685SOL    HW225692   2.199   4.340  17.405  0.4427 -1.6472 -1.7325
 4686SOL     OW25693   3.984   0.919   9.649  0.1625 -0.8990  0.2452
 4686SOL    HW125694   3.929   0.931   9.572 -1.0906  0.4165  1.3448
 4686SOL    HW225695   4.009   1.011   9.658 -0.2837 -0.8123  0.5855
 4687SOL     OW25696   3.339   4.521   8.774  0.2996 -0.1139  0.3598
 4687SOL    HW125697   3.289   4.512   8.693 -1.8773  0.4766  1.6276
 4687SOL    HW225698   3.419   4.474   8.752 -0.3742 -0.5377 -1.2110
 4688SOL     OW25699   1.870   3.463   2.000 -0.2878  0.5490  0.5382
 4688SOL    HW125700   1.830   3.518   2.068 -0.1237 -0.3936  1.4077
 4688SOL    HW225701   1.816   3.384   1.997  0.2008  0.2567 -0.3884
 4689SOL     OW25702   1.433   0.513  11.498  0.0860  0.3708  0.1106
 4689SOL    HW125703   1.437   0.604  11.468 -1.6178  1.1973  2.3827
 4689SOL    HW225704   1.467   0.529  11.586 -1.9373  0.3230  0.9066
 4690SOL     OW25705   3.951   3.078  17.427 -1.0136 -0.2209 -0.2809
 4690SOL    HW125706   3.861   3.107  17.443  0.0335  1.1215  3.1097
 4690SOL    HW225707   3.950   3.066  17.332 -0.9129 -2.1563 -0.0370
 4691SOL     OW25708   0.569   1.065   7.472 -0.2020 -0.5110 -0.2818
 4691SOL    HW125709   0.535   0.978   7.491  0.4022 -0.2041  2.2473
 4691SOL    HW225710   0.546   1.112   7.552  3.2116 -1.5779  1.3274
 4692SOL     OW25711   3.320   2.291  15.020  0.1178 -0.7617 -0.0558
 4692SOL    HW125712   3.376   2.308  15.095 -1.6452  0.4222  0.9848
 4692SOL    HW225713   3.238   2.259  15.056  0.2640 -1.4270 -0.3156
 4693SOL     OW25714   2.154   4.529   1.242  0.3595 -0.3403 -0.0819
 4693SOL    HW125715   2.082   4.568   1.193 -0.5727 -0.7869  0.9303
 4693SOL    HW225716   2.167   4.610   1.291 -1.2635  0.0317 -0.2704
 4694SOL     OW25717   2.764   1.679  10.702 -0.7492 -0.5937  0.0958
 4694SOL    HW125718   2.829   1.728  10.753 -1.3858 -0.7818  1.0969
 4694SOL    HW225719   2.781   1.588  10.723 -0.8010 -0.6185  0.0326
 4695SOL     OW25720   3.633   2.391   2.256  0.1628  0.2252 -0.0550
 4695SOL    HW125721   3.555   2.402   2.202  0.4874  1.5974 -0.2331
 4695SOL    HW225722   3.694   2.455   2.219  0.5452 -1.1019 -1.6978
 4696SOL     OW25723   1.821   0.667   7.333 -0.3534 -0.5890 -0.1694
 4696SOL    HW125724   1.736   0.648   7.293 -0.3882  1.5523 -1.1153
 4696SOL    HW225725   1.846   0.754   7.302 -2.2717 -0.4744 -1.3570
 4697SOL     OW25726   3.618   2.202   8.005  0.0386 -0.3554 -0.1187
 4697SOL    HW125727   3.537   2.163   7.974  0.2018  1.0143 -2.2699
 4697SOL    HW225728   3.670   2.123   8.020 -0.7932 -0.9696 -0.5299
 4698SOL     OW25729   0.026   0.371   8.743  0.2137  0.2171 -0.1905
 4698SOL    HW125730   0.037   0.466   8.749 -2.4496  0.5591 -0.8384
 4698SOL    HW225731   0.106   0.336   8.782  0.2089 -0.0640 -0.4243
 4699SOL     OW25732   0.673   0.221   3.508  0.1232 -0.1380 -0.2865
 4699SOL    HW125733   0.607   0.261   3.451  0.7977  0.8261 -0.3848
 4699SOL    HW225734   0.644   0.130   3.518 -0.5437  0.3807  2.5196
 4700SOL     OW25735   3.916   0.291   8.906 -0.3100 -0.3597  0.3780
 4700SOL    HW125736   3.865   0.321   8.982 -0.7595 -1.0396  0.3411
 4700SOL    HW225737   3.917   0.198   8.928 -1.6779 -0.5632 -0.4147
 4701SOL     OW25738   4.109   4.013   2.242 -0.3569 -0.0071 -0.3045
 4701SOL    HW125739   4.040   3.958   2.204  0.2542  0.7633 -2.5102
 4701SOL    HW225740   4.168   4.024   2.167  0.4356  2.7868  0.7293
 4702SOL     OW25741   2.164   0.478   7.579 -0.2544  1.1874  0.2043
 4702SOL    HW125742   2.115   0.534   7.639 -0.6199  0.6749  0.3843
 4702SOL    HW225743   2.108   0.486   7.502  1.2092 -0.0379 -1.0063
 4703SOL     OW25744   0.630   3.871   3.305  0.1331  0.2094 -0.1742
 4703SOL    HW125745   0.674   3.816   3.241 -0.6728 -1.1881  0.4702
 4703SOL    HW225746   0.570   3.803   3.335  1.4570 -0.6048  0.6703
 4704SOL     OW25747   1.489   4.355   4.595 -0.2870  0.1683 -0.2684
 4704SOL    HW125748   1.541   4.290   4.641 -1.9054 -0.1164  1.1355
 4704SOL    HW225749   1.430   4.384   4.664 -1.9556 -1.9111 -0.8335
 4705SOL     OW25750   2.872   2.826   4.770 -0.0005 -0.0519  0.2714
 4705SOL    HW125751   2.943   2.821   4.706  0.5276 -0.4505  0.8860
 4705SOL    HW225752   2.904   2.761   4.832 -0.3133 -0.5427 -0.0774
 4706SOL     OW25753   3.073   3.972  15.172  0.4260  0.2511  0.6169
 4706SOL    HW125754   3.055   3.892  15.123 -1.0282  0.4568  0.8193
 4706SOL    HW225755   3.015   4.037  15.131  0.3835  1.0326  1.9166
 4707SOL     OW25756   1.469   0.404   1.300 -0.0218 -0.0110 -0.0783
 4707SOL    HW125757   1.518   0.372   1.376  0.6767  0.3739 -0.3608
 4707SOL    HW225758   1.514   0.352   1.233 -0.7435  1.1135 -1.4219
 4708SOL     OW25759   4.084   4.197   0.649 -0.3380 -0.1235  0.4308
 4708SOL    HW125760   4.056   4.252   0.723  0.0781 -0.8956  1.1579
 4708SOL    HW225761   4.000   4.155   0.633  0.0883 -0.6429 -0.4226
 4709SOL     OW25762   4.587   3.296   0.170  0.1939  0.7714  0.0414
 4709SOL    HW125763   4.518   3.246   0.127  1.5746 -1.3797  0.2891
 4709SOL    HW225764   4.574   3.383   0.132  0.2372  1.5692  1.8338
 4710SOL     OW25765   0.088   0.326   1.523 -0.0827 -0.6434  0.3581
 4710SOL    HW125766   0.011   0.314   1.466  0.7872  1.7495 -1.3395
 4710SOL    HW225767   0.107   0.420   1.529 -1.1915 -0.4617  1.0868
 4711SOL     OW25768   4.535   4.179   8.868 -0.0239 -0.3467 -0.6808
 4711SOL    HW125769   4.509   4.217   8.784  0.7034  0.0481 -0.7335
 4711SOL    HW225770   4.630   4.194   8.861 -0.2914  2.1659  0.7952
 4712SOL     OW25771   4.214   3.105  17.443 -0.3550  0.1519 -0.2834
 4712SOL    HW125772   4.119   3.109  17.450 -0.3451 -2.4960  1.3071
 4712SOL    HW225773   4.226   3.020  17.400 -1.3636  0.5512 -1.3237
 4713SOL     OW25774   4.616   3.277   1.889 -0.1263  0.2888  0.5879
 4713SOL    HW125775   4.549   3.302   1.953  0.4776 -1.2186  1.7922
 4713SOL    HW225776   4.605   3.183   1.882  1.1191  0.0723  1.5312
 4714SOL     OW25777   3.191   4.707   4.053 -0.2673 -0.4823  0.2986
 4714SOL    HW125778   3.215   4.614   4.058 -2.6200 -1.1806 -1.0649
 4714SOL    HW225779   3.102   4.707   4.088 -0.1580 -0.2766  0.5689
 4715SOL     OW25780   2.826   4.518   6.566 -0.1366 -0.0441  0.4031
 4715SOL    HW125781   2.828   4.511   6.662 -0.6284 -1.6580  0.3089
 4715SOL    HW225782   2.801   4.430   6.537  1.2688 -0.4817  0.4926
 4716SOL     OW25783   0.842   0.170   7.915 -0.7452  0.6421 -0.1140
 4716SOL    HW125784   0.897   0.097   7.945 -2.8749 -0.4554  1.0740
 4716SOL    HW225785   0.769   0.140   7.969  0.6427 -4.4824 -1.0666
 4717SOL     OW25786   4.066   2.674   4.705 -0.3841  0.6694  0.2142
 4717SOL    HW125787   4.051   2.767   4.688  0.2800  1.0719  1.8343
 4717SOL    HW225788   3.997   2.652   4.767  1.5538 -1.2304  1.6750
 4718SOL     OW25789   1.090   3.567   3.899  0.0778 -0.0071  0.5976
 4718SOL    HW125790   1.170   3.599   3.941 -0.3723  1.7616  0.1082
 4718SOL    HW225791   1.046   3.650   3.883 -0.0087  0.1316  1.5223
 4719SOL     OW25792   4.360   4.700   8.287 -0.8654  0.6272 -0.7106
 4719SOL    HW125793   4.284   4.642   8.286 -1.2113  1.0733 -0.4840
 4719SOL    HW225794   4.319   0.035   8.330 -1.7391 -0.1041 -0.2617
 4720SOL     OW25795   3.340   3.452   2.367 -0.5586 -0.3221  0.5210
 4720SOL    HW125796   3.429   3.487   2.376 -0.7204 -0.1596  1.4797
 4720SOL    HW225797   3.305   3.459   2.455 -1.1623 -1.4208  0.3618
 4721SOL     OW25798   0.236   0.459   5.830  0.0893 -0.0878  0.8662
 4721SOL    HW125799   0.307   0.492   5.884  1.3639 -0.2910 -0.7032
 4721SOL    HW225800   0.243   0.508   5.748 -2.5639 -1.3173 -0.0912
 4722SOL     OW25801   3.387   1.164   4.423 -0.4175 -0.3119 -0.5997
 4722SOL    HW125802   3.327   1.113   4.478 -1.5157  0.8728 -0.7083
 4722SOL    HW225803   3.327   1.230   4.389  0.5626 -0.3246 -2.3401
 4723SOL     OW25804   4.191   2.346   7.971  0.6338  0.0586 -0.0148
 4723SOL    HW125805   4.225   2.313   7.888 -1.5352  0.9856 -1.2833
 4723SOL    HW225806   4.244   2.304   8.039  0.0037 -0.3330  0.2401
 4724SOL     OW25807   2.539   2.014   3.790 -0.3238 -0.1760  0.3934
 4724SOL    HW125808   2.585   1.944   3.836 -0.1621 -1.2660 -1.4136
 4724SOL    HW225809   2.538   2.088   3.850 -0.1202  0.3481 -0.2575
 4725SOL     OW25810   1.564   4.468   3.309 -0.0802 -0.4848 -0.1558
 4725SOL    HW125811   1.635   4.414   3.273  2.3303  1.5881  1.4679
 4725SOL    HW225812   1.541   4.426   3.392 -0.2824 -0.2753 -0.1080
 4726SOL     OW25813   0.708   2.342   3.133  0.0236 -0.4021  0.0772
 4726SOL    HW125814   0.643   2.381   3.073 -0.7746 -2.1098 -0.1790
 4726SOL    HW225815   0.782   2.342   3.073  1.3517  0.3266  1.7195
 4727SOL     OW25816   3.475   3.480  10.819 -0.0763 -0.1300 -0.1433
 4727SOL    HW125817   3.387   3.457  10.848  0.3196 -1.8902 -0.3231
 4727SOL    HW225818   3.494   3.539  10.892  0.8337  0.3515 -0.7717
 4728SOL     OW25819   1.977   0.620   6.852 -0.2335  0.5904  0.6515
 4728SOL    HW125820   2.001   0.685   6.918  0.2201 -0.3328  1.3969
 4728SOL    HW225821   2.022   0.548   6.895 -1.3116  0.2129  1.1420
 4729SOL     OW25822   3.439   1.111   8.107 -0.1276  0.2537 -0.3820
 4729SOL    HW125823   3.399   1.156   8.182 -1.8329 -1.2519 -0.4158
 4729SOL    HW225824   3.384   1.034   8.094  0.4868 -0.0677 -1.1018
 4730SOL     OW25825   3.829   0.689   5.935  0.3542  0.3608  0.4381
 4730SOL    HW125826   3.921   0.714   5.943  0.8130 -1.1138 -0.2774
 4730SOL    HW225827   3.804   0.658   6.022 -1.0253  1.1986  0.3420
 4731SOL     OW25828   4.618   3.675   7.502  0.4744  0.5490  0.1059
 4731SOL    HW125829   4.631   3.629   7.419  1.7387  1.6807 -0.3450
 4731SOL    HW225830   4.537   3.633   7.528  0.3377 -0.6982 -2.3091
 4732SOL     OW25831   1.084   3.837   3.951  0.1274  0.3146 -0.2805
 4732SOL    HW125832   1.103   3.900   4.021 -1.3501  0.2922  0.1482
 4732SOL    HW225833   1.158   3.845   3.891 -1.2754 -0.2848 -2.0928
 4733SOL     OW25834   1.955   1.584   2.055 -0.0583 -0.1827 -0.2274
 4733SOL    HW125835   1.944   1.499   2.098 -2.4247  0.4595  0.4486
 4733SOL    HW225836   1.909   1.583   1.971 -1.0109 -0.9816  0.3101
 4734SOL     OW25837   1.075   3.034  11.771  0.0755  0.0049 -0.0638
 4734SOL    HW125838   1.049   3.125  11.755  1.5048  0.5981  0.9597
 4734SOL    HW225839   1.142   3.024  11.703 -0.7678  2.4646 -1.2779
 4735SOL     OW25840   0.515   3.390  13.464 -0.0671 -0.0339 -0.0968
 4735SOL    HW125841   0.494   3.299  13.484  2.1115 -1.3884 -3.8996
 4735SOL    HW225842   0.451   3.433  13.519  0.1910  2.0188 -1.3931
 4736SOL     OW25843   0.417   4.655   5.851 -0.2601  0.4003  0.5909
 4736SOL    HW125844   0.397   0.008   5.842  2.8645  0.7999 -2.6897
 4736SOL    HW225845   0.335   4.612   5.829  0.2556  0.7776 -2.0705
 4737SOL     OW25846   2.182   3.769   8.366 -0.0024 -0.1587  0.0971
 4737SOL    HW125847   2.147   3.851   8.400  1.0940  0.4204 -0.1783
 4737SOL    HW225848   2.230   3.742   8.444 -0.3803  0.0221  0.3877
 4738SOL     OW25849   1.069   1.514   2.775  0.1811  0.2726 -0.4407
 4738SOL    HW125850   1.120   1.435   2.758 -2.7714 -1.6081 -0.6565
 4738SOL    HW225851   1.138   1.572   2.807 -1.4704  0.6744  2.3954
 4739SOL     OW25852   1.439   3.503   6.831  0.2390  0.2188 -0.1624
 4739SOL    HW125853   1.526   3.537   6.811  0.2167  0.5439  0.3007
 4739SOL    HW225854   1.388   3.551   6.766  0.1941  1.1792  0.5798
 4740SOL     OW25855   1.250   0.738   6.423 -1.1591 -0.5661  0.3964
 4740SOL    HW125856   1.241   0.787   6.504  1.8077 -3.3129  2.3823
 4740SOL    HW225857   1.325   0.778   6.379 -1.5127  0.2941  0.5850
 4741SOL     OW25858   1.751   0.296  12.126  0.2223 -0.4660  0.5588
 4741SOL    HW125859   1.723   0.313  12.036 -0.0834  1.0632  0.9463
 4741SOL    HW225860   1.817   0.230  12.103 -2.4112 -3.0513  0.3795
 4742SOL     OW25861   0.225   0.632  15.734 -0.1818  0.4079  0.2578
 4742SOL    HW125862   0.195   0.704  15.677  0.3077 -0.9305 -1.6829
 4742SOL    HW225863   0.149   0.596  15.780  0.4211 -1.1282  0.0487
 4743SOL     OW25864   4.462   3.937   0.659 -0.2657  0.0198  0.4296
 4743SOL    HW125865   4.384   3.953   0.711 -1.2233  1.7438 -1.5153
 4743SOL    HW225866   4.508   4.021   0.665  1.8475 -1.0172 -1.2706
 4744SOL     OW25867   1.980   4.475  13.031  0.3773 -0.0627 -0.6175
 4744SOL    HW125868   1.993   4.411  13.101  1.3559 -1.4133 -2.0523
 4744SOL    HW225869   1.925   4.542  13.072 -0.2609 -0.3876 -0.9489
 4745SOL     OW25870   0.630   4.456   7.135  0.3154 -0.1491  0.1615
 4745SOL    HW125871   0.587   4.509   7.068 -1.4209 -1.7550  0.0200
 4745SOL    HW225872   0.701   4.410   7.088  0.3189 -1.0137  1.0321
 4746SOL     OW25873   2.575   2.059   5.189 -0.6610  0.2939  0.2675
 4746SOL    HW125874   2.661   2.084   5.156 -0.1490 -2.5195 -0.5455
 4746SOL    HW225875   2.534   2.134   5.148  2.0811  1.3598 -0.5112
 4747SOL     OW25876   4.150   1.686   6.271  0.3139  0.2194  1.1065
 4747SOL    HW125877   4.101   1.768   6.272 -1.1037 -0.6191 -0.2424
 4747SOL    HW225878   4.232   1.714   6.311  1.7542 -1.7359 -0.4951
 4748SOL     OW25879   2.690   4.017   1.236  0.2924 -0.3858 -0.2142
 4748SOL    HW125880   2.777   3.983   1.255  0.8023 -0.2204 -2.3729
 4748SOL    HW225881   2.679   4.037   1.329  2.5957  1.6440 -0.3915
 4749SOL     OW25882   3.186   2.465  15.766  0.1660 -0.1334  0.2860
 4749SOL    HW125883   3.141   2.545  15.794  0.5452 -0.2777  1.3337
 4749SOL    HW225884   3.236   2.504  15.694  2.0709 -1.1842  1.0369
 4750SOL     OW25885   0.696   1.626   2.322 -0.4907  0.2721  0.2425
 4750SOL    HW125886   0.738   1.622   2.407  1.0865  1.0405 -0.5146
 4750SOL    HW225887   0.739   1.694   2.271  0.4850  0.0282  0.7569
 4751SOL     OW25888   1.455   4.232  12.540 -0.0613 -0.0108 -0.6212
 4751SOL    HW125889   1.487   4.314  12.502 -0.4393 -0.3651 -1.6959
 4751SOL    HW225890   1.411   4.269  12.616  0.5771  1.8107 -1.1201
 4752SOL     OW25891   0.910   0.513   5.214 -0.3444  0.4536 -0.3485
 4752SOL    HW125892   0.822   0.532   5.183 -0.9031 -0.6736  0.5334
 4752SOL    HW225893   0.936   0.444   5.153  0.4585 -0.6747  1.2575
 4753SOL     OW25894   1.517   1.242   3.351 -0.8174 -0.1391  0.8956
 4753SOL    HW125895   1.504   1.150   3.330 -0.8798  0.4860 -1.7913
 4753SOL    HW225896   1.596   1.235   3.406 -0.4865  2.1095  0.7100
 4754SOL     OW25897   1.099   2.489   0.672 -0.5563 -0.0563  0.2391
 4754SOL    HW125898   1.100   2.412   0.615  1.0419 -0.2933  0.5736
 4754SOL    HW225899   1.083   2.442   0.755 -2.0253  1.1850  0.6537
 4755SOL     OW25900   3.923   4.426  15.406 -0.2547  0.7542  0.0746
 4755SOL    HW125901   3.916   4.377  15.324 -0.4800 -0.7148  0.9685
 4755SOL    HW225902   3.856   4.492  15.388 -0.8714 -0.0867 -0.7640
 4756SOL     OW25903   4.040   4.062   0.966 -0.1956 -0.3754  0.5319
 4756SOL    HW125904   4.014   4.044   1.057 -0.0287  1.3270  0.9299
 4756SOL    HW225905   3.993   4.141   0.939  1.4600  0.1335 -0.8180
 4757SOL     OW25906   0.985   4.447   3.021  0.0380  0.4840  0.3998
 4757SOL    HW125907   1.004   4.381   2.954  0.4566  1.9922 -0.9639
 4757SOL    HW225908   0.900   4.415   3.051  1.1382 -2.0790  0.7664
 4758SOL     OW25909   4.651   2.647   0.584  0.1711 -0.0858  0.6149
 4758SOL    HW125910   4.643   2.646   0.489  0.2629 -2.5746  0.6273
 4758SOL    HW225911   4.650   2.553   0.602 -0.0846 -0.0318  0.8941
 4759SOL     OW25912   1.952   1.825   2.945 -0.4806 -0.1636 -0.5614
 4759SOL    HW125913   2.038   1.804   2.981 -0.4736  1.3250  0.2912
 4759SOL    HW225914   1.956   1.915   2.911  0.6145 -0.2224 -0.5956
 4760SOL     OW25915   2.288   3.010  10.527  0.1854 -0.1956 -0.2943
 4760SOL    HW125916   2.253   3.008  10.616  2.0289 -0.3708  0.4189
 4760SOL    HW225917   2.353   3.080  10.535 -1.5813  1.6069 -1.3649
 4761SOL     OW25918   2.865   1.419  13.218 -0.5203 -0.1896  0.2287
 4761SOL    HW125919   2.798   1.471  13.261  2.0078  0.8110  2.9739
 4761SOL    HW225920   2.923   1.488  13.184 -0.2306 -1.6009 -2.1355
 4762SOL     OW25921   2.396   3.032   5.171  0.5166  0.0782  0.1822
 4762SOL    HW125922   2.377   3.119   5.205  1.4794  0.6243 -0.6546
 4762SOL    HW225923   2.486   3.023   5.204  0.2138 -1.1214  0.6969
 4763SOL     OW25924   0.444   2.846   6.051  0.9437  0.1757 -0.5558
 4763SOL    HW125925   0.451   2.759   6.090 -0.9251 -0.4898 -1.7267
 4763SOL    HW225926   0.360   2.868   6.091  0.7382  0.9259 -1.4057
 4764SOL     OW25927   1.639   2.828   6.734  0.3349 -0.3855 -0.1027
 4764SOL    HW125928   1.649   2.913   6.775 -1.8985  0.4490 -1.2922
 4764SOL    HW225929   1.560   2.795   6.777  0.2792  0.2162  0.2554
 4765SOL     OW25930   3.916   3.831   2.161  0.0403 -0.4401  0.0470
 4765SOL    HW125931   3.864   3.798   2.087 -0.6608 -0.0951  0.3860
 4765SOL    HW225932   3.943   3.750   2.204 -1.6752 -2.2150 -2.2148
 4766SOL     OW25933   0.972   3.794  16.763 -0.1715 -0.1707 -0.1046
 4766SOL    HW125934   0.958   3.811  16.856  0.6327  1.2663 -0.2513
 4766SOL    HW225935   1.016   3.870  16.726 -3.5586  1.9977  0.3429
 4767SOL     OW25936   3.596   0.940   2.110  0.4259 -0.0942 -0.2169
 4767SOL    HW125937   3.683   0.943   2.151 -0.9878  0.6384  2.7523
 4767SOL    HW225938   3.549   0.868   2.150 -0.9391  0.2694 -1.1710
 4768SOL     OW25939   1.133   2.438   6.749 -0.2953  0.1231 -0.2448
 4768SOL    HW125940   1.151   2.433   6.843 -0.1888  1.0963 -0.2118
 4768SOL    HW225941   1.225   2.443   6.723 -0.2684  0.9194  0.0007
 4769SOL     OW25942   1.722   1.655  15.861  0.0832 -0.1661  0.4927
 4769SOL    HW125943   1.727   1.624  15.771 -0.8308  0.2801  0.2776
 4769SOL    HW225944   1.665   1.732  15.853 -0.1345 -0.5728 -1.8743
 4770SOL     OW25945   3.225   3.369  10.881  0.0463  0.2847 -0.4817
 4770SOL    HW125946   3.210   3.284  10.840 -1.4234  0.2116  0.2463
 4770SOL    HW225947   3.258   3.344  10.967 -2.4875  0.6580  0.5871
 4771SOL     OW25948   3.369   4.007   7.792  0.5168 -0.3368  0.1573
 4771SOL    HW125949   3.325   4.088   7.766 -1.2296 -1.2754  0.2199
 4771SOL    HW225950   3.402   4.032   7.878  0.8071 -0.9992  0.2430
 4772SOL     OW25951   4.121   1.379  14.097 -0.1065 -0.7300 -0.6228
 4772SOL    HW125952   4.174   1.439  14.150 -1.2167  0.8512 -1.3171
 4772SOL    HW225953   4.186   1.319  14.059 -0.0948 -0.7906 -0.5066
 4773SOL     OW25954   1.849   3.625   5.798 -0.2094 -0.2017  0.9441
 4773SOL    HW125955   1.865   3.558   5.732  0.0804  0.2690  0.5367
 4773SOL    HW225956   1.755   3.641   5.785 -0.7819 -3.4674  1.1593
 4774SOL     OW25957   1.060   0.884   9.886  0.6729 -0.1364  0.6167
 4774SOL    HW125958   0.972   0.914   9.863  0.9697 -0.0217 -0.3527
 4774SOL    HW225959   1.041   0.826   9.960  0.8523 -0.4840  0.3853
 4775SOL     OW25960   2.747   3.519   1.976 -0.1687 -0.1847  0.0840
 4775SOL    HW125961   2.750   3.553   2.066  0.2541  0.4310 -0.1572
 4775SOL    HW225962   2.765   3.599   1.926  1.1893 -1.0515 -0.8232
 4776SOL     OW25963   3.977   0.924   8.482  0.4393 -0.6396  0.4086
 4776SOL    HW125964   4.054   0.882   8.444  0.6331 -0.8002  0.9855
 4776SOL    HW225965   3.956   0.983   8.409 -1.1237 -0.4836  0.9819
 4777SOL     OW25966   1.681   4.032   8.376  0.4386  0.6748  0.1354
 4777SOL    HW125967   1.652   3.994   8.293 -0.7684  0.2932  0.7336
 4777SOL    HW225968   1.761   4.075   8.346  0.3043 -0.8382 -2.3950
 4778SOL     OW25969   2.802   1.333   6.235  0.7400 -0.5268  0.2395
 4778SOL    HW125970   2.797   1.317   6.329 -0.2398  2.6398  0.7459
 4778SOL    HW225971   2.746   1.411   6.245  2.9413  0.7112  2.9143
 4779SOL     OW25972   2.293   0.831  14.977 -0.2411  0.1813 -0.0664
 4779SOL    HW125973   2.321   0.894  14.910 -1.0258 -0.6444 -1.1739
 4779SOL    HW225974   2.217   0.800  14.927 -1.3334  2.2247  0.3035
 4780SOL     OW25975   2.792   2.385   8.807  0.3895  0.0416 -0.3247
 4780SOL    HW125976   2.823   2.307   8.853  0.4631 -0.1822 -0.7500
 4780SOL    HW225977   2.771   2.453   8.870  0.0362  1.8880 -2.4347
 4781SOL     OW25978   1.504   4.481  13.441  0.2205 -0.7089  0.0003
 4781SOL    HW125979   1.571   4.442  13.498  2.1910 -0.6755 -2.3176
 4781SOL    HW225980   1.438   4.520  13.498  0.7552  0.3492 -0.1091
 4782SOL     OW25981   0.962   1.273   1.075 -0.0436  0.0999 -0.0804
 4782SOL    HW125982   0.975   1.179   1.065  0.2607  0.0162  1.1109
 4782SOL    HW225983   0.888   1.277   1.015 -0.5261  0.4895  0.5307
 4783SOL     OW25984   4.678   1.913   7.922 -0.8118 -0.3486  0.2118
 4783SOL    HW125985   0.031   1.906   7.946 -1.1122  0.7141  1.6663
 4783SOL    HW225986   4.653   2.005   7.930 -0.0351 -0.0407 -0.8170
 4784SOL     OW25987   2.319   2.912  14.438  0.5633  0.4427 -0.6918
 4784SOL    HW125988   2.378   2.838  14.455  0.8188  1.1511  1.5673
 4784SOL    HW225989   2.366   2.951  14.365 -0.7322  0.6150 -1.4342
 4785SOL     OW25990   0.198   4.098  13.304  0.2084 -0.3157  0.2072
 4785SOL    HW125991   0.248   4.039  13.361  3.7804  1.8101 -0.7432
 4785SOL    HW225992   0.264   4.141  13.250  0.0159 -1.2778 -0.7998
 4786SOL     OW25993   1.017   0.572   6.874  0.0111  0.2468  0.0418
 4786SOL    HW125994   0.990   0.519   6.949 -0.3295 -1.7223 -1.4695
 4786SOL    HW225995   1.105   0.596   6.900  0.3557 -0.2852 -0.6110
 4787SOL     OW25996   3.821   0.360   1.180  0.2189  0.1559  0.3364
 4787SOL    HW125997   3.765   0.430   1.146  0.7214 -0.4234 -1.7012
 4787SOL    HW225998   3.891   0.415   1.215  1.3190 -0.5504 -0.7942
 4788SOL     OW25999   4.534   2.675   6.677  0.6437  0.5575  0.0980
 4788SOL    HW126000   4.537   2.627   6.760  1.9959  1.6331  0.6627
 4788SOL    HW226001   4.560   2.611   6.611 -2.5210 -0.9048  0.2713
 4789SOL     OW26002   0.202   2.557   8.963 -0.4431  0.7661  0.2526
 4789SOL    HW126003   0.242   2.470   8.961  0.5616  1.2524 -0.5136
 4789SOL    HW226004   0.110   2.538   8.943 -0.1666  2.1564 -2.2985
 4790SOL     OW26005   1.900   1.712   4.546  0.1277 -0.6216 -0.4628
 4790SOL    HW126006   1.855   1.651   4.604 -0.7430  1.5944  1.2174
 4790SOL    HW226007   1.976   1.733   4.601 -0.1717 -1.2321  0.1926
 4791SOL     OW26008   2.889   2.628   7.030  0.0675 -0.6387  0.2466
 4791SOL    HW126009   2.943   2.555   7.001 -2.4105 -1.8354 -1.3456
 4791SOL    HW226010   2.919   2.650   7.118  1.0407 -3.8749  0.7119
 4792SOL     OW26011   0.049   3.881   8.685 -0.7221  0.3518 -0.5346
 4792SOL    HW126012   0.079   3.912   8.600  1.3106  1.5127  0.5879
 4792SOL    HW226013   0.117   3.815   8.703 -0.7099 -0.4491 -3.5626
 4793SOL     OW26014   2.644   1.991   3.535 -0.2944 -0.1459  0.1205
 4793SOL    HW126015   2.624   2.031   3.620  3.0538  1.6546  0.0545
 4793SOL    HW226016   2.557   1.951   3.525 -0.7635  0.4007  1.9749
 4794SOL     OW26017   1.170   0.006   5.620  0.0619 -0.0843 -0.3850
 4794SOL    HW126018   1.080   4.719   5.604  0.3449 -1.1334 -0.1473
 4794SOL    HW226019   1.149   0.099   5.610 -0.9653 -0.4985 -2.0241
 4795SOL     OW26020   4.385   1.127   3.495  0.8487 -0.6913 -0.3509
 4795SOL    HW126021   4.373   1.039   3.461 -0.6041 -0.1091 -1.3321
 4795SOL    HW226022   4.461   1.139   3.553 -0.1323 -3.1984  1.4647
 4796SOL     OW26023   0.787   1.428  13.227  0.4048  0.2394 -0.2725
 4796SOL    HW126024   0.810   1.446  13.135 -1.5960  0.9496 -0.6213
 4796SOL    HW226025   0.746   1.512  13.247  1.1422  0.4615  0.2998
 4797SOL     OW26026   1.849   1.006   5.297  0.3342  0.2048 -0.2289
 4797SOL    HW126027   1.788   1.032   5.228  0.9415  1.4422 -0.3112
 4797SOL    HW226028   1.906   1.082   5.281  2.1637 -1.0543  0.3048
 4798SOL     OW26029   1.716   4.050   1.473  0.4402 -0.4169  0.6726
 4798SOL    HW126030   1.727   3.968   1.521  1.3178 -1.0710 -0.6512
 4798SOL    HW226031   1.686   4.010   1.391  1.1771  0.5144 -0.0528
 4799SOL     OW26032   3.940   0.244   4.981 -0.0868  0.0445 -0.5088
 4799SOL    HW126033   3.903   0.312   5.037  0.4139 -0.8048  0.8500
 4799SOL    HW226034   4.034   0.258   4.983 -0.1330  0.4370 -1.1157
 4800SOL     OW26035   4.401   0.136  11.053  0.1714 -0.0763 -0.3232
 4800SOL    HW126036   4.429   0.046  11.036 -0.8755 -1.1036  3.3297
 4800SOL    HW226037   4.469   0.181  11.003 -1.3852  0.7934 -1.6539
 4801SOL     OW26038   3.597   1.134  17.264 -0.1085 -0.1803  0.1263
 4801SOL    HW126039   3.596   1.047  17.306  1.8155  0.8816  2.3911
 4801SOL    HW226040   3.586   1.185  17.344  0.1390 -2.1711  1.4551
 4802SOL     OW26041   0.745   2.142   5.915  0.1008  0.0417 -0.0438
 4802SOL    HW126042   0.680   2.105   5.855 -0.5519  1.4688 -0.2220
 4802SOL    HW226043   0.700   2.219   5.949  1.3705  0.7982 -0.0712
 4803SOL     OW26044   1.498   0.057  13.976 -0.1448  0.0680 -0.1278
 4803SOL    HW126045   1.444   0.033  14.051 -0.7466  0.3954 -0.4646
 4803SOL    HW226046   1.554   4.720  13.969 -3.6715 -2.2269 -2.9126
 4804SOL     OW26047   4.273   0.555   4.509 -0.3260  0.6846 -0.2353
 4804SOL    HW126048   4.352   0.504   4.487 -1.0588 -0.5857  0.0615
 4804SOL    HW226049   4.299   0.637   4.469  2.6572  0.0089  0.3015
 4805SOL     OW26050   2.960   4.259   5.801  0.1332 -0.2993  0.1394
 4805SOL    HW126051   2.878   4.282   5.759 -0.1061 -0.6332  0.4229
 4805SOL    HW226052   2.970   4.341   5.849  2.2105  0.2072 -1.1732
 4806SOL     OW26053   2.575   2.091   8.985  0.3030 -0.3668 -0.3687
 4806SOL    HW126054   2.537   2.157   9.043  0.1833 -1.1294  0.4155
 4806SOL    HW226055   2.544   2.009   9.023 -0.5363  0.5505  0.9009
 4807SOL     OW26056   4.112   2.133   2.969 -0.3883  0.1859  0.0273
 4807SOL    HW126057   4.109   2.041   2.941  1.4030 -0.1522  0.9337
 4807SOL    HW226058   4.193   2.143   3.019  0.0545  0.1516 -0.6816
 4808SOL     OW26059   4.231   1.336  11.172  0.1020 -0.0305 -0.1645
 4808SOL    HW126060   4.268   1.329  11.084  0.9337 -2.6953  0.4153
 4808SOL    HW226061   4.135   1.331  11.178  0.1095 -0.0819 -0.0915
 4809SOL     OW26062   0.639   0.214   6.349  0.0679 -0.1948 -0.3097
 4809SOL    HW126063   0.607   0.146   6.408 -0.9473  1.2837  0.8237
 4809SOL    HW226064   0.718   0.238   6.397 -1.0491 -1.2618  2.0226
 4810SOL     OW26065   1.048   4.003   7.775 -0.2047  0.4009  0.4094
 4810SOL    HW126066   0.989   4.021   7.702 -0.7517  0.5176  0.8749
 4810SOL    HW226067   1.021   4.066   7.842 -1.2719 -0.3378  0.6947
 4811SOL     OW26068   2.982   1.771  14.933  0.4252  0.0659  0.0219
 4811SOL    HW126069   2.893   1.739  14.918  0.5571  0.0927 -0.7776
 4811SOL    HW226070   2.992   1.828  14.857  2.8726 -1.2477 -0.6345
 4812SOL     OW26071   4.190   2.101   5.407  0.0994  0.1552  0.8218
 4812SOL    HW126072   4.251   2.170   5.433 -1.6795  1.3095  1.9239
 4812SOL    HW226073   4.229   2.022   5.444 -1.2465 -0.9911 -0.2205
 4813SOL     OW26074   3.794   1.157   6.793 -0.0367 -0.2302 -0.3111
 4813SOL    HW126075   3.746   1.214   6.733 -1.1438 -0.2768  0.5240
 4813SOL    HW226076   3.885   1.186   6.794 -1.1504  3.2534  1.6085
 4814SOL     OW26077   2.328   4.047   2.877  0.4029 -0.2146  0.2429
 4814SOL    HW126078   2.401   3.994   2.845 -0.4570 -0.1060 -1.8507
 4814SOL    HW226079   2.254   3.988   2.887  1.1674 -1.1458  0.4268
 4815SOL     OW26080   4.665   0.873  12.872  0.0503  0.3644  0.5865
 4815SOL    HW126081   4.725   0.909  12.937 -0.4708  0.6434  0.9079
 4815SOL    HW226082   4.577   0.892  12.904 -0.0440 -1.2441  1.2763
 4816SOL     OW26083   2.636   2.252  11.273 -0.2467  0.4260  0.2248
 4816SOL    HW126084   2.722   2.215  11.289 -0.0919 -0.2404 -2.0962
 4816SOL    HW226085   2.667   2.332  11.230  0.8620 -1.0748 -1.7616
 4817SOL     OW26086   4.039   1.639   2.196  0.0073  0.5774  0.4761
 4817SOL    HW126087   3.951   1.664   2.168 -0.0350 -0.4408 -0.3277
 4817SOL    HW226088   4.027   1.547   2.222  0.7809 -0.0806 -1.5242
 4818SOL     OW26089   3.697   0.728   8.302 -0.1926  0.8128  0.2964
 4818SOL    HW126090   3.649   0.789   8.358 -1.5428 -1.3156  1.4621
 4818SOL    HW226091   3.753   0.788   8.254  0.3907  1.2273  1.5019
 4819SOL     OW26092   1.882   2.575   1.924  0.2133  0.1321 -0.5194
 4819SOL    HW126093   1.798   2.621   1.930 -0.7582 -1.5625 -1.0708
 4819SOL    HW226094   1.919   2.570   2.012  1.0693  0.7177 -0.8478
 4820SOL     OW26095   0.162   3.833   6.695 -0.8854 -0.3239 -0.2058
 4820SOL    HW126096   0.085   3.796   6.653 -0.6742 -2.3868  1.2290
 4820SOL    HW226097   0.225   3.764   6.674  0.4417  0.9852 -0.5836
 4821SOL     OW26098   4.125   4.445   1.740 -0.3908 -0.0962 -0.3204
 4821SOL    HW126099   4.182   4.521   1.755  0.4094 -1.0185  1.3646
 4821SOL    HW226100   4.147   4.393   1.818  0.4119  0.6125 -0.0731
 4822SOL     OW26101   0.910   0.085   1.180  0.3769 -0.7057  0.3336
 4822SOL    HW126102   0.868   0.001   1.161  0.5901 -1.1854  1.9910
 4822SOL    HW226103   0.961   0.104   1.101  0.0137 -1.7014 -0.1440
 4823SOL     OW26104   1.800   0.521   1.388  0.0750  0.3304  0.4004
 4823SOL    HW126105   1.722   0.477   1.422 -0.4247  0.5714 -0.4303
 4823SOL    HW226106   1.829   0.591   1.447 -2.4495  0.5361  1.3866
 4824SOL     OW26107   3.120   0.245   7.077  0.2315 -0.0641 -0.6855
 4824SOL    HW126108   3.117   0.150   7.064  0.5138 -0.3596  1.3988
 4824SOL    HW226109   3.125   0.276   6.986  1.0583  1.4281 -0.1278
 4825SOL     OW26110   0.238   1.558   5.075 -0.2750 -0.1479  0.4265
 4825SOL    HW126111   0.288   1.511   5.009 -1.9297 -1.0781 -0.1786
 4825SOL    HW226112   0.301   1.623   5.105 -1.7693  1.0010  1.0720
 4826SOL     OW26113   2.188   0.294   3.642 -0.5099 -0.0909  0.2996
 4826SOL    HW126114   2.264   0.294   3.584  0.2130 -1.3138  1.2358
 4826SOL    HW226115   2.221   0.332   3.724  0.1628 -0.0315  0.0022
 4827SOL     OW26116   0.299   2.422   3.948 -0.2044 -0.5788 -0.1286
 4827SOL    HW126117   0.218   2.470   3.965 -0.2988 -1.0100  0.6476
 4827SOL    HW226118   0.269   2.381   3.868 -1.2792  0.1840 -0.1179
 4828SOL     OW26119   2.798   4.654   9.007  0.7421 -0.0492  0.0786
 4828SOL    HW126120   2.805   4.683   9.098 -0.3609 -4.6062  1.5757
 4828SOL    HW226121   2.703   4.642   8.998  0.1843  3.2069  1.5214
 4829SOL     OW26122   3.386   0.420   1.919  0.3228 -0.3798 -0.1874
 4829SOL    HW126123   3.396   0.514   1.904 -2.3673 -0.2176 -1.0080
 4829SOL    HW226124   3.469   0.405   1.964  0.9771 -0.3352 -1.3869
 4830SOL     OW26125   1.880   0.157   3.840 -0.2424 -0.2265 -0.2113
 4830SOL    HW126126   1.906   0.149   3.748 -0.1675 -2.2864 -0.0249
 4830SOL    HW226127   1.844   0.245   3.836 -0.4622 -0.2349  1.7634
 4831SOL     OW26128   0.541   3.578   5.364  0.1525  0.2753  0.2084
 4831SOL    HW126129   0.623   3.540   5.332 -1.7975 -2.4421 -1.5906
 4831SOL    HW226130   0.488   3.583   5.285 -0.6301 -0.7873  0.6805
 4832SOL     OW26131   1.410   3.021   3.300 -0.2261  0.1889  0.1204
 4832SOL    HW126132   1.347   3.060   3.360  0.3110  1.2748 -0.0297
 4832SOL    HW226133   1.460   2.959   3.354 -0.2723 -0.5671 -0.7100
 4833SOL     OW26134   2.812   2.751  14.765  0.4651  0.1358 -0.8876
 4833SOL    HW126135   2.862   2.713  14.693  0.2025 -1.8414 -0.0232
 4833SOL    HW226136   2.876   2.797  14.819 -0.5399  1.6607 -0.9793
 4834SOL     OW26137   0.559   2.865   7.134 -0.0604  0.1349  0.6120
 4834SOL    HW126138   0.650   2.895   7.135  0.2357 -0.7703  1.7332
 4834SOL    HW226139   0.510   2.946   7.141 -1.9695 -0.8824 -0.9708
 4835SOL     OW26140   2.287   3.309   2.438  0.0203 -0.2448 -0.3088
 4835SOL    HW126141   2.198   3.330   2.410 -0.2064  0.8505  1.2492
 4835SOL    HW226142   2.333   3.385   2.401  1.1357 -1.6657 -1.8476
 4836SOL     OW26143   0.639   2.903   7.511 -0.0383  0.5014  0.3976
 4836SOL    HW126144   0.682   2.960   7.448  1.8064 -1.6800 -0.3131
 4836SOL    HW226145   0.682   2.920   7.595  0.8593 -3.0660  0.6637
 4837SOL     OW26146   1.847   4.648   5.184 -0.6433 -0.6487 -0.4896
 4837SOL    HW126147   1.806   4.733   5.199 -0.3307 -0.3548 -1.2687
 4837SOL    HW226148   1.824   4.604   5.266  0.3656 -1.4754 -0.6438
 4838SOL     OW26149   1.463   1.047   1.795 -0.6762  0.2692 -0.4565
 4838SOL    HW126150   1.480   0.993   1.872 -2.3603  2.0798  1.1677
 4838SOL    HW226151   1.462   1.136   1.829 -1.0154  0.4995 -1.0599
 4839SOL     OW26152   1.746   1.420   5.895  0.1981 -0.4838  1.2760
 4839SOL    HW126153   1.796   1.493   5.933 -2.6594  3.1030 -1.8758
 4839SOL    HW226154   1.825   1.381   5.858 -0.8422 -1.8726  0.4954
 4840SOL     OW26155   3.234   3.129  10.693  0.9865  0.3923  0.1382
 4840SOL    HW126156   3.170   3.107  10.625  2.0081 -1.0946 -0.3470
 4840SOL    HW226157   3.306   3.144  10.631  0.5870 -0.3791 -0.5159
 4841SOL     OW26158   3.877   2.674   6.515 -1.0929 -0.2235  0.1544
 4841SOL    HW126159   3.861   2.732   6.441 -0.1608  0.2923  0.3453
 4841SOL    HW226160   3.877   2.588   6.474 -0.4386 -0.6239  0.9801
 4842SOL     OW26161   4.420   0.308   7.121 -0.1080 -0.1672  0.8170
 4842SOL    HW126162   4.342   0.338   7.075  0.1851  0.8715  0.9909
 4842SOL    HW226163   4.437   0.384   7.177  0.3288  0.7704 -0.5861
 4843SOL     OW26164   1.714   4.650   5.583  0.7776  0.2108  0.0909
 4843SOL    HW126165   1.674   4.721   5.533  1.8187 -0.3017 -1.4897
 4843SOL    HW226166   1.798   4.632   5.540  0.6819 -0.6434  0.2496
 4844SOL     OW26167   2.207   1.486   8.034  0.0817 -0.6471  0.3139
 4844SOL    HW126168   2.279   1.531   8.077  0.8989  0.3729 -2.1265
 4844SOL    HW226169   2.160   1.456   8.112  1.2717 -1.2914  0.7917
 4845SOL     OW26170   1.679   3.426   3.837 -0.2424  0.4735 -0.4733
 4845SOL    HW126171   1.695   3.477   3.758  2.7152 -0.5460 -0.5493
 4845SOL    HW226172   1.693   3.493   3.904  1.5339  1.0325 -1.3898
 4846SOL     OW26173   0.805   1.385   5.533 -0.2729  0.1944 -0.2201
 4846SOL    HW126174   0.867   1.443   5.489 -1.4234  1.0811 -0.6452
 4846SOL    HW226175   0.787   1.432   5.615 -0.9270  1.5411 -1.1346
 4847SOL     OW26176   3.536   3.780   1.167  0.5591  0.0972  0.1757
 4847SOL    HW126177   3.516   3.755   1.258  1.1546 -0.2675  0.2040
 4847SOL    HW226178   3.535   3.876   1.166 -1.0468  0.1350  3.4159
 4848SOL     OW26179   3.765   1.323  15.357 -0.8349 -0.3437  0.1218
 4848SOL    HW126180   3.855   1.355  15.363  0.3215 -3.2409 -1.8540
 4848SOL    HW226181   3.782   1.230  15.345 -0.3225 -0.1571 -0.6217
 4849SOL     OW26182   0.170   3.324  13.739 -0.4073 -0.2005  0.1049
 4849SOL    HW126183   0.151   3.259  13.806  1.0572  1.4917  2.1649
 4849SOL    HW226184   0.077   3.346  13.731  0.1603  2.2876  0.5251
 4850SOL     OW26185   0.371   2.135   5.283 -0.3563  0.9277  0.5914
 4850SOL    HW126186   0.301   2.075   5.257 -2.1747  2.2516  2.4505
 4850SOL    HW226187   0.442   2.112   5.224 -0.6090  0.6901  0.3826
 4851SOL     OW26188   2.775   4.406  14.837 -0.6610 -0.2572 -0.3113
 4851SOL    HW126189   2.842   4.455  14.791 -1.1138  0.3053 -0.3684
 4851SOL    HW226190   2.777   4.320  14.796 -0.6162 -0.5848  0.3625
 4852SOL     OW26191   2.756   2.834   2.264  0.3231 -0.0756  0.2776
 4852SOL    HW126192   2.770   2.888   2.185  1.0861  0.3603  0.7094
 4852SOL    HW226193   2.846   2.838   2.296 -0.7540 -2.0352  3.4416
 4853SOL     OW26194   0.407   2.523   7.662 -0.2599  0.0593 -0.3431
 4853SOL    HW126195   0.453   2.570   7.591 -1.2249 -0.6365 -1.4291
 4853SOL    HW226196   0.466   2.534   7.736 -0.3602  0.8239 -0.3679
 4854SOL     OW26197   1.554   1.811   6.099 -0.5405  0.0707 -0.2643
 4854SOL    HW126198   1.468   1.781   6.128 -1.1803  1.3435 -0.8495
 4854SOL    HW226199   1.531   1.842   6.012  1.6041  2.3590 -0.0263
 4855SOL     OW26200   4.323   1.255  10.502 -0.8752 -0.7207  0.3388
 4855SOL    HW126201   4.335   1.334  10.450  1.1618 -0.8825  0.5603
 4855SOL    HW226202   4.250   1.211  10.459 -0.4826 -0.0385 -1.0149
 4856SOL     OW26203   2.181   2.637  11.774  0.0802 -0.5533  0.3936
 4856SOL    HW126204   2.171   2.542  11.785 -1.3524 -0.3864  0.4680
 4856SOL    HW226205   2.095   2.670  11.801 -0.9214 -0.6130 -2.7263
 4857SOL     OW26206   1.277   3.742  11.481 -0.0351 -0.5467  0.1689
 4857SOL    HW126207   1.305   3.738  11.572  0.5305  1.7028  0.0898
 4857SOL    HW226208   1.334   3.799  11.429 -1.2676  1.0270  0.5804
 4858SOL     OW26209   4.477   4.263   6.744 -0.5864 -0.0980 -0.4114
 4858SOL    HW126210   4.464   4.322   6.670 -2.4603 -0.5844 -0.4778
 4858SOL    HW226211   4.573   4.263   6.746 -0.6012  2.3588  0.3461
 4859SOL     OW26212   3.443   2.531   6.417 -0.4804  0.0386 -0.2282
 4859SOL    HW126213   3.384   2.595   6.377 -0.2545  1.1998  1.3003
 4859SOL    HW226214   3.509   2.533   6.348 -0.9933  0.9641 -0.6936
 4860SOL     OW26215   1.136   0.769  12.753  0.6416  0.5074  0.0450
 4860SOL    HW126216   1.143   0.675  12.771  0.9182  0.8517  1.7722
 4860SOL    HW226217   1.187   0.795  12.830  0.4414 -0.3022  0.4573
 4861SOL     OW26218   3.402   0.652   6.762  0.2501  0.6029  0.4381
 4861SOL    HW126219   3.334   0.664   6.696 -0.4806  1.2147  1.2906
 4861SOL    HW226220   3.477   0.620   6.713 -0.3466 -1.9658  1.1981
 4862SOL     OW26221   2.224   1.267   8.886 -0.3582  0.5787 -0.1036
 4862SOL    HW126222   2.319   1.271   8.870  0.3367  0.6623  4.0386
 4862SOL    HW226223   2.225   1.219   8.969 -1.6764 -2.6582 -1.9542
 4863SOL     OW26224   1.466   0.225   6.016  0.3339  0.2121 -0.4589
 4863SOL    HW126225   1.376   0.195   6.028 -0.2056  2.1042  0.1708
 4863SOL    HW226226   1.458   0.320   6.008 -0.7977  0.3236  1.9254
 4864SOL     OW26227   3.335   1.975  12.326 -0.0702 -0.3338  0.5234
 4864SOL    HW126228   3.290   2.033  12.388 -2.4037 -1.3256 -0.2572
 4864SOL    HW226229   3.413   2.027  12.307 -1.2288  1.6046  1.1465
 4865SOL     OW26230   1.456   1.661   3.785  0.5635  0.2560  0.1411
 4865SOL    HW126231   1.429   1.733   3.728  0.0360  0.2797  0.4265
 4865SOL    HW226232   1.399   1.682   3.859  0.5697 -0.4559  0.3456
 4866SOL     OW26233   2.960   4.609   4.196  0.2948 -0.3994  0.9755
 4866SOL    HW126234   2.906   4.597   4.274  0.2994  0.8228  1.1662
 4866SOL    HW226235   2.909   4.554   4.137  1.4352  0.3610 -0.7018
 4867SOL     OW26236   4.605   0.115   8.206 -0.4225 -1.4175 -0.4879
 4867SOL    HW126237   4.648   0.049   8.152 -0.2549  0.2133 -2.3597
 4867SOL    HW226238   4.525   0.073   8.236  0.1961 -2.1398  0.1561
 4868SOL     OW26239   4.673   0.851  11.685 -0.8981 -0.2015 -0.2769
 4868SOL    HW126240   4.645   0.811  11.767 -0.8838 -0.5212 -0.4284
 4868SOL    HW226241   4.589   0.879  11.648  0.0671  1.4351 -1.2534
 4869SOL     OW26242   0.717   0.001   4.415  0.1825 -0.4295 -0.0552
 4869SOL    HW126243   0.788   0.001   4.351  0.4986 -0.2250  0.2970
 4869SOL    HW226244   0.663   0.054   4.356  1.9945  1.0516 -0.3769
 4870SOL     OW26245   0.666   0.779  13.805 -0.5973  0.5349 -0.3835
 4870SOL    HW126246   0.654   0.839  13.879  2.7342  0.1774  0.4672
 4870SOL    HW226247   0.608   0.818  13.740 -2.7103 -3.2788 -0.8179
 4871SOL     OW26248   4.684   3.739  11.499 -0.6818  0.1262 -0.1570
 4871SOL    HW126249   4.635   3.657  11.503  1.0409 -0.8045  1.6669
 4871SOL    HW226250   0.014   3.711  11.557 -0.8751 -0.5325 -0.2435
 4872SOL     OW26251   4.004   4.588   4.195 -0.1356 -0.4419 -0.0184
 4872SOL    HW126252   3.927   4.573   4.140  0.0623  1.0926 -0.7202
 4872SOL    HW226253   3.979   4.676   4.220  2.0336  0.2272 -0.2099
 4873SOL     OW26254   4.165   1.988   4.586 -0.3376 -0.1225 -0.7488
 4873SOL    HW126255   4.200   1.911   4.542  3.1726  0.4139  1.0632
 4873SOL    HW226256   4.230   1.987   4.656 -0.3294 -2.1215 -0.7806
 4874SOL     OW26257   1.556   4.564   0.614 -0.7813 -0.0789  0.4794
 4874SOL    HW126258   1.637   4.597   0.576 -0.1096 -2.8140 -0.4347
 4874SOL    HW226259   1.585   4.582   0.703 -1.7393 -0.2649  0.8332
 4875SOL     OW26260   2.398   0.652   9.248 -0.5455 -0.2767 -0.0243
 4875SOL    HW126261   2.421   0.684   9.161 -1.5423 -2.8106 -1.2249
 4875SOL    HW226262   2.305   0.671   9.255 -0.5589 -0.8642  1.3642
 4876SOL     OW26263   1.866   1.983   6.657  0.0759  0.7841 -0.0340
 4876SOL    HW126264   1.873   1.958   6.565  1.7973 -0.8148  0.5420
 4876SOL    HW226265   1.787   2.035   6.673 -0.2877  0.0671  0.4898
 4877SOL     OW26266   3.820   0.519   6.481 -0.0987 -0.5581 -0.4868
 4877SOL    HW126267   3.879   0.444   6.488 -0.6718 -1.1805 -2.3984
 4877SOL    HW226268   3.868   0.590   6.524  2.1996 -2.1703 -0.4183
 4878SOL     OW26269   1.294   0.586   0.217 -0.3931  0.3858  0.2486
 4878SOL    HW126270   1.272   0.496   0.196  0.5025 -0.0790  1.3605
 4878SOL    HW226271   1.357   0.578   0.289 -1.2674 -1.0616  0.8400
 4879SOL     OW26272   0.443   1.016   6.702 -0.1921 -0.2077  0.3332
 4879SOL    HW126273   0.491   1.078   6.647  1.0122 -0.0114  1.6204
 4879SOL    HW226274   0.463   0.929   6.668 -1.4073 -0.0594 -0.7966
 4880SOL     OW26275   3.112   1.552   9.469  0.0258 -0.0729  0.0203
 4880SOL    HW126276   3.074   1.640   9.470  0.6725  0.2018  0.6917
 4880SOL    HW226277   3.088   1.520   9.382  1.5746  0.2365 -0.5199
 4881SOL     OW26278   1.286   3.134   6.366 -0.2226 -0.4928 -0.3029
 4881SOL    HW126279   1.376   3.135   6.333 -0.4291  1.6320 -0.7592
 4881SOL    HW226280   1.239   3.131   6.282 -2.0956  2.5988  0.6684
 4882SOL     OW26281   0.448   1.827   2.174 -0.5134 -0.0565  0.9166
 4882SOL    HW126282   0.356   1.846   2.157 -1.0228 -1.0397  2.5840
 4882SOL    HW226283   0.484   1.904   2.218  1.6934 -0.7420  0.3341
 4883SOL     OW26284   0.215   3.685  14.886 -0.0656 -0.5496 -0.2111
 4883SOL    HW126285   0.293   3.739  14.893 -0.7199  0.6077 -1.8581
 4883SOL    HW226286   0.222   3.626  14.961 -0.3141  0.9688  1.0118
 4884SOL     OW26287   2.533   2.325  17.126 -0.6436  0.9197 -0.3258
 4884SOL    HW126288   2.626   2.305  17.113 -0.9026 -0.0109 -0.8151
 4884SOL    HW226289   2.496   2.336  17.038  0.0211  1.9195 -0.4832
 4885SOL     OW26290   0.806   2.928  11.055  0.4268  0.3312 -1.0509
 4885SOL    HW126291   0.854   2.864  11.109  0.7563 -1.4816 -3.4569
 4885SOL    HW226292   0.729   2.949  11.107  0.3258 -0.3120 -0.9361
 4886SOL     OW26293   1.507   4.368   8.081 -0.5217 -0.4630 -0.3284
 4886SOL    HW126294   1.503   4.435   8.012 -3.5800  2.2244  2.4206
 4886SOL    HW226295   1.602   4.358   8.088 -0.7269 -3.2755 -1.7974
 4887SOL     OW26296   3.544   0.434   5.126  0.1363 -0.3429 -0.1083
 4887SOL    HW126297   3.623   0.480   5.097 -0.0537 -0.2391 -0.4662
 4887SOL    HW226298   3.579   0.346   5.113  0.5164 -0.3304  0.8451
 4888SOL     OW26299   1.693   3.169   7.297 -0.0060  0.2654 -0.5568
 4888SOL    HW126300   1.618   3.225   7.276 -0.3345  0.3442  0.7972
 4888SOL    HW226301   1.749   3.238   7.333  0.3017 -0.6187  0.6888
 4889SOL     OW26302   3.280   2.435   1.855  0.8689  0.2172 -0.1766
 4889SOL    HW126303   3.190   2.443   1.885  1.3248  1.9713  0.7160
 4889SOL    HW226304   3.267   2.374   1.782 -1.3548 -1.0480  1.3117
 4890SOL     OW26305   4.581   1.897   7.043  0.1797  0.1240  0.3786
 4890SOL    HW126306   4.582   1.957   7.117 -0.2341 -2.7976  2.7700
 4890SOL    HW226307   4.517   1.941   6.988  1.5759  1.3809 -0.2398
 4891SOL     OW26308   3.635   1.808   5.663 -0.2772  0.4953  0.2907
 4891SOL    HW126309   3.586   1.858   5.598 -1.8714 -0.9719  0.3630
 4891SOL    HW226310   3.562   1.784   5.720 -0.6821  0.8404 -0.0814
 4892SOL     OW26311   1.207   1.842   3.411 -0.1530 -0.1934 -0.2246
 4892SOL    HW126312   1.196   1.920   3.356  0.3574 -2.1212 -3.0545
 4892SOL    HW226313   1.193   1.881   3.498 -1.9943 -0.1411 -0.5462
 4893SOL     OW26314   2.489   3.989   5.563 -0.0330  0.1435  0.4037
 4893SOL    HW126315   2.407   3.959   5.603 -1.0815  0.0146 -1.8749
 4893SOL    HW226316   2.552   4.008   5.632 -1.2199 -0.8852  1.7728
 4894SOL     OW26317   3.523   0.673   9.096  0.3614  0.2065  0.4538
 4894SOL    HW126318   3.546   0.742   9.033  2.3516  0.2708  1.2566
 4894SOL    HW226319   3.483   0.605   9.043 -0.5381  0.8282  0.3417
 4895SOL     OW26320   1.079   2.719   1.600 -0.9519  0.3670  0.3630
 4895SOL    HW126321   1.098   2.683   1.686  0.7323 -0.9782 -0.5702
 4895SOL    HW226322   1.158   2.708   1.548  0.2036  0.6729  2.0627
 4896SOL     OW26323   3.206   0.525   2.205 -0.1765 -0.6904  0.4347
 4896SOL    HW126324   3.171   0.612   2.225  0.6847  0.5680 -3.4190
 4896SOL    HW226325   3.185   0.471   2.281 -0.3620 -1.2451 -0.0128
 4897SOL     OW26326   0.122   1.231  11.072  0.0516  0.0481  0.2099
 4897SOL    HW126327   0.198   1.208  11.019 -0.8788 -4.0596  0.6492
 4897SOL    HW226328   0.088   1.307  11.024  1.9309  0.5213 -0.3648
 4898SOL     OW26329   3.203   3.603  15.189  0.0597 -0.7584  0.3081
 4898SOL    HW126330   3.140   3.647  15.131  1.5416  2.0981  0.8608
 4898SOL    HW226331   3.148   3.553  15.249 -1.5300  0.5641 -0.0327
 4899SOL     OW26332   0.803   2.187   3.339  0.5576  0.4804 -0.5655
 4899SOL    HW126333   0.795   2.259   3.400  3.4017 -0.2524  0.6460
 4899SOL    HW226334   0.755   2.226   3.266  0.4674 -1.6974 -1.6861
 4900SOL     OW26335   1.504   0.926   6.484 -0.8146 -0.0060  0.2517
 4900SOL    HW126336   1.559   0.864   6.531  1.3773  2.6564  1.2115
 4900SOL    HW226337   1.558   1.005   6.488 -1.4771  0.4477  0.2217
 4901SOL     OW26338   3.431   2.194  16.475 -0.3201 -0.5426 -0.4958
 4901SOL    HW126339   3.476   2.238  16.402 -1.0273 -1.5377 -1.5414
 4901SOL    HW226340   3.370   2.139  16.426 -0.3042 -1.3341  0.3791
 4902SOL     OW26341   1.175   0.729   2.653 -0.2585  0.4688 -0.0688
 4902SOL    HW126342   1.159   0.638   2.627  0.1146  0.5500 -0.5930
 4902SOL    HW226343   1.087   0.754   2.681 -0.3209 -0.8596  0.9192
 4903SOL     OW26344   0.515   0.625   2.123  0.0602 -0.0062  0.0215
 4903SOL    HW126345   0.462   0.553   2.089 -4.1219  2.5981  1.0607
 4903SOL    HW226346   0.601   0.586   2.106 -0.0395 -0.4656  0.5486
 4904SOL     OW26347   1.137   1.390   7.831 -0.3099  0.3166 -0.1307
 4904SOL    HW126348   1.157   1.469   7.882  0.6970  0.8648 -1.3823
 4904SOL    HW226349   1.181   1.409   7.748  0.1612  0.0965  0.0678
 4905SOL     OW26350   1.302   3.078   1.032  0.0559 -0.6636 -0.5190
 4905SOL    HW126351   1.257   3.030   0.962 -1.4005  0.7671 -0.5741
 4905SOL    HW226352   1.231   3.129   1.072  0.3733  0.1870 -1.0448
 4906SOL     OW26353   0.789   0.561   1.689 -0.2852 -0.7616 -0.3166
 4906SOL    HW126354   0.733   0.636   1.709  1.4063  0.4671 -0.1839
 4906SOL    HW226355   0.872   0.607   1.683 -0.7719  0.5580  2.8093
 4907SOL     OW26356   0.754   0.230   4.598 -0.1523  0.2132  0.0763
 4907SOL    HW126357   0.803   0.277   4.531  1.3457 -2.2734 -0.5627
 4907SOL    HW226358   0.744   0.145   4.555  1.7725  1.0720 -2.0607
 4908SOL     OW26359   0.113   3.116   7.799 -0.0939  0.2334  0.1576
 4908SOL    HW126360   0.056   3.190   7.779  0.7056  1.4178  2.2201
 4908SOL    HW226361   0.063   3.057   7.856  1.4167  0.6621  1.9220
 4909SOL     OW26362   2.487   1.729  14.883 -0.1875  0.0445 -0.2072
 4909SOL    HW126363   2.398   1.712  14.915 -0.2296 -0.7397 -0.7191
 4909SOL    HW226364   2.517   1.796  14.944 -2.7761 -0.2462  1.3878
 4910SOL     OW26365   3.037   0.266   6.619  0.3000 -0.2616 -0.2090
 4910SOL    HW126366   3.035   0.170   6.623  1.6216 -0.2238  1.5031
 4910SOL    HW226367   2.943   0.285   6.615  0.9710  2.5510 -1.9542
 4911SOL     OW26368   3.038   0.005   8.848  0.4935 -0.4475  0.0815
 4911SOL    HW126369   3.048   4.731   8.942  0.1861 -3.1607 -0.2907
 4911SOL    HW226370   3.036   0.101   8.849  1.8090 -0.4222 -0.0043
 4912SOL     OW26371   0.386   0.710   4.799  0.3449  0.0272 -0.3648
 4912SOL    HW126372   0.298   0.709   4.835  0.4770  0.4670 -0.0224
 4912SOL    HW226373   0.425   0.732   4.884  1.9734  1.7283 -1.5414
 4913SOL     OW26374   2.181   0.240  17.196 -0.4253  0.1455  0.4272
 4913SOL    HW126375   2.218   0.166  17.245 -0.1410  0.2319  0.3426
 4913SOL    HW226376   2.152   0.304  17.261  0.0219  0.4804  0.2989
 4914SOL     OW26377   2.700   3.020  12.588  0.3863  0.0501  0.1307
 4914SOL    HW126378   2.669   2.935  12.620 -2.2383  0.9623 -0.0195
 4914SOL    HW226379   2.627   3.077  12.612 -0.3868 -1.0702  0.4293
 4915SOL     OW26380   3.229   2.046   5.592  0.0488  0.3054 -0.0677
 4915SOL    HW126381   3.186   1.962   5.609  0.6886 -0.2012 -0.9419
 4915SOL    HW226382   3.176   2.067   5.515 -0.8003  2.7825  1.1847
 4916SOL     OW26383   4.721   1.626   8.104 -0.0521  0.0764  0.2832
 4916SOL    HW126384   0.035   1.691   8.149 -0.9494  0.5704  0.6640
 4916SOL    HW226385   4.722   1.658   8.013 -0.5227 -1.9066 -0.4006
 4917SOL     OW26386   2.983   3.095  10.823  0.4098  0.1573  0.1377
 4917SOL    HW126387   2.927   3.172  10.814  0.3028 -0.0222 -0.6932
 4917SOL    HW226388   3.067   3.134  10.796  0.5601  0.0681  0.4721
 4918SOL     OW26389   4.731   3.217   1.599 -0.4654 -0.0591 -0.3291
 4918SOL    HW126390   0.068   3.256   1.641 -0.3525 -0.2107 -0.3930
 4918SOL    HW226391   0.036   3.159   1.538  0.3207  1.4939 -1.2349
 4919SOL     OW26392   4.317   3.151   4.959 -0.1885  0.1356 -0.3127
 4919SOL    HW126393   4.263   3.148   5.038  1.0670  1.9796  0.6088
 4919SOL    HW226394   4.265   3.215   4.910  1.3315  1.9758  0.4648
 4920SOL     OW26395   2.331   1.217   4.289  0.2248 -0.3854  1.3703
 4920SOL    HW126396   2.413   1.192   4.245  0.8497  1.3995  1.5063
 4920SOL    HW226397   2.338   1.211   4.384 -0.9585 -2.3416  1.3134
 4921SOL     OW26398   1.856   2.655  16.028  0.1090  0.2839  0.2288
 4921SOL    HW126399   1.804   2.674  15.949  0.5900  2.3546  0.3973
 4921SOL    HW226400   1.939   2.692  15.998  0.2683  0.8573  1.3728
 4922SOL     OW26401   1.897   4.284  10.099 -0.0633  0.1439 -0.4823
 4922SOL    HW126402   1.890   4.267  10.005 -3.0199 -0.4602 -0.1607
 4922SOL    HW226403   1.873   4.198  10.135  0.9708  0.5665  1.2175
 4923SOL     OW26404   4.161   4.416   2.880 -0.8818 -0.1084  0.5736
 4923SOL    HW126405   4.167   4.434   2.787 -2.7972 -1.3995  0.1861
 4923SOL    HW226406   4.070   4.435   2.905 -1.2269 -1.0219  0.0198
 4924SOL     OW26407   0.388   0.687   8.424 -0.3766  0.4964  0.1670
 4924SOL    HW126408   0.350   0.727   8.346  0.1066 -2.4415 -1.5749
 4924SOL    HW226409   0.384   0.594   8.405 -0.9058  0.4287  0.6127
 4925SOL     OW26410   1.100   1.837   8.188  0.6915  0.1029  0.2937
 4925SOL    HW126411   1.044   1.825   8.265 -1.1768  2.6148 -0.6881
 4925SOL    HW226412   1.135   1.925   8.196  0.1182  0.1403  2.3060
 4926SOL     OW26413   1.522   0.939   2.040 -0.5234 -0.2538  0.1192
 4926SOL    HW126414   1.553   0.930   2.130  0.1254 -1.3811 -0.2179
 4926SOL    HW226415   1.429   0.920   2.056 -1.3160  2.0156 -1.7247
 4927SOL     OW26416   1.434   1.154   5.575 -0.4156 -0.5517 -0.0546
 4927SOL    HW126417   1.454   1.183   5.664  0.9211 -0.3787 -0.4048
 4927SOL    HW226418   1.339   1.164   5.570 -0.6682 -2.0371  1.9521
 4928SOL     OW26419   3.728   3.202   0.286 -0.5950 -0.3829 -0.1584
 4928SOL    HW126420   3.781   3.272   0.325  0.6486 -1.6519  0.4091
 4928SOL    HW226421   3.694   3.240   0.205  0.3144 -2.8283 -1.6847
 4929SOL     OW26422   4.573   4.304  15.856 -0.2454 -0.3313 -0.0569
 4929SOL    HW126423   4.621   4.363  15.797  2.1109 -4.1575 -2.0146
 4929SOL    HW226424   4.542   4.355  15.931  0.2528  0.7841 -0.5960
 4930SOL     OW26425   4.329   1.626   4.236 -0.2000  0.3402  0.2187
 4930SOL    HW126426   4.278   1.672   4.170 -1.4659  1.0901  1.7051
 4930SOL    HW226427   4.396   1.574   4.192 -0.0013  0.6213  0.1896
 4931SOL     OW26428   1.966   3.894  16.500 -0.3283 -0.0443  0.1349
 4931SOL    HW126429   2.010   3.827  16.553 -1.4935 -0.0188  1.1279
 4931SOL    HW226430   1.886   3.845  16.485  0.9802 -1.7406 -1.2720
 4932SOL     OW26431   4.360   4.714   7.837  0.4357  0.0922  0.0164
 4932SOL    HW126432   4.289   4.653   7.853 -1.1816  1.6879 -1.0980
 4932SOL    HW226433   4.319   0.050   7.876  0.6842  0.6701 -0.8500
 4933SOL     OW26434   3.733   3.923   7.860  0.4414  0.1735  0.0658
 4933SOL    HW126435   3.752   3.835   7.830  2.3395 -0.0368  1.8233
 4933SOL    HW226436   3.705   3.911   7.951  2.9655 -2.3530  0.4988
 4934SOL     OW26437   2.296   4.359   8.594  0.1225 -0.0687 -0.2590
 4934SOL    HW126438   2.387   4.385   8.607  0.3811 -0.7638 -0.6386
 4934SOL    HW226439   2.300   4.265   8.616  1.9361  0.0218 -0.2295
 4935SOL     OW26440   1.606   0.092   7.193  0.2928  0.2191  0.0633
 4935SOL    HW126441   1.627   0.100   7.100 -0.5565  1.9169  0.0168
 4935SOL    HW226442   1.532   0.153   7.197  0.7326  0.6848  1.2689
 4936SOL     OW26443   0.965   1.868   2.655 -0.3375  0.1969 -0.1491
 4936SOL    HW126444   0.931   1.945   2.700 -1.9303 -0.0277 -0.9640
 4936SOL    HW226445   1.058   1.893   2.660 -0.6739  1.4692 -0.0390
 4937SOL     OW26446   3.958   1.685   2.652  0.1264  0.6321 -0.0916
 4937SOL    HW126447   4.010   1.756   2.691  0.1381  1.7996 -2.2570
 4937SOL    HW226448   3.884   1.727   2.609 -1.3206 -0.7321  1.0894
 4938SOL     OW26449   3.624   1.903   5.032  0.6622  0.2641 -0.2686
 4938SOL    HW126450   3.573   1.967   4.982  1.6866  2.7873  1.9024
 4938SOL    HW226451   3.647   1.951   5.111  0.8485  0.7797 -0.6350
 4939SOL     OW26452   4.576   4.317   2.415 -0.2849  0.0580  0.2249
 4939SOL    HW126453   4.505   4.364   2.371 -0.3828 -2.0343 -1.8346
 4939SOL    HW226454   4.562   4.370   2.494 -0.7500  1.6302 -0.9326
 4940SOL     OW26455   3.080   4.361   6.688 -0.0417 -0.5562 -0.5178
 4940SOL    HW126456   3.008   4.370   6.750 -0.8918 -0.0608 -1.5786
 4940SOL    HW226457   3.088   4.265   6.682 -0.9669 -0.6795  0.1530
 4941SOL     OW26458   0.863   1.649   1.338  0.2743 -0.2784  0.1153
 4941SOL    HW126459   0.954   1.623   1.353  0.1621 -0.1748  0.9507
 4941SOL    HW226460   0.871   1.744   1.347 -3.0532 -0.0738  0.9861
 4942SOL     OW26461   0.482   3.180   1.579  0.0829 -0.2188  1.1043
 4942SOL    HW126462   0.541   3.255   1.577  0.3080 -0.4134  0.3266
 4942SOL    HW226463   0.525   3.109   1.626  0.1613  0.1788  1.6317
 4943SOL     OW26464   0.913   0.747   1.983 -0.0677  0.4004 -0.1020
 4943SOL    HW126465   0.860   0.780   2.055  2.4341  0.7200  1.6112
 4943SOL    HW226466   0.972   0.822   1.972 -0.2649  0.3110 -1.8694
 4944SOL     OW26467   2.302   2.829   2.471  0.2051  0.4224  0.3474
 4944SOL    HW126468   2.359   2.819   2.548 -1.1469 -0.1285  1.2941
 4944SOL    HW226469   2.264   2.743   2.458  0.1232  0.6745 -1.0845
 4945SOL     OW26470   3.208   3.729   7.271 -0.1375 -0.3875  0.3846
 4945SOL    HW126471   3.209   3.671   7.195 -0.0011 -1.4648  1.1872
 4945SOL    HW226472   3.176   3.672   7.341  0.1981 -0.9566  0.0749
 4946SOL     OW26473   1.432   3.167  17.751  0.4094  0.1846  0.0561
 4946SOL    HW126474   1.344   3.204  17.748  0.7919  1.0950  0.2260
 4946SOL    HW226475   1.455   3.175   0.085 -0.4817 -0.0719  0.2971
 4947SOL     OW26476   1.259   3.009   1.954  0.2859  0.7942  0.6486
 4947SOL    HW126477   1.291   3.006   2.045 -0.2776 -0.2116  0.8050
 4947SOL    HW226478   1.223   3.098   1.950 -1.3104  0.1646  1.1929
 4948SOL     OW26479   2.605   3.565   7.159 -0.4474 -0.0169  0.0507
 4948SOL    HW126480   2.540   3.587   7.227 -1.0513 -1.6265 -0.0051
 4948SOL    HW226481   2.687   3.578   7.206  0.7065 -0.9447 -1.7193
 4949SOL     OW26482   3.371   4.136  10.922  0.2573 -0.1636 -0.5458
 4949SOL    HW126483   3.429   4.061  10.936 -1.1511 -1.0842  0.2944
 4949SOL    HW226484   3.299   4.110  10.863  0.2399  1.6444 -1.3237
 4950SOL     OW26485   4.521   3.221   4.121  0.2194  0.5041 -0.2679
 4950SOL    HW126486   4.587   3.162   4.158  0.4300  0.4692 -0.7004
 4950SOL    HW226487   4.520   3.289   4.188  1.2421  0.8345 -0.5986
 4951SOL     OW26488   2.269   4.730   5.836  0.2992  0.1987 -0.2330
 4951SOL    HW126489   2.251   4.663   5.903  0.7857 -0.3630 -0.6618
 4951SOL    HW226490   2.186   4.736   5.790 -0.0032  0.3885  0.3299
 4952SOL     OW26491   0.010   4.030   0.883  0.3126  0.1584 -0.1415
 4952SOL    HW126492   4.656   4.014   0.895  0.5069 -0.4558  0.5929
 4952SOL    HW226493   0.027   4.051   0.975  1.8073  0.6262 -0.5240
 4953SOL     OW26494   0.621   2.182  16.090 -0.6224 -0.8621 -0.2325
 4953SOL    HW126495   0.561   2.256  16.089 -0.1067 -0.4581 -0.9439
 4953SOL    HW226496   0.636   2.180  16.185  0.1841 -2.8930 -0.4015
 4954SOL     OW26497   1.676   1.817   7.214  0.4410  0.0514 -0.2311
 4954SOL    HW126498   1.622   1.805   7.136 -0.2068 -0.3484  0.2785
 4954SOL    HW226499   1.740   1.871   7.168  0.1575  0.4022 -0.2193
 4955SOL     OW26500   4.695   2.672   8.094 -0.5451 -0.1617  0.2240
 4955SOL    HW126501   4.685   2.738   8.025  0.9586  0.2771  0.4282
 4955SOL    HW226502   0.038   2.630   8.069 -1.4942 -1.7708 -0.2131
 4956SOL     OW26503   4.048   1.849   8.316 -0.1917  0.1832 -0.0922
 4956SOL    HW126504   4.061   1.832   8.222 -0.6667  1.0492 -0.3148
 4956SOL    HW226505   3.962   1.891   8.314 -0.2575  0.0333 -0.4647
 4957SOL     OW26506   0.856   3.307  14.266 -0.3531  0.5156 -0.5002
 4957SOL    HW126507   0.931   3.298  14.326 -0.2135 -0.6123 -0.8495
 4957SOL    HW226508   0.819   3.220  14.255  1.9813 -0.5657  0.0941
 4958SOL     OW26509   2.975   4.661  12.259 -0.0307  0.3530 -0.3489
 4958SOL    HW126510   2.932   0.001  12.229 -0.7701  0.2750  0.4940
 4958SOL    HW226511   3.048   4.662  12.197 -1.7081  3.0139 -2.2599
 4959SOL     OW26512   1.055   0.238   5.530 -0.0428 -0.5434  0.0878
 4959SOL    HW126513   1.080   0.308   5.469 -0.3263 -1.9743 -1.6770
 4959SOL    HW226514   1.010   0.188   5.461 -2.2021  1.4095  0.0530
 4960SOL     OW26515   4.714   2.913   2.178  0.1629 -0.1101  0.2504
 4960SOL    HW126516   4.675   2.995   2.209  0.5659 -0.5807  1.9879
 4960SOL    HW226517   0.012   2.959   2.103 -2.8313 -0.3164 -1.3888
 4961SOL     OW26518   3.676   2.649   4.578 -0.3983  0.1867  0.2248
 4961SOL    HW126519   3.694   2.577   4.638  1.5301  0.0825 -0.4558
 4961SOL    HW226520   3.620   2.613   4.509 -0.6438 -2.8100  1.9905
 4962SOL     OW26521   0.836   4.287   1.000 -0.0563 -0.5774  0.1756
 4962SOL    HW126522   0.920   4.244   1.018  0.2569 -0.2163 -0.4460
 4962SOL    HW226523   0.856   4.309   0.909  1.5739 -2.8221 -0.0073
 4963SOL     OW26524   2.252   1.647  14.986  0.4548 -0.3275 -0.8370
 4963SOL    HW126525   2.236   1.699  15.065 -1.4186 -1.2677 -0.6208
 4963SOL    HW226526   2.164   1.627  14.957  0.7824 -0.2926 -1.8659
 4964SOL     OW26527   0.945   1.856  15.815 -0.2004  0.2145  0.0121
 4964SOL    HW126528   0.868   1.804  15.791 -0.6099  0.3735  0.9940
 4964SOL    HW226529   0.904   1.933  15.852 -1.1779 -0.0200 -0.5906
 4965SOL     OW26530   3.354   4.154   2.814  0.4534 -0.1054  0.5633
 4965SOL    HW126531   3.403   4.227   2.852 -0.9501  0.8147  0.6306
 4965SOL    HW226532   3.429   4.099   2.792  0.7148  1.0187 -1.3418
 4966SOL     OW26533   1.052   4.219   3.982 -0.1059  0.4426  0.1393
 4966SOL    HW126534   0.966   4.191   4.012  0.9269 -1.8885  1.0001
 4966SOL    HW226535   1.105   4.218   4.062  1.1988 -2.2310 -0.7417
 4967SOL     OW26536   4.631   1.303   9.123  0.4151  0.0084 -0.3855
 4967SOL    HW126537   4.720   1.278   9.098  0.0942 -1.7679  0.2530
 4967SOL    HW226538   4.650   1.392   9.151 -3.0336  0.6043  0.0842
 4968SOL     OW26539   3.986   3.101   7.754 -0.2239  0.3011 -0.5206
 4968SOL    HW126540   3.903   3.057   7.773  0.3842 -1.0325 -0.9091
 4968SOL    HW226541   4.038   3.079   7.831 -0.4300  2.3725  0.2015
 4969SOL     OW26542   1.970   4.282  10.617  0.4719 -0.3639 -0.4257
 4969SOL    HW126543   1.967   4.365  10.664 -2.0420  0.1166 -1.4202
 4969SOL    HW226544   1.981   4.220  10.689 -1.3219 -0.1481  0.0332
 4970SOL     OW26545   1.829   3.106   4.833  0.0560  0.7073 -0.0373
 4970SOL    HW126546   1.909   3.108   4.886  0.3743  1.2818 -0.5361
 4970SOL    HW226547   1.867   3.124   4.747 -0.2313 -1.2796 -0.5947
 4971SOL     OW26548   1.278   3.176   2.779  0.7584 -0.2939 -0.4169
 4971SOL    HW126549   1.266   3.089   2.817  1.9572 -0.8783 -1.3693
 4971SOL    HW226550   1.373   3.179   2.789  0.7443 -1.8488  0.2070
 4972SOL     OW26551   1.503   3.376   7.621  0.5206 -0.2762  0.5796
 4972SOL    HW126552   1.422   3.338   7.654  0.4531 -2.1275 -1.7397
 4972SOL    HW226553   1.477   3.400   7.533 -1.4670  0.3029  1.3379
 4973SOL     OW26554   0.163   1.527   6.437 -0.4236 -0.0623 -0.1898
 4973SOL    HW126555   0.171   1.498   6.528  0.3833  0.5681 -0.0594
 4973SOL    HW226556   0.078   1.493   6.410  0.7681 -1.9381 -1.5787
 4974SOL     OW26557   2.476   4.565   7.575  0.2451  0.0330  0.2362
 4974SOL    HW126558   2.507   4.506   7.507 -0.8434  1.7343 -1.7505
 4974SOL    HW226559   2.549   4.565   7.637  1.1884 -0.4966 -0.8661
 4975SOL     OW26560   4.477   2.512   4.299  0.4410  0.0524  0.1618
 4975SOL    HW126561   4.437   2.594   4.270  1.7823  0.1586 -1.3824
 4975SOL    HW226562   4.425   2.481   4.373  0.0467 -1.0885 -0.5762
 4976SOL     OW26563   1.805   4.336   0.022  0.7414 -0.0499 -0.1514
 4976SOL    HW126564   1.758   4.265  17.737  1.6702 -0.1050 -1.0617
 4976SOL    HW226565   1.834   4.287   0.099 -0.3573  1.3311  1.1389
 4977SOL     OW26566   2.635   3.205   3.611  0.0231 -0.6065 -0.1512
 4977SOL    HW126567   2.542   3.223   3.597  1.0150  2.0287 -3.3617
 4977SOL    HW226568   2.647   3.155   3.530 -1.0824  0.4724 -0.9845
 4978SOL     OW26569   1.255   0.231   8.485  0.2164 -0.0278  0.4701
 4978SOL    HW126570   1.175   0.261   8.527  0.1959  0.2501  0.2309
 4978SOL    HW226571   1.222   0.191   8.405  1.5562  0.4594 -0.3284
 4979SOL     OW26572   1.910   0.185   6.166 -0.2605 -0.3638  0.9107
 4979SOL    HW126573   1.879   0.255   6.223  1.3844  1.0460  0.0586
 4979SOL    HW226574   1.828   0.147   6.133  0.7079 -1.6711  0.0036
 4980SOL     OW26575   2.332   3.018  17.471 -0.3007 -0.5600 -0.1512
 4980SOL    HW126576   2.402   2.971  17.518  1.0240  1.2947 -0.2741
 4980SOL    HW226577   2.383   3.078  17.417 -0.3500 -0.6629 -0.3119
 4981SOL     OW26578   1.431   4.719   2.406 -0.1610  0.1494 -0.0429
 4981SOL    HW126579   1.362   4.678   2.458  0.7783 -0.8844  0.3920
 4981SOL    HW226580   1.507   4.664   2.424 -0.0088 -0.2612 -1.8883
 4982SOL     OW26581   1.966   0.770  17.018 -0.3983  0.5695 -0.6812
 4982SOL    HW126582   2.018   0.690  17.011 -2.5449 -1.1028  2.5159
 4982SOL    HW226583   2.027   0.838  17.044  0.1069 -0.6356  1.2678
 4983SOL     OW26584   2.986   3.335   5.091  0.1962 -0.1959  0.3459
 4983SOL    HW126585   2.951   3.277   5.159 -0.4491 -1.4345 -1.0617
 4983SOL    HW226586   2.951   3.296   5.012  3.0905 -1.6331 -0.2457
 4984SOL     OW26587   3.103   3.049   8.573 -0.0120 -0.2435 -0.2711
 4984SOL    HW126588   3.085   2.995   8.496  0.3498 -0.2548 -0.3483
 4984SOL    HW226589   3.020   3.094   8.591  1.1946  0.4160  3.7605
 4985SOL     OW26590   2.490   2.358   7.781  0.2888  0.2407 -0.4145
 4985SOL    HW126591   2.412   2.306   7.801  0.8720  0.0479  1.3747
 4985SOL    HW226592   2.456   2.437   7.739 -0.7245 -0.5773 -1.1284
 4986SOL     OW26593   0.470   3.514   3.056  0.7687  0.3558 -0.1903
 4986SOL    HW126594   0.553   3.467   3.052  0.8043  0.5873 -2.0463
 4986SOL    HW226595   0.438   3.494   3.145  0.4961  1.2381 -0.0903
 4987SOL     OW26596   0.266   2.694  11.574 -0.1676 -0.1798 -0.1447
 4987SOL    HW126597   0.338   2.649  11.617  0.1498 -0.9126 -1.4544
 4987SOL    HW226598   0.198   2.629  11.591 -1.5652  2.4203  4.3376
 4988SOL     OW26599   1.698   4.677   3.777  0.3160  0.1087  0.0076
 4988SOL    HW126600   1.755   4.637   3.712  0.0420  0.2044 -0.2886
 4988SOL    HW226601   1.764   4.716   3.835  0.8112 -0.3276 -0.2657
 4989SOL     OW26602   1.215   2.103  12.218  0.2621 -0.4107 -0.1273
 4989SOL    HW126603   1.205   2.029  12.278 -1.8134 -0.1802 -0.1696
 4989SOL    HW226604   1.304   2.135  12.230  0.0466  0.3859 -0.6229
 4990SOL     OW26605   0.104   1.958   5.346  0.0986 -0.3837  0.3134
 4990SOL    HW126606   0.118   1.863   5.340 -0.0715 -0.2451 -2.6945
 4990SOL    HW226607   0.157   1.983   5.421 -0.6646 -1.9110  1.3568
 4991SOL     OW26608   3.312   2.682   8.289 -0.0160 -0.6089  0.9882
 4991SOL    HW126609   3.368   2.699   8.364  0.6386 -0.1052  0.3776
 4991SOL    HW226610   3.366   2.729   8.225 -0.4649 -0.1494  0.9463
 4992SOL     OW26611   1.577   4.193   3.968 -0.0443 -0.2206 -0.9007
 4992SOL    HW126612   1.492   4.173   3.929 -0.1848 -1.1883 -0.1125
 4992SOL    HW226613   1.639   4.198   3.896  1.4739  0.5631  0.4626
 4993SOL     OW26614   1.478   2.214  17.281 -0.4269  0.3838 -0.3280
 4993SOL    HW126615   1.496   2.121  17.267 -2.2340  0.2609 -1.7371
 4993SOL    HW226616   1.518   2.251  17.203  2.7973  0.7947  1.5066
 4994SOL     OW26617   3.099   0.672   6.873 -0.3849  0.2314  0.1334
 4994SOL    HW126618   3.026   0.669   6.811  0.3420 -3.1733 -0.5296
 4994SOL    HW226619   3.111   0.767   6.864 -0.3201  0.1105 -1.0939
 4995SOL     OW26620   2.785   2.664  12.771  0.7681  0.0467  0.3719
 4995SOL    HW126621   2.765   2.625  12.856  0.4687  0.0674  0.3133
 4995SOL    HW226622   2.769   2.588  12.715 -1.4298  0.7877 -0.0061
 4996SOL     OW26623   3.911   1.056   3.500 -0.0296 -0.0688 -0.6678
 4996SOL    HW126624   3.989   1.103   3.531 -0.5938 -0.4199  1.3121
 4996SOL    HW226625   3.913   0.986   3.565  0.4377  0.5464 -0.0153
 4997SOL     OW26626   2.231   2.808   5.752  0.5707  0.4514 -0.3723
 4997SOL    HW126627   2.304   2.869   5.750  1.1077 -0.1496  1.0526
 4997SOL    HW226628   2.179   2.862   5.811  0.6233 -1.3893  1.3671
 4998SOL     OW26629   1.422   1.945  17.200 -0.3896 -0.4707 -0.1251
 4998SOL    HW126630   1.334   1.943  17.163  0.1490 -2.3822 -1.3383
 4998SOL    HW226631   1.470   1.990  17.130 -0.4902 -0.0545  0.0738
 4999SOL     OW26632   2.028   0.501   9.140  0.7191  0.3672  0.1434
 4999SOL    HW126633   1.980   0.429   9.180 -2.0677  2.7222  1.0706
 4999SOL    HW226634   1.992   0.508   9.051  2.9920 -0.4187 -0.8394
 5000SOL     OW26635   1.339   0.195   8.861 -0.2287  0.4077 -0.7637
 5000SOL    HW126636   1.255   0.150   8.855 -1.5773  2.8341 -0.0802
 5000SOL    HW226637   1.309   0.256   8.928  3.9970  1.2615  0.3305
 5001SOL     OW26638   2.321   2.024  15.224 -0.2899  0.2271  0.2347
 5001SOL    HW126639   2.381   2.002  15.294 -1.5930 -0.4747  1.1222
 5001SOL    HW226640   2.281   2.100  15.266  1.2974  1.5510 -0.6303
 5002SOL     OW26641   4.032   0.352   6.511  0.5501  0.5582 -0.3729
 5002SOL    HW126642   4.012   0.258   6.511 -3.8397  1.4932  0.1799
 5002SOL    HW226643   4.100   0.344   6.445  0.1627 -1.9986 -0.4742
 5003SOL     OW26644   0.895   1.230   5.778  0.0225  0.7648  0.1083
 5003SOL    HW126645   0.857   1.241   5.691  1.2388 -2.2354 -0.8086
 5003SOL    HW226646   0.821   1.186   5.818 -0.0692  0.4420 -0.4061
 5004SOL     OW26647   4.021   3.986   0.371  0.2444 -0.5380 -0.0322
 5004SOL    HW126648   3.978   3.944   0.297  0.6660  0.1864 -0.6854
 5004SOL    HW226649   4.055   4.058   0.319 -1.9273 -0.6331 -1.5899
 5005SOL     OW26650   1.097   4.624   9.887 -0.6054 -0.2253  0.3725
 5005SOL    HW126651   1.086   4.637   9.981  0.5986 -0.8358  0.5984
 5005SOL    HW226652   1.017   4.571   9.882 -0.6389 -0.0579 -0.8563
 5006SOL     OW26653   1.466   2.641  12.622  0.0410 -0.0702  0.0438
 5006SOL    HW126654   1.506   2.691  12.552 -0.7763  1.1564  0.4378
 5006SOL    HW226655   1.535   2.598  12.672  1.6778  0.8312 -1.4750
 5007SOL     OW26656   0.520   4.657   4.104 -0.3949  0.7930  0.3740
 5007SOL    HW126657   0.564   4.723   4.051 -4.2015  1.6837 -1.6944
 5007SOL    HW226658   0.428   4.660   4.078  0.0977  0.6404 -1.3315
 5008SOL     OW26659   0.703   1.389   6.779  0.6834 -0.0226  0.4828
 5008SOL    HW126660   0.669   1.437   6.855  0.6246 -0.1525  0.5371
 5008SOL    HW226661   0.745   1.453   6.722  0.2597 -0.4329 -0.2817
 5009SOL     OW26662   1.351   3.133  14.016 -0.1755 -0.1930 -0.1135
 5009SOL    HW126663   1.260   3.122  14.045 -0.2099 -0.6803 -0.4095
 5009SOL    HW226664   1.332   3.132  13.923  1.0987 -2.5502 -0.3540
 5010SOL     OW26665   0.192   0.229   8.464 -0.2787 -0.3772 -0.0916
 5010SOL    HW126666   0.228   0.243   8.552  2.0190 -0.0716 -1.0768
 5010SOL    HW226667   0.162   0.139   8.475  2.2812 -0.9005  2.5820
 5011SOL     OW26668   2.047   0.007   6.327 -0.4703 -0.1188 -0.0032
 5011SOL    HW126669   1.978   0.013   6.393  1.1366  1.6908  1.5076
 5011SOL    HW226670   2.001   0.055   6.257  0.3231  2.7702  1.4761
 5012SOL     OW26671   2.942   1.335   2.641 -0.6017 -0.2123  0.2956
 5012SOL    HW126672   3.017   1.357   2.696 -0.8090 -1.1623  0.9571
 5012SOL    HW226673   2.912   1.255   2.684  0.9278 -0.1580  1.4430
 5013SOL     OW26674   2.030   1.174   9.209 -0.9373  0.0488  0.1460
 5013SOL    HW126675   2.079   1.102   9.248 -0.0139  0.2693 -0.6067
 5013SOL    HW226676   1.977   1.133   9.141 -1.4365  1.1731 -0.1557
 5014SOL     OW26677   3.569   1.983  11.657  0.2751 -0.2706 -0.1636
 5014SOL    HW126678   3.495   1.964  11.715  1.5284 -0.1433  1.5005
 5014SOL    HW226679   3.527   2.029  11.585 -0.2318 -1.8298 -0.8641
 5015SOL     OW26680   3.169   4.377   5.396 -0.8409  0.0916 -0.1756
 5015SOL    HW126681   3.226   4.377   5.320  1.3600  2.3276  1.4566
 5015SOL    HW226682   3.226   4.420   5.460 -0.2078  0.1364 -0.7866
 5016SOL     OW26683   2.060   0.234   3.198  0.3311  0.2410  0.7431
 5016SOL    HW126684   1.981   0.257   3.248  0.5804  2.0574  0.3105
 5016SOL    HW226685   2.047   0.286   3.119 -0.6020 -0.4091  0.4720
 5017SOL     OW26686   4.602   2.915   6.126  0.2639  0.5382  0.5552
 5017SOL    HW126687   4.606   2.832   6.079  2.1023  1.4193 -0.8595
 5017SOL    HW226688   4.655   2.899   6.204 -0.4668  0.7914  1.0951
 5018SOL     OW26689   3.652   0.158   5.634  0.0641  0.1674  0.2055
 5018SOL    HW126690   3.600   0.084   5.666  0.1356 -0.4405 -1.0962
 5018SOL    HW226691   3.581   0.197   5.583 -0.5889 -1.9768 -0.5377
 5019SOL     OW26692   3.769   2.830   1.329 -0.3851 -0.1248  0.0055
 5019SOL    HW126693   3.818   2.848   1.249 -0.4618  0.6122  0.1248
 5019SOL    HW226694   3.809   2.882   1.399 -0.6024  0.2853 -0.1717
 5020SOL     OW26695   0.005   1.471  10.748  0.6502  0.4916  0.2489
 5020SOL    HW126696   0.086   1.514  10.719  0.6272 -0.9474 -2.0242
 5020SOL    HW226697   0.032   1.382  10.722 -1.4223  0.0079 -0.2228
 5021SOL     OW26698   1.151   0.634   2.026 -0.3220 -0.6679 -0.6118
 5021SOL    HW126699   1.153   0.566   2.093  0.4382  0.4330  0.4821
 5021SOL    HW226700   1.058   0.648   2.004 -1.6549 -2.7200  3.6628
 5022SOL     OW26701   3.873   2.209   3.540  0.5515 -0.3890  0.3109
 5022SOL    HW126702   3.833   2.145   3.482  2.8817 -1.2385 -0.3717
 5022SOL    HW226703   3.836   2.288   3.500 -1.9670 -2.5465 -1.5821
 5023SOL     OW26704   2.566   2.443  16.491 -0.1512  0.5933 -0.6310
 5023SOL    HW126705   2.552   2.513  16.427  1.3981  0.2407 -1.3342
 5023SOL    HW226706   2.560   2.362  16.442  0.4971 -0.6813  1.3914
 5024SOL     OW26707   3.682   3.099   6.667 -0.5081  0.2056 -0.4518
 5024SOL    HW126708   3.752   3.056   6.715  0.6316  1.4902 -0.9707
 5024SOL    HW226709   3.732   3.174   6.634  2.2561 -1.1872  0.6559
 5025SOL     OW26710   1.696   2.927  16.566 -0.1519 -0.2339  0.3870
 5025SOL    HW126711   1.693   2.891  16.477 -1.8277 -0.0551  0.3681
 5025SOL    HW226712   1.701   3.022  16.553 -1.2972 -0.2823 -0.4131
 5026SOL     OW26713   2.254   2.683  10.215  0.0137  0.6433 -0.1456
 5026SOL    HW126714   2.335   2.730  10.197  1.5502 -1.7444  0.6347
 5026SOL    HW226715   2.286   2.593  10.210 -0.6698  0.4420 -1.0054
 5027SOL     OW26716   3.456   0.816   2.826 -0.1755 -0.5844 -0.5089
 5027SOL    HW126717   3.364   0.795   2.835 -0.7907  2.8967  1.2728
 5027SOL    HW226718   3.460   0.899   2.873  1.9598  0.2621 -2.1249
 5028SOL     OW26719   2.724   1.179   8.608  0.7327 -0.2387  0.1732
 5028SOL    HW126720   2.659   1.110   8.597  0.7842 -0.1113 -0.9472
 5028SOL    HW226721   2.806   1.130   8.608  1.5914  1.1984 -1.0734
 5029SOL     OW26722   1.117   3.522   9.742 -0.7050 -0.3428  0.3968
 5029SOL    HW126723   1.107   3.604   9.791 -1.8837  0.1490 -0.6688
 5029SOL    HW226724   1.094   3.466   9.816 -3.2356  1.0840  0.6735
 5030SOL     OW26725   0.963   0.303   4.432 -0.0783  0.5551  0.2709
 5030SOL    HW126726   1.022   0.368   4.469  1.4695 -0.1604 -0.9730
 5030SOL    HW226727   1.000   0.227   4.477 -0.1825  0.5578  0.3630
 5031SOL     OW26728   1.000   4.458   1.298 -0.1006  0.6162  0.6873
 5031SOL    HW126729   0.936   4.478   1.229  2.6273  0.0360 -1.9957
 5031SOL    HW226730   1.074   4.517   1.283  0.1209 -0.1074 -1.0726
 5032SOL     OW26731   4.083   1.234   4.394  0.1771  0.5126 -0.1865
 5032SOL    HW126732   3.997   1.194   4.403  0.1041  0.4405 -1.2232
 5032SOL    HW226733   4.087   1.254   4.300  1.4884 -0.4615 -0.3495
 5033SOL     OW26734   0.595   1.197   6.565 -0.1400 -0.0850 -0.0679
 5033SOL    HW126735   0.599   1.246   6.647  1.1040 -0.0150 -0.1785
 5033SOL    HW226736   0.554   1.263   6.508  1.5704  0.1862 -0.9703
 5034SOL     OW26737   3.187   2.316   1.612  0.3991  0.0808 -0.5161
 5034SOL    HW126738   3.101   2.277   1.626  0.0191  1.8686  2.1484
 5034SOL    HW226739   3.225   2.246   1.558 -0.0664 -1.3005  0.9368
 5035SOL     OW26740   2.339   1.872  14.084  0.1006 -0.4881 -0.3635
 5035SOL    HW126741   2.402   1.819  14.036  1.1363  1.5472 -1.2178
 5035SOL    HW226742   2.404   1.927  14.127 -0.0903 -0.0299 -0.6580
 5036SOL     OW26743   4.616   3.795   7.137 -0.4137  0.1194 -0.0109
 5036SOL    HW126744   4.669   3.726   7.176  1.2048 -0.2797 -2.8816
 5036SOL    HW226745   4.685   3.861   7.147  1.1133 -1.3460 -0.9267
 5037SOL     OW26746   0.066   1.900   1.934  0.9958  0.3869 -0.1790
 5037SOL    HW126747   0.105   1.898   1.847  0.7226 -2.6470 -0.2399
 5037SOL    HW226748   0.097   1.819   1.973 -1.8382 -0.3580  0.5687
 5038SOL     OW26749   2.127   2.637   2.212  0.1198  0.2073  0.0919
 5038SOL    HW126750   2.181   2.707   2.175  0.1211  0.9407  1.4927
 5038SOL    HW226751   2.056   2.683   2.257  0.6347  1.3940 -0.2992
 5039SOL     OW26752   0.947   0.360   8.837  0.2180 -0.1611  0.1495
 5039SOL    HW126753   0.958   0.268   8.859 -4.9116 -0.6234  0.9682
 5039SOL    HW226754   0.914   0.382   8.924 -0.3097  0.4014 -0.1907
 5040SOL     OW26755   0.284   3.975   4.214 -0.0788 -0.2387 -0.1745
 5040SOL    HW126756   0.345   3.905   4.238  0.7825  0.9541  1.1570
 5040SOL    HW226757   0.345   4.047   4.200 -0.8251  1.0513  3.1862
 5041SOL     OW26758   0.230   0.824  11.722  0.2212  0.1757  0.0104
 5041SOL    HW126759   0.147   0.803  11.680  0.0780 -0.7972  0.7906
 5041SOL    HW226760   0.237   0.918  11.704 -1.1290  0.2019 -0.3650
 5042SOL     OW26761   2.342   4.300   4.961 -0.4401 -0.2152  0.1867
 5042SOL    HW126762   2.363   4.249   5.039  4.1769  0.0950 -0.8446
 5042SOL    HW226763   2.325   4.392   4.981  0.1115 -0.3813  1.4126
 5043SOL     OW26764   2.382   1.387  15.492 -0.3242  0.0780 -0.4462
 5043SOL    HW126765   2.339   1.454  15.545  0.5480  0.6182 -0.4190
 5043SOL    HW226766   2.347   1.411  15.406 -2.7118 -2.2478 -0.1265
 5044SOL     OW26767   1.973   1.095   4.657 -0.6803 -0.1166  0.6607
 5044SOL    HW126768   2.018   1.180   4.650 -0.4941 -0.1965  0.8967
 5044SOL    HW226769   2.047   1.036   4.668 -1.2695 -0.9577  0.0720
 5045SOL     OW26770   1.694   4.276   3.142 -0.1893 -0.3513 -0.1971
 5045SOL    HW126771   1.723   4.208   3.081 -0.2509  1.1617 -1.9217
 5045SOL    HW226772   1.686   4.232   3.227 -1.2932  0.8843  0.3366
 5046SOL     OW26773   1.639   2.777  17.268  0.4723 -0.0394 -0.0891
 5046SOL    HW126774   1.600   2.695  17.300 -1.7193  0.6783 -0.8795
 5046SOL    HW226775   1.625   2.763  17.174 -2.3182  1.1763  0.1451
 5047SOL     OW26776   3.887   3.767   8.676 -0.1656  0.4123 -0.2490
 5047SOL    HW126777   3.799   3.746   8.644 -0.4070  0.3766  0.4481
 5047SOL    HW226778   3.881   3.848   8.725  0.8236 -0.0928  0.7132
 5048SOL     OW26779   0.940   3.793  12.068 -0.1005  0.0154 -0.2738
 5048SOL    HW126780   1.015   3.849  12.086 -0.0792  0.2398 -1.0888
 5048SOL    HW226781   0.889   3.802  12.149  1.6583  0.5236  0.7862
 5049SOL     OW26782   3.583   4.687  16.825  0.0815  0.3989  0.2446
 5049SOL    HW126783   3.622   4.645  16.902 -1.4027  0.8417  1.2491
 5049SOL    HW226784   3.496   4.647  16.831  0.1780 -0.2385 -2.6689
 5050SOL     OW26785   2.674   1.646   0.673  0.6851 -0.4654 -0.5078
 5050SOL    HW126786   2.642   1.643   0.763 -1.0084  0.1320 -1.0929
 5050SOL    HW226787   2.671   1.741   0.663  0.1119 -0.5190 -0.8762
 5051SOL     OW26788   3.125   2.573   1.542  0.5969 -0.4266 -0.8072
 5051SOL    HW126789   3.179   2.639   1.586 -1.1575  0.1762  0.4178
 5051SOL    HW226790   3.177   2.494   1.554  1.2494  0.1718  0.3294
 5052SOL     OW26791   1.991   3.127   4.124 -0.4163 -0.0872 -0.0784
 5052SOL    HW126792   1.932   3.070   4.174  0.2903 -0.9289 -0.1906
 5052SOL    HW226793   1.933   3.143   4.050  0.3146  0.9145 -0.4332
 5053SOL     OW26794   0.741   2.377  14.454  0.2910  0.3812  0.2415
 5053SOL    HW126795   0.653   2.405  14.429  0.5406  1.8901  1.1200
 5053SOL    HW226796   0.717   2.303  14.510  3.1824  0.8869  2.1420
 5054SOL     OW26797   4.020   2.853   3.165 -0.5249 -0.5545  0.2912
 5054SOL    HW126798   4.034   2.948   3.173  0.9827 -0.6408 -1.3263
 5054SOL    HW226799   4.107   2.829   3.198 -0.0196  0.6639 -0.1290
 5055SOL     OW26800   3.973   1.344   7.593 -0.0471 -0.3832 -0.1333
 5055SOL    HW126801   3.967   1.402   7.517  4.7810  0.0665 -0.1549
 5055SOL    HW226802   3.939   1.264   7.553  0.5832 -1.0399  0.6561
 5056SOL     OW26803   1.691   1.511   5.616 -0.1161  0.3207  0.0965
 5056SOL    HW126804   1.692   1.429   5.566  0.9323  0.2456  0.2582
 5056SOL    HW226805   1.677   1.467   5.699 -2.9887  1.7053  0.3710
 5057SOL     OW26806   4.627   3.808   5.291  0.5216  0.3621 -0.2721
 5057SOL    HW126807   4.667   3.866   5.227  1.3761  1.7216  1.4928
 5057SOL    HW226808   4.556   3.866   5.320 -0.7277 -1.4043  0.2299
 5058SOL     OW26809   2.089   1.350   6.769  0.6342  0.2843  0.3253
 5058SOL    HW126810   2.013   1.342   6.710  0.7075  1.1988  0.0937
 5058SOL    HW226811   2.105   1.443   6.753  2.4027  0.2085  1.7277
 5059SOL     OW26812   0.385   1.802   5.074 -0.1702 -0.2470 -0.0937
 5059SOL    HW126813   0.370   1.884   5.027  3.4912 -0.1629 -1.1004
 5059SOL    HW226814   0.480   1.789   5.068 -0.1026  0.2341 -0.0076
 5060SOL     OW26815   3.649   2.418  17.554 -0.3333 -0.2202 -0.3603
 5060SOL    HW126816   3.655   2.357  17.481 -1.9659 -2.5635  1.4810
 5060SOL    HW226817   3.562   2.393  17.586 -0.9897  2.3717 -0.1072
 5061SOL     OW26818   1.111   2.203   2.027 -0.6566 -0.1881 -0.4558
 5061SOL    HW126819   1.040   2.152   1.988 -0.7956  0.3070 -0.8499
 5061SOL    HW226820   1.129   2.176   2.118 -2.3564 -2.2461 -0.7355
 5062SOL     OW26821   2.378   3.248   5.323  0.4665 -0.2096 -0.4139
 5062SOL    HW126822   2.311   3.314   5.340  1.8027  1.0385 -0.0512
 5062SOL    HW226823   2.346   3.184   5.387  1.0939  0.8583  0.9707
 5063SOL     OW26824   0.448   0.306   3.789  0.0982 -0.4043  0.0732
 5063SOL    HW126825   0.361   0.346   3.799 -0.5620 -1.2275 -2.2810
 5063SOL    HW226826   0.432   0.212   3.787 -0.6239 -0.2887  0.4713
 5064SOL     OW26827   2.257   1.718   7.265  0.2111  0.3512 -0.5320
 5064SOL    HW126828   2.352   1.721   7.258  0.3396 -0.9496  0.6323
 5064SOL    HW226829   2.240   1.812   7.252  1.0510  0.8584  2.1113
 5065SOL     OW26830   0.800   3.335   3.701 -0.2883 -0.0119 -0.5223
 5065SOL    HW126831   0.784   3.328   3.607  0.5217  0.5650 -0.7020
 5065SOL    HW226832   0.766   3.248   3.724  0.6111  0.5636  2.9399
 5066SOL     OW26833   1.585   0.415  17.172 -0.4844  0.1194  0.1740
 5066SOL    HW126834   1.640   0.337  17.165  0.2050  0.4995  1.3485
 5066SOL    HW226835   1.617   0.464  17.096 -1.3057  0.2267 -0.1097
 5067SOL     OW26836   0.234   0.342   1.760 -0.0244 -0.4694 -0.1937
 5067SOL    HW126837   0.318   0.318   1.721 -0.4284 -2.9883  0.4923
 5067SOL    HW226838   0.176   0.326   1.686  0.0333  0.2028 -0.3851
 5068SOL     OW26839   0.217   3.278   6.329 -0.1621 -0.5623  0.3373
 5068SOL    HW126840   0.132   3.247   6.300 -0.5718 -0.3486  1.3121
 5068SOL    HW226841   0.281   3.282   6.257 -0.3613 -0.1493  0.1875
 5069SOL     OW26842   2.762   1.163   6.037  0.1583 -0.2613  0.0705
 5069SOL    HW126843   2.761   1.225   6.110  0.9189 -1.6772  1.2899
 5069SOL    HW226844   2.803   1.216   5.969 -0.4372  0.2931  0.1456
 5070SOL     OW26845   1.135   3.876   6.326 -0.1978  0.5721 -0.4675
 5070SOL    HW126846   1.088   3.793   6.327  0.0989  0.4061 -0.0717
 5070SOL    HW226847   1.067   3.931   6.366 -1.6485 -0.7887 -1.0897
 5071SOL     OW26848   0.735   4.425   5.658  0.3723 -0.0638  0.4398
 5071SOL    HW126849   0.725   4.366   5.583  1.2767  0.9836 -0.5066
 5071SOL    HW226850   0.732   4.362   5.729 -0.8239 -0.4905  0.0077
 5072SOL     OW26851   1.199   4.449   5.701 -0.6176  0.8053 -0.2732
 5072SOL    HW126852   1.187   4.457   5.796 -0.2110 -0.5627 -0.1096
 5072SOL    HW226853   1.165   4.533   5.669 -2.7445  0.2934  0.6335
 5073SOL     OW26854   1.917   1.407   4.325 -0.0021  0.1508 -0.0816
 5073SOL    HW126855   1.848   1.459   4.284  0.6400 -1.3252 -3.0101
 5073SOL    HW226856   1.864   1.338   4.364 -0.7228  0.1048 -1.1505
 5074SOL     OW26857   3.625   1.426   1.905  0.3920  0.1653 -0.3309
 5074SOL    HW126858   3.540   1.418   1.948  1.2188 -0.0218  1.2780
 5074SOL    HW226859   3.615   1.384   1.820  1.8463 -0.4236 -0.2161
 5075SOL     OW26860   3.958   4.092   6.556 -0.2121 -0.4418 -0.1362
 5075SOL    HW126861   4.004   4.008   6.557  3.3331  1.5324  2.0213
 5075SOL    HW226862   3.890   4.060   6.616 -0.2400  0.4092  0.2865
 5076SOL     OW26863   3.320   1.172   7.526  0.1631 -0.0064 -0.1263
 5076SOL    HW126864   3.376   1.248   7.509  0.6754 -0.4613 -0.4898
 5076SOL    HW226865   3.382   1.124   7.580  0.2304 -1.3793 -1.4192
 5077SOL     OW26866   0.169   1.753   8.409 -0.7160 -0.0437  0.2257
 5077SOL    HW126867   0.207   1.755   8.497  0.2712  0.7434 -0.2200
 5077SOL    HW226868   0.244   1.723   8.357 -1.9208 -0.3167 -1.3300
 5078SOL     OW26869   1.978   2.487   4.749 -1.0688 -0.5977 -0.8088
 5078SOL    HW126870   2.056   2.492   4.804  0.0397 -0.1189 -2.4316
 5078SOL    HW226871   1.912   2.510   4.814 -0.6101  0.1440 -0.6073
 5079SOL     OW26872   4.192   3.802   6.725  0.3732  0.9575  0.4723
 5079SOL    HW126873   4.244   3.874   6.759  1.1421  0.3865  0.4979
 5079SOL    HW226874   4.162   3.765   6.808 -0.0094 -0.1941 -0.1755
 5080SOL     OW26875   0.452   2.756   8.658  0.2449  0.6655  0.2345
 5080SOL    HW126876   0.368   2.769   8.701  1.8327  0.7129  3.3327
 5080SOL    HW226877   0.454   2.820   8.587 -2.6242  2.0727  1.4252
 5081SOL     OW26878   2.362   1.932   5.469 -0.0124 -0.7060 -0.3096
 5081SOL    HW126879   2.396   1.977   5.392  2.7463 -2.0175  0.1222
 5081SOL    HW226880   2.443   1.895   5.504  0.2480  2.0277  1.8926
 5082SOL     OW26881   1.750   4.387   6.915 -0.3928  0.5967  0.3967
 5082SOL    HW126882   1.732   4.356   6.826 -1.9283 -0.4911  1.0876
 5082SOL    HW226883   1.722   4.317   6.974  1.8437  1.7650  2.8120
 5083SOL     OW26884   2.509   3.270  11.447  0.1617  0.0921 -0.1911
 5083SOL    HW126885   2.534   3.359  11.420  1.5497 -0.4062 -0.5408
 5083SOL    HW226886   2.564   3.273  11.525  0.3537  0.1172 -0.3251
 5084SOL     OW26887   2.260   1.806  14.581 -0.8680 -0.0857  0.0952
 5084SOL    HW126888   2.183   1.765  14.622 -0.7996 -0.4962 -0.1892
 5084SOL    HW226889   2.320   1.732  14.572 -0.4229  0.3604 -0.5768
 5085SOL     OW26890   1.697   3.471   4.398  0.5870  0.0387  0.4444
 5085SOL    HW126891   1.779   3.448   4.355  0.1846 -0.7905  0.1242
 5085SOL    HW226892   1.668   3.380   4.408 -1.0520  0.6455  1.2232
 5086SOL     OW26893   0.663   4.295  15.338 -0.3375  0.1816  0.4327
 5086SOL    HW126894   0.648   4.360  15.406 -1.1465  0.8478 -0.3879
 5086SOL    HW226895   0.689   4.221  15.394  1.2556  0.1701 -0.3156
 5087SOL     OW26896   1.153   1.144   5.513  0.0984  0.3083 -0.2232
 5087SOL    HW126897   1.158   1.095   5.595  0.9518  0.6063 -0.0919
 5087SOL    HW226898   1.093   1.085   5.468  0.9828 -1.7067  1.2202
 5088SOL     OW26899   1.960   0.785   5.922 -0.3871 -0.2060 -0.1810
 5088SOL    HW126900   1.899   0.716   5.895 -0.9119  0.3596 -0.4432
 5088SOL    HW226901   2.034   0.728   5.943  0.2238  0.0875 -1.5262
 5089SOL     OW26902   4.510   0.852   1.041  0.1064 -0.0176  0.1854
 5089SOL    HW126903   4.440   0.916   1.034  0.3564  0.4308  1.7885
 5089SOL    HW226904   4.477   0.782   1.097  1.1814 -2.6370 -2.4495
 5090SOL     OW26905   1.884   2.974   5.623 -0.1164 -0.1168  0.6299
 5090SOL    HW126906   1.875   2.894   5.572 -1.2074 -1.6032  3.1106
 5090SOL    HW226907   1.882   3.042   5.556 -2.9078 -0.5321  0.2614
 5091SOL     OW26908   4.139   4.016   3.146 -0.2446 -0.3009 -0.4700
 5091SOL    HW126909   4.080   4.041   3.217 -0.8601  2.6119 -2.0187
 5091SOL    HW226910   4.171   4.097   3.105  1.3722 -1.4783 -1.5501
 5092SOL     OW26911   1.365   3.258  17.469  0.0399 -0.2097 -0.0599
 5092SOL    HW126912   1.421   3.190  17.506  2.0829  0.6303 -1.5688
 5092SOL    HW226913   1.402   3.277  17.382  1.7448  0.2507  0.7743
 5093SOL     OW26914   3.211   1.932   4.245 -0.1671  0.1419  0.0300
 5093SOL    HW126915   3.260   1.997   4.296 -0.1276  1.9224 -2.2504
 5093SOL    HW226916   3.178   1.994   4.179  1.4404  1.0039  0.0324
 5094SOL     OW26917   4.384   1.650   8.618  0.3509 -0.5180 -0.3665
 5094SOL    HW126918   4.295   1.651   8.651  0.2043  0.2972 -0.7807
 5094SOL    HW226919   4.369   1.657   8.523 -1.7326 -0.7196 -0.0506
 5095SOL     OW26920   1.259   3.823   7.727  0.0411  0.3155  0.3043
 5095SOL    HW126921   1.222   3.740   7.757  4.3682 -1.7956 -0.2313
 5095SOL    HW226922   1.192   3.884   7.760 -1.4602 -1.0172 -0.3002
 5096SOL     OW26923   0.396   0.954   4.660  0.1385  0.3639 -0.0761
 5096SOL    HW126924   0.410   0.872   4.708  0.0883  0.0109 -0.6667
 5096SOL    HW226925   0.475   0.942   4.607  1.5229 -2.5474  2.6058
 5097SOL     OW26926   1.074   4.342   4.769 -0.7175  0.3896 -0.7412
 5097SOL    HW126927   1.109   4.271   4.715  0.6299 -0.2269  0.9497
 5097SOL    HW226928   0.981   4.328   4.755 -0.4486 -0.1102 -2.1132
 5098SOL     OW26929   2.393   1.391  15.020  0.8034 -0.2767 -0.1908
 5098SOL    HW126930   2.399   1.344  14.937 -0.8761 -0.1586 -0.3791
 5098SOL    HW226931   2.336   1.460  14.985  0.4345 -0.6035 -0.2275
 5099SOL     OW26932   3.048   0.773   3.768  0.8792  0.6641  0.2164
 5099SOL    HW126933   3.021   0.777   3.860 -1.3428 -1.7111 -0.3103
 5099SOL    HW226934   2.980   0.830   3.732  0.6942  1.3001  1.5658
 5100SOL     OW26935   2.871   1.455   7.100 -0.0074  0.0379  0.4729
 5100SOL    HW126936   2.949   1.417   7.057 -1.3493 -0.5669 -1.4368
 5100SOL    HW226937   2.874   1.548   7.079 -1.6032 -0.4792 -2.0900
 5101SOL     OW26938   4.604   4.427  17.527  0.5981  0.1274 -0.1413
 5101SOL    HW126939   4.590   4.513  17.487  0.0263  0.1981  0.1980
 5101SOL    HW226940   4.556   4.437  17.610 -0.6554 -0.5822 -0.7935
 5102SOL     OW26941   3.982   0.895   9.146 -0.4749  0.6304 -0.0106
 5102SOL    HW126942   3.887   0.884   9.153 -0.6512  0.9346 -1.9458
 5102SOL    HW226943   3.984   0.988   9.168 -0.2906  0.7257 -0.4383
 5103SOL     OW26944   1.632   3.749   9.462 -0.2285 -0.2624  0.1656
 5103SOL    HW126945   1.565   3.809   9.498  1.7535  0.8046  2.0838
 5103SOL    HW226946   1.705   3.797   9.503  1.2621 -2.1837 -0.2749
 5104SOL     OW26947   2.732   1.610  16.909 -0.0672 -0.5589 -0.3719
 5104SOL    HW126948   2.739   1.602  16.814  0.6297 -2.6919 -0.1492
 5104SOL    HW226949   2.726   1.520  16.942 -0.9965 -1.2969 -2.5770
 5105SOL     OW26950   3.792   1.779   9.910 -0.2034  0.1487  0.1232
 5105SOL    HW126951   3.783   1.873   9.892 -0.5846  0.1543  0.3552
 5105SOL    HW226952   3.717   1.763   9.968  0.5954 -0.5336  0.9601
 5106SOL     OW26953   3.176   0.613   1.732  0.5389 -0.1356  0.0479
 5106SOL    HW126954   3.128   0.540   1.694  1.0188 -1.6668  2.4017
 5106SOL    HW226955   3.156   0.608   1.825  0.0070 -0.3041 -0.0788
 5107SOL     OW26956   1.658   3.880   6.074 -0.0022 -0.5630 -0.5759
 5107SOL    HW126957   1.629   3.965   6.041 -1.6492 -1.3435 -1.1104
 5107SOL    HW226958   1.742   3.868   6.029 -0.9958  0.8078 -2.7780
 5108SOL     OW26959   4.294   2.842   7.282 -0.1770 -0.1696  0.0031
 5108SOL    HW126960   4.203   2.826   7.256 -0.8049 -1.1006  2.8076
 5108SOL    HW226961   4.286   2.912   7.347 -1.9381  1.5091 -2.0113
 5109SOL     OW26962   0.108   3.447   4.107  0.7744 -0.0900 -0.6670
 5109SOL    HW126963   0.146   3.360   4.101 -1.6407 -1.1511 -0.8283
 5109SOL    HW226964   0.186   3.499   4.127  0.4491 -0.8200  2.5401
 5110SOL     OW26965   1.466   4.498   7.817  0.0929 -0.4381 -0.2046
 5110SOL    HW126966   1.468   4.590   7.841 -1.7135 -0.4583  0.0515
 5110SOL    HW226967   1.376   4.498   7.785 -0.0094 -1.6693  0.0798
 5111SOL     OW26968   3.173   1.296   4.713  0.6410 -0.1709 -0.2123
 5111SOL    HW126969   3.220   1.334   4.638  0.3861 -0.0700 -0.3199
 5111SOL    HW226970   3.120   1.238   4.658 -0.8260 -0.5485  1.6081
 5112SOL     OW26971   2.041   2.264   0.306 -0.3559 -1.0146 -0.5838
 5112SOL    HW126972   2.132   2.292   0.313 -0.5640  0.0586 -2.0261
 5112SOL    HW226973   2.037   2.234   0.215 -1.1304 -1.8899 -0.2645
 5113SOL     OW26974   1.580   0.601   7.204 -0.2846  0.1062  0.0995
 5113SOL    HW126975   1.523   0.548   7.260  0.1968  0.5160  0.9865
 5113SOL    HW226976   1.608   0.531   7.145 -1.2135  0.8316 -1.1972
 5114SOL     OW26977   2.771   1.771   9.033 -0.2578  0.2936 -0.6365
 5114SOL    HW126978   2.748   1.694   9.085  0.2782  0.0321 -0.7768
 5114SOL    HW226979   2.839   1.793   9.096 -1.5300  2.4827 -0.0585
 5115SOL     OW26980   3.524   0.007   2.675 -0.1250  0.1546  0.6446
 5115SOL    HW126981   3.575   4.667   2.691  1.3575  1.2966  1.6775
 5115SOL    HW226982   3.462   4.731   2.747 -0.4674  2.4913  0.8827
 5116SOL     OW26983   1.569   1.155   4.779 -0.5624 -0.4027  0.8720
 5116SOL    HW126984   1.503   1.105   4.730 -2.4506  0.9663  2.0503
 5116SOL    HW226985   1.638   1.100   4.741  0.4624  1.9906 -0.7200
 5117SOL     OW26986   4.499   2.110  12.013 -0.3235 -0.0878 -0.2082
 5117SOL    HW126987   4.475   2.073  11.928 -2.6104  0.2157  0.2950
 5117SOL    HW226988   4.427   2.083  12.071 -0.8810  0.2194 -0.7594
 5118SOL     OW26989   3.240   4.134   6.344  0.1285  0.3041  0.0152
 5118SOL    HW126990   3.254   4.121   6.438  0.9785  1.2848  0.0223
 5118SOL    HW226991   3.298   4.065   6.311 -2.2535 -1.3190 -0.7753
 5119SOL     OW26992   4.722   4.195   0.113  0.6824  0.4126  0.4490
 5119SOL    HW126993   4.657   4.248   0.160 -0.2058 -0.5736  0.3261
 5119SOL    HW226994   4.739   4.131   0.182  1.7466 -0.3573 -0.5245
 5120SOL     OW26995   4.043   1.919   7.865  0.3643 -0.4620  0.5734
 5120SOL    HW126996   4.092   1.936   7.785 -0.1457  0.2786  0.4243
 5120SOL    HW226997   4.113   1.915   7.931  0.5908 -2.0794  0.2225
 5121SOL     OW26998   1.471   3.929  11.351  0.4216  0.5013  0.3006
 5121SOL    HW126999   1.438   4.015  11.379  0.5751  0.9503 -0.9149
 5121SOL    HW227000   1.564   3.927  11.328  0.6175  0.2767  1.1191
 5122SOL     OW27001   2.208   3.810   2.039  0.3165  0.0769 -0.4457
 5122SOL    HW127002   2.184   3.848   1.955 -0.2378  0.2333 -0.2214
 5122SOL    HW227003   2.196   3.715   2.037 -0.9425  0.2536 -1.2090
 5123SOL     OW27004   0.234   0.016   1.484  0.5509 -0.5997  0.7335
 5123SOL    HW127005   0.224   4.675   1.533  1.4333 -0.7473  0.6627
 5123SOL    HW227006   0.288   4.727   1.411  2.2883  0.8401  1.4497
 5124SOL     OW27007   1.991   2.143   5.626  0.3503 -0.5880  0.1966
 5124SOL    HW127008   1.943   2.215   5.585  0.3169 -1.1877 -0.8187
 5124SOL    HW227009   2.003   2.083   5.552 -0.7088 -0.1992 -0.2946
 5125SOL     OW27010   3.171   0.415   6.840 -0.6271 -0.2390  0.5991
 5125SOL    HW127011   3.136   0.396   6.753 -1.4556 -1.9355  1.2972
 5125SOL    HW227012   3.138   0.504   6.854 -2.8448 -0.9589 -0.1974
 5126SOL     OW27013   3.092   2.777   5.330  0.1571  0.1957 -0.4474
 5126SOL    HW127014   3.011   2.735   5.302 -0.8169  0.7426  1.5066
 5126SOL    HW227015   3.063   2.801   5.418  0.0010 -0.8266 -0.2193
 5127SOL     OW27016   4.550   3.250   3.346 -0.0235  0.4017  0.2203
 5127SOL    HW127017   4.623   3.296   3.389 -0.8890  1.0969  0.9405
 5127SOL    HW227018   4.495   3.245   3.424  1.0952 -1.7042  0.8651
 5128SOL     OW27019   3.492   3.845  11.646  0.7078 -0.3278  0.3186
 5128SOL    HW127020   3.582   3.849  11.677  0.5083 -0.8487  0.9909
 5128SOL    HW227021   3.464   3.794  11.723  0.3727  1.4466  1.3735
 5129SOL     OW27022   4.418   1.121  10.207 -0.3929 -0.2662  0.4587
 5129SOL    HW127023   4.406   1.082  10.120  0.3554  1.9284 -0.6430
 5129SOL    HW227024   4.389   1.212  10.201 -0.5410 -0.2897  0.8084
 5130SOL     OW27025   2.610   0.944   6.638  0.0347  0.0432  0.0744
 5130SOL    HW127026   2.659   0.920   6.559 -1.0159 -1.2855 -0.1616
 5130SOL    HW227027   2.602   0.864   6.689 -1.6763 -0.2462 -0.6697
 5131SOL     OW27028   1.288   1.933  16.317 -0.1576 -0.2299  0.0233
 5131SOL    HW127029   1.290   1.893  16.404 -1.1044  0.0396  0.1647
 5131SOL    HW227030   1.195   1.951  16.307 -0.4229 -1.0376  0.9946
 5132SOL     OW27031   0.767   3.462   4.277  0.0480 -0.1068  0.5033
 5132SOL    HW127032   0.859   3.476   4.297  1.3125 -5.2091 -1.8933
 5132SOL    HW227033   0.764   3.438   4.184 -0.9076 -2.2136  1.0824
 5133SOL     OW27034   4.433   1.911  11.826 -0.8286  0.0065  0.4288
 5133SOL    HW127035   4.395   1.882  11.743  0.2424 -0.1285 -0.0017
 5133SOL    HW227036   4.362   1.911  11.891 -0.2039 -3.1433  1.1044
 5134SOL     OW27037   3.862   3.752   1.388  0.2307  0.4793 -0.3710
 5134SOL    HW127038   3.912   3.773   1.309 -2.7093  3.2157 -1.4786
 5134SOL    HW227039   3.800   3.823   1.372  1.6152  2.1056  1.3832
 5135SOL     OW27040   2.382   1.619   8.172  0.1973  0.3370  0.0775
 5135SOL    HW127041   2.351   1.672   8.246  0.1591 -0.2156  0.4511
 5135SOL    HW227042   2.473   1.601   8.194  0.6034  0.4816 -1.4688
 5136SOL     OW27043   3.348   0.508   5.319 -0.5370  0.1607 -0.2625
 5136SOL    HW127044   3.389   0.571   5.379 -1.2423 -0.3178  0.7373
 5136SOL    HW227045   3.394   0.516   5.236 -1.2023  0.6487 -0.5837
 5137SOL     OW27046   4.593   3.971   6.142 -0.0882 -0.8362  0.5900
 5137SOL    HW127047   4.524   3.938   6.085 -0.7321 -0.9700  1.4465
 5137SOL    HW227048   4.570   3.934   6.227 -2.0053 -0.9970 -0.0137
 5138SOL     OW27049   3.750   2.160   9.090  0.3959 -0.4469 -0.3395
 5138SOL    HW127050   3.836   2.197   9.111  1.2225 -1.8977 -1.2367
 5138SOL    HW227051   3.750   2.188   8.999  0.8644 -2.0543 -0.8202
 5139SOL     OW27052   1.085   0.235   0.688 -0.1722 -0.1839 -0.0248
 5139SOL    HW127053   1.020   0.276   0.632  0.0573 -1.7304 -1.4189
 5139SOL    HW227054   1.111   0.311   0.740  0.2777 -1.9246  2.3271
 5140SOL     OW27055   4.561   2.461   7.823 -0.2476 -0.3214 -0.2783
 5140SOL    HW127056   4.473   2.445   7.787 -0.2542 -0.6552 -0.1081
 5140SOL    HW227057   4.546   2.471   7.917 -0.2246  2.8852 -0.5939
 5141SOL     OW27058   2.049   2.315   1.285  0.2686 -0.3010 -0.3276
 5141SOL    HW127059   2.081   2.349   1.201 -0.4928  0.0413 -0.4790
 5141SOL    HW227060   2.036   2.399   1.328  2.5490  0.2127 -0.6383
 5142SOL     OW27061   4.718   1.090   6.817  0.6061  0.1304 -0.1685
 5142SOL    HW127062   0.066   1.127   6.820  0.2073  1.0192  0.8373
 5142SOL    HW227063   4.686   1.125   6.901  1.6832 -1.1711  0.7813
 5143SOL     OW27064   0.144   4.396  17.573 -0.0662  0.5134  0.1954
 5143SOL    HW127065   0.051   4.398  17.548 -0.4799  1.4796  1.7763
 5143SOL    HW227066   0.157   4.476  17.623 -1.4774  0.1801  1.1223
 5144SOL     OW27067   2.199   1.781  15.220  0.5543  0.3349 -0.4957
 5144SOL    HW127068   2.228   1.872  15.226  1.4191  0.0923 -0.9935
 5144SOL    HW227069   2.151   1.771  15.302  1.0969 -1.7439 -0.4328
 5145SOL     OW27070   4.468   0.546   9.241 -0.1629 -0.2698  0.0812
 5145SOL    HW127071   4.427   0.530   9.326 -0.2973 -1.8919 -0.2858
 5145SOL    HW227072   4.402   0.607   9.208 -0.1292 -0.5982 -0.5971
 5146SOL     OW27073   2.403   3.378   4.960 -0.0308 -0.0169  0.6918
 5146SOL    HW127074   2.442   3.427   4.887  1.0099 -2.4362 -0.3656
 5146SOL    HW227075   2.319   3.421   4.972  1.0370  1.6581  2.3266
 5147SOL     OW27076   0.783   2.978   5.230 -0.4567 -0.2648 -0.0420
 5147SOL    HW127077   0.720   2.907   5.220  0.7906 -1.3113 -0.2968
 5147SOL    HW227078   0.869   2.940   5.244  0.0453  0.5630 -0.8832
 5148SOL     OW27079   2.173   0.615   2.121 -0.0883  0.2135 -0.0703
 5148SOL    HW127080   2.160   0.704   2.151 -0.3033  0.9888 -2.4473
 5148SOL    HW227081   2.088   0.597   2.081 -0.4119 -2.2390  1.7146
 5149SOL     OW27082   2.501   4.378   4.269  0.2296  0.2147  0.3496
 5149SOL    HW127083   2.511   4.414   4.181  1.1474 -0.7379  0.0571
 5149SOL    HW227084   2.408   4.354   4.266  0.2023  0.1628  1.3822
 5150SOL     OW27085   2.375   3.352  15.331 -0.2215  0.3267 -0.1171
 5150SOL    HW127086   2.324   3.320  15.405  1.8721  0.9112  1.5726
 5150SOL    HW227087   2.353   3.444  15.344  0.2608  0.5946 -1.2017
 5151SOL     OW27088   0.762   1.572  11.440  0.1077 -0.5634 -0.5417
 5151SOL    HW127089   0.735   1.498  11.494  1.3553 -0.1668  0.6166
 5151SOL    HW227090   0.805   1.521  11.371  1.6636  1.7500 -1.2763
 5152SOL     OW27091   4.726   1.250  14.858 -0.4799  0.1389  0.3277
 5152SOL    HW127092   0.068   1.264  14.907  1.4696 -1.8404 -2.3594
 5152SOL    HW227093   0.021   1.200  14.784 -1.8946 -0.7732  0.2704
 5153SOL     OW27094   1.162   3.204   9.036 -0.0778  0.1414 -0.2328
 5153SOL    HW127095   1.172   3.233   9.127 -0.0393 -3.9860  1.0725
 5153SOL    HW227096   1.140   3.289   8.997  0.2605  0.7743  0.9567
 5154SOL     OW27097   4.677   4.552   4.817 -0.2930  0.4369  0.7632
 5154SOL    HW127098   4.635   4.493   4.755 -2.1930  2.7611 -0.1702
 5154SOL    HW227099   0.020   4.565   4.772 -0.0291 -1.2975  0.7709
 5155SOL     OW27100   2.744   2.615   5.564  0.2685 -0.2700  0.2313
 5155SOL    HW127101   2.673   2.558   5.537  0.1549 -1.1832  2.4376
 5155SOL    HW227102   2.740   2.617   5.660 -1.2496  0.8299  0.1302
 5156SOL     OW27103   0.030   1.418   5.109 -0.1309 -0.5210  0.0375
 5156SOL    HW127104   0.118   1.452   5.125 -0.8691  1.0566  0.6863
 5156SOL    HW227105   4.724   1.443   5.189 -2.2763 -0.4573 -1.2192
 5157SOL     OW27106   0.716   1.814   6.906 -0.0274  0.2433 -0.3809
 5157SOL    HW127107   0.708   1.879   6.836  1.0808 -2.2975 -2.8661
 5157SOL    HW227108   0.640   1.825   6.962 -1.5910  2.6664 -2.9681
 5158SOL     OW27109   0.404   1.567  14.858  0.0368  0.1942  0.2969
 5158SOL    HW127110   0.382   1.649  14.903  0.1419 -0.2251  1.1258
 5158SOL    HW227111   0.489   1.542  14.896  0.9422  1.7925 -0.6853
 5159SOL     OW27112   4.326   4.470   8.006 -0.3635  0.6502  0.3501
 5159SOL    HW127113   4.343   4.414   7.931 -0.4995  1.3077 -0.1738
 5159SOL    HW227114   4.410   4.474   8.053  0.8507  0.4469 -1.8263
 5160SOL     OW27115   2.513   3.950   9.398  0.2875 -0.5742 -0.0782
 5160SOL    HW127116   2.475   4.022   9.447 -0.4491 -0.1023 -1.3364
 5160SOL    HW227117   2.570   3.998   9.338  0.4668 -1.4139 -0.5836
 5161SOL     OW27118   3.069   0.873  13.240 -0.1613 -1.4314 -0.9182
 5161SOL    HW127119   3.110   0.936  13.299 -1.6372 -0.7746 -0.5894
 5161SOL    HW227120   2.987   0.867  13.288 -0.3465  1.1779 -0.9285
 5162SOL     OW27121   0.956   0.819  16.133  0.1853  0.9338 -0.3455
 5162SOL    HW127122   0.979   0.823  16.226  0.4705  1.5030 -0.4403
 5162SOL    HW227123   0.881   0.879  16.143 -1.4516 -1.1418 -0.2038
 5163SOL     OW27124   0.848   4.643  13.033  0.4556 -0.7370  0.4651
 5163SOL    HW127125   0.882   4.609  13.116  0.8775 -1.8888 -0.1762
 5163SOL    HW227126   0.864   4.569  12.974 -1.5099 -0.7195 -0.1103
 5164SOL     OW27127   0.676   2.434   4.003 -0.4101 -0.3119 -0.0459
 5164SOL    HW127128   0.623   2.377   4.059 -1.1660  1.5869  1.1890
 5164SOL    HW227129   0.757   2.421   4.053 -1.3617  0.2449  1.6819
 5165SOL     OW27130   2.756   1.767   2.034  0.3785 -0.5330  0.9239
 5165SOL    HW127131   2.777   1.773   2.127  0.2931  0.4091  0.8854
 5165SOL    HW227132   2.826   1.710   2.002  0.1793  0.1497 -0.7656
 5166SOL     OW27133   1.811   0.499  17.003 -0.8558 -0.0746 -0.2230
 5166SOL    HW127134   1.894   0.451  17.001 -0.7628  0.0426  0.9976
 5166SOL    HW227135   1.811   0.512  16.908  1.2138 -0.4805 -0.2922
 5167SOL     OW27136   3.255   2.917   0.222  0.6123 -0.3712 -0.4920
 5167SOL    HW127137   3.333   2.967   0.196 -0.1310  0.1457 -1.6916
 5167SOL    HW227138   3.220   2.897   0.135  2.1705 -2.0389 -0.7446
 5168SOL     OW27139   2.017   0.563   3.875  0.0479  0.1670 -0.2046
 5168SOL    HW127140   1.965   0.587   3.951  0.8644  0.3696  0.2952
 5168SOL    HW227141   2.041   0.643   3.827  0.7524  0.9921  1.5356
 5169SOL     OW27142   2.953   0.979   3.123  0.0594  0.3656  0.2822
 5169SOL    HW127143   2.886   0.940   3.067  0.3579 -4.2403  3.1600
 5169SOL    HW227144   2.908   0.963   3.205 -0.0277 -2.3693 -0.3242
 5170SOL     OW27145   1.369   4.127   8.110  0.6368  0.5778  0.0227
 5170SOL    HW127146   1.430   4.200   8.107  0.7111  0.5416  0.6629
 5170SOL    HW227147   1.302   4.153   8.173 -0.2845 -0.6788 -0.4273
 5171SOL     OW27148   0.072   3.915  17.476  0.2444 -0.2575  0.2307
 5171SOL    HW127149   0.164   3.943  17.472  1.1576 -2.7496  3.9769
 5171SOL    HW227150   0.030   3.975  17.537  0.5506 -0.2326  0.4170
 5172SOL     OW27151   3.316   0.393  10.732  0.4339  0.1753 -0.3446
 5172SOL    HW127152   3.273   0.354  10.808 -0.6583 -2.0681 -2.1169
 5172SOL    HW227153   3.281   0.482  10.729 -0.1136 -0.0586 -0.7620
 5173SOL     OW27154   2.636   0.077   6.013 -0.0691  0.3755 -1.0438
 5173SOL    HW127155   2.594   0.079   5.927 -1.5947  0.4111 -0.3050
 5173SOL    HW227156   2.574   0.026   6.065  2.5835 -0.2095  1.5100
 5174SOL     OW27157   4.583   2.042   4.391 -0.5166 -0.0041 -0.0017
 5174SOL    HW127158   4.523   2.056   4.465 -0.4043 -0.2934  0.1442
 5174SOL    HW227159   4.601   2.134   4.371 -1.0704 -0.5779 -3.2143
 5175SOL     OW27160   1.566   3.160  16.420  0.2787  0.1463 -0.5008
 5175SOL    HW127161   1.532   3.215  16.349  0.6927  1.4385  0.2974
 5175SOL    HW227162   1.658   3.188  16.415  1.1817 -2.3901  2.3000
 5176SOL     OW27163   3.613   1.657  13.219 -0.6643  0.1170 -0.0830
 5176SOL    HW127164   3.680   1.657  13.288  0.0398 -2.6201 -0.7738
 5176SOL    HW227165   3.655   1.693  13.142 -0.0214  0.1868  0.2994
 5177SOL     OW27166   3.732   1.376   7.431  0.1210 -0.6757 -0.3704
 5177SOL    HW127167   3.794   1.432   7.384  0.3582  0.3438  1.1775
 5177SOL    HW227168   3.732   1.301   7.371 -2.5816 -1.5288  0.6935
 5178SOL     OW27169   0.346   1.268   7.702 -0.4108  0.1704  0.8561
 5178SOL    HW127170   0.390   1.190   7.734  0.8905  0.2244 -0.7696
 5178SOL    HW227171   0.420   1.328   7.703 -1.4080  1.3923  1.7726
 5179SOL     OW27172   2.679   2.811   4.372 -0.5167  0.8015 -0.3912
 5179SOL    HW127173   2.699   2.866   4.448  1.2508  0.6952 -0.7789
 5179SOL    HW227174   2.588   2.839   4.359 -0.7992  0.3719  0.6102
 5180SOL     OW27175   2.601   3.182   2.966 -0.0510 -0.0835  0.0014
 5180SOL    HW127176   2.529   3.244   2.952  1.6767  2.1427  0.9401
 5180SOL    HW227177   2.625   3.189   3.059  2.1126 -3.2182 -0.3262
 5181SOL     OW27178   3.810   4.727   6.679 -0.0747  0.2757  0.1945
 5181SOL    HW127179   3.896   4.688   6.694  0.4756  1.0085 -1.0408
 5181SOL    HW227180   3.811   0.060   6.741  2.8289  1.1479 -0.9149
 5182SOL     OW27181   3.537   3.591   4.458  0.4479 -0.2394 -0.2030
 5182SOL    HW127182   3.487   3.524   4.411 -0.6514 -0.0949  0.7531
 5182SOL    HW227183   3.617   3.544   4.483 -0.5570 -2.0068 -0.2333
 5183SOL     OW27184   1.629   1.376   4.584 -0.1971  1.0558 -0.3121
 5183SOL    HW127185   1.574   1.319   4.638  1.7765  1.8304  2.5410
 5183SOL    HW227186   1.681   1.304   4.548  0.0300  1.0114  0.1012
 5184SOL     OW27187   1.222   0.862   8.468  1.0287 -0.8840  0.6649
 5184SOL    HW127188   1.157   0.900   8.527  0.1933  1.6706 -1.9051
 5184SOL    HW227189   1.304   0.900   8.500  1.7292 -1.8085 -0.0643
 5185SOL     OW27190   4.705   2.492   2.895  0.1210 -0.1464 -0.1400
 5185SOL    HW127191   4.660   2.530   2.820  0.9134  0.5579 -0.2542
 5185SOL    HW227192   4.653   2.413   2.906  1.3032 -1.1201 -1.5540
 5186SOL     OW27193   0.640   2.692   5.572 -0.1106  0.3839  0.5958
 5186SOL    HW127194   0.664   2.672   5.482  0.3317 -1.3476  1.1080
 5186SOL    HW227195   0.544   2.689   5.565  0.0419  1.0006 -1.7293
 5187SOL     OW27196   1.809   4.383   5.400 -0.1045 -0.2017 -0.0215
 5187SOL    HW127197   1.857   4.348   5.475  0.5011  2.2948  0.7736
 5187SOL    HW227198   1.765   4.308   5.360  0.7352  0.2999 -1.8759
 5188SOL     OW27199   4.396   1.757   1.870 -0.4861  0.0590 -0.2158
 5188SOL    HW127200   4.309   1.726   1.846  0.2950 -0.5279 -2.2742
 5188SOL    HW227201   4.456   1.730   1.801 -1.8494 -0.2137 -1.3054
 5189SOL     OW27202   2.276   2.570   6.851 -0.8584 -0.1012 -0.3358
 5189SOL    HW127203   2.358   2.619   6.849 -1.6363  1.3089  2.3263
 5189SOL    HW227204   2.215   2.621   6.798 -0.4770  0.2236 -0.4570
 5190SOL     OW27205   1.102   0.287   1.542 -0.1293  0.8476 -0.2024
 5190SOL    HW127206   1.172   0.239   1.497 -0.1439  1.6833 -1.1232
 5190SOL    HW227207   1.022   0.254   1.501  0.6915  0.0217 -1.1625
 5191SOL     OW27208   0.241   3.970   2.733 -0.4416 -0.5245 -0.2674
 5191SOL    HW127209   0.150   3.981   2.761 -0.5746 -0.3707 -0.7650
 5191SOL    HW227210   0.222   4.000   2.644  0.0744 -0.5510 -0.3873
 5192SOL     OW27211   3.297   1.584   1.962 -0.4594  0.2597 -0.2605
 5192SOL    HW127212   3.336   1.671   1.953 -0.1170  0.0988 -0.3455
 5192SOL    HW227213   3.228   1.602   2.026  0.8683  1.2404  0.9116
 5193SOL     OW27214   0.048   4.596   8.161 -0.2236 -0.4085  0.3123
 5193SOL    HW127215   0.089   4.517   8.125  0.4367  0.7120 -1.4412
 5193SOL    HW227216   4.720   4.623   8.100 -0.3074  0.6489  0.8784
 5194SOL     OW27217   2.307   3.078   3.163 -0.5027 -0.1504 -0.9746
 5194SOL    HW127218   2.375   3.010   3.162  2.8246  3.1182  1.0070
 5194SOL    HW227219   2.238   3.034   3.211  0.4566 -0.1564  0.3882
 5195SOL     OW27220   1.984   2.314   7.841 -0.4927 -0.0533 -0.4459
 5195SOL    HW127221   1.897   2.289   7.810 -1.1015 -1.9835  2.8332
 5195SOL    HW227222   1.953   2.378   7.905  2.9623  3.3722 -2.2156
 5196SOL     OW27223   4.428   2.027  13.114 -0.0946 -0.7283 -0.6319
 5196SOL    HW127224   4.401   2.054  13.202  1.3145  1.2449 -0.7950
 5196SOL    HW227225   4.453   2.109  13.073 -0.8750  0.6920  1.6822
 5197SOL     OW27226   4.607   1.436   2.886  0.1734  0.4147 -0.2307
 5197SOL    HW127227   4.554   1.356   2.881 -0.2336  0.5635  2.0200
 5197SOL    HW227228   4.584   1.481   2.805  1.3933 -0.1755 -0.9162
 5198SOL     OW27229   1.146   2.784   9.948 -0.3218 -0.3768  0.0717
 5198SOL    HW127230   1.201   2.794  10.025 -2.5845 -3.7461  2.1265
 5198SOL    HW227231   1.089   2.714   9.981  1.0847 -0.7584  1.6427
 5199SOL     OW27232   3.458   2.618   7.006 -0.8631 -0.4261  0.5500
 5199SOL    HW127233   3.487   2.699   7.049 -0.3770  0.1166 -0.8076
 5199SOL    HW227234   3.364   2.633   6.999 -0.8449 -0.7262 -0.3166
 5200SOL     OW27235   2.572   2.956   3.449 -0.2673  0.0167  0.0342
 5200SOL    HW127236   2.600   2.867   3.470 -0.9429  0.1679  1.5390
 5200SOL    HW227237   2.539   2.936   3.361 -0.8510  1.5759 -0.1004
 5201SOL     OW27238   0.009   0.546   9.282  0.3866 -0.4826  0.0555
 5201SOL    HW127239   0.025   0.627   9.233  1.5963 -0.5128  0.4104
 5201SOL    HW227240   4.654   0.538   9.289  0.4114  0.7240  1.7629
 5202SOL     OW27241   4.492   0.346   3.792  0.5819  0.1950 -0.5543
 5202SOL    HW127242   4.403   0.315   3.774  0.5559 -0.1492  0.1646
 5202SOL    HW227243   4.539   0.270   3.758 -1.8346 -0.1222 -3.1897
 5203SOL     OW27244   2.598   1.165   8.051 -0.0281  0.2228  0.2525
 5203SOL    HW127245   2.586   1.230   7.982  1.2752 -1.4008 -1.5232
 5203SOL    HW227246   2.517   1.115   8.045  0.4216 -0.5410  0.4591
 5204SOL     OW27247   1.645   3.933  11.798  0.3800 -0.5478  0.4662
 5204SOL    HW127248   1.622   3.846  11.830  0.8130 -0.1609  1.8398
 5204SOL    HW227249   1.558   3.972  11.801  0.9124  0.7573 -0.8094
 5205SOL     OW27250   3.041   1.173   3.291  0.1573  0.2672  0.3663
 5205SOL    HW127251   2.968   1.184   3.352 -1.0094  0.8914 -1.1354
 5205SOL    HW227252   3.012   1.104   3.232  0.1563 -1.3165  2.2385
 5206SOL     OW27253   3.594   3.462   2.977 -0.4036 -0.4633 -0.4019
 5206SOL    HW127254   3.566   3.409   3.052 -0.6678  1.6794  1.0103
 5206SOL    HW227255   3.569   3.397   2.912 -2.0126  0.4721 -0.7431
 5207SOL     OW27256   1.339   4.435   6.394  0.0799  0.1284 -0.0185
 5207SOL    HW127257   1.367   4.526   6.393 -0.7270  0.4056  2.2683
 5207SOL    HW227258   1.392   4.406   6.469 -0.9152  2.8556  1.7481
 5208SOL     OW27259   1.402   2.441   2.207 -0.1532 -0.2715 -0.0296
 5208SOL    HW127260   1.329   2.484   2.250 -0.8677  0.1483 -1.6626
 5208SOL    HW227261   1.400   2.467   2.115 -2.5536 -0.3835 -0.0013
 5209SOL     OW27262   1.704   2.986   3.455 -0.5130  0.0340 -0.5291
 5209SOL    HW127263   1.731   2.980   3.547  1.4223  1.2820 -1.0257
 5209SOL    HW227264   1.734   2.904   3.415  1.5924  0.9228 -0.7984
 5210SOL     OW27265   1.650   2.694   8.268 -0.2461  0.5281  0.2905
 5210SOL    HW127266   1.710   2.622   8.287  0.5368  0.8516 -0.9932
 5210SOL    HW227267   1.574   2.661   8.317  0.5551 -1.6396  0.0542
 5211SOL     OW27268   4.692   4.131  17.603 -0.1923 -0.3991  0.4889
 5211SOL    HW127269   4.730   4.137  17.691 -1.1865 -1.9085  1.0122
 5211SOL    HW227270   4.629   4.203  17.607 -0.3034 -0.3882 -1.6440
 5212SOL     OW27271   2.755   0.590   6.325  0.5607 -0.2243  0.5084
 5212SOL    HW127272   2.682   0.564   6.381  0.7466  0.0818  0.8916
 5212SOL    HW227273   2.821   0.521   6.325 -1.0731 -1.7734  0.2288
 5213SOL     OW27274   3.685   0.072   8.225  0.1825  0.1736 -0.3197
 5213SOL    HW127275   3.685   0.139   8.158  0.6217 -0.2755 -0.7698
 5213SOL    HW227276   3.594   0.084   8.254  0.8623  0.9605  1.5174
 5214SOL     OW27277   3.042   3.931   2.724  0.4314  0.2966  0.4302
 5214SOL    HW127278   3.103   3.920   2.797 -1.5167 -2.2179  1.6558
 5214SOL    HW227279   2.956   3.947   2.763  0.3463  0.2466  0.2619
 5215SOL     OW27280   3.614   2.147  17.107  0.0978 -0.2051  0.3036
 5215SOL    HW127281   3.698   2.104  17.092  0.0782  0.7241 -2.5506
 5215SOL    HW227282   3.618   2.234  17.067 -0.7674 -0.6486 -0.7556
 5216SOL     OW27283   2.630   3.584   3.873 -0.5264  0.0287  0.2308
 5216SOL    HW127284   2.711   3.543   3.844 -0.9358 -1.0225  0.5687
 5216SOL    HW227285   2.662   3.673   3.886 -0.5278  0.2009 -0.9420
 5217SOL     OW27286   1.198   2.941   7.487  0.3397  0.3383 -0.0813
 5217SOL    HW127287   1.208   2.913   7.578 -1.5185  0.9544  0.3196
 5217SOL    HW227288   1.286   2.970   7.466 -0.0814  1.7066  0.0765
 5218SOL     OW27289   4.246   4.162   8.652 -0.0956  0.7651 -0.0525
 5218SOL    HW127290   4.214   4.209   8.575 -0.9913  2.1664  1.1819
 5218SOL    HW227291   4.190   4.084   8.653  0.6540  0.2295  0.4449
 5219SOL     OW27292   1.970   3.776   2.445  0.4425 -0.1274 -0.0638
 5219SOL    HW127293   1.912   3.850   2.463  1.8639  1.3384 -1.5261
 5219SOL    HW227294   2.047   3.809   2.399  0.7174 -0.6368  0.0286
 5220SOL     OW27295   2.618   2.440   4.191 -0.4168  0.5583  0.3644
 5220SOL    HW127296   2.533   2.460   4.151 -0.4613 -3.0946 -1.4085
 5220SOL    HW227297   2.615   2.344   4.195 -1.1917  0.5785  0.2145
 5221SOL     OW27298   3.836   0.183   5.845 -0.0529  0.4797 -0.0112
 5221SOL    HW127299   3.788   0.176   5.762 -0.8446 -0.7177  0.5518
 5221SOL    HW227300   3.924   0.180   5.806  0.4054  1.0299  0.9898
 5222SOL     OW27301   2.014   3.302   2.909 -0.4367  0.2934  0.5131
 5222SOL    HW127302   2.084   3.338   2.964  1.0151  0.8417 -1.7244
 5222SOL    HW227303   2.083   3.272   2.849 -0.0422  1.2573  0.4911
 5223SOL     OW27304   2.897   3.860  17.395  0.2792  0.3163 -0.3601
 5223SOL    HW127305   2.867   3.872  17.485  0.9271  0.3673 -0.1506
 5223SOL    HW227306   2.848   3.934  17.360  1.8489  1.7254  0.4396
 5224SOL     OW27307   3.610   0.982   3.498 -0.1059  0.2364  0.2659
 5224SOL    HW127308   3.544   0.997   3.566 -0.1530 -0.0821  0.2882
 5224SOL    HW227309   3.684   1.034   3.531 -1.2072  0.1861  2.8478
 5225SOL     OW27310   3.830   2.810  11.688  0.0043  0.0811  0.3215
 5225SOL    HW127311   3.860   2.842  11.602 -0.8365  0.5085  0.1871
 5225SOL    HW227312   3.915   2.818  11.731 -1.2527  1.5327  2.5194
 5226SOL     OW27313   4.660   2.797   7.872 -0.3160 -0.0629 -0.4221
 5226SOL    HW127314   4.690   2.758   7.790  1.6024 -0.2682  0.3626
 5226SOL    HW227315   4.572   2.829   7.855 -0.2320  0.9052  0.9463
 5227SOL     OW27316   0.536   4.069   4.157 -0.3073 -0.1878  0.2160
 5227SOL    HW127317   0.573   3.991   4.197 -0.1824 -0.1231  0.2260
 5227SOL    HW227318   0.538   4.124   4.235 -1.0630 -1.3158  1.0410
 5228SOL     OW27319   3.199   1.810   8.010 -0.5482  0.5464 -0.0520
 5228SOL    HW127320   3.133   1.786   8.075  2.3480 -0.1119  2.6216
 5228SOL    HW227321   3.154   1.792   7.928  1.0497  0.0103 -0.8216
 5229SOL     OW27322   2.534   1.907   9.713 -0.1437  0.3114 -0.9314
 5229SOL    HW127323   2.616   1.941   9.746  0.4289  1.2441 -3.3018
 5229SOL    HW227324   2.507   1.841   9.776 -0.2591  1.6546  0.4130
 5230SOL     OW27325   0.275   1.936  10.932  0.5439 -0.0630 -0.7592
 5230SOL    HW127326   0.338   2.001  10.964  0.4566 -0.4757  0.2741
 5230SOL    HW227327   0.202   1.959  10.990 -0.0969 -2.1937 -0.7325
 5231SOL     OW27328   1.860   4.431   2.321  0.2603 -0.2547  0.1597
 5231SOL    HW127329   1.835   4.340   2.310 -0.2763 -0.1110  0.1824
 5231SOL    HW227330   1.947   4.428   2.361 -0.2082  0.0281  1.2129
 5232SOL     OW27331   4.637   4.498   1.617 -0.0623  0.4647 -0.5168
 5232SOL    HW127332   4.691   4.444   1.675  1.8570  1.4993 -1.3595
 5232SOL    HW227333   4.695   4.571   1.596  0.9374 -0.2985 -0.4221
 5233SOL     OW27334   2.676   0.870   7.975 -0.6705 -0.1081 -0.5411
 5233SOL    HW127335   2.714   0.935   8.035  1.8872 -1.3486 -0.8318
 5233SOL    HW227336   2.685   0.907   7.887  0.1354  1.0557  0.0300
 5234SOL     OW27337   2.685   2.443  14.823  0.0425  0.1301  0.2013
 5234SOL    HW127338   2.713   2.379  14.758 -0.4749  0.5477 -0.4245
 5234SOL    HW227339   2.733   2.521  14.794  0.6033 -0.2535  0.0911
 5235SOL     OW27340   0.374   2.459   6.951 -0.5530  0.0097 -0.1050
 5235SOL    HW127341   0.351   2.550   6.969 -1.5528 -0.4437  0.8947
 5235SOL    HW227342   0.295   2.418   6.987  0.6320  0.5025  3.0698
 5236SOL     OW27343   1.625   2.060   0.473 -0.3844 -0.5111 -0.1807
 5236SOL    HW127344   1.591   1.974   0.450 -2.1530  0.2641 -0.4935
 5236SOL    HW227345   1.562   2.090   0.539 -0.0207  1.0711 -0.5626
 5237SOL     OW27346   3.972   0.614   4.211 -0.4714  0.2589  0.1725
 5237SOL    HW127347   3.880   0.588   4.203 -0.1436 -0.7754 -0.2602
 5237SOL    HW227348   3.962   0.701   4.249 -0.0496  0.4174 -0.0844
 5238SOL     OW27349   3.685   4.702  13.745 -0.5823 -0.8111 -0.0995
 5238SOL    HW127350   3.623   4.642  13.786 -0.2850 -1.7384 -1.0141
 5238SOL    HW227351   3.722   4.645  13.678  1.0677  1.5468 -1.2002
 5239SOL     OW27352   4.542   0.776  13.549 -0.2168 -0.0746 -0.3078
 5239SOL    HW127353   4.531   0.843  13.481  0.0108  0.5123  0.2357
 5239SOL    HW227354   4.633   0.776  13.577 -0.9885  0.9728  2.1792
 5240SOL     OW27355   3.943   2.719   2.152 -0.4372  0.0351  0.9604
 5240SOL    HW127356   3.880   2.683   2.091 -0.3435  0.1870  0.7760
 5240SOL    HW227357   4.018   2.660   2.139 -1.8743 -1.8318  1.1106
 5241SOL     OW27358   1.165   2.716  10.410 -0.0713  0.0526 -0.4834
 5241SOL    HW127359   1.224   2.667  10.352 -0.6556 -1.4728  0.2161
 5241SOL    HW227360   1.216   2.704  10.490  1.2699  1.1898 -1.1718
 5242SOL     OW27361   1.373   2.535   7.109 -0.1448 -0.3663  0.2209
 5242SOL    HW127362   1.385   2.581   7.192 -0.9087 -0.2137  0.2517
 5242SOL    HW227363   1.432   2.460   7.107  1.3782  0.8953 -2.1649
 5243SOL     OW27364   2.334   0.381  10.128 -0.2532 -0.9485  0.0407
 5243SOL    HW127365   2.239   0.390  10.141 -0.3625  0.0153 -1.4134
 5243SOL    HW227366   2.346   0.298  10.173  0.5059 -0.0131  1.5825
 5244SOL     OW27367   1.037   1.507  15.772  0.2313 -0.5834 -0.0819
 5244SOL    HW127368   0.957   1.556  15.756 -0.2712 -1.2490  0.4013
 5244SOL    HW227369   1.106   1.571  15.753 -0.2787  0.2684  0.9442
 5245SOL     OW27370   0.662   0.631   4.457 -0.8713 -0.3260  0.5852
 5245SOL    HW127371   0.656   0.600   4.547 -1.2384 -0.1382  0.6255
 5245SOL    HW227372   0.608   0.562   4.419 -0.7544  0.5816 -1.2201
 5246SOL     OW27373   1.149   1.731  15.683 -0.7188  0.4514  0.0658
 5246SOL    HW127374   1.199   1.806  15.651  1.3459  0.3810  3.1974
 5246SOL    HW227375   1.068   1.775  15.710 -1.1764  1.1270 -2.4020
 5247SOL     OW27376   0.465   4.715   2.653  0.1317 -0.3025  0.4721
 5247SOL    HW127377   0.397   4.664   2.610  1.7535 -1.7460 -0.3554
 5247SOL    HW227378   0.499   0.032   2.584  0.4277 -1.2221 -0.1281
 5248SOL     OW27379   2.742   3.253   4.708 -0.1678  0.7867  0.6650
 5248SOL    HW127380   2.806   3.211   4.765  0.9311  1.4895 -0.0617
 5248SOL    HW227381   2.671   3.272   4.769 -0.2413 -1.4213  1.2833
 5249SOL     OW27382   2.075   0.943   3.454  0.0103 -0.1043  0.0690
 5249SOL    HW127383   2.161   0.976   3.478  0.4285  0.7159 -2.6455
 5249SOL    HW227384   2.022   1.017   3.484  1.1795  0.7971 -0.1175
 5250SOL     OW27385   4.341   2.508   1.924 -0.2818 -0.3416 -0.1931
 5250SOL    HW127386   4.342   2.460   1.842 -0.6399  1.9846 -1.5573
 5250SOL    HW227387   4.378   2.446   1.987 -1.7617  0.0316  1.0753
 5251SOL     OW27388   1.271   1.017  16.269  0.0167  0.2671 -0.2726
 5251SOL    HW127389   1.201   1.048  16.211  1.3466  1.2863 -1.3369
 5251SOL    HW227390   1.304   1.099  16.305  0.6204  0.5779 -1.5111
 5252SOL     OW27391   3.492   1.780   8.561 -0.7364  0.6301  0.5294
 5252SOL    HW127392   3.565   1.723   8.584 -0.5653  0.3290 -0.7291
 5252SOL    HW227393   3.478   1.821   8.646 -0.0195  1.1837  0.3856
 5253SOL     OW27394   3.185   0.404   5.580 -0.3604 -0.5233  0.4916
 5253SOL    HW127395   3.194   0.485   5.531 -2.5349 -0.8892 -0.5271
 5253SOL    HW227396   3.093   0.412   5.606 -0.0584 -0.8674  1.6719
 5254SOL     OW27397   2.439   3.351   0.769  0.0630  0.3797 -0.3090
 5254SOL    HW127398   2.504   3.309   0.713 -1.2515 -0.4358 -1.2187
 5254SOL    HW227399   2.367   3.290   0.753 -0.2318  0.1075  2.0231
 5255SOL     OW27400   0.410   0.725   5.785  0.3072  0.7468 -0.6006
 5255SOL    HW127401   0.352   0.712   5.710 -0.6321  0.0088  0.2526
 5255SOL    HW227402   0.396   0.814   5.816  1.2457  0.8996 -0.6374
 5256SOL     OW27403   0.955   3.090   7.468 -0.3429 -0.3696  0.4144
 5256SOL    HW127404   0.953   3.143   7.389 -0.3378 -0.9690  0.0139
 5256SOL    HW227405   1.040   3.121   7.500 -0.3222 -0.2260  0.2154
 5257SOL     OW27406   4.558   2.755   3.708 -0.1308  0.0959 -0.4166
 5257SOL    HW127407   4.523   2.841   3.686 -0.2632 -0.2345 -1.4867
 5257SOL    HW227408   4.621   2.771   3.778  1.5119 -2.4400 -1.3183
 5258SOL     OW27409   2.920   0.002   5.916 -0.2690  0.0842  0.2175
 5258SOL    HW127410   2.999   0.047   5.944  0.4096 -0.9821  0.0402
 5258SOL    HW227411   2.855   0.053   5.963 -1.0060  1.7434 -2.5557
 5259SOL     OW27412   3.867   2.820   1.014 -0.2890  0.3265 -0.0319
 5259SOL    HW127413   3.942   2.849   0.962  0.8976 -0.4108  1.2630
 5259SOL    HW227414   3.893   2.729   1.031 -1.0268  0.0275 -0.5085
 5260SOL     OW27415   0.436   1.619   5.877 -0.0551 -0.2273  0.6134
 5260SOL    HW127416   0.342   1.619   5.858 -0.3819 -1.1447  2.2995
 5260SOL    HW227417   0.441   1.667   5.959 -1.2452 -0.5172  0.8481
 5261SOL     OW27418   4.173   2.782   6.460  0.6841 -0.4579 -0.1779
 5261SOL    HW127419   4.150   2.694   6.430 -0.4962  0.4024 -1.8244
 5261SOL    HW227420   4.207   2.764   6.547  0.5465  0.8225  0.1519
 5262SOL     OW27421   4.424   3.697   8.109 -0.3306  0.1616 -0.7016
 5262SOL    HW127422   4.432   3.662   8.198  2.2532  1.5276 -0.4039
 5262SOL    HW227423   4.339   3.741   8.112 -1.4856 -2.1721  1.0640
 5263SOL     OW27424   2.092   1.809   2.102 -0.6921  0.1235 -0.7191
 5263SOL    HW127425   2.057   1.723   2.079  0.6962 -0.3027 -1.2716
 5263SOL    HW227426   2.150   1.835   2.030 -2.0838  0.1095 -1.8382
 5264SOL     OW27427   1.489   4.182  17.060 -0.8732 -1.0495  0.0660
 5264SOL    HW127428   1.404   4.159  17.023 -2.1885  0.3664  2.1823
 5264SOL    HW227429   1.489   4.176  17.156 -0.2383  0.5582  0.1761
 5265SOL     OW27430   2.036   3.815  10.959 -0.6509  0.3043  0.4871
 5265SOL    HW127431   2.066   3.733  10.920  0.9857  0.6290  1.0646
 5265SOL    HW227432   2.096   3.878  10.919 -0.1027  0.0451  0.8928
 5266SOL     OW27433   2.159   3.847   2.922 -0.3695  0.4871 -0.3879
 5266SOL    HW127434   2.143   3.815   2.833 -1.4769 -1.4011  0.5066
 5266SOL    HW227435   2.139   3.770   2.975  3.0167 -2.0613 -2.8137
 5267SOL     OW27436   0.650   4.373   5.276  0.3451  0.2921 -1.0844
 5267SOL    HW127437   0.663   4.355   5.183  0.8509  0.0926 -0.9785
 5267SOL    HW227438   0.619   4.464   5.273  2.7333  1.0219 -3.7444
 5268SOL     OW27439   1.749   4.667   9.342 -0.2971  0.1582  0.2870
 5268SOL    HW127440   1.707   4.692   9.424 -0.8715 -1.3631  0.4467
 5268SOL    HW227441   1.826   4.723   9.351  0.2891 -0.5133 -0.5599
 5269SOL     OW27442   0.130   1.684   5.339 -0.6142 -0.7492  0.0933
 5269SOL    HW127443   0.056   1.629   5.363 -0.2994 -1.3781 -0.3825
 5269SOL    HW227444   0.160   1.639   5.261 -3.3987  1.1874 -2.1112
 5270SOL     OW27445   3.799   3.393   9.991 -0.2946  0.5354  0.0013
 5270SOL    HW127446   3.726   3.334   9.976  0.7159 -0.9144  0.8345
 5270SOL    HW227447   3.854   3.353   9.923  0.6168  0.5595  0.7342
 5271SOL     OW27448   0.362   1.630   2.838  0.5084  0.3478  0.3382
 5271SOL    HW127449   0.338   1.713   2.797  0.9197 -0.4250 -1.4501
 5271SOL    HW227450   0.422   1.670   2.901 -0.0719 -2.8965  2.9741
 5272SOL     OW27451   1.161   1.507   0.645  0.1024 -0.5983 -0.5829
 5272SOL    HW127452   1.117   1.562   0.710 -0.5170 -0.6149 -0.9909
 5272SOL    HW227453   1.250   1.514   0.681 -0.1321  1.6375 -0.4266
 5273SOL     OW27454   2.270   0.105   2.700  0.2021  0.2159 -0.5070
 5273SOL    HW127455   2.223   0.184   2.673  0.7133  0.8099  0.3475
 5273SOL    HW227456   2.343   0.113   2.639  0.0117  0.5232 -0.6985
 5274SOL     OW27457   2.658   3.785   2.584  0.3519 -0.2610 -0.4586
 5274SOL    HW127458   2.706   3.706   2.561 -2.0644 -1.5427 -1.0850
 5274SOL    HW227459   2.725   3.854   2.584  1.3428 -1.2251  1.9449
 5275SOL     OW27460   2.899   2.539   3.280 -0.2358  0.4992 -0.0395
 5275SOL    HW127461   2.931   2.491   3.203  0.7397 -1.2786  1.4823
 5275SOL    HW227462   2.933   2.628   3.276  1.9613 -0.3245  0.0414
 5276SOL     OW27463   0.281   0.575   1.236  0.2749 -0.9337 -0.3655
 5276SOL    HW127464   0.327   0.492   1.222 -0.3986 -1.8822  2.9332
 5276SOL    HW227465   0.249   0.598   1.150  0.8638  0.9269 -0.0742
 5277SOL     OW27466   3.311   0.207   2.135 -0.0822 -0.3259  0.0133
 5277SOL    HW127467   3.399   0.224   2.168 -0.7689  1.3231  0.9640
 5277SOL    HW227468   3.291   0.281   2.078 -1.8654  0.4699  1.6998
 5278SOL     OW27469   1.419   2.638   3.376 -0.9168  0.4252 -0.0271
 5278SOL    HW127470   1.431   2.715   3.431  0.3345 -0.2093  0.5856
 5278SOL    HW227471   1.325   2.648   3.357 -0.8279  0.7679 -0.2839
 5279SOL     OW27472   1.197   4.165  12.385 -0.4620  0.0842 -0.4189
 5279SOL    HW127473   1.272   4.140  12.439 -1.5797  0.8502  1.4793
 5279SOL    HW227474   1.233   4.216  12.312 -0.9976  0.2770 -0.5459
 5280SOL     OW27475   2.537   2.194   4.323  0.4970  0.2049  0.4780
 5280SOL    HW127476   2.594   2.119   4.305  1.1292  0.0478  3.0721
 5280SOL    HW227477   2.469   2.168   4.261 -2.1573  1.2404  2.9515
 5281SOL     OW27478   4.137   2.824   5.946  0.1094  0.1096 -0.0656
 5281SOL    HW127479   4.218   2.819   5.895  0.4106  1.7149  0.2692
 5281SOL    HW227480   4.178   2.820   6.032 -1.1453 -2.3517  0.4339
 5282SOL     OW27481   3.739   4.529   8.151  0.3313 -0.3271 -0.5112
 5282SOL    HW127482   3.694   4.542   8.068 -0.3744  0.7493  0.0314
 5282SOL    HW227483   3.747   4.623   8.171  1.7154  0.1184 -3.0995
 5283SOL     OW27484   1.906   2.077   3.291 -0.4911 -0.4391  0.3523
 5283SOL    HW127485   1.949   2.012   3.347 -2.0259 -1.1036  0.7785
 5283SOL    HW227486   1.835   2.021   3.260 -0.5955  0.1028 -0.3823
 5284SOL     OW27487   1.805   1.532   4.714  0.2731  0.2396  0.1206
 5284SOL    HW127488   1.749   1.475   4.660 -3.0167  0.1476  3.6236
 5284SOL    HW227489   1.857   1.464   4.757  1.9313  3.6959  3.5038
 5285SOL     OW27490   2.924   1.746  13.189 -0.3326 -0.3322  0.5523
 5285SOL    HW127491   2.835   1.782  13.192 -0.1624  0.2231 -1.2394
 5285SOL    HW227492   2.940   1.747  13.284 -3.3532 -0.2827  1.0620
 5286SOL     OW27493   0.736   2.485   7.966 -0.1751  0.0660 -0.5114
 5286SOL    HW127494   0.675   2.510   7.897 -2.1178 -1.2134  0.7024
 5286SOL    HW227495   0.820   2.493   7.921  0.7184  0.8072  1.2856
 5287SOL     OW27496   3.246   4.209   5.780  0.3077  0.8565  0.2436
 5287SOL    HW127497   3.151   4.205   5.790  0.2321  0.8567 -0.4513
 5287SOL    HW227498   3.267   4.117   5.763  0.8224  1.1322 -0.6428
 5288SOL     OW27499   2.445   2.606   6.016 -0.8162 -0.2497  0.3865
 5288SOL    HW127500   2.384   2.630   5.946 -0.2717  1.0468  0.3468
 5288SOL    HW227501   2.515   2.557   5.974  0.7750  1.3848  1.0845
 5289SOL     OW27502   3.806   4.146  11.879 -0.1987 -0.2867 -0.0637
 5289SOL    HW127503   3.726   4.172  11.923  0.1183 -0.9470  0.9054
 5289SOL    HW227504   3.864   4.221  11.891 -1.1512  0.4318  0.0001
 5290SOL     OW27505   1.077   3.483   7.124  0.1236 -0.4088 -0.2917
 5290SOL    HW127506   1.038   3.524   7.047  0.2354 -1.0541 -0.6912
 5290SOL    HW227507   1.002   3.451   7.174  0.6054  1.2931  1.5146
 5291SOL     OW27508   3.945   0.889   4.302 -0.0500 -0.1019  0.3530
 5291SOL    HW127509   3.900   0.960   4.348  0.9458  2.1649 -2.1861
 5291SOL    HW227510   3.929   0.920   4.213  0.4367 -1.4490 -0.2122
 5292SOL     OW27511   2.521   0.594   7.170  0.7503  0.0208 -0.4226
 5292SOL    HW127512   2.604   0.623   7.209 -0.0173  2.1616 -0.3808
 5292SOL    HW227513   2.465   0.582   7.247 -0.3613  3.0912 -0.7518
 5293SOL     OW27514   0.450   1.632   4.416  0.7067 -0.6421  0.3856
 5293SOL    HW127515   0.421   1.683   4.341 -1.2257 -3.3614 -0.7042
 5293SOL    HW227516   0.514   1.574   4.375 -0.9047 -2.5802  0.6631
 5294SOL     OW27517   0.646   1.964  16.541  0.0997  0.5160  0.0958
 5294SOL    HW127518   0.654   1.951  16.636  0.3483 -1.9092 -0.2562
 5294SOL    HW227519   0.659   1.876  16.504  3.9533  0.5599  1.3674
 5295SOL     OW27520   3.563   4.292  11.887 -0.4173 -0.4249 -0.0395
 5295SOL    HW127521   3.522   4.265  11.804 -0.5621 -0.9694  0.2121
 5295SOL    HW227522   3.577   4.383  11.861 -0.3914 -0.8312 -1.4590
 5296SOL     OW27523   4.236   3.821   1.548  0.2791  0.2539 -0.2457
 5296SOL    HW127524   4.246   3.898   1.492  1.8447  0.6315  0.5734
 5296SOL    HW227525   4.321   3.778   1.537 -1.0660 -2.2949 -0.7883
 5297SOL     OW27526   0.392   3.797   2.582  0.3874 -0.5093  0.3126
 5297SOL    HW127527   0.483   3.802   2.613  0.8047  4.7976 -1.7951
 5297SOL    HW227528   0.349   3.844   2.653 -1.0408 -0.1281 -0.8141
 5298SOL     OW27529   0.023   3.435  10.697 -0.0861  0.3104 -0.4016
 5298SOL    HW127530   0.094   3.481  10.741  0.9884  0.3867 -2.1973
 5298SOL    HW227531   4.681   3.461  10.738 -0.0262  1.5695 -1.0945
 5299SOL     OW27532   4.196   2.305   0.526 -0.0379  0.3107 -0.3182
 5299SOL    HW127533   4.145   2.383   0.506 -2.4982 -1.2517 -0.0862
 5299SOL    HW227534   4.268   2.321   0.465  0.8567  4.1033  1.6897
 5300SOL     OW27535   0.820   4.349   7.488  0.0180 -0.2191 -0.6148
 5300SOL    HW127536   0.778   4.432   7.512 -0.5040 -1.0194  1.2156
 5300SOL    HW227537   0.837   4.371   7.397  0.5901  1.8154 -0.0246
 5301SOL     OW27538   2.770   2.974   7.979  0.0068 -0.7236 -0.4234
 5301SOL    HW127539   2.742   2.975   8.071  0.8108 -1.8722 -0.1698
 5301SOL    HW227540   2.688   2.990   7.931 -0.4984  2.2391  1.3665
 5302SOL     OW27541   1.274   1.993   6.411  0.3249 -0.2062  0.4717
 5302SOL    HW127542   1.369   1.989   6.404  0.1935 -2.7634  0.2667
 5302SOL    HW227543   1.241   2.036   6.331  2.1463  3.5118  1.6948
 5303SOL     OW27544   2.919   4.586   2.101  0.3238 -0.2023  0.5733
 5303SOL    HW127545   3.012   4.590   2.080 -0.2167  0.1163 -1.8596
 5303SOL    HW227546   2.880   4.618   2.019  0.5534  0.8682  0.8763
 5304SOL     OW27547   1.382   2.862   6.098 -0.1243 -0.0475  0.3938
 5304SOL    HW127548   1.431   2.901   6.170  0.6058 -2.4390  1.1825
 5304SOL    HW227549   1.310   2.925   6.099  0.4853  0.6548  0.1872
 5305SOL     OW27550   3.391   4.565   4.530 -0.3975 -0.7721  0.0589
 5305SOL    HW127551   3.487   4.563   4.530 -0.3660  1.1188  0.5343
 5305SOL    HW227552   3.392   4.634   4.463 -2.5543  0.2526  1.1073
 5306SOL     OW27553   4.709   4.584   7.122 -0.1786  0.4131 -0.1594
 5306SOL    HW127554   0.029   4.601   7.050  1.0380 -1.7032  0.3587
 5306SOL    HW227555   4.673   4.672   7.136 -0.6028  0.3428 -0.7902
 5307SOL     OW27556   0.205   4.569  14.677  0.5107 -0.6631 -0.4705
 5307SOL    HW127557   0.228   4.508  14.747  1.6485 -1.3781 -1.4817
 5307SOL    HW227558   0.135   4.523  14.630 -0.3227 -0.4763  0.5864
 5308SOL     OW27559   1.098   2.340  12.312  0.1807  0.5787 -0.3206
 5308SOL    HW127560   1.033   2.322  12.380  1.5607  0.7424  1.0095
 5308SOL    HW227561   1.132   2.252  12.296  0.7566  0.4119  1.8589
 5309SOL     OW27562   3.604   0.154  12.931  0.1532 -0.1333 -0.1212
 5309SOL    HW127563   3.673   0.188  12.988 -0.8841  0.3001  0.8742
 5309SOL    HW227564   3.542   0.225  12.918  0.9783  0.3780 -1.2424
 5310SOL     OW27565   0.624   1.055  13.386 -0.3909  0.2511  0.0666
 5310SOL    HW127566   0.599   0.976  13.434  1.0553 -0.9179 -1.0875
 5310SOL    HW227567   0.710   1.072  13.424 -1.2673  1.3916  1.5347
 5311SOL     OW27568   2.288   0.722   7.081 -0.1234 -0.0996 -0.0096
 5311SOL    HW127569   2.306   0.647   7.138  2.4264 -0.7247 -1.6173
 5311SOL    HW227570   2.365   0.777   7.100 -1.3308  0.8245  2.2213
 5312SOL     OW27571   3.132   2.518   3.732  0.3159 -0.4914 -0.0127
 5312SOL    HW127572   3.163   2.436   3.769 -2.2880 -1.5496 -0.1877
 5312SOL    HW227573   3.127   2.495   3.639  0.5205 -3.8409  0.8310
 5313SOL     OW27574   0.034   2.256  15.492 -0.2245  0.7715 -0.0441
 5313SOL    HW127575   4.725   2.174  15.502  2.6897 -1.1925 -1.7731
 5313SOL    HW227576   4.700   2.315  15.480  0.5148  1.9319  1.0780
 5314SOL     OW27577   3.826   2.387   7.031 -0.3740  0.4653 -0.3365
 5314SOL    HW127578   3.792   2.366   7.118  2.2281 -0.2382  0.4918
 5314SOL    HW227579   3.798   2.478   7.033  0.1963  0.6114  0.8184
 5315SOL     OW27580   0.716   1.209  11.210  0.4048  0.3877 -0.0071
 5315SOL    HW127581   0.711   1.224  11.116 -0.5481  3.4107  0.5236
 5315SOL    HW227582   0.754   1.121  11.218  1.2647  0.7510 -0.1179
 5316SOL     OW27583   0.171   1.400   6.668  0.0516 -0.1513 -0.0785
 5316SOL    HW127584   0.209   1.395   6.756  1.7416 -2.4583 -0.9278
 5316SOL    HW227585   0.202   1.319   6.627 -0.8099 -1.8633  2.6755
 5317SOL     OW27586   1.613   1.100   2.817  0.3976 -0.2693  0.4256
 5317SOL    HW127587   1.642   1.189   2.838  0.8927 -0.0038 -1.4263
 5317SOL    HW227588   1.521   1.109   2.842 -0.3104  0.0687 -2.2879
 5318SOL     OW27589   3.089   2.391  13.442 -0.3013 -0.1728  0.0185
 5318SOL    HW127590   3.167   2.343  13.414  0.4261  0.6804  0.5819
 5318SOL    HW227591   3.050   2.425  13.361  0.6954 -1.0580 -0.8348
 5319SOL     OW27592   1.294   0.630   1.664  0.0921  0.4248  0.5575
 5319SOL    HW127593   1.384   0.615   1.694  0.8381  0.6700 -1.5638
 5319SOL    HW227594   1.245   0.560   1.708  0.6220  0.8294  1.7910
 5320SOL     OW27595   3.243   3.731   3.906 -0.0467  0.2164  0.0925
 5320SOL    HW127596   3.246   3.822   3.935  3.1536 -1.1735  4.0117
 5320SOL    HW227597   3.285   3.690   3.981 -0.1412  0.8762  0.5036
 5321SOL     OW27598   4.222   1.658   3.329 -0.0639 -0.4381  0.2122
 5321SOL    HW127599   4.196   1.677   3.239  1.1924 -1.1339 -0.3061
 5321SOL    HW227600   4.188   1.570   3.344 -2.4978  0.5608  0.6190
 5322SOL     OW27601   2.506   1.323   3.607  0.7823  0.5393  0.3075
 5322SOL    HW127602   2.570   1.374   3.656 -0.5711  3.3574 -0.8824
 5322SOL    HW227603   2.489   1.389   3.540 -1.5062  2.2041  2.5392
 5323SOL     OW27604   3.190   1.764   9.885 -0.9056  0.5674 -0.4455
 5323SOL    HW127605   3.260   1.764   9.821  0.5201 -0.1488  1.1183
 5323SOL    HW227606   3.197   1.675   9.919  0.2364  0.2599 -1.4930
 5324SOL     OW27607   0.723   2.655   2.522 -0.1303 -0.2126 -0.3515
 5324SOL    HW127608   0.714   2.601   2.600 -1.1746 -1.3039 -1.2297
 5324SOL    HW227609   0.741   2.736   2.570  1.5882 -1.7923  1.6108
 5325SOL     OW27610   3.383   3.767  11.891 -0.2370  0.1311 -0.5060
 5325SOL    HW127611   3.318   3.718  11.841 -2.7270  2.1290  0.7952
 5325SOL    HW227612   3.418   3.693  11.939 -0.7218  0.2387  0.0051
 5326SOL     OW27613   2.139   0.790   4.464  0.3196 -0.5962 -0.1889
 5326SOL    HW127614   2.095   0.869   4.432 -2.5928 -2.3951 -0.5734
 5326SOL    HW227615   2.165   0.828   4.548 -1.7299 -1.2906  0.7453
 5327SOL     OW27616   4.015   1.065   1.455  0.5831  0.0638 -0.1949
 5327SOL    HW127617   4.049   1.144   1.414 -0.2170  0.0283 -0.9370
 5327SOL    HW227618   3.926   1.092   1.480  0.0801 -0.5312 -1.3401
 5328SOL     OW27619   2.827   2.595   2.631  0.2664  0.3548  0.1697
 5328SOL    HW127620   2.816   2.550   2.547  2.0792 -0.5851  0.4480
 5328SOL    HW227621   2.920   2.591   2.651  0.2586 -0.1603  0.0869
 5329SOL     OW27622   1.441   2.084   8.616 -0.4207  0.7899 -0.0213
 5329SOL    HW127623   1.404   2.093   8.704  0.9670 -2.1959  0.8593
 5329SOL    HW227624   1.527   2.126   8.621  0.7684 -1.7264  0.5031
 5330SOL     OW27625   0.495   0.470  14.991  0.0715 -0.3524 -0.6148
 5330SOL    HW127626   0.562   0.476  14.923  0.9730 -0.0889  0.2908
 5330SOL    HW227627   0.426   0.422  14.945 -0.8212 -0.6637  1.0495
 5331SOL     OW27628   0.328   2.163  10.180 -0.2563  0.1354  0.4890
 5331SOL    HW127629   0.325   2.109  10.259 -0.7723  0.5790  0.7696
 5331SOL    HW227630   0.333   2.099  10.108  1.7947 -1.2800  1.8807
 5332SOL     OW27631   4.152   4.144  13.511 -0.2182 -0.1079  0.1365
 5332SOL    HW127632   4.239   4.183  13.502 -0.0654 -0.6531 -0.7414
 5332SOL    HW227633   4.107   4.197  13.577 -0.4978 -2.0789  1.5035
 5333SOL     OW27634   0.925   3.525  15.056 -0.3702 -0.2594  0.2959
 5333SOL    HW127635   0.921   3.442  15.102  1.6066  0.3856  1.6228
 5333SOL    HW227636   0.957   3.583  15.125 -1.8124  1.2250 -0.2738
 5334SOL     OW27637   4.393   2.858   0.940  0.6680  0.2769 -0.5987
 5334SOL    HW127638   4.371   2.847   1.032 -1.2936  3.0774 -0.7449
 5334SOL    HW227639   4.471   2.912   0.931  1.0333 -0.3016 -0.9485
 5335SOL     OW27640   2.908   3.319   9.755  0.1984 -0.5020 -0.3029
 5335SOL    HW127641   2.817   3.312   9.784 -0.0136  3.1134 -0.0992
 5335SOL    HW227642   2.893   3.311   9.660  1.9378  0.7462 -0.6929
 5336SOL     OW27643   0.535   1.610  13.318  0.7021 -0.1335 -0.1418
 5336SOL    HW127644   0.488   1.611  13.401  0.1941 -0.3888 -0.4214
 5336SOL    HW227645   0.550   1.517  13.305  0.3449 -0.1633 -0.3408
 5337SOL     OW27646   1.142   3.545   5.341  0.2123  0.1722  0.1086
 5337SOL    HW127647   1.229   3.517   5.313 -0.4486  0.1869 -2.0024
 5337SOL    HW227648   1.095   3.556   5.258  0.6228 -3.5663 -0.6155
 5338SOL     OW27649   0.135   2.527  15.618  0.5879 -0.3687 -0.2076
 5338SOL    HW127650   0.162   2.465  15.550  1.3503  1.5345 -1.6212
 5338SOL    HW227651   0.207   2.512  15.680 -0.0571  0.0371  0.6286
 5339SOL     OW27652   4.005   0.496   2.376  0.2691 -0.0211  0.4597
 5339SOL    HW127653   3.923   0.507   2.328 -0.6371 -1.0570  1.7437
 5339SOL    HW227654   3.972   0.509   2.465  1.0970  1.8204  0.4925
 5340SOL     OW27655   2.952   3.144   5.306  0.2363 -0.1221 -0.3323
 5340SOL    HW127656   3.036   3.106   5.333  0.2728  1.2558  1.4905
 5340SOL    HW227657   2.916   3.151   5.394 -0.0979 -1.7456 -0.3531
 5341SOL     OW27658   4.103   3.629  11.503 -0.4284  0.3679  0.1270
 5341SOL    HW127659   4.015   3.661  11.523 -0.3714 -0.3556  1.5357
 5341SOL    HW227660   4.158   3.705  11.520 -0.4151  0.6053 -0.9899
 5342SOL     OW27661   4.167   3.184   1.405  0.4462  0.2159 -0.5783
 5342SOL    HW127662   4.170   3.264   1.352  0.1301 -0.0920 -1.0679
 5342SOL    HW227663   4.250   3.188   1.451  1.2883  0.2518 -2.0967
 5343SOL     OW27664   3.915   3.463  17.377 -0.2950 -0.4065  0.8155
 5343SOL    HW127665   3.838   3.472  17.434 -0.9015 -0.6740  0.0307
 5343SOL    HW227666   3.897   3.386  17.323  1.8444 -2.3439  2.8825
 5344SOL     OW27667   1.226   2.958   3.637 -0.1043 -0.2200  0.5462
 5344SOL    HW127668   1.249   3.046   3.606  0.1751 -1.5949 -3.0941
 5344SOL    HW227669   1.304   2.910   3.612 -0.7930 -0.0659 -1.8667
 5345SOL     OW27670   1.357   4.714   6.303 -0.1607  0.5860 -0.4793
 5345SOL    HW127671   1.263   4.702   6.287 -0.3931 -1.8549  2.5480
 5345SOL    HW227672   1.363   0.030   6.380  0.7969  0.9908 -0.8501
 5346SOL     OW27673   3.289   3.157   7.325  0.0539 -0.2176 -0.2912
 5346SOL    HW127674   3.348   3.205   7.383  2.8414 -1.4575 -2.1230
 5346SOL    HW227675   3.264   3.079   7.375  0.2490  0.5843  1.0693
 5347SOL     OW27676   0.803   3.653   4.662  0.0882 -0.0330  0.1978
 5347SOL    HW127677   0.806   3.625   4.754  3.5764 -1.3444 -0.3407
 5347SOL    HW227678   0.713   3.686   4.655 -0.5140 -1.2554  2.0845
 5348SOL     OW27679   2.685   3.003   2.032  0.3023  0.6285  0.2007
 5348SOL    HW127680   2.596   3.026   2.060  0.5507  0.3876  1.1849
 5348SOL    HW227681   2.725   3.088   2.052 -1.2696  0.8721  2.3236
 5349SOL     OW27682   2.796   1.716   6.818 -0.3402  0.1175  0.9407
 5349SOL    HW127683   2.870   1.666   6.782 -0.7383  1.3837 -1.6683
 5349SOL    HW227684   2.769   1.769   6.743  0.2866 -2.1753 -0.9039
 5350SOL     OW27685   4.057   0.576   1.765  0.0119  0.3066  0.3611
 5350SOL    HW127686   3.995   0.593   1.836 -1.2765 -3.0864  0.0610
 5350SOL    HW227687   3.992   0.523   1.719  1.4543 -0.4761 -0.7500
 5351SOL     OW27688   2.374   1.457  11.802  0.0002 -0.4906  0.5180
 5351SOL    HW127689   2.366   1.404  11.882  0.5374  0.2150  1.0376
 5351SOL    HW227690   2.304   1.523  11.805  2.4319  1.9990  2.0998
 5352SOL     OW27691   3.963   2.959  11.490 -0.3595  0.4383 -0.3985
 5352SOL    HW127692   3.966   3.052  11.472 -1.8292  0.5849  0.1049
 5352SOL    HW227693   4.000   2.909  11.417  0.6721 -1.5538  1.4524
 5353SOL     OW27694   3.685   2.642   6.845  0.3333  0.3754  0.4451
 5353SOL    HW127695   3.603   2.613   6.886  0.4183  2.1153  1.8258
 5353SOL    HW227696   3.654   2.639   6.754 -0.6042 -1.6066  0.8076
 5354SOL     OW27697   3.851   2.076   7.561  0.2933  0.5838 -0.3230
 5354SOL    HW127698   3.925   2.080   7.622 -0.1883  0.0598  0.2878
 5354SOL    HW227699   3.789   2.120   7.619 -3.9574 -1.5305 -3.2605
 5355SOL     OW27700   1.929   2.212   6.809 -0.3350 -0.5688  0.3761
 5355SOL    HW127701   1.945   2.131   6.762 -0.4848 -0.4426  0.1085
 5355SOL    HW227702   1.924   2.274   6.737 -1.2583  1.0102  1.7891
 5356SOL     OW27703   1.490   1.447   4.066  0.0198  0.4770  0.1588
 5356SOL    HW127704   1.482   1.384   4.137  1.2504  1.1528  0.8912
 5356SOL    HW227705   1.396   1.465   4.070  0.4931  3.0831 -0.0655
 5357SOL     OW27706   0.480   1.279   0.105  0.3471 -0.1822 -0.0563
 5357SOL    HW127707   0.493   1.372   0.124  0.6673 -0.5426  1.5407
 5357SOL    HW227708   0.570   1.253   0.083  0.4989  0.3544 -0.0707
 5358SOL     OW27709   4.536   4.613   9.624  0.0912  0.3673  0.2627
 5358SOL    HW127710   4.489   4.595   9.543  2.3632 -2.0268 -0.5127
 5358SOL    HW227711   4.567   4.524   9.641  0.5965  0.0959 -2.1351
 5359SOL     OW27712   1.756   1.887   5.458  0.0920 -0.0525  0.2003
 5359SOL    HW127713   1.666   1.857   5.475 -1.8612  3.1195 -4.4311
 5359SOL    HW227714   1.800   1.859   5.538 -1.5338  0.4254  1.2546
 5360SOL     OW27715   1.568   0.146   4.130  0.2612 -0.2772 -0.4281
 5360SOL    HW127716   1.563   0.157   4.225 -1.9680  1.5598 -0.7570
 5360SOL    HW227717   1.659   0.123   4.112 -0.0245 -1.8024  0.0304
 5361SOL     OW27718   1.164   3.139   3.379  0.1179 -0.6494 -0.5450
 5361SOL    HW127719   1.072   3.142   3.356  0.2089  1.3577 -0.6465
 5361SOL    HW227720   1.170   3.205   3.448 -0.6344  0.7289 -1.8228
 5362SOL     OW27721   2.157   3.515   3.756  0.0132 -0.0678  0.0535
 5362SOL    HW127722   2.121   3.507   3.668  2.2084 -0.6742 -0.8046
 5362SOL    HW227723   2.218   3.589   3.760  1.3159 -1.1770  0.6894
 5363SOL     OW27724   1.962   3.092   8.611  0.4116 -0.3314  0.2619
 5363SOL    HW127725   1.920   3.010   8.636  0.4313  0.2235  2.1314
 5363SOL    HW227726   1.978   3.133   8.696 -0.9054 -0.0656  0.3825
 5364SOL     OW27727   2.090   4.333  17.176 -0.2802 -0.1529  0.1209
 5364SOL    HW127728   2.119   4.389  17.104  0.9306  1.4614  1.8868
 5364SOL    HW227729   2.141   4.379  17.242 -0.7315  1.8172 -0.8955
 5365SOL     OW27730   4.341   2.309   4.492  0.4071  0.0835  0.1786
 5365SOL    HW127731   4.400   2.247   4.534  1.0634  0.7456  0.2294
 5365SOL    HW227732   4.351   2.386   4.548 -1.3972  0.6478 -0.2822
 5366SOL     OW27733   0.339   0.100  16.552 -0.2546  0.6415  0.2881
 5366SOL    HW127734   0.353   0.155  16.474 -1.6079  0.2510 -0.2281
 5366SOL    HW227735   0.330   0.010  16.521 -0.1545  0.2058  1.5131
 5367SOL     OW27736   1.394   3.470   1.329 -0.4653  0.1627  0.0254
 5367SOL    HW127737   1.352   3.429   1.404  1.3088 -3.5657 -1.0056
 5367SOL    HW227738   1.447   3.396   1.300  1.1574  0.9867  0.8788
 5368SOL     OW27739   3.508   0.107  16.624  0.9068  0.3330  0.3146
 5368SOL    HW127740   3.554   0.083  16.544  0.6425 -3.0798  1.2082
 5368SOL    HW227741   3.556   0.065  16.695  0.2376 -0.3408  0.3673
 5369SOL     OW27742   3.816   0.700  13.544  0.1089 -0.0984 -0.1659
 5369SOL    HW127743   3.805   0.614  13.584  3.2382 -0.1475  0.5690
 5369SOL    HW227744   3.729   0.740  13.547 -1.3997 -3.6658  3.5080
 5370SOL     OW27745   2.317   4.269   3.529 -0.1249  0.3175  0.0237
 5370SOL    HW127746   2.272   4.275   3.445  0.3967 -0.6484 -0.3249
 5370SOL    HW227747   2.318   4.361   3.555 -0.0063 -0.2667  2.0354
 5371SOL     OW27748   4.600   4.190   7.111 -0.2855  0.2636 -1.3377
 5371SOL    HW127749   4.540   4.121   7.082  0.5063 -0.9564 -0.0660
 5371SOL    HW227750   4.564   4.272   7.076 -4.0974  0.1996  2.4621
 5372SOL     OW27751   1.290   4.513   0.677 -0.1400  0.2499 -0.3209
 5372SOL    HW127752   1.385   4.522   0.673 -0.3802  2.8797 -0.5803
 5372SOL    HW227753   1.262   4.560   0.598  0.5266 -1.1554 -1.3758
 5373SOL     OW27754   2.507   1.032   5.681 -0.1063  0.2163  0.2513
 5373SOL    HW127755   2.471   1.016   5.768 -1.6407  1.5296 -0.1585
 5373SOL    HW227756   2.432   1.026   5.622  1.0647  0.7446 -1.3016
 5374SOL     OW27757   1.410   0.396   0.379 -0.0228  0.0530 -0.0434
 5374SOL    HW127758   1.375   0.445   0.453 -0.2313 -1.3801  0.8105
 5374SOL    HW227759   1.470   0.335   0.422 -2.3501 -0.5110  2.3959
 5375SOL     OW27760   2.138   1.333   2.023  0.1855 -0.0036 -0.4725
 5375SOL    HW127761   2.177   1.376   1.947 -0.5740  1.2243 -0.1616
 5375SOL    HW227762   2.126   1.242   1.995 -1.0423 -0.4080  1.3818
 5376SOL     OW27763   0.259   2.029   3.823 -0.2526 -0.0103  1.1283
 5376SOL    HW127764   0.192   1.962   3.810 -0.4395  0.0381  1.8418
 5376SOL    HW227765   0.340   1.985   3.847 -1.1635 -2.3139 -0.0448
 5377SOL     OW27766   4.698   2.066   8.936  0.7238  0.6469  0.0408
 5377SOL    HW127767   4.670   2.135   8.996  2.2623 -0.8886  2.5737
 5377SOL    HW227768   0.003   1.999   8.989 -0.9914 -0.9171 -0.4995
 5378SOL     OW27769   4.360   1.431   5.252 -0.6321 -0.0989  0.2942
 5378SOL    HW127770   4.281   1.482   5.273 -0.3963 -0.1169  1.2248
 5378SOL    HW227771   4.364   1.369   5.325  0.4391 -0.4629 -0.0834
 5379SOL     OW27772   1.862   2.782   5.405  0.0223 -0.4323 -0.0950
 5379SOL    HW127773   1.802   2.830   5.347  1.6504 -0.3074 -1.6711
 5379SOL    HW227774   1.914   2.733   5.342 -0.7670 -0.9634 -0.3296
 5380SOL     OW27775   0.738   4.050   5.636 -0.1104  0.4039  0.0106
 5380SOL    HW127776   0.748   4.122   5.574  2.4097 -0.6549 -0.8137
 5380SOL    HW227777   0.830   4.030   5.657 -0.4632 -2.0954 -0.7368
 5381SOL     OW27778   0.641   3.335  15.727  0.2394 -0.7029 -0.4601
 5381SOL    HW127779   0.624   3.241  15.730  0.7379 -0.8064 -0.9894
 5381SOL    HW227780   0.557   3.356  15.769  1.1893 -0.8887  1.5263
 5382SOL     OW27781   3.528   2.863   4.300 -0.6234 -0.4444  0.1378
 5382SOL    HW127782   3.459   2.878   4.364 -2.2139  3.2500 -2.4764
 5382SOL    HW227783   3.478   2.889   4.223  3.2371  1.9078 -1.5618
 5383SOL     OW27784   0.291   0.094   1.035  0.5541  0.4152 -0.1083
 5383SOL    HW127785   0.288   0.138   0.951  0.5330  0.6416  0.0106
 5383SOL    HW227786   0.298   0.169   1.094 -0.3025  1.1074 -0.8904
 5384SOL     OW27787   1.532   4.446   4.998 -0.0928 -0.3831  0.0464
 5384SOL    HW127788   1.576   4.524   5.032 -0.8957  0.2950 -0.4608
 5384SOL    HW227789   1.457   4.474   4.945 -0.5621 -2.7637 -0.5581
 5385SOL     OW27790   2.776   0.026  13.817 -0.7564  0.1175  0.1875
 5385SOL    HW127791   2.854   0.042  13.764  0.4411  1.7391  2.4140
 5385SOL    HW227792   2.719   0.001  13.745 -1.1541  0.2312  0.4616
 5386SOL     OW27793   1.787   2.246  11.842 -0.1213  0.3410 -0.2004
 5386SOL    HW127794   1.826   2.170  11.800 -2.5959 -1.2553  0.4209
 5386SOL    HW227795   1.694   2.233  11.824 -0.0757  0.2470 -0.3579
 5387SOL     OW27796   3.467   3.639   6.009 -0.2430 -0.1349  0.0048
 5387SOL    HW127797   3.487   3.595   5.926 -0.9564  0.1965 -0.3384
 5387SOL    HW227798   3.508   3.723   5.990 -0.9188 -0.1107 -1.3877
 5388SOL     OW27799   1.573   1.344   1.757  0.1477 -0.0615 -0.1131
 5388SOL    HW127800   1.600   1.290   1.683  2.5715  1.5862 -0.4242
 5388SOL    HW227801   1.581   1.435   1.731  1.6258  0.1436  1.0917
 5389SOL     OW27802   3.604   2.497  11.162 -0.2184  0.5409 -0.1565
 5389SOL    HW127803   3.616   2.453  11.077 -0.9332 -3.4617  1.8352
 5389SOL    HW227804   3.604   2.589  11.135 -0.1125 -0.1271 -2.5110
 5390SOL     OW27805   3.245   0.129   5.718 -0.5510 -0.0519 -0.1953
 5390SOL    HW127806   3.217   0.175   5.797 -0.8006  1.0756 -0.9366
 5390SOL    HW227807   3.231   0.190   5.645 -0.7792  1.2053  0.9072
 5391SOL     OW27808   2.635   3.191  14.458  0.0278 -0.0014 -0.4345
 5391SOL    HW127809   2.651   3.283  14.478  1.8651 -0.5915  0.8469
 5391SOL    HW227810   2.683   3.170  14.378  3.1835  1.7551  0.9986
 5392SOL     OW27811   4.395   3.993   6.351 -0.2234  0.5160 -0.4580
 5392SOL    HW127812   4.360   4.080   6.332 -1.5287 -0.1031 -0.9247
 5392SOL    HW227813   4.460   4.007   6.420 -3.2651 -0.0755  2.5098
 5393SOL     OW27814   4.381   0.119   9.413 -0.2583  0.6343 -0.2068
 5393SOL    HW127815   4.344   0.175   9.481  0.3250  1.3511 -0.4847
 5393SOL    HW227816   4.429   0.173   9.350 -1.6698  1.3237 -0.7115
 5394SOL     OW27817   1.910   2.815   6.798 -0.1751  0.0594 -0.0538
 5394SOL    HW127818   1.976   2.783   6.736  0.8346  0.2909  0.9054
 5394SOL    HW227819   1.828   2.785   6.759 -0.3193  0.4648 -0.0607
 5395SOL     OW27820   3.916   0.077   2.397  0.3180 -0.3051 -0.1540
 5395SOL    HW127821   3.871   4.734   2.389 -0.4619 -0.1968  3.2363
 5395SOL    HW227822   4.009   0.063   2.380  0.5932  3.0401 -1.4393
 5396SOL     OW27823   4.690   2.131   5.214  0.0421  0.2126 -0.0969
 5396SOL    HW127824   4.672   2.210   5.265  0.2579 -1.6857  2.9519
 5396SOL    HW227825   0.012   2.080   5.265 -2.2763 -0.0345  2.4937
 5397SOL     OW27826   1.768   4.223   4.167 -0.3006 -0.0863 -0.5612
 5397SOL    HW127827   1.725   4.171   4.100 -0.5942 -0.3178 -0.1932
 5397SOL    HW227828   1.752   4.311   4.132 -1.9083 -0.7324 -1.4421
 5398SOL     OW27829   4.102   3.853   2.476  0.3270 -0.1590 -0.1889
 5398SOL    HW127830   4.119   3.918   2.408 -0.7794  0.4916  0.1717
 5398SOL    HW227831   4.007   3.854   2.465  0.3578  2.7418 -0.0453
 5399SOL     OW27832   4.087   2.510  16.409 -0.1273 -0.0186  0.0871
 5399SOL    HW127833   4.045   2.487  16.326  0.0033 -1.7942  0.5049
 5399SOL    HW227834   4.026   2.476  16.475  0.6962 -1.2852  0.2022
 5400SOL     OW27835   2.446   0.621   1.794  0.1111 -0.0859  0.1292
 5400SOL    HW127836   2.405   0.707   1.788  3.4440  1.5057 -0.2496
 5400SOL    HW227837   2.474   0.610   1.703 -3.3014  1.3004 -1.0849
 5401SOL     OW27838   3.760   4.619   2.081 -0.0292  0.5217  0.7932
 5401SOL    HW127839   3.669   4.648   2.076  0.0472  0.3459 -1.6256
 5401SOL    HW227840   3.778   4.592   1.991 -0.2359  0.2953  0.8192
 5402SOL     OW27841   0.093   1.943  16.648 -0.6104 -0.7947  0.2143
 5402SOL    HW127842   0.095   1.848  16.643 -1.7692 -0.7077 -2.0032
 5402SOL    HW227843   0.045   1.952  16.731  1.2923 -0.3456  1.2737
 5403SOL     OW27844   4.401   1.673   5.439  0.1956  0.1038  0.6110
 5403SOL    HW127845   4.352   1.606   5.487 -3.0364  0.8623 -1.6424
 5403SOL    HW227846   4.378   1.748   5.494 -0.4776  0.7222 -0.5062
 5404SOL     OW27847   0.675   3.669  15.040 -0.1580 -0.3635 -0.5835
 5404SOL    HW127848   0.684   3.580  15.074  1.7295  0.4131  0.9335
 5404SOL    HW227849   0.765   3.702  15.029  0.2728 -1.6030 -0.7581
 5405SOL     OW27850   3.731   1.577   1.548  0.2005  0.1968  0.3662
 5405SOL    HW127851   3.730   1.606   1.457  1.2921  3.7018  1.4492
 5405SOL    HW227852   3.821   1.545   1.562  0.4528  1.1691  1.0245
 5406SOL     OW27853   4.248   0.313   3.640  0.8798  0.5358 -0.0252
 5406SOL    HW127854   4.300   0.284   3.566  0.8651 -3.1572  1.4192
 5406SOL    HW227855   4.184   0.242   3.646  2.9294 -1.0863  2.6752
 5407SOL     OW27856   1.550   3.308  10.368 -0.2615  0.4667  0.3166
 5407SOL    HW127857   1.526   3.278  10.456 -2.0777  1.7808  0.2681
 5407SOL    HW227858   1.581   3.396  10.385 -0.3927  0.6001 -0.1399
 5408SOL     OW27859   2.804   1.583   7.956 -0.2332 -0.3331 -0.1523
 5408SOL    HW127860   2.818   1.676   7.938 -1.5530  0.6697  3.8846
 5408SOL    HW227861   2.894   1.551   7.953 -0.3205 -0.7078  1.1343
 5409SOL     OW27862   3.190   0.427   2.938  0.1195  0.0015 -0.2662
 5409SOL    HW127863   3.128   0.499   2.948  1.0585  1.2526 -3.3912
 5409SOL    HW227864   3.134   0.354   2.914  1.4244  0.0464 -3.3655
 5410SOL     OW27865   0.385   2.781   6.609  0.5008 -0.4114  0.0762
 5410SOL    HW127866   0.313   2.767   6.670  0.0476 -2.6870 -0.9882
 5410SOL    HW227867   0.408   2.874   6.619 -1.0595  0.0164 -0.4304
 5411SOL     OW27868   3.308   2.775   0.849 -0.2923  0.6022  0.1409
 5411SOL    HW127869   3.389   2.753   0.895  0.7196 -0.1826 -1.9932
 5411SOL    HW227870   3.290   2.855   0.898  1.2788  2.0077 -1.5188
 5412SOL     OW27871   3.186   0.801  17.757  0.0335 -0.2230  0.7786
 5412SOL    HW127872   3.099   0.771  17.732  0.3375 -0.0881 -0.4635
 5412SOL    HW227873   3.238   0.720  17.751  1.7029  0.7167  2.7900
 5413SOL     OW27874   1.796   3.602   5.506  0.2965  0.2276  0.0485
 5413SOL    HW127875   1.839   3.676   5.549 -1.7891  1.5178 -0.0490
 5413SOL    HW227876   1.851   3.581   5.430 -1.2700  0.8882 -1.2821
 5414SOL     OW27877   3.000   1.539   4.403  0.1437  0.1072  0.5749
 5414SOL    HW127878   3.064   1.563   4.470  0.2226  0.9206  0.2026
 5414SOL    HW227879   3.012   1.444   4.404 -2.6071 -0.2556 -0.2701
 5415SOL     OW27880   2.388   4.694   9.764  0.1099  0.0434 -0.1995
 5415SOL    HW127881   2.410   4.623   9.704  0.9070  0.1622 -0.0564
 5415SOL    HW227882   2.339   0.010   9.703 -1.8742 -1.3854  0.1091
 5416SOL     OW27883   3.405   2.817   5.856  0.2840  0.9989 -0.1229
 5416SOL    HW127884   3.370   2.873   5.925  2.2162  0.7588  1.0401
 5416SOL    HW227885   3.495   2.848   5.852  0.4886  0.4058 -0.1224
 5417SOL     OW27886   3.379   2.788   7.926 -0.5875  0.8555  0.1152
 5417SOL    HW127887   3.288   2.762   7.941 -0.0570 -0.3714  1.2117
 5417SOL    HW227888   3.366   2.860   7.865 -3.7052 -0.9985 -1.4617
 5418SOL     OW27889   2.897   1.777   7.075  0.5519  0.0848  0.0383
 5418SOL    HW127890   2.868   1.790   6.985  1.5538  0.1727 -0.2665
 5418SOL    HW227891   2.846   1.836   7.130 -0.3316  0.9564 -1.7210
 5419SOL     OW27892   3.286   2.716  17.544 -0.3116  0.2021 -0.1895
 5419SOL    HW127893   3.287   2.640  17.602 -1.4783 -0.6817 -1.3183
 5419SOL    HW227894   3.369   2.754  17.572 -0.7145  0.7105  0.3070
 5420SOL     OW27895   0.220   1.270   3.957 -0.3841 -0.1054 -0.2932
 5420SOL    HW127896   0.233   1.181   3.925 -0.6380 -0.6394  1.1102
 5420SOL    HW227897   0.269   1.254   4.038  0.1371  1.1296 -0.3666
 5421SOL     OW27898   3.065   2.107   4.062 -0.1620 -0.1388  0.1402
 5421SOL    HW127899   3.016   2.145   4.134  2.2178  2.3355  0.4313
 5421SOL    HW227900   3.116   2.186   4.047  2.0526 -1.7564 -0.8362
 5422SOL     OW27901   0.417   1.647   6.804  0.1233 -0.2256  0.3302
 5422SOL    HW127902   0.425   1.719   6.866 -0.8934  0.7798 -0.7038
 5422SOL    HW227903   0.331   1.675   6.771  0.9783  1.5925 -0.3226
 5423SOL     OW27904   4.275   0.841   1.774 -0.0281 -0.3669  0.0011
 5423SOL    HW127905   4.297   0.824   1.683 -1.6110 -0.0203 -0.4506
 5423SOL    HW227906   4.276   0.756   1.819  0.3789 -1.3154 -1.7972
 5424SOL     OW27907   1.158   1.056   7.281 -0.4769 -0.3761  0.1117
 5424SOL    HW127908   1.156   1.121   7.212  1.3035 -0.5245 -0.0778
 5424SOL    HW227909   1.113   0.980   7.245  0.3506 -0.4894 -0.6662
 5425SOL     OW27910   0.010   0.504   6.766 -0.4040 -0.7788 -0.1346
 5425SOL    HW127911   0.078   0.563   6.798  0.7569  0.1116 -4.2744
 5425SOL    HW227912   4.677   0.526   6.823  1.7128  1.3238  1.7632
 5426SOL     OW27913   0.471   0.288   6.166 -0.1640 -0.0433 -0.0328
 5426SOL    HW127914   0.522   0.242   6.232  0.1621  1.0460  0.4702
 5426SOL    HW227915   0.517   0.258   6.088  2.7796  1.4289  1.1348
 5427SOL     OW27916   0.362   3.223   4.754  0.5652 -0.0977  0.1520
 5427SOL    HW127917   0.455   3.247   4.757  0.5144  0.0010  0.9048
 5427SOL    HW227918   0.337   3.259   4.669 -0.8815  0.9922  1.0569
 5428SOL     OW27919   1.133   4.230   5.032  0.1125  0.2656 -0.4006
 5428SOL    HW127920   1.088   4.269   4.957  1.3797 -1.0680 -1.8667
 5428SOL    HW227921   1.125   4.307   5.087  2.7287 -1.8318  2.8801
 5429SOL     OW27922   3.373   1.933   8.377  0.3265 -0.4570  0.4109
 5429SOL    HW127923   3.278   1.929   8.377  0.2987  0.1216  2.7759
 5429SOL    HW227924   3.404   1.858   8.427  2.0619  0.9527  1.4732
 5430SOL     OW27925   2.938   0.559   7.561 -0.3185  0.2132  0.3522
 5430SOL    HW127926   2.957   0.652   7.569 -0.1475  0.3250 -1.4871
 5430SOL    HW227927   3.022   0.523   7.534  0.7679  2.4157  0.8012
 5431SOL     OW27928   3.252   2.758   6.816 -0.2017 -0.3396  0.5651
 5431SOL    HW127929   3.330   2.813   6.809 -0.9735  0.9177  1.8053
 5431SOL    HW227930   3.231   2.776   6.908 -3.0438 -0.3183 -0.1087
 5432SOL     OW27931   3.609   0.598  12.473 -0.1784 -0.1071  0.5909
 5432SOL    HW127932   3.565   0.599  12.558  3.4989 -1.5023  2.4964
 5432SOL    HW227933   3.571   0.521  12.433 -2.0843  0.7208  0.8296
 5433SOL     OW27934   3.642   2.107  10.373 -0.0086  0.0003 -0.6944
 5433SOL    HW127935   3.592   2.027  10.381 -0.3669  0.2052 -0.8926
 5433SOL    HW227936   3.596   2.170  10.429  0.9440 -1.5163  1.8211
 5434SOL     OW27937   3.454   3.187   0.158 -0.4236  0.0941  0.1523
 5434SOL    HW127938   3.518   3.135   0.207  1.0078  0.9856 -0.7715
 5434SOL    HW227939   3.490   3.197   0.070 -0.3363 -0.2083  0.1518
 5435SOL     OW27940   2.982   2.667   7.653 -0.2250  0.4417 -0.4574
 5435SOL    HW127941   2.943   2.753   7.639 -0.0439  0.6723  0.4296
 5435SOL    HW227942   2.912   2.602   7.661  1.5987 -1.5977 -1.1290
 5436SOL     OW27943   3.113   2.468  11.864  0.1773 -0.6718 -0.5970
 5436SOL    HW127944   3.118   2.485  11.958 -0.9323 -0.7907 -0.5146
 5436SOL    HW227945   3.168   2.543  11.839  1.1683 -0.8975  0.9219
 5437SOL     OW27946   3.353   1.135  12.782 -0.4364 -0.3261 -0.0849
 5437SOL    HW127947   3.383   1.224  12.763  2.8245 -1.6422 -1.0671
 5437SOL    HW227948   3.387   1.087  12.707 -1.0485  1.0352 -1.2412
 5438SOL     OW27949   1.646   1.766   7.906  0.4149 -0.2822  0.5999
 5438SOL    HW127950   1.664   1.847   7.860 -1.9645 -1.3773 -2.2677
 5438SOL    HW227951   1.734   1.758   7.942 -0.1174  0.0771  1.9863
 5439SOL     OW27952   1.053   0.488  16.984 -0.3295  0.4115 -0.4807
 5439SOL    HW127953   1.020   0.557  16.927 -0.0800  1.7542  1.0011
 5439SOL    HW227954   1.019   0.417  16.929 -1.3876  1.3678 -1.0371
 5440SOL     OW27955   3.795   4.095  11.576  0.4188 -0.0907  0.0000
 5440SOL    HW127956   3.785   4.104  11.671  0.9481 -0.7513  0.1184
 5440SOL    HW227957   3.869   4.155  11.570 -0.3492  0.8798  0.2182
 5441SOL     OW27958   4.423   0.046  12.069 -0.5836 -0.2352  0.3656
 5441SOL    HW127959   4.453   4.709  12.118 -1.2530 -0.7221  0.0034
 5441SOL    HW227960   4.398   0.108  12.137  0.2828  0.7949 -0.2739
 5442SOL     OW27961   2.222   3.978   5.788  0.4146 -0.3986  0.0150
 5442SOL    HW127962   2.269   4.011   5.865  0.0858 -0.5697  0.2882
 5442SOL    HW227963   2.151   4.042   5.793 -1.3776 -2.4445  0.7910
 5443SOL     OW27964   2.193   0.438   9.857  0.2562  0.0646 -0.6853
 5443SOL    HW127965   2.264   0.490   9.819 -0.1559  0.4283 -0.9611
 5443SOL    HW227966   2.234   0.406   9.938  1.6161  2.6265 -0.3348
 5444SOL     OW27967   2.530   0.721  17.165  0.0897  0.5249  0.3358
 5444SOL    HW127968   2.439   0.721  17.195 -0.7815  0.2762 -2.3096
 5444SOL    HW227969   2.538   0.802  17.114 -0.8070  1.4189  1.6361
 5445SOL     OW27970   4.402   1.553  12.597  0.9037  0.2564  0.3317
 5445SOL    HW127971   4.485   1.554  12.549 -0.0493 -0.1002 -1.3255
 5445SOL    HW227972   4.344   1.492  12.552 -1.0758  1.3998  1.3038
 5446SOL     OW27973   2.641   1.960  11.109 -0.1628 -0.3220 -0.3873
 5446SOL    HW127974   2.551   1.969  11.076 -0.6038  0.2897  0.9826
 5446SOL    HW227975   2.620   1.973  11.202  0.4475 -2.9380  0.1218
 5447SOL     OW27976   0.411   4.230   5.262 -0.5451 -0.2955 -0.0005
 5447SOL    HW127977   0.396   4.204   5.353 -0.1874  3.8786  1.2268
 5447SOL    HW227978   0.495   4.274   5.272 -0.4518 -0.5204  0.2161
 5448SOL     OW27979   1.908   2.976   0.198  0.3268  0.4128 -0.1007
 5448SOL    HW127980   1.891   2.891   0.239  1.6806 -0.6034 -1.6212
 5448SOL    HW227981   1.994   3.000   0.234  0.3740  2.5755 -1.6948
 5449SOL     OW27982   3.370   2.925  15.154 -0.4421 -0.0568  0.3613
 5449SOL    HW127983   3.382   2.848  15.098 -1.3578 -2.1257  3.0108
 5449SOL    HW227984   3.275   2.936  15.154 -0.1416  2.4257  0.2947
 5450SOL     OW27985   1.493   3.641  16.109  0.5831  0.4255 -0.0594
 5450SOL    HW127986   1.538   3.679  16.033  0.8748 -0.2558 -0.2365
 5450SOL    HW227987   1.478   3.721  16.159 -2.0381  0.2432 -0.5604
 5451SOL     OW27988   4.740   3.572   7.255 -0.0914 -0.4656  0.3942
 5451SOL    HW127989   0.066   3.574   7.324  1.8853 -2.1064 -1.4327
 5451SOL    HW227990   0.001   3.485   7.215  1.5031 -1.0519  1.7253
 5452SOL     OW27991   2.905   3.922  14.098  0.2545  0.1833 -0.4274
 5452SOL    HW127992   2.980   3.872  14.130  0.2372 -0.8202 -1.9485
 5452SOL    HW227993   2.832   3.912  14.158 -1.0377 -1.1556 -2.2231
 5453SOL     OW27994   3.298   0.776   3.692  0.2080  0.6206  0.3051
 5453SOL    HW127995   3.204   0.772   3.709  0.5833 -1.1359  1.9239
 5453SOL    HW227996   3.336   0.750   3.775 -0.5064 -0.4247  0.2953
 5454SOL     OW27997   1.636   2.505   3.886 -0.2717 -0.1896  0.8091
 5454SOL    HW127998   1.634   2.591   3.927 -0.3193 -0.1183  0.6569
 5454SOL    HW227999   1.615   2.526   3.795  0.9221 -0.2876  0.5088
 5455SOL     OW28000   4.431   1.042   8.942  0.5904 -0.9000  0.3531
 5455SOL    HW128001   4.390   1.122   8.972  0.4908 -0.3557 -1.2081
 5455SOL    HW228002   4.361   0.977   8.942  0.2345 -0.5118  0.9796
 5456SOL     OW28003   4.642   1.480   1.832 -0.2067  0.1469 -0.4850
 5456SOL    HW128004   4.633   1.547   1.764 -3.4063 -0.6001 -0.7466
 5456SOL    HW228005   4.724   1.436   1.809 -0.4611 -0.0727 -0.9708
 5457SOL     OW28006   0.022   3.927   3.046  0.0226  0.2926  0.0616
 5457SOL    HW128007   0.029   3.838   3.080 -1.0104  0.3592  0.4367
 5457SOL    HW228008   4.669   3.929   3.024  0.3798 -1.6570 -1.5843
 5458SOL     OW28009   2.371   3.977  11.627  0.3229  0.2140  0.1208
 5458SOL    HW128010   2.287   3.940  11.598  0.3041  0.8599 -0.6557
 5458SOL    HW228011   2.391   3.925  11.704 -0.4547 -1.6682 -0.9497
 5459SOL     OW28012   2.850   4.411  15.271 -0.0709  0.4741 -0.0536
 5459SOL    HW128013   2.824   4.493  15.313 -2.1552  0.2338 -0.8522
 5459SOL    HW228014   2.891   4.373  15.349  3.0849  3.1463 -0.4538
 5460SOL     OW28015   3.668   3.711  16.268 -0.4644  0.3154  0.3251
 5460SOL    HW128016   3.721   3.678  16.340 -1.5426  0.4501  1.1846
 5460SOL    HW228017   3.590   3.743  16.313  0.2220 -0.4304  2.0346
 5461SOL     OW28018   0.183   0.350  10.044  0.0199 -0.0081  1.1114
 5461SOL    HW128019   0.272   0.313  10.039  0.4643  1.5647 -2.5476
 5461SOL    HW228020   0.164   0.364   9.951 -2.1148 -0.6259  1.4575
 5462SOL     OW28021   3.625   0.841   4.349  0.1909 -0.1037  0.3404
 5462SOL    HW128022   3.607   0.751   4.376 -0.4837 -0.9512 -2.8683
 5462SOL    HW228023   3.624   0.888   4.432 -0.2443 -1.3889  1.0692
 5463SOL     OW28024   0.617   1.626  12.360  0.3388 -0.4921 -0.3736
 5463SOL    HW128025   0.582   1.580  12.436 -0.8669  0.3868 -0.3917
 5463SOL    HW228026   0.542   1.642  12.303 -1.0759  1.9752  2.1390
 5464SOL     OW28027   0.645   0.460   9.391 -0.5003  0.6708  0.1447
 5464SOL    HW128028   0.607   0.423   9.311 -1.0612  2.2529 -0.3170
 5464SOL    HW228029   0.586   0.420   9.455  0.7298  1.0365  1.4947
 5465SOL     OW28030   2.345   0.868  10.112 -0.4782 -0.0446  0.6407
 5465SOL    HW128031   2.255   0.889  10.084 -0.4069  1.3811  1.4739
 5465SOL    HW228032   2.319   0.802  10.176  0.5376 -1.3594 -0.3152
 5466SOL     OW28033   1.927   3.743   7.253 -0.5160  0.4019 -0.0450
 5466SOL    HW128034   2.005   3.758   7.201 -2.0303 -0.3217 -2.5378
 5466SOL    HW228035   1.961   3.722   7.340 -0.2585  1.4740  0.1206
 5467SOL     OW28036   1.909   4.621   6.061 -0.7281  0.2818  0.0995
 5467SOL    HW128037   1.846   4.648   5.994  0.9653 -0.3085 -1.7234
 5467SOL    HW228038   1.843   4.594   6.125 -3.8843  0.1970 -3.2300
 5468SOL     OW28039   1.143   3.481   9.038 -0.2799  0.3047 -0.5236
 5468SOL    HW128040   1.232   3.504   9.009 -0.1472  1.2795  0.6414
 5468SOL    HW228041   1.138   3.530   9.120 -0.8582  1.5495 -1.2943
 5469SOL     OW28042   2.126   3.694   2.674  0.1360  0.7530  0.0281
 5469SOL    HW128043   2.209   3.697   2.627 -0.9253 -0.5703 -1.8966
 5469SOL    HW228044   2.074   3.743   2.610  0.2079 -0.9094 -1.3042
 5470SOL     OW28045   3.020   1.585   2.073 -0.5498 -0.0250 -0.3906
 5470SOL    HW128046   3.065   1.600   2.156  1.7067 -2.6500 -1.1462
 5470SOL    HW228047   3.041   1.493   2.057 -1.0746  0.2420 -2.5949
 5471SOL     OW28048   2.943   2.066   9.514 -0.8278 -0.0553 -0.5165
 5471SOL    HW128049   2.899   2.124   9.575  2.4857  1.5328  0.3254
 5471SOL    HW228050   3.035   2.069   9.540 -0.3861  0.3925 -2.0869
 5472SOL     OW28051   4.038   3.242   7.492 -0.6033  0.3801 -0.0479
 5472SOL    HW128052   3.999   3.194   7.565  0.2114 -1.9018 -1.1159
 5472SOL    HW228053   3.959   3.265   7.443  0.5158  0.7821 -1.6512
 5473SOL     OW28054   1.501   0.543  14.037  0.1666  0.0405  0.0025
 5473SOL    HW128055   1.441   0.558  13.965 -0.3392 -1.9553  0.0207
 5473SOL    HW228056   1.447   0.475  14.076  1.9307 -1.1986  0.3109
 5474SOL     OW28057   0.611   0.765   2.438 -0.0831  0.8193  0.3427
 5474SOL    HW128058   0.573   0.846   2.472  0.7411  1.4339 -0.2043
 5474SOL    HW228059   0.632   0.794   2.349 -0.9578 -1.9605 -0.7605
 5475SOL     OW28060   1.110   3.601   7.803 -0.8020 -0.1864 -0.4318
 5475SOL    HW128061   1.123   3.578   7.895  0.0067  0.0931 -0.4738
 5475SOL    HW228062   1.038   3.542   7.781 -0.6032  0.1459 -1.9808
 5476SOL     OW28063   1.610   4.722   9.581 -0.3749  0.1590  0.2847
 5476SOL    HW128064   1.526   0.023   9.565 -0.6616 -0.5254 -0.0018
 5476SOL    HW228065   1.635   0.024   9.663 -2.8388 -2.2534  2.2893
 5477SOL     OW28066   4.494   3.722  11.984 -0.4392  0.5772 -0.3429
 5477SOL    HW128067   4.450   3.779  11.920  1.2297 -0.2442 -2.2236
 5477SOL    HW228068   4.585   3.730  11.958 -0.3912  2.4776  0.3733
 5478SOL     OW28069   0.363   3.252   7.771 -0.4885  0.4973  0.4335
 5478SOL    HW128070   0.300   3.181   7.761 -0.2573  0.5905 -1.6231
 5478SOL    HW228071   0.323   3.329   7.731  0.7920 -0.1742 -2.1780
 5479SOL     OW28072   3.457   3.481   3.271 -0.1286  0.1325 -0.4654
 5479SOL    HW128073   3.402   3.466   3.348  0.3467 -0.4184 -0.2338
 5479SOL    HW228074   3.541   3.498   3.314 -0.9924  2.3801  0.3406
 5480SOL     OW28075   3.787   1.807  10.288 -0.1048  0.7891 -0.3600
 5480SOL    HW128076   3.741   1.722  10.291  2.1327 -0.4840 -2.3322
 5480SOL    HW228077   3.703   1.850  10.271 -0.7350  0.3466  1.5693
 5481SOL     OW28078   2.899   0.282  16.589 -0.3240 -0.0968  0.3929
 5481SOL    HW128079   2.816   0.319  16.618 -0.8776  0.1964 -1.5385
 5481SOL    HW228080   2.867   0.197  16.559 -0.7025  0.5428 -1.0114
 5482SOL     OW28081   3.113   1.527   4.843 -0.2826 -0.2032 -0.2352
 5482SOL    HW128082   3.114   1.569   4.757 -0.0945  0.6488  0.1913
 5482SOL    HW228083   3.135   1.436   4.822  1.2845  0.0418  0.3413
 5483SOL     OW28084   0.255   0.087   2.049 -0.1193  0.0130  0.0368
 5483SOL    HW128085   0.266   0.014   1.988 -0.2388 -0.2422  0.3252
 5483SOL    HW228086   0.315   0.046   2.111 -1.5412 -1.4738  0.4107
 5484SOL     OW28087   3.313   1.124  13.205 -0.1642 -0.1833  0.3238
 5484SOL    HW128088   3.244   1.150  13.144 -0.1425 -0.1943  0.2947
 5484SOL    HW228089   3.381   1.084  13.151  0.2147  1.7856 -0.6699
 5485SOL     OW28090   1.743   0.879   8.329 -0.6978  0.3452 -0.0240
 5485SOL    HW128091   1.765   0.786   8.333 -0.6348  0.3225 -0.9367
 5485SOL    HW228092   1.736   0.890   8.424 -0.5086  1.4562 -0.1360
 5486SOL     OW28093   2.854   3.221   3.778 -0.5316 -0.3287 -0.1749
 5486SOL    HW128094   2.773   3.234   3.729 -0.3514  2.5056  0.3206
 5486SOL    HW228095   2.838   3.126   3.774 -2.5373  0.0377 -0.8781
 5487SOL     OW28096   1.666   3.887   8.610 -0.3236 -0.3618  0.0359
 5487SOL    HW128097   1.721   3.935   8.672  1.3736 -0.9893 -0.9806
 5487SOL    HW228098   1.677   3.943   8.533 -3.8701  1.0478  0.5383
 5488SOL     OW28099   2.658   2.003   7.613  0.2708 -0.2213  0.2210
 5488SOL    HW128100   2.672   2.095   7.592  0.4219 -0.8443 -2.3908
 5488SOL    HW228101   2.709   2.006   7.694  0.8949  2.5030 -0.2719
 5489SOL     OW28102   0.424   3.018  16.408 -0.3602  0.0174 -0.3248
 5489SOL    HW128103   0.410   3.084  16.340 -1.7469  0.0118 -0.0479
 5489SOL    HW228104   0.439   3.067  16.488  1.8696  1.4896 -1.6462
 5490SOL     OW28105   3.483   2.495   2.699  0.1807  0.0425 -0.4514
 5490SOL    HW128106   3.556   2.554   2.716  1.0931 -0.8795 -1.2310
 5490SOL    HW228107   3.430   2.537   2.631 -1.8445  1.1113  1.7714
 5491SOL     OW28108   3.017   2.421   6.927  0.8378  0.4638  0.4038
 5491SOL    HW128109   2.993   2.356   6.993  1.3584 -0.4676 -0.3188
 5491SOL    HW228110   2.999   2.373   6.846 -1.5316 -0.4487  1.4696
 5492SOL     OW28111   3.823   0.122   4.783  0.5922  0.2230 -0.0031
 5492SOL    HW128112   3.870   0.162   4.857 -0.5921  0.8066  0.4324
 5492SOL    HW228113   3.881   0.050   4.760  0.3454  0.3749 -1.1094
 5493SOL     OW28114   1.664   2.950   4.552  0.3228  0.0763 -0.4817
 5493SOL    HW128115   1.584   2.945   4.605  1.7151 -0.3371  1.5991
 5493SOL    HW228116   1.646   2.884   4.485  1.7967 -0.0581 -0.7468
 5494SOL     OW28117   4.273   0.671   7.382 -0.2675  0.6724 -0.4117
 5494SOL    HW128118   4.201   0.610   7.401  1.9174 -1.1447  2.0746
 5494SOL    HW228119   4.332   0.651   7.454 -0.5012  0.1148 -0.3688
 5495SOL     OW28120   2.934   3.681  17.659 -0.1425  0.5342  0.0786
 5495SOL    HW128121   2.971   3.597  17.634 -1.8646 -0.6481  1.5014
 5495SOL    HW228122   2.982   3.698  17.740 -2.8590  2.6265  1.2544
 5496SOL     OW28123   4.262   4.066   0.815  0.1924 -0.4059 -0.2279
 5496SOL    HW128124   4.189   4.037   0.871 -0.1117  0.2583 -0.2778
 5496SOL    HW228125   4.203   4.103   0.749  0.4033 -1.4248 -0.9812
 5497SOL     OW28126   0.222   2.705   2.018  0.2476  0.0569  0.6452
 5497SOL    HW128127   0.265   2.755   2.088 -0.4927  3.4529 -1.3345
 5497SOL    HW228128   0.234   2.763   1.943 -2.0930 -0.2280  0.0593
 5498SOL     OW28129   3.326   3.889   6.270 -0.3218  0.3898  0.1282
 5498SOL    HW128130   3.416   3.866   6.249 -0.9985  0.1742 -2.4442
 5498SOL    HW228131   3.276   3.867   6.192  2.0695 -2.0105 -0.7354
 5499SOL     OW28132   3.901   4.128   9.144  0.2539  0.4386  0.3130
 5499SOL    HW128133   3.930   4.052   9.093  1.4318  1.4116 -0.4719
 5499SOL    HW228134   3.964   4.185   9.100 -0.0586  1.8251  1.6575
 5500SOL     OW28135   1.751   2.510  14.316 -0.1923  0.2270 -0.5458
 5500SOL    HW128136   1.776   2.421  14.341 -0.4992 -0.0335 -1.1627
 5500SOL    HW228137   1.761   2.557  14.399  2.1453 -0.0136 -0.6923
 5501SOL     OW28138   3.109   2.035  14.901 -0.5304  0.0369  0.5645
 5501SOL    HW128139   3.081   1.967  14.962  0.5613  1.2628  2.4125
 5501SOL    HW228140   3.202   2.019  14.890 -0.6027  0.4585 -0.7638
 5502SOL     OW28141   4.578   1.440  10.502 -0.4089 -0.1612  0.2952
 5502SOL    HW128142   4.511   1.502  10.531 -1.2115 -0.7973 -0.2111
 5502SOL    HW228143   4.623   1.423  10.584 -0.0333  2.8618  0.7184
 5503SOL     OW28144   0.071   1.911  16.124  0.0836  0.3582  0.6048
 5503SOL    HW128145   0.156   1.945  16.154 -0.3578 -0.0571  2.3259
 5503SOL    HW228146   0.096   1.819  16.110 -0.5615  0.4071 -0.7708
 5504SOL     OW28147   2.756   0.610   7.969 -0.0055 -0.0665 -0.1113
 5504SOL    HW128148   2.715   0.695   7.954 -1.6542 -0.5653  1.5983
 5504SOL    HW228149   2.835   0.606   7.915 -0.1357 -0.3319 -0.2800
 5505SOL     OW28150   0.796   0.100   6.988  0.3566  0.0956  0.2790
 5505SOL    HW128151   0.748   0.091   6.906  0.4168 -0.2471  0.2796
 5505SOL    HW228152   0.719   0.102   7.046  0.6613  0.4804  0.6658
 5506SOL     OW28153   3.306   3.237   5.907  0.4953 -0.2236  0.2122
 5506SOL    HW128154   3.302   3.147   5.941 -1.7048  0.3529  1.4303
 5506SOL    HW228155   3.214   3.264   5.912  1.3505  2.7285 -0.4338
 5507SOL     OW28156   2.065   1.199  13.028  0.0081 -0.2545  0.2400
 5507SOL    HW128157   2.151   1.196  12.986  0.1782 -1.1300  0.6661
 5507SOL    HW228158   2.024   1.278  12.990 -0.6148  0.5283  2.5541
 5508SOL     OW28159   4.349   0.363   6.639 -0.1545 -0.1341 -0.4653
 5508SOL    HW128160   4.318   0.385   6.551 -0.9707 -0.8821 -0.3761
 5508SOL    HW228161   4.441   0.369   6.615 -0.1071 -1.4787 -0.6127
 5509SOL     OW28162   1.161   2.385   8.295 -0.2586  0.0170  0.0404
 5509SOL    HW128163   1.183   2.398   8.387  2.4815 -0.8550 -0.4734
 5509SOL    HW228164   1.105   2.460   8.275 -1.6389 -1.5288 -1.8670
 5510SOL     OW28165   2.505   2.382   9.507  0.6531  0.2096  0.7797
 5510SOL    HW128166   2.414   2.351   9.509 -0.3328  2.9364 -0.9356
 5510SOL    HW228167   2.551   2.299   9.515  0.2684 -0.3142 -2.8587
 5511SOL     OW28168   2.169   3.892   4.151 -0.5691  0.8215  0.2153
 5511SOL    HW128169   2.249   3.890   4.100 -1.1261 -0.6678 -0.6054
 5511SOL    HW228170   2.166   3.981   4.185  0.5377  0.1975  1.9332
 5512SOL     OW28171   4.467   2.191   5.645  0.8197 -0.1085  0.1546
 5512SOL    HW128172   4.557   2.190   5.677  1.0527  0.1479 -0.4906
 5512SOL    HW228173   4.425   2.146   5.719 -0.8313  0.2813 -0.5406
 5513SOL     OW28174   2.460   0.446   3.731  0.4868 -0.2075  0.0259
 5513SOL    HW128175   2.495   0.443   3.820 -1.0352 -0.3191  0.6147
 5513SOL    HW228176   2.493   0.359   3.711 -2.0018 -1.1532  0.0755
 5514SOL     OW28177   2.544   0.924   8.320 -0.0812  0.1856  0.2207
 5514SOL    HW128178   2.548   1.010   8.362 -0.0487 -0.1121  0.8320
 5514SOL    HW228179   2.475   0.949   8.258  0.2717  0.3683 -0.0949
 5515SOL     OW28180   4.370   0.032   3.730  0.3473  0.4517 -0.1129
 5515SOL    HW128181   4.421   4.701   3.691 -1.3660 -0.8289 -0.0167
 5515SOL    HW228182   4.363   0.013   3.824 -2.6744 -1.2449 -0.6884
 5516SOL     OW28183   4.195   0.586   2.069 -0.2207 -0.5877 -0.5252
 5516SOL    HW128184   4.140   0.658   2.099  1.5912  0.8244 -0.6781
 5516SOL    HW228185   4.223   0.547   2.152 -0.1453  0.6324  0.0216
 5517SOL     OW28186   3.242   3.047  12.534  0.1547  0.3825  0.6228
 5517SOL    HW128187   3.242   3.005  12.449  2.5264  0.1512  0.7243
 5517SOL    HW228188   3.149   3.070  12.536  0.0134 -0.1522 -0.1414
 5518SOL     OW28189   0.559   4.592   2.956  0.0612  0.0268  0.0178
 5518SOL    HW128190   0.491   4.659   2.944 -1.8667 -2.2536 -1.7989
 5518SOL    HW228191   0.642   4.639   2.953 -0.0055 -0.0261 -2.2954
 5519SOL     OW28192   1.137   1.052   4.484  0.2757 -0.0828 -0.0697
 5519SOL    HW128193   1.195   1.109   4.534 -0.2042  0.3583 -0.0097
 5519SOL    HW228194   1.149   1.072   4.391  0.0726 -0.0488 -0.0893
 5520SOL     OW28195   2.038   3.092   6.161  0.5651 -1.3035 -0.4665
 5520SOL    HW128196   2.083   3.072   6.078  0.6065 -0.7806 -0.5719
 5520SOL    HW228197   2.083   3.031   6.218 -0.8771 -0.5760  1.4347
 5521SOL     OW28198   0.150   3.918  10.553 -0.1857  0.8597  0.2109
 5521SOL    HW128199   0.068   3.893  10.596 -1.3899 -0.4040 -2.8002
 5521SOL    HW228200   0.214   3.868  10.604  0.2239  2.2722  1.0849
 5522SOL     OW28201   3.518   4.352   2.603  0.1692  0.4890  0.1232
 5522SOL    HW128202   3.434   4.390   2.578  1.3244  1.5597 -2.2067
 5522SOL    HW228203   3.578   4.419   2.636 -2.9971  1.7268  3.4194
 5523SOL     OW28204   2.823   4.049   5.563  0.1056  0.0871  0.0486
 5523SOL    HW128205   2.767   4.126   5.577 -0.1087 -0.2825  1.2646
 5523SOL    HW228206   2.878   4.072   5.488  1.0656 -0.2104  0.6589
 5524SOL     OW28207   1.361   3.226  10.105 -0.3092 -0.9464 -0.6437
 5524SOL    HW128208   1.327   3.183  10.183 -0.3183  2.6915  1.3575
 5524SOL    HW228209   1.284   3.249  10.052  0.4362  3.6355  0.2366
 5525SOL     OW28210   0.512   3.745   7.387  0.4047  0.3056 -0.1120
 5525SOL    HW128211   0.463   3.766   7.466 -0.2946  0.4307 -0.5828
 5525SOL    HW228212   0.598   3.774   7.417  0.1077 -0.6666  1.6898
 5526SOL     OW28213   3.227   1.345  11.030 -0.1948  0.5191  0.3035
 5526SOL    HW128214   3.291   1.274  11.030  0.8250  1.4501  2.5623
 5526SOL    HW228215   3.147   1.293  11.019  0.2133 -0.0235 -0.1005
 5527SOL     OW28216   2.103   0.023   1.763 -0.3816  0.8883  0.4400
 5527SOL    HW128217   2.163   0.081   1.716  0.8045 -0.3528  0.4221
 5527SOL    HW228218   2.145   0.022   1.849  0.6755 -1.3158 -0.0876
 5528SOL     OW28219   1.034   0.362   8.587 -0.1291  0.0226 -0.1115
 5528SOL    HW128220   1.005   0.365   8.678 -0.6895 -0.5893 -0.2702
 5528SOL    HW228221   1.094   0.436   8.586  2.4752 -2.0822 -0.7923
 5529SOL     OW28222   1.598   4.264   8.570 -0.2312  0.2415  0.1504
 5529SOL    HW128223   1.505   4.240   8.567 -0.3391  0.5704  0.8543
 5529SOL    HW228224   1.632   4.222   8.491  2.1923  0.2701  1.1864
 5530SOL     OW28225   4.169   1.833  10.342  0.3406  0.2720 -0.3239
 5530SOL    HW128226   4.120   1.830  10.260  1.1866  0.8580 -0.8483
 5530SOL    HW228227   4.212   1.918  10.331  2.3685 -0.5665  1.1894
 5531SOL     OW28228   0.766   3.069  17.316 -0.4051 -0.1288 -0.2512
 5531SOL    HW128229   0.797   3.129  17.384  1.2547  1.8639 -2.8121
 5531SOL    HW228230   0.843   3.013  17.314  0.5396  1.1268  1.0654
 5532SOL     OW28231   3.385   4.186   4.899 -0.0225 -0.5595  0.5580
 5532SOL    HW128232   3.375   4.129   4.824 -0.5163 -0.0193  0.2162
 5532SOL    HW228233   3.397   4.274   4.864  1.1403 -0.3751  1.3912
 5533SOL     OW28234   2.493   1.183   8.433 -0.0000  0.5757  0.6854
 5533SOL    HW128235   2.404   1.200   8.404 -0.1006 -0.3913  0.4390
 5533SOL    HW228236   2.496   1.227   8.518  1.2900 -1.2980  1.6051
 5534SOL     OW28237   3.055   3.679  13.810  0.5253 -0.3080 -0.1459
 5534SOL    HW128238   3.121   3.728  13.859  1.6621 -1.3756 -0.6165
 5534SOL    HW228239   3.065   3.707  13.719  0.8211 -2.3486 -0.7389
 5535SOL     OW28240   2.795   1.255   9.371 -0.2344 -0.0870  0.2085
 5535SOL    HW128241   2.790   1.236   9.465  1.3953 -0.2300  0.2759
 5535SOL    HW228242   2.702   1.272   9.358 -0.3341 -2.8171 -2.7750
 5536SOL     OW28243   1.281   3.570  15.835  0.5158 -0.0228  0.6392
 5536SOL    HW128244   1.286   3.613  15.920  2.1673  0.9786  0.0411
 5536SOL    HW228245   1.204   3.614  15.798  0.6187 -0.7593 -0.4734
 5537SOL     OW28246   2.617   4.624   2.614  0.1125  0.5210  0.2178
 5537SOL    HW128247   2.580   4.707   2.645  0.4408  0.4208  0.8691
 5537SOL    HW228248   2.571   4.561   2.670 -0.8232 -0.0331 -1.1838
 5538SOL     OW28249   3.606   1.111   4.219  0.2853  0.1236  0.2193
 5538SOL    HW128250   3.567   1.138   4.301 -0.0128  2.3448 -0.6562
 5538SOL    HW228251   3.603   1.015   4.222 -0.3089  0.2234  2.6769
 5539SOL     OW28252   2.096   0.175  10.884 -0.2039 -0.2193 -0.6060
 5539SOL    HW128253   2.138   0.234  10.821  1.1926 -0.6845 -0.1322
 5539SOL    HW228254   2.055   0.114  10.822  1.4088  0.9775 -2.8796
 5540SOL     OW28255   1.505   3.768  12.273  0.0548  0.3732 -0.1053
 5540SOL    HW128256   1.550   3.778  12.358  3.4486  0.9171 -1.9386
 5540SOL    HW228257   1.571   3.721  12.223 -2.2001 -1.4685 -1.3066
 5541SOL     OW28258   2.003   4.053   5.115  0.4774  0.6847  0.3830
 5541SOL    HW128259   1.948   4.077   5.040  1.0820  1.0676  0.0594
 5541SOL    HW228260   2.038   4.140   5.134  1.4107  1.1991 -3.6515
 5542SOL     OW28261   2.110   1.402   9.500 -0.0439  0.2657  0.0995
 5542SOL    HW128262   2.087   1.469   9.565 -0.0783 -3.3190  3.7934
 5542SOL    HW228263   2.022   1.364   9.490  1.0737 -1.9558 -1.1542
 5543SOL     OW28264   3.799   4.099   4.249 -0.0232  0.2741 -0.1519
 5543SOL    HW128265   3.871   4.036   4.250  1.3147  1.8033 -1.3535
 5543SOL    HW228266   3.851   4.178   4.260  0.8180 -0.3260  0.1374
 5544SOL     OW28267   2.289   0.483  15.435  0.1629 -0.4742  0.0610
 5544SOL    HW128268   2.373   0.443  15.413 -0.2007 -1.1870 -0.0094
 5544SOL    HW228269   2.305   0.571  15.400  0.6661 -0.5996 -0.0311
 5545SOL     OW28270   3.701   2.187   8.774  0.3523  0.3341  0.6517
 5545SOL    HW128271   3.643   2.114   8.793  2.0537 -1.2472 -0.2588
 5545SOL    HW228272   3.642   2.257   8.744  0.4832  0.0248 -0.3380
 5546SOL     OW28273   2.310   0.094   3.901 -0.2003  0.7369 -0.3941
 5546SOL    HW128274   2.267   0.178   3.885 -0.0882  0.5520 -1.6458
 5546SOL    HW228275   2.396   0.099   3.860 -0.0800 -1.2319 -0.3942
 5547SOL     OW28276   0.910   0.026   3.687 -0.1169  0.2707 -0.2424
 5547SOL    HW128277   0.964   0.082   3.629  2.4886  0.1796  2.0921
 5547SOL    HW228278   0.957   4.683   3.683  1.3859  1.0615  0.5810
 5548SOL     OW28279   1.586   0.418   4.515 -0.2765  0.0693 -0.1879
 5548SOL    HW128280   1.585   0.340   4.459 -1.3977 -0.5527  0.6897
 5548SOL    HW228281   1.676   0.447   4.522  0.8078 -3.4473  0.4300
 5549SOL     OW28282   4.077   1.915  16.056 -0.2923  0.5229  0.4686
 5549SOL    HW128283   4.044   1.997  16.021 -0.2189 -0.1717 -1.2217
 5549SOL    HW228284   4.170   1.929  16.072 -0.1127 -1.1143  0.9008
 5550SOL     OW28285   2.244   3.086   9.672  0.3456  0.0884 -0.0427
 5550SOL    HW128286   2.148   3.092   9.677  0.2886  0.9262 -2.2807
 5550SOL    HW228287   2.265   3.146   9.601  0.2925 -0.5447 -0.5885
 5551SOL     OW28288   3.518   0.011  10.876  0.4001 -0.3320  0.0162
 5551SOL    HW128289   3.514   0.104  10.854 -3.9069  0.0006  2.3420
 5551SOL    HW228290   3.592   0.012  10.937 -0.0677  0.6799  0.5727
 5552SOL     OW28291   0.863   2.803  17.478 -0.5734  0.5496 -0.1951
 5552SOL    HW128292   0.858   2.768  17.388  0.4764 -1.4867  0.5317
 5552SOL    HW228293   0.806   2.880  17.473 -3.5279 -1.4451  2.7628
 5553SOL     OW28294   0.717   3.911   3.636  0.2422  0.0571 -0.1025
 5553SOL    HW128295   0.675   3.931   3.552 -1.1126 -3.5047 -0.2688
 5553SOL    HW228296   0.776   3.985   3.648 -1.9446  1.4479  2.1345
 5554SOL     OW28297   4.393   3.716   2.387 -0.2845 -0.2385  0.4137
 5554SOL    HW128298   4.346   3.720   2.471 -1.3823  1.4134 -0.2749
 5554SOL    HW228299   4.481   3.732   2.423 -0.4388  3.2524 -0.7817
 5555SOL     OW28300   1.733   2.258   1.568 -0.0648  0.4109  0.3968
 5555SOL    HW128301   1.818   2.275   1.608 -0.0948 -0.1983  0.7162
 5555SOL    HW228302   1.749   2.200   1.494  2.2771  0.8107  0.6085
 5556SOL     OW28303   3.621   1.579   8.194 -0.2312  0.4863 -0.4376
 5556SOL    HW128304   3.569   1.642   8.143  1.7452  0.8026 -2.0848
 5556SOL    HW228305   3.626   1.499   8.141 -0.0549  0.2193 -0.0150
 5557SOL     OW28306   2.809   2.085   3.964 -0.4872  0.1177 -0.0350
 5557SOL    HW128307   2.775   2.169   3.996  0.4036  0.8878 -1.0608
 5557SOL    HW228308   2.892   2.078   4.011 -0.8887 -1.0091  0.4897
 5558SOL     OW28309   2.095   3.478   7.032  0.4508 -0.6305  0.0888
 5558SOL    HW128310   2.014   3.519   7.003  0.0266 -0.9867  0.7716
 5558SOL    HW228311   2.126   3.438   6.951  2.8678  1.2293  0.1085
 5559SOL     OW28312   1.536   3.683   4.262  0.0902 -0.9736 -0.1135
 5559SOL    HW128313   1.569   3.773   4.260  2.5135 -1.8535 -0.5773
 5559SOL    HW228314   1.590   3.641   4.329 -0.0212  1.2533  1.3881
 5560SOL     OW28315   4.622   2.178   7.992 -0.3755 -0.4540  0.2265
 5560SOL    HW128316   4.634   2.269   8.017  0.2939 -0.2160 -0.9849
 5560SOL    HW228317   4.580   2.140   8.070 -0.9513  0.1879  0.2273
 5561SOL     OW28318   0.274   0.807   8.193  0.5637 -0.4081  0.1888
 5561SOL    HW128319   0.251   0.753   8.117 -1.8480 -0.1728  0.7502
 5561SOL    HW228320   0.344   0.860   8.154 -0.7385  0.9343 -0.3286
 5562SOL     OW28321   2.702   3.320   6.261  0.0375 -0.0373 -0.0038
 5562SOL    HW128322   2.683   3.323   6.168  2.1302 -1.5728 -0.4900
 5562SOL    HW228323   2.783   3.271   6.270  0.1827  0.4652  1.5108
 5563SOL     OW28324   1.984   2.918  17.386 -0.0358  0.2245  0.1571
 5563SOL    HW128325   2.005   2.887  17.298  1.1723  0.8293  0.2326
 5563SOL    HW228326   1.898   2.959  17.373 -1.0936 -1.7642  0.9414
 5564SOL     OW28327   0.701   4.715   8.799 -0.2601 -0.1486 -0.0654
 5564SOL    HW128328   0.710   4.620   8.792 -1.2287 -0.2730  0.3313
 5564SOL    HW228329   0.670   4.738   8.711 -0.6493 -2.8458 -0.6462
 5565SOL     OW28330   0.489   4.230   4.383  0.5899 -0.1748  0.0685
 5565SOL    HW128331   0.476   4.235   4.478  0.2737 -2.2251  0.1299
 5565SOL    HW228332   0.541   4.309   4.367  1.4420 -0.7239  0.1154
 5566SOL     OW28333   2.408   2.544   7.604  0.3992 -0.5832  0.4955
 5566SOL    HW128334   2.418   2.615   7.540  3.4431 -2.4979 -1.1255
 5566SOL    HW228335   2.314   2.524   7.595 -0.0702  1.7108  0.2415
 5567SOL     OW28336   2.144   0.085   4.655  0.1985  0.1904  0.3992
 5567SOL    HW128337   2.196   0.111   4.579  1.4003 -2.6262  0.2591
 5567SOL    HW228338   2.114   4.737   4.632  0.1255  0.8466 -2.0172
 5568SOL     OW28339   0.226   1.826  12.680 -0.3340  0.5533 -0.0162
 5568SOL    HW128340   0.260   1.768  12.749 -1.4158 -0.3625 -0.2558
 5568SOL    HW228341   0.136   1.834  12.712 -0.1810  0.2657  0.4929
 5569SOL     OW28342   3.482   1.883  10.323 -0.1510 -0.0045 -0.8919
 5569SOL    HW128343   3.405   1.855  10.373 -0.0704  0.5412 -0.4636
 5569SOL    HW228344   3.479   1.841  10.237 -1.9514 -0.8955 -0.3895
 5570SOL     OW28345   0.195   3.533   5.444 -0.0852 -0.2791  0.3473
 5570SOL    HW128346   0.165   3.624   5.438  0.2975 -0.1234  0.7937
 5570SOL    HW228347   0.271   3.539   5.501  0.4910  1.9818 -0.6768
 5571SOL     OW28348   2.740   1.417   8.731  0.5803  0.3378  0.2233
 5571SOL    HW128349   2.739   1.334   8.683  1.0887  2.5099 -3.5368
 5571SOL    HW228350   2.802   1.464   8.675  2.0269 -2.5373 -0.6002
 5572SOL     OW28351   4.726   0.155  13.893  0.2312 -0.1668  0.3284
 5572SOL    HW128352   0.071   0.143  13.852 -0.2877 -1.9077 -0.2274
 5572SOL    HW228353   4.723   0.251  13.892 -1.1502 -0.2103  0.3768
 5573SOL     OW28354   1.245   3.870  16.954  0.6791 -0.5578 -0.8178
 5573SOL    HW128355   1.150   3.869  16.952  0.6690  2.0656 -2.2270
 5573SOL    HW228356   1.263   3.950  17.005  0.5901  0.4015 -2.2942
 5574SOL     OW28357   3.081   0.477  16.536  0.2186  0.1767  0.2955
 5574SOL    HW128358   3.021   0.404  16.557  1.3505 -0.7479  0.3154
 5574SOL    HW228359   3.068   0.538  16.609  1.9448  0.3502  0.4467
 5575SOL     OW28360   4.021   4.232   2.377 -0.0606 -0.1604  0.0128
 5575SOL    HW128361   4.052   4.300   2.317 -1.3761 -0.0919 -0.5862
 5575SOL    HW228362   4.046   4.157   2.324  1.2566  0.0263  0.3447
 5576SOL     OW28363   3.577   3.464   8.508  0.1154 -0.1161 -0.3100
 5576SOL    HW128364   3.612   3.390   8.460  0.8392 -0.0973  0.1953
 5576SOL    HW228365   3.512   3.416   8.559 -0.4281  0.2566 -0.6517
 5577SOL     OW28366   1.048   1.494   2.328 -0.3451  0.1562 -0.2596
 5577SOL    HW128367   0.967   1.539   2.353 -1.2933 -1.3131 -0.6925
 5577SOL    HW228368   1.070   1.528   2.241  2.0668 -1.9387 -0.4732
 5578SOL     OW28369   0.508   1.028   3.768 -0.0898 -0.1562  0.1165
 5578SOL    HW128370   0.514   1.118   3.800  0.6817 -0.6084  1.2358
 5578SOL    HW228371   0.413   1.014   3.776 -0.2314  1.2995  1.0225
 5579SOL     OW28372   1.293   4.725   4.157 -0.1900 -0.5030  0.3322
 5579SOL    HW128373   1.272   0.051   4.222  0.2375 -0.0692  0.0301
 5579SOL    HW228374   1.358   0.036   4.109  1.1954 -0.3056  2.4770
 5580SOL     OW28375   0.906   3.464   8.905 -0.0765  0.0028  0.4436
 5580SOL    HW128376   0.984   3.484   8.956  0.8609 -0.1050 -0.9290
 5580SOL    HW228377   0.854   3.544   8.914 -0.2708 -0.2272  1.3071
 5581SOL     OW28378   3.062   0.247   3.272 -0.0103  0.0908  0.3039
 5581SOL    HW128379   3.135   0.274   3.328  1.1711 -0.4336 -0.9865
 5581SOL    HW228380   2.985   0.269   3.325 -0.7843 -0.6602 -0.5288
 5582SOL     OW28381   1.091   4.319   6.928  0.2568  0.0194  0.1493
 5582SOL    HW128382   1.097   4.377   6.852 -1.5167  2.0874  1.5931
 5582SOL    HW228383   1.160   4.252   6.924  0.7377  0.5521 -0.5048
 5583SOL     OW28384   2.541   2.720   5.364  0.1931  0.0999  0.6745
 5583SOL    HW128385   2.542   2.726   5.268 -1.5362  0.9116  0.6985
 5583SOL    HW228386   2.448   2.714   5.387  0.7771 -2.9229  2.2362
 5584SOL     OW28387   0.162   0.203   1.279  0.0974  1.2796  0.4886
 5584SOL    HW128388   0.199   0.132   1.332  0.5645  2.4237  1.6951
 5584SOL    HW228389   0.147   0.272   1.344 -2.8266  0.5740  0.5534
 5585SOL     OW28390   2.231   4.208  11.591  0.6568  0.7516 -0.1758
 5585SOL    HW128391   2.211   4.185  11.500 -1.7819 -1.8066  1.0153
 5585SOL    HW228392   2.300   4.148  11.616  1.0945  0.3921 -2.2149
 5586SOL     OW28393   4.144   4.561   7.743 -0.2594 -0.1179  0.3622
 5586SOL    HW128394   4.062   4.596   7.777 -0.6014 -2.4030  1.8774
 5586SOL    HW228395   4.116   4.476   7.709  0.1394  0.0945 -0.4848
 5587SOL     OW28396   2.445   3.128   9.851  0.0859  0.0474 -0.5881
 5587SOL    HW128397   2.377   3.097   9.791 -0.8084  0.4932  0.1904
 5587SOL    HW228398   2.418   3.108   9.941 -0.0150  0.3205 -0.5570
 5588SOL     OW28399   0.765   2.909   8.409 -0.2359  0.6200 -0.2009
 5588SOL    HW128400   0.674   2.940   8.404  0.4005  2.4453 -0.4936
 5588SOL    HW228401   0.751   2.859   8.489  2.7134  1.0712  0.5628
 5589SOL     OW28402   2.175   2.820   9.861  0.0188  0.1571 -0.2133
 5589SOL    HW128403   2.155   2.858   9.946  0.3563  0.0083 -0.0671
 5589SOL    HW228404   2.085   2.829   9.828 -0.7284 -1.0946  1.5004
 5590SOL     OW28405   0.108   3.034  10.018  0.2040 -0.2955 -0.4080
 5590SOL    HW128406   0.087   2.942  10.036  0.8908 -0.6177 -1.2474
 5590SOL    HW228407   0.202   3.026  10.008  0.0768 -1.4518 -0.6784
 5591SOL     OW28408   2.338   3.482   2.827  0.5147 -0.0832 -0.5503
 5591SOL    HW128409   2.349   3.492   2.733 -0.3326 -1.0762 -0.7608
 5591SOL    HW228410   2.429   3.484   2.855  0.7684  0.2553 -1.3926
 5592SOL     OW28411   3.288   2.564  14.532 -0.2952 -0.1404 -0.4617
 5592SOL    HW128412   3.377   2.599  14.538 -0.6169  0.5069  0.5753
 5592SOL    HW228413   3.297   2.486  14.587 -2.2703 -0.0450 -0.0230
 5593SOL     OW28414   3.385   4.039  12.083 -0.1424 -0.6923 -0.2631
 5593SOL    HW128415   3.425   3.962  12.042  0.7182  0.5702 -1.7589
 5593SOL    HW228416   3.329   4.078  12.016 -0.1216 -0.7329 -0.3041
 5594SOL     OW28417   4.336   2.076   4.122  0.3147  0.1522  0.6385
 5594SOL    HW128418   4.277   2.127   4.068  1.3013  1.7928  1.1092
 5594SOL    HW228419   4.314   2.096   4.213  2.6520 -3.1985  1.9445
 5595SOL     OW28420   3.574   1.191   6.959  0.1645  0.5235  0.5613
 5595SOL    HW128421   3.649   1.209   6.903 -1.0101  2.9131 -0.2360
 5595SOL    HW228422   3.558   1.096   6.960  0.0306  0.5432  0.2832
 5596SOL     OW28423   2.185   4.179   6.280  0.4039  0.4939  0.5281
 5596SOL    HW128424   2.221   4.233   6.350 -0.7114 -0.7193  2.0268
 5596SOL    HW228425   2.159   4.252   6.224 -1.4789  0.0615  0.8330
 5597SOL     OW28426   1.932   3.539  10.693 -0.2179  0.3088 -0.2278
 5597SOL    HW128427   1.921   3.444  10.692  0.6053  0.2006  1.7795
 5597SOL    HW228428   2.021   3.541  10.727 -0.2836  3.8083 -0.1827
 5598SOL     OW28429   1.921   3.210  17.128  0.3575  0.5787  0.1974
 5598SOL    HW128430   1.979   3.224  17.203  1.7170 -2.2080 -0.3556
 5598SOL    HW228431   1.874   3.293  17.118 -0.3583  0.0105 -1.0379
 5599SOL     OW28432   2.758   1.666  14.789 -0.2747 -0.4287 -0.3477
 5599SOL    HW128433   2.767   1.571  14.802  3.0823 -0.0148  0.4715
 5599SOL    HW228434   2.675   1.679  14.835 -1.0069 -1.2609 -1.4177
 5600SOL     OW28435   0.497   3.578  10.999 -0.1673  0.4794 -0.4151
 5600SOL    HW128436   0.529   3.518  10.932 -0.6194 -1.0660  0.7620
 5600SOL    HW228437   0.577   3.628  11.018 -1.1994  1.7426  0.6138
 5601SOL     OW28438   2.898   2.395   5.422 -0.1390  0.1378 -0.1828
 5601SOL    HW128439   2.863   2.446   5.495  0.6733  0.1187  0.2194
 5601SOL    HW228440   2.818   2.364   5.380 -1.1464  1.6458  0.6297
 5602SOL     OW28441   1.341   2.138  12.854  0.0746  0.9259  0.0910
 5602SOL    HW128442   1.368   2.197  12.784  1.6450  0.8673  0.6265
 5602SOL    HW228443   1.426   2.093  12.861 -1.2275 -1.3039  1.8033
 5603SOL     OW28444   3.281   4.695   7.113  0.7328 -0.2528 -0.0963
 5603SOL    HW128445   3.299   0.004   7.033  0.2987  0.6564  0.3684
 5603SOL    HW228446   3.203   4.646   7.085  0.6549 -0.4037  0.3858
 5604SOL     OW28447   1.047   3.024   1.521 -0.4671 -0.0268 -0.3757
 5604SOL    HW128448   1.011   2.998   1.435 -3.0657  0.7969  0.4602
 5604SOL    HW228449   1.062   2.935   1.554 -0.3633  0.5510  1.1106
 5605SOL     OW28450   4.184   2.858   8.811  0.0813 -0.1860 -0.1756
 5605SOL    HW128451   4.149   2.837   8.898 -0.4716  1.6212  0.0391
 5605SOL    HW228452   4.151   2.790   8.752 -1.2242  1.0630 -0.8799
 5606SOL     OW28453   0.299   2.259   7.649  0.3188 -0.0426 -0.6371
 5606SOL    HW128454   0.323   2.349   7.624  1.1534 -0.3480 -0.9408
 5606SOL    HW228455   0.369   2.216   7.600 -0.8207 -0.4788 -1.8816
 5607SOL     OW28456   2.936   0.412  15.898  0.1711 -0.1031  0.2474
 5607SOL    HW128457   3.021   0.393  15.939 -0.0710 -0.8213  0.4149
 5607SOL    HW228458   2.953   0.497  15.857 -1.8267 -0.4075 -1.2341
 5608SOL     OW28459   3.328   1.846   3.333 -0.2310  1.0095  0.4827
 5608SOL    HW128460   3.237   1.820   3.318  1.1996 -3.5987 -0.3035
 5608SOL    HW228461   3.372   1.768   3.297  0.5293  1.1392  1.1421
 5609SOL     OW28462   4.011   1.542   4.188 -0.1559  0.0053 -0.4712
 5609SOL    HW128463   4.078   1.607   4.169 -1.4320  2.2180  2.4653
 5609SOL    HW228464   4.012   1.494   4.106  0.1606  1.7215 -1.4804
 5610SOL     OW28465   1.001   4.206   4.296  0.1883 -0.0315  0.5847
 5610SOL    HW128466   0.948   4.168   4.367 -1.9168  2.6723  0.4582
 5610SOL    HW228467   1.032   4.129   4.248 -3.2709 -0.1392 -1.4914
 5611SOL     OW28468   3.819   3.801  13.915  0.6401 -0.7439 -0.1948
 5611SOL    HW128469   3.783   3.882  13.950 -2.4839 -1.4153 -1.8213
 5611SOL    HW228470   3.911   3.809  13.937  0.3003 -0.6473  1.1441
 5612SOL     OW28471   3.795   3.880   2.439  0.2631  0.3554  0.0407
 5612SOL    HW128472   3.767   3.858   2.528  2.3745  1.7247  1.0535
 5612SOL    HW228473   3.808   3.792   2.403 -0.6043  0.1929  0.1171
 5613SOL     OW28474   0.751   1.133  13.138 -0.5248  0.5079  0.4472
 5613SOL    HW128475   0.719   1.102  13.223  1.7962  2.6897  2.1061
 5613SOL    HW228476   0.729   1.226  13.145  0.8404  1.0797 -2.9828
 5614SOL     OW28477   2.797   4.316   0.072  0.2245 -0.2401  0.4081
 5614SOL    HW128478   2.752   4.239   0.108 -0.7897  0.2498  0.1841
 5614SOL    HW228479   2.856   4.340   0.144 -0.0800  1.5125  0.0614
 5615SOL     OW28480   1.782   0.251   1.747 -0.1555  0.1430 -0.5000
 5615SOL    HW128481   1.740   0.233   1.831  2.4480  2.2146  1.2575
 5615SOL    HW228482   1.857   0.308   1.767 -1.1439  0.9822  0.8404
 5616SOL     OW28483   1.871   2.061   7.471 -0.3138  0.3099 -0.5234
 5616SOL    HW128484   1.838   1.987   7.523  2.0634 -2.6751 -3.3432
 5616SOL    HW228485   1.961   2.032   7.468 -0.3701  0.3454 -2.3190
 5617SOL     OW28486   4.529   0.821   6.125  0.3216  0.0780 -0.3119
 5617SOL    HW128487   4.459   0.884   6.144  1.4932  1.2083  0.2000
 5617SOL    HW228488   4.526   0.769   6.205 -1.1003  0.3262 -0.2052
 5618SOL     OW28489   1.232   1.997  15.639  0.1934 -0.2172  0.3515
 5618SOL    HW128490   1.211   2.081  15.597  1.0781 -1.2210 -2.0854
 5618SOL    HW228491   1.278   2.038  15.712  1.1347  0.8470 -0.8462
 5619SOL     OW28492   4.160   4.666   5.104  0.0884 -0.1496  0.1121
 5619SOL    HW128493   4.252   4.688   5.088  0.2318 -0.9793 -0.1702
 5619SOL    HW228494   4.126   0.015   5.111 -1.6633 -0.9755  1.9080
 5620SOL     OW28495   2.361   0.670   2.915  1.0141 -0.9804 -0.1472
 5620SOL    HW128496   2.401   0.670   3.002 -1.6060 -1.5860  1.0588
 5620SOL    HW228497   2.268   0.676   2.937  1.1993 -0.9959  0.6582
 5621SOL     OW28498   3.249   3.864   5.067 -0.3161  0.2855  0.6179
 5621SOL    HW128499   3.186   3.798   5.038  1.5904 -0.9965 -0.6390
 5621SOL    HW228500   3.189   3.936   5.084 -0.9547 -0.0497 -0.1870
 5622SOL     OW28501   1.042   1.511   3.756 -0.3707 -0.6085  0.0928
 5622SOL    HW128502   1.010   1.450   3.690 -0.3550  0.1092 -0.5654
 5622SOL    HW228503   1.129   1.472   3.763 -0.0676 -0.0241 -0.4565
 5623SOL     OW28504   4.639   2.904   3.183  0.0098 -0.5081 -0.6982
 5623SOL    HW128505   4.654   2.927   3.275 -1.9903 -0.0986 -0.4650
 5623SOL    HW228506   4.672   2.814   3.181 -0.1595 -0.6436  2.0003
 5624SOL     OW28507   2.758   0.986   9.173 -0.1739 -0.0632  0.2854
 5624SOL    HW128508   2.709   0.991   9.255 -1.5893  1.2898 -0.6412
 5624SOL    HW228509   2.729   1.067   9.132  1.7465  1.6157  2.2122
 5625SOL     OW28510   3.860   3.048   7.256  0.0838  0.2932  0.8169
 5625SOL    HW128511   3.916   2.976   7.225  0.3099  0.9469 -0.3237
 5625SOL    HW228512   3.880   3.114   7.189  1.6726 -2.9841 -1.9336
 5626SOL     OW28513   3.963   3.695   9.725  0.1377  0.0296 -0.3322
 5626SOL    HW128514   3.898   3.754   9.764 -1.0102  0.5316 -3.0116
 5626SOL    HW228515   3.953   3.622   9.787  0.2053 -0.5401 -1.0015
 5627SOL     OW28516   1.151   3.209  17.657 -0.1791 -0.0530 -1.0864
 5627SOL    HW128517   1.096   3.280  17.688  0.6719  0.6353 -1.1636
 5627SOL    HW228518   1.210   3.247  17.592  0.2019  0.0532 -0.6778
 5628SOL     OW28519   2.289   2.208  16.803  0.1401 -0.3971  0.1559
 5628SOL    HW128520   2.373   2.247  16.831  0.6532 -1.3552 -0.0601
 5628SOL    HW228521   2.275   2.240  16.714  0.5154 -0.5233  0.0504
 5629SOL     OW28522   2.454   2.701   0.896  0.4116 -0.6411 -0.1714
 5629SOL    HW128523   2.433   2.608   0.886 -1.7729 -0.2671  1.1913
 5629SOL    HW228524   2.463   2.704   0.991  1.9766 -0.2758 -0.3216
 5630SOL     OW28525   0.474   4.585   6.936 -0.4509  0.0161  0.2474
 5630SOL    HW128526   0.440   4.609   6.849 -1.5692 -0.4967  0.5358
 5630SOL    HW228527   0.453   4.492   6.946 -0.7134  0.2536  1.9418
 5631SOL     OW28528   2.125   2.550   5.652 -0.1234 -0.5219 -0.1022
 5631SOL    HW128529   2.034   2.547   5.683  0.3026  1.8820  1.3168
 5631SOL    HW228530   2.162   2.623   5.701  1.5177 -1.5518  0.1935
 5632SOL     OW28531   3.333   3.015   1.565 -0.0321 -0.1948  0.0491
 5632SOL    HW128532   3.329   3.091   1.622  2.5584  0.0557 -0.0990
 5632SOL    HW228533   3.425   2.989   1.571 -0.5003 -1.9910 -0.5612
 5633SOL     OW28534   0.514   0.317   2.234  0.9663  1.0205 -0.1449
 5633SOL    HW128535   0.425   0.351   2.247  0.4979 -0.4380  0.5178
 5633SOL    HW228536   0.496   0.225   2.255 -2.0199  1.9575  1.3476
 5634SOL     OW28537   2.278   4.225   7.719  0.0945 -0.2100  0.0506
 5634SOL    HW128538   2.198   4.249   7.765 -1.8341 -2.6703 -1.9917
 5634SOL    HW228539   2.275   4.300   7.659 -1.8167  1.0548  1.7278
 5635SOL     OW28540   3.407   1.233   1.524  0.2264 -0.1458  0.4071
 5635SOL    HW128541   3.370   1.286   1.453 -2.0819 -0.4428  1.4142
 5635SOL    HW228542   3.328   1.192   1.559 -0.8628  1.5323 -0.0623
 5636SOL     OW28543   0.237   1.225  17.117 -0.1504 -0.4273  0.7041
 5636SOL    HW128544   0.260   1.270  17.198 -1.7777 -0.4285  1.1732
 5636SOL    HW228545   0.142   1.223  17.128 -0.1702  0.6672  0.6753
 5637SOL     OW28546   3.445   1.465   7.261  0.5803  0.1384 -0.5862
 5637SOL    HW128547   3.432   1.469   7.356  1.7739 -0.4771 -0.3927
 5637SOL    HW228548   3.482   1.378   7.244  1.8247  0.3205  1.2261
 5638SOL     OW28549   2.484   4.529  17.144  0.2673 -0.4118 -0.2563
 5638SOL    HW128550   2.514   4.522  17.235 -1.0222 -1.1570  0.1038
 5638SOL    HW228551   2.518   4.617  17.127  0.7192 -0.8826 -1.7628
 5639SOL     OW28552   0.149   0.980   0.709 -0.0949  0.4736  0.1750
 5639SOL    HW128553   0.097   1.031   0.771  1.0038  1.8039  0.0005
 5639SOL    HW228554   0.079   0.935   0.662  0.4570 -1.2166  0.9416
 5640SOL     OW28555   2.022   1.561   2.655 -0.0750 -0.2540  0.4300
 5640SOL    HW128556   2.082   1.633   2.634 -0.6328  0.0648 -0.0631
 5640SOL    HW228557   2.004   1.525   2.568 -2.5583  1.1420  0.3761
 5641SOL     OW28558   0.510   2.028   5.824 -0.1697 -0.4534 -0.4422
 5641SOL    HW128559   0.462   1.991   5.749 -0.8339  0.7442 -0.6075
 5641SOL    HW228560   0.442   2.077   5.871 -0.1185 -1.0829  0.2933
 5642SOL     OW28561   0.308   3.131   2.054  0.3641  0.3476 -0.0954
 5642SOL    HW128562   0.346   3.104   2.138 -1.4221 -2.6642 -0.2315
 5642SOL    HW228563   0.271   3.215   2.078 -1.8245 -0.6147 -0.0829
 5643SOL     OW28564   1.539   4.119   7.405  0.0913  0.1524 -0.5611
 5643SOL    HW128565   1.538   4.098   7.498  1.2291 -0.3286 -0.6494
 5643SOL    HW228566   1.488   4.046   7.370  0.2652 -2.0531  3.7958
 5644SOL     OW28567   3.798   1.458  12.350  0.4351 -0.3905 -0.1037
 5644SOL    HW128568   3.712   1.417  12.338 -0.1001  0.5874  0.4144
 5644SOL    HW228569   3.775   1.535  12.401  2.2614  0.0431  0.0686
 5645SOL     OW28570   2.437   0.695  16.764  0.0182 -0.4627 -0.1367
 5645SOL    HW128571   2.371   0.752  16.804  0.6134  0.6118 -0.6949
 5645SOL    HW228572   2.446   0.729  16.675  0.8113  0.0307  0.1422
 5646SOL     OW28573   3.121   2.950   1.416  0.4304  0.3517  0.0486
 5646SOL    HW128574   3.168   2.909   1.343 -2.4163  0.5236 -1.8672
 5646SOL    HW228575   3.194   2.968   1.476 -1.1159  0.4038  1.9282
 5647SOL     OW28576   3.400   4.714   8.948  0.0521 -0.5242 -0.6722
 5647SOL    HW128577   3.496   4.712   8.946  0.0589 -0.5959 -0.2466
 5647SOL    HW228578   3.381   4.649   8.881  0.7409 -0.2752 -1.1139
 5648SOL     OW28579   4.235   0.356   2.667  0.3632  0.3681  0.4864
 5648SOL    HW128580   4.261   0.278   2.619  0.1056  1.0168 -0.7119
 5648SOL    HW228581   4.148   0.318   2.675 -0.0603  1.3932  0.7715
 5649SOL     OW28582   3.907   4.473   2.552  0.2466  0.3911 -0.1960
 5649SOL    HW128583   3.999   4.497   2.560  0.7579 -2.2283  1.7404
 5649SOL    HW228584   3.891   4.498   2.461  0.6866  2.1152  0.2075
 5650SOL     OW28585   3.457   4.371   6.675 -0.1764 -0.0972  0.0349
 5650SOL    HW128586   3.498   4.387   6.760  2.9108  2.0621 -1.8486
 5650SOL    HW228587   3.447   4.276   6.674  0.2907 -0.1718  1.4617
 5651SOL     OW28588   1.738   2.741   4.871 -0.1340 -0.1871 -0.7315
 5651SOL    HW128589   1.785   2.799   4.811  2.4867 -2.6051 -1.0745
 5651SOL    HW228590   1.796   2.746   4.947 -0.4736  0.6407 -0.5334
 5652SOL     OW28591   1.870   0.581   4.919 -0.0725 -0.7798 -0.0633
 5652SOL    HW128592   1.881   0.669   4.956 -1.5973 -1.5329  2.1663
 5652SOL    HW228593   1.792   0.548   4.963 -1.7600  0.9219 -1.7462
 5653SOL     OW28594   2.144   3.925   2.289  0.3583  0.1401 -0.1310
 5653SOL    HW128595   2.232   3.960   2.298  0.7138 -0.5882 -0.8019
 5653SOL    HW228596   2.135   3.907   2.195  0.2714  1.1528 -0.3204
 5654SOL     OW28597   1.140   2.942   4.603 -0.0566  0.2091 -0.1699
 5654SOL    HW128598   1.067   2.891   4.639  0.9109  0.3032  1.9481
 5654SOL    HW228599   1.151   2.900   4.518 -1.0386  1.3913 -0.8996
 5655SOL     OW28600   3.222   0.034   6.410  0.0176  0.6138  0.5533
 5655SOL    HW128601   3.200   4.732   6.494  1.4694 -1.1003  0.0693
 5655SOL    HW228602   3.292   4.719   6.375 -0.1605 -0.0611  1.2486
 5656SOL     OW28603   4.320   1.520   0.831  0.8040  0.1573 -0.0022
 5656SOL    HW128604   4.406   1.535   0.871  1.8174 -1.1708 -1.6776
 5656SOL    HW228605   4.343   1.476   0.749 -0.8056  0.3192 -0.5223
 5657SOL     OW28606   0.529   1.720   3.056  0.5189 -0.3435  0.4109
 5657SOL    HW128607   0.621   1.734   3.079  0.4887  2.4963 -1.1834
 5657SOL    HW228608   0.493   1.803   3.087  2.2289 -0.1570  1.9111
 5658SOL     OW28609   4.409   2.804   7.034 -0.4120 -0.0097 -0.4342
 5658SOL    HW128610   4.360   2.819   7.115 -1.1498 -0.2649 -0.8405
 5658SOL    HW228611   4.371   2.725   6.996 -0.5400 -0.1432 -0.0335
 5659SOL     OW28612   4.046   2.571   4.992 -0.6211 -0.3167 -0.0935
 5659SOL    HW128613   4.084   2.506   4.932  0.5776  0.2826  0.0040
 5659SOL    HW228614   4.105   2.563   5.067  1.0030  0.8770 -1.2474
 5660SOL     OW28615   0.764   4.314   8.286 -0.0221 -0.0534  0.0379
 5660SOL    HW128616   0.772   4.229   8.330  0.8955  1.3975  2.6995
 5660SOL    HW228617   0.841   4.355   8.325  2.2538 -1.8264 -2.6552
 5661SOL     OW28618   1.871   1.628   6.911  0.0850  0.0112  0.1388
 5661SOL    HW128619   1.935   1.696   6.932  0.5015  0.4703 -2.6678
 5661SOL    HW228620   1.906   1.549   6.952  2.3089  1.1141  0.3728
 5662SOL     OW28621   2.259   1.695   1.718  0.0620 -0.5035  0.6307
 5662SOL    HW128622   2.220   1.665   1.636  1.5218  0.2782 -0.3619
 5662SOL    HW228623   2.353   1.692   1.698  0.1464 -0.6521  1.0560
 5663SOL     OW28624   3.764   0.327  16.503 -0.0720 -0.5628 -0.0514
 5663SOL    HW128625   3.709   0.391  16.550  1.0308  0.1246  0.3058
 5663SOL    HW228626   3.837   0.322  16.564 -0.9420  0.5472  1.1035
 5664SOL     OW28627   3.788   2.300   5.458 -0.2693  0.0197  0.1614
 5664SOL    HW128628   3.879   2.332   5.453 -0.5359  0.4795 -1.7287
 5664SOL    HW228629   3.805   2.206   5.453  0.7384  0.0754  2.5138
 5665SOL     OW28630   1.225   0.821   3.619  0.6799  0.4140  0.5534
 5665SOL    HW128631   1.172   0.799   3.695 -0.2699 -0.2247 -0.2867
 5665SOL    HW228632   1.266   0.906   3.637  0.6846  0.0977  2.0280
 5666SOL     OW28633   0.283   2.848  14.499 -0.1106 -0.0345 -0.0905
 5666SOL    HW128634   0.343   2.919  14.521  0.5710 -0.9202  0.9676
 5666SOL    HW228635   0.233   2.836  14.580 -2.7372  0.8365 -1.5897
 5667SOL     OW28636   2.090   3.167  17.334  0.3164  0.1913  0.1202
 5667SOL    HW128637   2.170   3.139  17.289 -0.5368 -4.1540  1.3272
 5667SOL    HW228638   2.066   3.079  17.363  0.5647  0.1192  0.1127
 5668SOL     OW28639   3.359   2.012  11.825  0.6417 -0.1505 -0.7717
 5668SOL    HW128640   3.300   1.985  11.895  1.0473 -0.7559 -0.6588
 5668SOL    HW228641   3.304   2.069  11.772  0.3732  1.6034  1.3991
 5669SOL     OW28642   4.699   4.448   2.026  0.0720 -0.0153 -0.3389
 5669SOL    HW128643   0.027   4.500   1.982  0.3107 -1.2275 -1.4234
 5669SOL    HW228644   0.007   4.374   2.062 -1.1615 -0.8045 -0.3295
 5670SOL     OW28645   1.155   1.987   5.515 -0.1848  0.1073 -0.6323
 5670SOL    HW128646   1.074   1.944   5.542 -0.0530  0.7463  0.8101
 5670SOL    HW228647   1.203   1.913   5.479  0.6198  0.2092  0.2142
 5671SOL     OW28648   0.885   0.690  12.669 -0.0177 -0.3838  0.3809
 5671SOL    HW128649   0.973   0.711  12.701  0.6168 -0.6312 -1.1976
 5671SOL    HW228650   0.823   0.756  12.701  1.6751  0.6949  1.4764
 5672SOL     OW28651   4.593   2.787  16.480 -0.3762  0.6784  1.0297
 5672SOL    HW128652   4.520   2.821  16.427  0.5775 -0.1161 -0.7952
 5672SOL    HW228653   4.632   2.722  16.422 -1.5515  0.7368  0.1695
 5673SOL     OW28654   4.124   1.452   3.482 -0.0890  0.0901  0.1261
 5673SOL    HW128655   4.173   1.488   3.556 -0.3519 -2.6771  1.6408
 5673SOL    HW228656   4.133   1.362   3.512 -1.9197 -0.0157  0.3240
 5674SOL     OW28657   4.091   2.434   6.660 -0.4043  0.0394 -0.5223
 5674SOL    HW128658   4.066   2.349   6.698 -0.5344  1.1164  1.8273
 5674SOL    HW228659   4.011   2.458   6.613 -0.3683  1.1502 -0.0177
 5675SOL     OW28660   1.000   4.691   6.951 -0.1410  0.1069  0.0414
 5675SOL    HW128661   0.923   0.008   6.957 -1.0907 -1.3202  1.2506
 5675SOL    HW228662   1.017   4.675   7.043 -0.0611 -0.0636 -0.0021
 5676SOL     OW28663   0.740   0.012   6.537  0.1254  0.1225 -0.0669
 5676SOL    HW128664   0.652   4.720   6.516 -0.1910 -0.3607  1.9781
 5676SOL    HW228665   0.731   0.041   6.627  0.1236  3.4691 -1.1629
 5677SOL     OW28666   0.089   3.266   7.204 -0.2591  0.4393  0.3748
 5677SOL    HW128667   4.735   3.252   7.215  0.0975 -1.0478  1.6513
 5677SOL    HW228668   0.121   3.202   7.268 -1.9780 -0.3559  0.4506
 5678SOL     OW28669   1.906   1.250  17.709 -0.1967  0.2203  0.5718
 5678SOL    HW128670   1.992   1.256  17.748 -0.6020  1.5533  1.2641
 5678SOL    HW228671   1.849   1.268   0.025 -3.1652  0.8049 -1.8311
 5679SOL     OW28672   1.798   1.003   3.323 -0.5643 -0.3920  0.6812
 5679SOL    HW128673   1.867   1.061   3.354 -0.3296  0.2923 -1.0957
 5679SOL    HW228674   1.748   1.058   3.262 -2.3212 -2.2638  0.4099
 5680SOL     OW28675   3.943   4.329  14.429 -0.3219  0.2978 -0.5736
 5680SOL    HW128676   4.024   4.325  14.379  1.3563 -2.2260  2.3674
 5680SOL    HW228677   3.894   4.395  14.379 -2.8130 -1.7868 -0.8769
 5681SOL     OW28678   2.697   3.359  11.942 -0.4119 -0.0831  0.2103
 5681SOL    HW128679   2.710   3.292  12.008  2.3873 -0.0103 -0.2758
 5681SOL    HW228680   2.773   3.414  11.960 -0.5098  0.1658 -0.1336
 5682SOL     OW28681   1.404   0.636  16.543  0.4957 -0.3469 -0.2287
 5682SOL    HW128682   1.435   0.718  16.582  2.2231 -1.3116  0.4280
 5682SOL    HW228683   1.452   0.570  16.593  2.5305  2.3975  1.4348
 5683SOL     OW28684   2.314   4.026   7.542  0.2134  0.0260 -0.2886
 5683SOL    HW128685   2.299   4.096   7.605 -0.1561  0.7374 -1.1676
 5683SOL    HW228686   2.344   3.960   7.605 -0.6122  0.3758  0.4551
 5684SOL     OW28687   4.121   3.820   6.452  0.0560  0.2200  0.2456
 5684SOL    HW128688   4.130   3.801   6.545 -4.3715  0.6884  0.7396
 5684SOL    HW228689   4.209   3.790   6.428  0.1805  1.1820 -0.5069
 5685SOL     OW28690   0.735   2.729  15.523 -0.3602 -0.2227  0.0446
 5685SOL    HW128691   0.809   2.703  15.578 -0.0879  0.6776  0.1078
 5685SOL    HW228692   0.765   2.814  15.492  2.0865 -1.1750 -0.1816
 5686SOL     OW28693   2.324   0.468   7.790 -0.3593  0.0199 -0.2385
 5686SOL    HW128694   2.291   0.455   7.701 -3.3125  0.3096  0.8103
 5686SOL    HW228695   2.407   0.423   7.779 -0.9185 -1.5399  1.8536
 5687SOL     OW28696   0.862   4.143   8.915  0.1897 -0.4719  0.1581
 5687SOL    HW128697   0.906   4.071   8.961  0.4858 -0.0562  0.5223
 5687SOL    HW228698   0.883   4.217   8.972 -3.0947  0.8884 -0.3516
 5688SOL     OW28699   1.605   2.979  13.991  0.2770  0.0135  0.1709
 5688SOL    HW128700   1.547   3.044  14.030  1.9689  0.8736  1.2427
 5688SOL    HW228701   1.590   2.985  13.897  2.6061  0.4629 -0.1631
 5689SOL     OW28702   2.172   1.538   1.501  0.2909  0.8417  0.5415
 5689SOL    HW128703   2.099   1.503   1.552  0.6989 -0.9410 -0.0993
 5689SOL    HW228704   2.198   1.453   1.467 -0.2746  1.5167 -1.5993
 5690SOL     OW28705   0.163   4.080   6.437  0.1900 -0.1026  0.2652
 5690SOL    HW128706   0.145   4.075   6.343 -0.8474  2.7977  0.3280
 5690SOL    HW228707   0.234   4.145   6.435  0.4296 -0.4437 -2.0420
 5691SOL     OW28708   4.716   2.875   6.582  0.5307  0.0844 -0.5269
 5691SOL    HW128709   0.049   2.828   6.622 -0.2918 -0.5292  0.2496
 5691SOL    HW228710   4.641   2.830   6.620  0.9579 -0.6056 -0.4903
 5692SOL     OW28711   4.052   1.784   3.816 -0.0576  0.1270 -0.1371
 5692SOL    HW128712   3.985   1.739   3.868  1.4897 -0.3990  1.3937
 5692SOL    HW228713   4.015   1.868   3.791 -0.5075 -0.6839 -2.1994
 5693SOL     OW28714   3.410   4.262   1.950  0.1700 -0.2992 -0.0912
 5693SOL    HW128715   3.410   4.280   1.856 -1.9846  0.0706 -0.0082
 5693SOL    HW228716   3.504   4.273   1.967  0.1915 -0.0718 -0.3596
 5694SOL     OW28717   1.705   3.882   7.508  0.1445  0.3771 -0.9110
 5694SOL    HW128718   1.621   3.864   7.551  0.7330  0.2534  0.1719
 5694SOL    HW228719   1.768   3.867   7.578  0.0941  0.3563 -0.8706
 5695SOL     OW28720   3.149   0.653   4.146  0.4078  0.6179  0.0826
 5695SOL    HW128721   3.213   0.673   4.077  0.5593  0.1296  0.0822
 5695SOL    HW228722   3.204   0.619   4.216 -1.9745 -0.5240  1.3922
 5696SOL     OW28723   2.382   2.873   3.885 -0.2474  0.1490 -0.0901
 5696SOL    HW128724   2.385   2.895   3.792 -1.2536 -3.2828 -0.9139
 5696SOL    HW228725   2.458   2.915   3.926  0.5805 -1.5429  0.1200
 5697SOL     OW28726   3.004   0.161   2.492  0.0740  0.2425  0.4197
 5697SOL    HW128727   2.974   0.149   2.402  1.6659  0.2773 -0.1240
 5697SOL    HW228728   2.970   0.088   2.544 -0.8503  0.1441 -0.3254
 5698SOL     OW28729   3.570   1.460  15.248 -0.2956  0.6179  0.1442
 5698SOL    HW128730   3.605   1.446  15.160 -0.7887 -2.1856  0.4036
 5698SOL    HW228731   3.648   1.434  15.296 -1.7994 -0.5871  1.9440
 5699SOL     OW28732   0.227   0.706   5.079 -0.6643  0.2681  0.5756
 5699SOL    HW128733   0.136   0.736   5.092 -0.4802  0.1839  1.9547
 5699SOL    HW228734   0.262   0.757   5.152 -0.7599 -1.2423  1.6744
 5700SOL     OW28735   0.187   3.477   6.631 -0.7331 -0.0141  0.7831
 5700SOL    HW128736   0.266   3.530   6.635 -0.7200 -0.0679  1.3241
 5700SOL    HW228737   0.133   3.508   6.558 -0.2823 -0.3296  0.3200
 5701SOL     OW28738   3.679   0.906   6.696  0.8776 -0.2569 -0.0540
 5701SOL    HW128739   3.734   0.965   6.748  2.1311 -2.7131  1.4016
 5701SOL    HW228740   3.612   0.873   6.756 -0.4323  2.9074  0.2204
 5702SOL     OW28741   4.148   3.579  17.548  0.1246  0.3442 -0.8256
 5702SOL    HW128742   4.125   3.537  17.466 -0.6690 -2.9182  1.0882
 5702SOL    HW228743   4.130   3.512  17.614  0.6996  2.3114  1.3480
 5703SOL     OW28744   1.679   0.137   3.219 -0.3959  0.1530  0.3304
 5703SOL    HW128745   1.670   0.059   3.164  0.8323 -0.3105  0.7909
 5703SOL    HW228746   1.740   0.183   3.162 -1.1290 -1.7144 -1.9430
 5704SOL     OW28747   2.152   0.848   6.206 -0.3262 -0.8636  0.3524
 5704SOL    HW128748   2.147   0.774   6.145 -0.7928 -0.3115 -0.2836
 5704SOL    HW228749   2.108   0.804   6.278 -2.1271  0.7807  0.2649
 5705SOL     OW28750   4.732   3.414   4.859 -0.0712  0.0990 -0.5377
 5705SOL    HW128751   4.725   3.419   4.954  0.7801  2.1947 -0.5857
 5705SOL    HW228752   4.694   3.327   4.845 -1.9325  1.1198 -1.9201
 5706SOL     OW28753   4.002   2.855   2.618  0.1549 -1.0443 -0.2243
 5706SOL    HW128754   4.008   2.768   2.657 -3.7415 -0.4645  1.6752
 5706SOL    HW228755   4.094   2.876   2.604 -0.0062 -0.4094 -0.3503
 5707SOL     OW28756   1.435   3.750   8.594  0.4708 -0.6265  0.2706
 5707SOL    HW128757   1.381   3.823   8.625  1.8201 -0.4058  2.1219
 5707SOL    HW228758   1.523   3.782   8.614  1.4902 -2.9453 -0.4602
 5708SOL     OW28759   0.001   1.910  10.487  0.3283  0.0654  0.4627
 5708SOL    HW128760   4.645   1.915  10.494  0.2806  1.4116 -1.2961
 5708SOL    HW228761   0.018   1.846  10.556  0.1970 -1.1264 -0.6035
 5709SOL     OW28762   3.685   2.895   5.607  0.0163  0.1535 -0.4004
 5709SOL    HW128763   3.632   2.944   5.670 -1.9125 -0.8501 -1.2112
 5709SOL    HW228764   3.760   2.952   5.594  1.3782 -1.9229 -1.6485
 5710SOL     OW28765   3.450   2.896   7.116  0.7168  0.0068  0.3923
 5710SOL    HW128766   3.436   2.980   7.072  1.5643  0.0507  0.1953
 5710SOL    HW228767   3.363   2.882   7.153  0.0971  2.8296  0.0726
 5711SOL     OW28768   4.148   4.324   8.479  0.6281  0.2663  0.7080
 5711SOL    HW128769   4.149   4.420   8.480 -0.9643  0.3129 -0.8451
 5711SOL    HW228770   4.203   4.309   8.401 -0.3602  0.1621  0.0318
 5712SOL     OW28771   3.447   0.312   4.632 -0.0093  0.0068  0.1227
 5712SOL    HW128772   3.375   0.276   4.580 -0.9479  0.4319  1.1442
 5712SOL    HW228773   3.401   0.332   4.713 -0.9063 -1.7908  0.0602
 5713SOL     OW28774   0.250   3.597  17.404  0.2980  0.1172 -0.0762
 5713SOL    HW128775   0.163   3.584  17.368  0.5674  0.2996 -0.7927
 5713SOL    HW228776   0.279   3.682  17.373  0.3342  0.6298  1.3318
 5714SOL     OW28777   3.087   2.976  11.043 -0.0049  1.0546 -0.2435
 5714SOL    HW128778   3.032   3.001  10.969 -0.1655 -0.2294 -0.5642
 5714SOL    HW228779   3.045   3.036  11.104 -2.6702  0.2291 -1.2741
 5715SOL     OW28780   3.655   4.558   5.821 -0.0482 -0.5126  0.4171
 5715SOL    HW128781   3.596   4.483   5.833  0.9863 -1.3581  0.1918
 5715SOL    HW228782   3.586   4.624   5.823  1.6618  1.2057  1.7676
 5716SOL     OW28783   2.255   1.012   1.345 -0.0790 -0.2485 -0.0449
 5716SOL    HW128784   2.321   0.975   1.403 -1.3458 -1.3083  0.7349
 5716SOL    HW228785   2.287   0.999   1.256  0.7637  0.0342  0.2212
 5717SOL     OW28786   2.051   0.996  11.267 -0.1869  0.3948 -0.0510
 5717SOL    HW128787   2.098   0.915  11.285 -0.9582 -0.2717 -1.0581
 5717SOL    HW228788   1.979   0.947  11.228 -1.1828  0.3039  1.8861
 5718SOL     OW28789   2.895   3.689   5.209  0.4124 -0.5782  0.1727
 5718SOL    HW128790   2.973   3.640   5.234  0.0284 -0.8652  0.7948
 5718SOL    HW228791   2.834   3.623   5.241  0.9746 -1.5285 -0.7065
 5719SOL     OW28792   3.570   2.834  14.714  0.1892  0.4865 -0.1567
 5719SOL    HW128793   3.632   2.762  14.708  0.1781  0.3227  1.7285
 5719SOL    HW228794   3.518   2.825  14.634  0.1665  0.0221 -0.0879
 5720SOL     OW28795   2.365   3.732   9.264 -0.2675 -0.0064  0.7975
 5720SOL    HW128796   2.300   3.789   9.221 -1.0698  0.2141  2.3088
 5720SOL    HW228797   2.404   3.777   9.339  0.7681 -1.6527  1.2370
 5721SOL     OW28798   1.396   1.372  17.594  0.2634  0.2012 -0.4182
 5721SOL    HW128799   1.330   1.413  17.539  0.5517 -1.7359 -2.2182
 5721SOL    HW228800   1.476   1.411  17.559  0.0902  1.2041  0.3082
 5722SOL     OW28801   3.366   0.880   9.454 -0.4097  0.3518 -0.4558
 5722SOL    HW128802   3.449   0.852   9.491 -0.9699 -0.5643  0.1010
 5722SOL    HW228803   3.348   0.795   9.413 -1.4682  1.1544 -1.6699
 5723SOL     OW28804   3.241   1.927   7.076 -1.0670 -1.1871  0.9071
 5723SOL    HW128805   3.172   1.967   7.022  0.3348  1.8320  1.3566
 5723SOL    HW228806   3.186   1.871   7.131 -1.6060 -2.9418 -1.4197
 5724SOL     OW28807   1.252   3.040   5.478  1.0076  0.3164  0.3142
 5724SOL    HW128808   1.178   2.979   5.492  0.6117  0.7987  0.3231
 5724SOL    HW228809   1.231   3.066   5.389 -2.0852  0.9881  1.2387
 5725SOL     OW28810   3.187   3.063   8.089 -0.1014  0.2367  0.2523
 5725SOL    HW128811   3.143   3.011   8.156 -2.3429 -1.0052 -2.1651
 5725SOL    HW228812   3.129   3.137   8.074 -1.0004 -1.1511 -3.2382
 5726SOL     OW28813   1.071   0.581   9.221  0.2909  0.2508 -0.2636
 5726SOL    HW128814   0.993   0.613   9.265  0.0456 -0.7262  0.0247
 5726SOL    HW228815   1.129   0.581   9.297 -1.3086 -1.7952  0.9232
 5727SOL     OW28816   4.067   4.667   6.658  0.0776 -0.4998 -0.1732
 5727SOL    HW128817   4.110   4.740   6.700  0.6736 -0.9351 -0.0384
 5727SOL    HW228818   4.057   4.699   6.568  0.2693  0.9915  0.3381
 5728SOL     OW28819   2.961   1.084   5.404 -0.4810  0.0634  0.7078
 5728SOL    HW128820   3.012   1.116   5.478  2.2842 -1.5822 -0.4948
 5728SOL    HW228821   2.914   1.005   5.431  0.9491 -0.6326  1.1213
 5729SOL     OW28822   1.380   1.333   6.434  0.4835  0.2347 -0.4597
 5729SOL    HW128823   1.411   1.334   6.524  2.4946  0.5823 -1.1773
 5729SOL    HW228824   1.341   1.420   6.423 -3.4497 -1.1112  2.5228
 5730SOL     OW28825   4.168   0.124   9.224 -0.2131 -0.2502 -0.6085
 5730SOL    HW128826   4.178   0.214   9.194  3.5604 -0.0225  1.2744
 5730SOL    HW228827   4.258   0.106   9.253  0.6239  0.1227 -2.9842
 5731SOL     OW28828   1.992   3.724   3.437  0.3828 -0.5573  0.2528
 5731SOL    HW128829   1.972   3.690   3.350 -0.0170 -1.2922  0.6304
 5731SOL    HW228830   2.017   3.812   3.408 -1.1707 -0.5586 -1.0831
 5732SOL     OW28831   0.223   0.180   7.868  0.0593 -0.8081  0.5989
 5732SOL    HW128832   0.188   0.091   7.876 -0.8874 -0.8195 -3.9290
 5732SOL    HW228833   0.229   0.177   7.772  1.1207 -2.1517  0.6978
 5733SOL     OW28834   4.568   0.751   8.311  0.8922  0.5228 -0.4632
 5733SOL    HW128835   4.603   0.838   8.330  0.7880  0.8628 -1.8710
 5733SOL    HW228836   4.652   0.708   8.296 -0.1722 -1.4694 -0.7463
 5734SOL     OW28837   0.518   1.217  16.185  0.2331 -0.1849  0.2243
 5734SOL    HW128838   0.513   1.142  16.245 -1.2310 -1.3422 -1.3445
 5734SOL    HW228839   0.555   1.282  16.245 -2.5187 -0.0555  1.7947
 5735SOL     OW28840   2.302   2.393  10.155  0.2651 -0.8067 -0.0943
 5735SOL    HW128841   2.377   2.354  10.199  1.4083 -0.4833 -1.7282
 5735SOL    HW228842   2.308   2.362  10.064  1.3872  0.8545 -0.5736
 5736SOL     OW28843   0.554   0.717   6.825  0.1770 -0.1072  0.5218
 5736SOL    HW128844   0.558   0.761   6.740  0.2976  0.0555  0.6139
 5736SOL    HW228845   0.648   0.726   6.840  0.4547 -2.0968  0.0772
 5737SOL     OW28846   3.143   1.787   2.828  0.0565 -0.0377 -0.0873
 5737SOL    HW128847   3.155   1.755   2.917 -1.7612  0.5577  0.3797
 5737SOL    HW228848   3.232   1.810   2.802 -0.2981  1.5160  0.0926
 5738SOL     OW28849   3.369   0.988   6.476  0.0388  0.4828 -0.6509
 5738SOL    HW128850   3.356   1.001   6.382  1.8106 -1.7723 -1.1939
 5738SOL    HW228851   3.283   0.947   6.482 -0.0249  0.5470 -1.1705
 5739SOL     OW28852   1.667   0.508  14.391 -0.2042  0.1305  0.0555
 5739SOL    HW128853   1.729   0.573  14.426  2.2776 -2.1750 -0.0498
 5739SOL    HW228854   1.721   0.431  14.375 -0.1824  0.2647 -0.5173
 5740SOL     OW28855   3.037   0.182   8.053 -0.0119 -0.1154  0.5555
 5740SOL    HW128856   3.013   0.266   8.014 -2.1229 -1.5656 -1.2578
 5740SOL    HW228857   2.977   0.176   8.128  0.1380  1.4864  0.8038
 5741SOL     OW28858   0.417   2.417   6.535  0.0189 -0.3491  0.2892
 5741SOL    HW128859   0.488   2.476   6.561  1.0563 -0.5738 -2.0844
 5741SOL    HW228860   0.432   2.398   6.443 -1.4346 -0.8848  0.1569
 5742SOL     OW28861   0.341   1.316  13.151 -0.0385 -0.0608 -0.4154
 5742SOL    HW128862   0.386   1.320  13.067 -0.9694 -0.7743 -0.9417
 5742SOL    HW228863   0.278   1.386  13.137 -0.3340 -0.5262 -1.3710
 5743SOL     OW28864   1.629   2.107   6.706 -0.8009  0.1346 -0.3643
 5743SOL    HW128865   1.652   2.173   6.772 -0.3369 -0.4418  0.0486
 5743SOL    HW228866   1.602   2.034   6.761  1.9710  0.0124  0.8169
 5744SOL     OW28867   3.427   0.406  12.581  0.3545  0.8185  0.2523
 5744SOL    HW128868   3.336   0.422  12.606 -0.0779 -0.9427 -0.1949
 5744SOL    HW228869   3.459   0.378  12.667  0.8679 -2.4007 -0.9854
 5745SOL     OW28870   2.186   3.353  15.517 -0.2119  0.1599  0.1871
 5745SOL    HW128871   2.191   3.392  15.604  0.5407 -1.6231  0.9557
 5745SOL    HW228872   2.164   3.261  15.535  0.6751  0.0478  0.6953
 5746SOL     OW28873   4.217   1.263   6.448 -0.7428  0.6259 -0.3568
 5746SOL    HW128874   4.213   1.318   6.526 -1.9609 -0.3832  0.2958
 5746SOL    HW228875   4.138   1.211   6.463 -1.3349  1.2075 -1.3904
 5747SOL     OW28876   1.550   0.499   2.738  0.6826  1.0711  0.2816
 5747SOL    HW128877   1.534   0.478   2.646  0.9179 -1.5151  0.8128
 5747SOL    HW228878   1.500   0.580   2.751  0.9607  1.4522 -1.0849
 5748SOL     OW28879   1.991   3.051   6.561 -0.0154  0.3411  0.0387
 5748SOL    HW128880   2.073   3.096   6.542 -0.5247  1.1214 -0.3195
 5748SOL    HW228881   1.997   3.000   6.642 -1.7711 -2.7190 -1.7576
 5749SOL     OW28882   1.939   2.881  13.663  0.2418  0.0355 -0.0553
 5749SOL    HW128883   1.904   2.940  13.596  0.0424  1.3156  1.1561
 5749SOL    HW228884   1.981   2.943  13.723 -0.9267  0.7489  0.0266
 5750SOL     OW28885   1.850   0.280  11.025  0.3833  0.0906 -0.7738
 5750SOL    HW128886   1.807   0.219  11.085 -2.3374  1.9402 -0.8237
 5750SOL    HW228887   1.939   0.276  11.060  0.4470  1.6240 -0.7222
 5751SOL     OW28888   0.922   3.843   1.434  0.0610 -0.7177 -0.2108
 5751SOL    HW128889   0.969   3.915   1.477  0.7430 -0.7867 -0.8495
 5751SOL    HW228890   0.989   3.778   1.415 -0.8093 -2.0339  1.1649
 5752SOL     OW28891   4.302   1.322   9.540 -0.2652  0.3998  0.2071
 5752SOL    HW128892   4.248   1.243   9.549  1.1763 -0.7263 -0.9556
 5752SOL    HW228893   4.348   1.317   9.624 -2.1904  1.8950  1.3651
 5753SOL     OW28894   2.660   3.397  13.810  0.2618  0.2572  0.2622
 5753SOL    HW128895   2.724   3.330  13.834  0.2065 -0.1927 -0.8982
 5753SOL    HW228896   2.637   3.371  13.721  0.7068 -0.6768  0.4197
 5754SOL     OW28897   3.821   2.216   2.710  0.2157  0.1499 -0.9455
 5754SOL    HW128898   3.731   2.233   2.684  0.1944  2.1361  0.4542
 5754SOL    HW228899   3.869   2.296   2.688  0.4218  0.5000  0.8540
 5755SOL     OW28900   1.298   2.460   0.012 -0.2286 -0.0656  1.0724
 5755SOL    HW128901   1.361   2.394  17.743 -1.0378 -0.9364  1.3374
 5755SOL    HW228902   1.226   2.402   0.038 -1.2925  1.3804  1.3634
 5756SOL     OW28903   1.808   3.177   3.916 -0.1943 -0.4986  0.5655
 5756SOL    HW128904   1.784   3.269   3.918  1.0853 -0.1630  0.2184
 5756SOL    HW228905   1.721   3.136   3.916 -0.8337  0.8599  0.1809
 5757SOL     OW28906   3.203   1.343   3.109  0.3128 -0.3558  0.2986
 5757SOL    HW128907   3.279   1.295   3.141 -1.7295 -2.0801  2.5161
 5757SOL    HW228908   3.143   1.341   3.183 -0.5350 -2.0208 -0.4524
 5758SOL     OW28909   2.492   3.531   4.755 -0.1661  1.3254 -0.3215
 5758SOL    HW128910   2.501   3.557   4.663 -1.1308  0.9842 -0.5114
 5758SOL    HW228911   2.451   3.613   4.783  0.3971  1.1753  0.9349
 5759SOL     OW28912   0.157   3.546   7.481  0.2406  0.0367  0.3691
 5759SOL    HW128913   0.207   3.626   7.499  1.9729 -0.8553 -0.4736
 5759SOL    HW228914   0.133   3.515   7.568  1.4707 -0.4896  0.5223
 5760SOL     OW28915   4.674   0.656   8.672  0.3219  0.8100  0.1806
 5760SOL    HW128916   4.594   0.668   8.621 -0.1543 -0.5557  0.6145
 5760SOL    HW228917   4.645   0.703   8.750 -3.0813  0.3225 -0.8192
 5761SOL     OW28918   2.407   4.490   7.935 -0.1863 -0.0616 -0.3962
 5761SOL    HW128919   2.374   4.567   7.888 -1.2748  0.0461  0.5290
 5761SOL    HW228920   2.378   4.513   8.024 -1.1436 -1.1732 -0.4243
 5762SOL     OW28921   1.442   1.211   7.276  0.4910  0.3695 -0.7616
 5762SOL    HW128922   1.396   1.199   7.193  1.6297 -0.7461 -1.2484
 5762SOL    HW228923   1.411   1.294   7.310  0.9591  0.1252  0.2514
 5763SOL     OW28924   0.112   4.690   8.534 -0.0009 -0.1865 -0.0584
 5763SOL    HW128925   0.063   0.005   8.595  0.3704 -0.2486  0.3013
 5763SOL    HW228926   0.034   4.656   8.491 -0.4357  2.3270 -1.2227
 5764SOL     OW28927   4.178   0.289   9.624  0.4319 -0.1689 -0.1449
 5764SOL    HW128928   4.195   0.383   9.614  0.0828 -0.1079 -0.1509
 5764SOL    HW228929   4.225   0.269   9.705  0.3049 -1.6603 -0.4451
 5765SOL     OW28930   2.835   1.538   5.288  0.2586  0.0623 -0.2186
 5765SOL    HW128931   2.818   1.444   5.295 -0.5940  0.3204  1.1152
 5765SOL    HW228932   2.926   1.537   5.317  0.7385 -1.0153 -1.7771
 5766SOL     OW28933   1.984   1.857   3.431  0.2890  0.5004 -0.2281
 5766SOL    HW128934   1.905   1.876   3.482 -0.1620 -1.6028 -0.1293
 5766SOL    HW228935   1.957   1.771   3.397  2.5295 -0.1132 -0.4365
 5767SOL     OW28936   3.457   2.571   1.676  0.4720 -0.8503 -0.3714
 5767SOL    HW128937   3.415   2.647   1.716 -1.1493 -1.4302 -0.9923
 5767SOL    HW228938   3.416   2.517   1.743  0.5624  0.6936  0.9170
 5768SOL     OW28939   3.479   3.367   6.732 -0.0945 -0.0093  0.5125
 5768SOL    HW128940   3.441   3.418   6.803  1.7866  0.1780  1.3801
 5768SOL    HW228941   3.401   3.336   6.685  0.3447  1.5651 -1.2728
 5769SOL     OW28942   3.894   3.070   5.566  0.2234  0.0908 -0.3860
 5769SOL    HW128943   3.977   3.034   5.598  0.8428  1.6007 -0.2901
 5769SOL    HW228944   3.917   3.163   5.575 -2.6660  0.9176 -1.4755
 5770SOL     OW28945   0.731   2.915   4.829  0.4123 -0.0251  0.0115
 5770SOL    HW128946   0.756   2.976   4.760  0.8305 -0.0736  0.1177
 5770SOL    HW228947   0.709   2.984   4.893  0.2382  0.6134 -0.7431
 5771SOL     OW28948   1.597   0.262   0.518 -0.1329 -0.0941 -0.1830
 5771SOL    HW128949   1.683   0.230   0.494 -1.0702 -2.7984  0.1356
 5771SOL    HW228950   1.587   0.255   0.612 -1.1739  0.5634 -0.2376
 5772SOL     OW28951   3.684   4.590   2.978 -0.3870 -0.0412 -0.4162
 5772SOL    HW128952   3.664   4.552   3.064  0.8555  0.8451  0.2538
 5772SOL    HW228953   3.771   4.624   2.998  0.4054 -1.4875 -1.4007
 5773SOL     OW28954   3.922   2.510   2.665  0.3994  0.4066 -0.1253
 5773SOL    HW128955   3.967   2.526   2.582  1.6350  1.0249  0.6560
 5773SOL    HW228956   3.995   2.470   2.713  1.6669  0.7316 -1.7902
 5774SOL     OW28957   2.215   1.630   4.845 -0.3706  0.5898  0.0460
 5774SOL    HW128958   2.247   1.547   4.811 -2.2503  0.4556 -1.3631
 5774SOL    HW228959   2.197   1.681   4.766 -1.9019 -0.9186 -0.5699
 5775SOL     OW28960   4.447   2.386   3.346 -0.3260  0.6104 -0.3102
 5775SOL    HW128961   4.480   2.475   3.335  1.7787 -0.2057 -0.5969
 5775SOL    HW228962   4.490   2.352   3.425 -0.1658 -0.0493 -0.6814
 5776SOL     OW28963   4.109   2.268   7.583 -0.0790 -0.0985  0.3634
 5776SOL    HW128964   4.073   2.348   7.544 -0.9581 -0.5087  0.3374
 5776SOL    HW228965   4.086   2.219   7.504 -2.3245  0.8505  0.4410
 5777SOL     OW28966   0.606   0.786   1.687 -0.9194  0.6496 -0.5322
 5777SOL    HW128967   0.613   0.881   1.672 -2.6824  0.8012 -0.4533
 5777SOL    HW228968   0.517   0.761   1.662  0.1809 -1.5952 -2.1141
 5778SOL     OW28969   0.110   0.832   6.304 -0.1593 -0.1365  0.2691
 5778SOL    HW128970   0.050   0.761   6.328  0.5616 -0.6406  0.5861
 5778SOL    HW228971   0.060   0.914   6.309  1.1693  0.7281 -0.6604
 5779SOL     OW28972   3.899   2.427  17.650  0.0950 -0.1997  0.2737
 5779SOL    HW128973   3.812   2.407  17.617 -0.1256 -3.8080  3.0285
 5779SOL    HW228974   3.891   2.509  17.699 -2.2922 -0.1097 -0.2950
 5780SOL     OW28975   0.233   0.570   4.099 -0.3798  0.0225 -0.4266
 5780SOL    HW128976   0.323   0.577   4.066 -0.3216 -0.4785 -0.3809
 5780SOL    HW228977   0.211   0.662   4.111  4.3130  1.0589  0.0042
 5781SOL     OW28978   3.347   4.391   3.076  0.2466  0.4485  0.3269
 5781SOL    HW128979   3.303   4.307   3.069 -1.8396  1.7714 -2.4852
 5781SOL    HW228980   3.428   4.361   3.035  0.4174  0.4797  0.6455
 5782SOL     OW28981   1.678   4.151   7.081  0.1061 -0.0589  0.0882
 5782SOL    HW128982   1.656   4.200   7.160  1.0256 -1.5172  1.2646
 5782SOL    HW228983   1.710   4.069   7.120 -1.2876 -1.5134 -1.8653
 5783SOL     OW28984   3.004   0.119   6.251  0.4171 -0.1389 -0.2199
 5783SOL    HW128985   3.074   0.113   6.316  1.0113 -0.7292 -0.9057
 5783SOL    HW228986   3.057   0.087   6.177  0.3584 -0.0173 -0.3136
 5784SOL     OW28987   3.225   4.064  17.558  0.1891 -0.1088 -0.2910
 5784SOL    HW128988   3.320   4.074  17.545 -0.1573 -0.2231 -2.7796
 5784SOL    HW228989   3.209   4.156  17.580  2.2061  0.1637  0.0423
 5785SOL     OW28990   0.337   0.178   5.830  0.2293 -0.0419  0.1077
 5785SOL    HW128991   0.395   0.212   5.762 -0.1079  0.9367  0.3170
 5785SOL    HW228992   0.295   0.251   5.875  0.2615  0.5228 -0.7936
 5786SOL     OW28993   2.761   4.700   8.705 -0.4909  0.4594  0.8791
 5786SOL    HW128994   2.731   0.046   8.679 -0.7394  0.4465  1.1202
 5786SOL    HW228995   2.805   4.710   8.789 -0.8846  0.2951  1.1029
 5787SOL     OW28996   0.724   2.901   8.069  0.7105 -0.5705 -0.7831
 5787SOL    HW128997   0.715   2.994   8.088  0.2441 -0.4441 -1.6018
 5787SOL    HW228998   0.783   2.871   8.138 -0.2111  0.6360  0.4989
 5788SOL     OW28999   4.663   2.357  16.357 -0.2751  0.1710 -0.0504
 5788SOL    HW129000   4.700   2.269  16.365  0.2192  0.2975 -1.0150
 5788SOL    HW229001   4.575   2.336  16.326 -0.7932  1.2603  0.6402
 5789SOL     OW29002   3.593   4.103   2.690  0.1822  0.1369  0.5105
 5789SOL    HW129003   3.576   4.194   2.666 -1.7629 -0.1328  0.8846
 5789SOL    HW229004   3.689   4.111   2.696  0.1611  1.3771 -0.7632
 5790SOL     OW29005   3.344   1.439   6.558 -0.3910  0.2590 -0.0101
 5790SOL    HW129006   3.327   1.533   6.555 -1.8601  0.0144  0.8464
 5790SOL    HW229007   3.340   1.423   6.652  1.6987  0.0444  0.0533
 5791SOL     OW29008   1.147   4.492   5.995  0.0701 -0.4330 -0.3670
 5791SOL    HW129009   1.170   4.405   6.028  0.4572  0.5814  2.0002
 5791SOL    HW229010   1.065   4.509   6.040  0.3293  1.2611 -0.5599
 5792SOL     OW29011   0.387   2.151   3.608  0.5985 -0.2200 -0.5029
 5792SOL    HW129012   0.321   2.132   3.674 -0.4616  0.8284 -1.2517
 5792SOL    HW229013   0.411   2.063   3.578 -0.5842 -1.0355  0.9914
 5793SOL     OW29014   3.175   4.436   1.971 -0.0715  0.2282 -0.2687
 5793SOL    HW129015   3.183   4.516   2.023 -0.1962  0.9506 -1.3422
 5793SOL    HW229016   3.257   4.388   1.983 -0.0487  0.2583 -0.3003
 5794SOL     OW29017   1.735   1.362   0.186 -0.1379 -0.1840  0.6536
 5794SOL    HW129018   1.710   1.453   0.171  0.5935 -0.1166 -0.1842
 5794SOL    HW229019   1.646   1.329   0.180 -0.6310  0.8041  2.6410
 5795SOL     OW29020   0.809   4.143   4.070 -0.4915  0.3009 -0.3151
 5795SOL    HW129021   0.791   4.059   4.028  2.4017  0.4654 -1.8719
 5795SOL    HW229022   0.729   4.151   4.123 -0.4566 -0.5913 -0.1389
 5796SOL     OW29023   4.386   4.581   2.903 -0.5661 -0.4365  0.2887
 5796SOL    HW129024   4.319   4.512   2.903 -1.1510  0.1452  2.2859
 5796SOL    HW229025   4.459   4.535   2.945 -0.4635 -0.5432  0.0002
 5797SOL     OW29026   0.182   4.194   5.106  0.1863 -1.3797  0.5762
 5797SOL    HW129027   0.245   4.263   5.086  0.0175 -0.2540  3.9629
 5797SOL    HW229028   0.228   4.168   5.186  1.0651 -0.7995  0.2532
 5798SOL     OW29029   0.482   2.790   8.061  0.4970  0.3088 -0.4274
 5798SOL    HW129030   0.465   2.883   8.046  0.0278  0.3716  0.4825
 5798SOL    HW229031   0.576   2.802   8.078  0.5865  0.3239 -0.9269
 5799SOL     OW29032   2.765   1.138  14.569 -0.1529 -0.0982 -0.3791
 5799SOL    HW129033   2.716   1.086  14.506 -0.0669  1.8710 -2.0586
 5799SOL    HW229034   2.747   1.093  14.652  1.3345 -1.2091 -0.6665
 5800SOL     OW29035   1.273   2.977  17.380  0.4232 -0.2613  0.2687
 5800SOL    HW129036   1.296   3.015  17.295  2.0688  0.4661  1.0387
 5800SOL    HW229037   1.355   2.994  17.426  0.2149  3.2991 -0.7344
 5801SOL     OW29038   0.644   4.728   0.397 -0.2035  0.3832  0.5792
 5801SOL    HW129039   0.566   0.029   0.360  0.2691 -0.9990 -1.9462
 5801SOL    HW229040   0.695   4.722   0.317 -0.5346  1.8743  0.2654
 5802SOL     OW29041   4.440   3.934   8.986 -0.3135 -0.2404 -0.2844
 5802SOL    HW129042   4.390   3.952   9.065  1.5911 -0.1668  0.9239
 5802SOL    HW229043   4.473   4.019   8.956 -1.4725  1.0456  2.1285
 5803SOL     OW29044   3.548   4.321   2.926  0.7438  0.1347  0.5145
 5803SOL    HW129045   3.571   4.376   2.851  1.5066  1.0395  1.4123
 5803SOL    HW229046   3.625   4.269   2.951  2.7150  1.4757 -2.6849
 5804SOL     OW29047   4.577   4.583   3.663 -0.1537  0.0559  0.5777
 5804SOL    HW129048   4.515   4.510   3.653 -0.9083  0.8862 -0.8038
 5804SOL    HW229049   4.652   4.542   3.705 -0.6681 -0.1966  1.2576
 5805SOL     OW29050   0.065   3.063   4.620 -0.2164 -0.3295  0.1515
 5805SOL    HW129051   0.143   3.018   4.654  0.9210 -0.4732 -2.6257
 5805SOL    HW229052   0.012   3.069   4.700  1.1307  1.5997  0.9025
 5806SOL     OW29053   1.717   0.504  16.513  0.0147 -0.7095 -0.2653
 5806SOL    HW129054   1.682   0.558  16.442 -0.7989 -1.2479 -0.2776
 5806SOL    HW229055   1.636   0.467  16.550  0.7958 -3.4291 -1.3171
 5807SOL     OW29056   0.543   3.744   4.782  0.2573  0.5960  0.2070
 5807SOL    HW129057   0.452   3.729   4.808  1.1376 -0.9071  2.4116
 5807SOL    HW229058   0.569   3.779   4.867  1.1909  1.1153 -0.2967
 5808SOL     OW29059   1.799   0.571   3.393  0.1024  0.3942 -0.0513
 5808SOL    HW129060   1.795   0.651   3.445  0.0615  0.9200 -0.8591
 5808SOL    HW229061   1.705   0.567   3.377  0.2677  0.7427 -1.1139
 5809SOL     OW29062   2.960   0.318   4.695 -0.3577 -0.1673 -0.0832
 5809SOL    HW129063   2.926   0.358   4.775  0.1795  0.7429 -0.3107
 5809SOL    HW229064   2.979   0.231   4.730  1.1800 -0.1557 -0.9081
 5810SOL     OW29065   0.084   3.224  16.492 -0.3999 -0.4226  0.4087
 5810SOL    HW129066   0.090   3.141  16.540 -1.5715 -1.6978 -1.6931
 5810SOL    HW229067   0.166   3.217  16.443  0.0534 -0.2448  1.1400
 5811SOL     OW29068   1.325   0.994   4.209  0.2601 -0.3950  0.1793
 5811SOL    HW129069   1.284   1.000   4.123 -3.2285  3.0794  2.0398
 5811SOL    HW229070   1.304   0.906   4.243 -1.5524 -0.0104  0.0524
 5812SOL     OW29071   4.540   3.082  12.114 -0.4506 -1.2640 -0.0853
 5812SOL    HW129072   4.509   3.089  12.024  0.2797  4.2275  0.0641
 5812SOL    HW229073   4.517   3.168  12.151 -0.3504 -1.5018  0.5263
 5813SOL     OW29074   2.556   2.249   8.323 -0.4141  0.3135  0.1087
 5813SOL    HW129075   2.610   2.176   8.355 -0.0363  1.5545  2.2736
 5813SOL    HW229076   2.471   2.235   8.364 -1.5499  1.9744 -1.6636
 5814SOL     OW29077   3.083   2.129   7.846 -0.8084 -0.0741  0.0139
 5814SOL    HW129078   3.141   2.094   7.914 -0.8263  1.1225  0.6396
 5814SOL    HW229079   3.116   2.081   7.770  0.6001  1.3228 -0.2659
 5815SOL     OW29080   4.262   1.600  10.716 -0.1314  0.4349 -0.4322
 5815SOL    HW129081   4.313   1.676  10.744 -0.4026  0.6246 -0.4565
 5815SOL    HW229082   4.262   1.606  10.621  0.6285  0.9008 -0.4050
 5816SOL     OW29083   1.042   3.139   4.850 -0.6246  0.2703  0.0797
 5816SOL    HW129084   1.032   3.058   4.901 -0.4493  1.2148  1.5919
 5816SOL    HW229085   1.081   3.110   4.767  0.4997 -2.1673  1.4646
 5817SOL     OW29086   2.903   3.906  11.365 -0.0973  0.5197  0.0786
 5817SOL    HW129087   2.881   3.979  11.423 -1.0108 -1.1221  1.7943
 5817SOL    HW229088   2.997   3.913  11.348  0.1006  1.8770  1.7375
 5818SOL     OW29089   3.630   2.659   0.381 -0.0586  0.2407  0.3294
 5818SOL    HW129090   3.616   2.684   0.472  0.9630  1.0396  0.2545
 5818SOL    HW229091   3.543   2.631   0.352  0.4482 -0.2556 -0.7309
 5819SOL     OW29092   4.220   2.402  15.978  0.0381 -0.0232  0.1015
 5819SOL    HW129093   4.299   2.457  15.983 -0.2213  0.1420  2.1956
 5819SOL    HW229094   4.195   2.414  15.886 -0.2611  1.9619  0.4476
 5820SOL     OW29095   3.046   0.015   7.836 -0.6844 -0.1496  0.0557
 5820SOL    HW129096   2.983   4.689   7.863 -0.2251 -1.8665 -3.0859
 5820SOL    HW229097   3.041   0.074   7.912 -2.3593  0.1766 -0.3164
 5821SOL     OW29098   1.179   1.361   9.043 -0.3068 -0.1186 -0.0348
 5821SOL    HW129099   1.221   1.284   9.007 -1.7832 -0.8240 -0.2377
 5821SOL    HW229100   1.089   1.331   9.051 -0.4286  0.1653 -0.3133
 5822SOL     OW29101   4.303   0.489   5.296  0.2531  0.4795  0.0364
 5822SOL    HW129102   4.271   0.410   5.252  0.8310  0.0177  0.4352
 5822SOL    HW229103   4.376   0.512   5.238  0.8681 -0.4745  0.4216
 5823SOL     OW29104   3.871   1.094   3.230  0.3655  0.7083 -0.1546
 5823SOL    HW129105   3.907   1.086   3.318  1.0295  1.4558 -0.3520
 5823SOL    HW229106   3.939   1.050   3.179  0.4601  0.0866  0.5131
 5824SOL     OW29107   1.826   3.490   7.927  0.6431  0.0368  0.2650
 5824SOL    HW129108   1.895   3.455   7.982  2.3803 -0.6683 -2.3926
 5824SOL    HW229109   1.864   3.484   7.840 -0.4298  0.3368 -0.2267
 5825SOL     OW29110   4.108   3.431   5.766  0.3634 -0.3010  0.4048
 5825SOL    HW129111   4.186   3.462   5.720 -0.3139  0.7445 -0.0413
 5825SOL    HW229112   4.150   3.369   5.825 -0.7562 -1.2045  0.2680
 5826SOL     OW29113   2.174   0.689   7.992 -0.2900  0.0876 -0.1240
 5826SOL    HW129114   2.164   0.755   7.923  1.1709 -0.3817 -0.7932
 5826SOL    HW229115   2.268   0.676   8.003 -0.1613 -0.0851 -1.4917
 5827SOL     OW29116   1.731   2.308   1.896  0.3808  0.2497 -0.4192
 5827SOL    HW129117   1.811   2.357   1.879  0.5626  0.5599  1.3780
 5827SOL    HW229118   1.663   2.358   1.851 -0.3484 -0.3712 -0.0037
 5828SOL     OW29119   0.047   4.540   3.419  0.5787 -0.2740  0.2327
 5828SOL    HW129120   4.700   4.535   3.380  0.0098 -0.5171  1.5261
 5828SOL    HW229121   0.038   4.614   3.478  0.8870 -0.3393  0.3581
 5829SOL     OW29122   2.623   1.040   7.454 -0.5369  0.2887  0.2677
 5829SOL    HW129123   2.617   1.127   7.416  2.2904 -0.4131 -1.7963
 5829SOL    HW229124   2.589   0.983   7.385  1.0248  0.0776 -0.3177
 5830SOL     OW29125   1.762   3.020  12.580 -0.8270 -0.1793  0.1051
 5830SOL    HW129126   1.751   2.933  12.543  1.0476 -0.2825 -0.2460
 5830SOL    HW229127   1.757   3.074  12.501 -0.5275  1.0553  0.9258
 5831SOL     OW29128   3.785   2.265   0.691  0.0142  0.2584  0.2664
 5831SOL    HW129129   3.804   2.358   0.702 -1.5314  0.6528 -0.4023
 5831SOL    HW229130   3.786   2.234   0.782 -0.6612  1.0694  0.5557
 5832SOL     OW29131   4.724   0.923   5.931 -0.0113 -0.1879  0.0621
 5832SOL    HW129132   4.659   0.855   5.948 -0.4277  0.0276 -0.6855
 5832SOL    HW229133   4.710   0.951   5.841 -3.0992 -1.1840  0.2273
 5833SOL     OW29134   1.110   2.855  14.168 -0.7883 -0.2028  0.5207
 5833SOL    HW129135   1.163   2.781  14.140 -0.7809 -0.5877  1.5723
 5833SOL    HW229136   1.064   2.818  14.243 -1.6553  1.7685  0.9597
 5834SOL     OW29137   1.937   4.216   5.625  0.1694 -0.0189 -0.0090
 5834SOL    HW129138   1.947   4.159   5.701  0.2800  1.0122  0.7496
 5834SOL    HW229139   1.885   4.153   5.574 -0.2775 -0.4562  0.9978
 5835SOL     OW29140   2.928   0.969   8.685  0.2076  0.2381 -0.5981
 5835SOL    HW129141   2.964   0.954   8.772  0.5144 -0.3878 -0.8344
 5835SOL    HW229142   3.003   0.990   8.630  1.5325  0.0912  1.1737
 5836SOL     OW29143   2.467   1.729  15.453  0.4396  0.7760  0.6111
 5836SOL    HW129144   2.533   1.666  15.481 -1.2924 -0.9174  0.9006
 5836SOL    HW229145   2.440   1.684  15.372 -0.9803 -1.8917  2.5666
 5837SOL     OW29146   1.327   0.099   5.157 -0.1894 -0.1123 -0.1286
 5837SOL    HW129147   1.342   0.181   5.110  1.4331 -0.5621 -0.3773
 5837SOL    HW229148   1.413   0.059   5.150 -1.1608 -1.7071 -3.0661
 5838SOL     OW29149   0.095   2.778   9.231 -0.1981  0.2260  0.3111
 5838SOL    HW129150   0.094   2.811   9.141  2.2182  0.3609  0.3310
 5838SOL    HW229151   0.116   2.858   9.279  0.2912 -0.2321  0.8591
 5839SOL     OW29152   3.848   3.946  10.876  0.0771 -0.1136 -0.4196
 5839SOL    HW129153   3.941   3.956  10.856  0.1445 -1.0003 -0.5572
 5839SOL    HW229154   3.824   3.864  10.834 -3.5172  1.3083 -1.0954
 5840SOL     OW29155   1.226   0.650   5.159  0.7035 -0.6231  0.1074
 5840SOL    HW129156   1.187   0.633   5.244  0.5355  2.0209  0.5505
 5840SOL    HW229157   1.203   0.742   5.149  1.9780 -0.3806 -0.6803
 5841SOL     OW29158   2.268   4.496  13.123 -0.0771 -0.2976  0.4884
 5841SOL    HW129159   2.240   4.434  13.190 -1.2266 -1.6674 -1.2695
 5841SOL    HW229160   2.196   4.478  13.063  0.7640 -0.0894 -0.5849
 5842SOL     OW29161   3.275   4.239   2.255  0.0528  0.0669 -0.0283
 5842SOL    HW129162   3.364   4.256   2.287 -0.6037  3.4664 -0.0068
 5842SOL    HW229163   3.290   4.206   2.167  3.1020  1.5662 -0.0878
 5843SOL     OW29164   3.852   4.236   8.704 -0.6114  0.1652  0.5381
 5843SOL    HW129165   3.803   4.316   8.724 -0.9639  0.3899 -1.2084
 5843SOL    HW229166   3.937   4.261   8.742  0.7447 -1.8994 -1.1497
 5844SOL     OW29167   2.315   4.533   3.579  0.2709  0.2761  0.2741
 5844SOL    HW129168   2.381   4.602   3.579 -0.3290  0.8575  1.1803
 5844SOL    HW229169   2.244   4.578   3.626 -1.4929 -1.6112 -0.5621
 5845SOL     OW29170   1.435   3.951  12.088 -0.7324 -0.0203 -0.4440
 5845SOL    HW129171   1.458   3.873  12.036  0.7160 -0.1266  0.3676
 5845SOL    HW229172   1.467   3.919  12.172  0.2156  0.4335 -0.6337
 5846SOL     OW29173   3.957   1.544  16.289  0.3515 -0.4674 -0.0842
 5846SOL    HW129174   3.885   1.510  16.343  0.7742  0.2417  0.9435
 5846SOL    HW229175   3.943   1.485  16.216  1.9834 -1.5794  0.4851
 5847SOL     OW29176   2.449   2.174  11.540  0.2352 -0.3475 -0.6316
 5847SOL    HW129177   2.368   2.124  11.535 -0.9393  1.4950 -0.1439
 5847SOL    HW229178   2.495   2.124  11.472  1.2098  0.2963 -0.4496
 5848SOL     OW29179   0.391   4.253  15.602 -0.1750 -0.5337  0.1369
 5848SOL    HW129180   0.375   4.215  15.515  1.1881 -1.1988  0.1715
 5848SOL    HW229181   0.312   4.279  15.649  0.4855  0.7509  0.5497
 5849SOL     OW29182   0.507   2.989   8.468  0.1488 -0.3144  0.0739
 5849SOL    HW129183   0.548   3.072   8.489  0.2619 -0.7596  1.6396
 5849SOL    HW229184   0.436   3.028   8.417 -2.4322 -2.8689  1.7109
 5850SOL     OW29185   4.290   1.882   5.574  0.1487  0.0126 -0.1346
 5850SOL    HW129186   4.315   1.937   5.649 -0.2455 -0.7205  0.5363
 5850SOL    HW229187   4.217   1.826   5.599 -0.0633  1.1512  1.8380
 5851SOL     OW29188   0.703   3.989   8.154 -0.1962  0.5884  0.2742
 5851SOL    HW129189   0.720   3.964   8.064  3.1312  0.3757  0.9427
 5851SOL    HW229190   0.747   3.913   8.192 -1.0307  0.0803  0.2198
 5852SOL     OW29191   3.479   0.616   8.113  0.2971 -0.0089 -0.4298
 5852SOL    HW129192   3.466   0.529   8.150  1.9831 -0.0987 -0.0345
 5852SOL    HW229193   3.544   0.642   8.179 -2.7102  0.8157  2.1770
 5853SOL     OW29194   2.208   4.671  16.489  0.0151  0.6534 -0.3289
 5853SOL    HW129195   2.259   4.610  16.543  0.4101  0.6732 -0.6858
 5853SOL    HW229196   2.117   4.652  16.512  0.8467 -0.3594  2.1424
 5854SOL     OW29197   3.391   2.833   2.145  0.1162  0.4211  0.0603
 5854SOL    HW129198   3.366   2.804   2.232  1.4385 -1.0933 -0.0686
 5854SOL    HW229199   3.484   2.846   2.167  0.1572  2.2034 -1.1521
 5855SOL     OW29200   0.889   2.470   1.864 -0.3529 -0.3391 -0.4899
 5855SOL    HW129201   0.965   2.468   1.806  0.5162 -1.6701  0.6878
 5855SOL    HW229202   0.945   2.487   1.940  0.8078 -2.7677 -0.7747
 5856SOL     OW29203   3.736   0.965   7.702 -0.1137  0.0340 -0.2942
 5856SOL    HW129204   3.801   0.928   7.762  0.0709 -1.8241 -1.6305
 5856SOL    HW229205   3.670   1.008   7.755  0.9755  1.1657  0.1442
 5857SOL     OW29206   3.306   2.115   3.391 -0.7892  0.0461  0.1241
 5857SOL    HW129207   3.213   2.111   3.408 -0.9860 -0.8719 -1.1706
 5857SOL    HW229208   3.322   2.024   3.366 -3.2556 -0.4940  0.5121
 5858SOL     OW29209   1.171   0.237   6.906 -0.1917 -0.3042  0.1719
 5858SOL    HW129210   1.158   0.143   6.915  0.3971 -0.6023 -2.0144
 5858SOL    HW229211   1.216   0.254   6.989  0.9451  0.0275 -0.4991
 5859SOL     OW29212   2.462   3.800   4.079  0.2611  0.0792 -0.3375
 5859SOL    HW129213   2.523   3.811   4.006 -0.1835  1.3398 -0.5107
 5859SOL    HW229214   2.450   3.893   4.097 -4.6866 -0.6045 -0.2349
 5860SOL     OW29215   1.049   1.121   2.736  0.1113 -0.2741 -0.1969
 5860SOL    HW129216   1.084   1.132   2.648 -1.8556  1.3654 -0.7820
 5860SOL    HW229217   1.066   1.203   2.782  0.8909 -0.0027 -0.9736
 5861SOL     OW29218   0.873   2.150  13.220  0.4688  0.1175 -0.0714
 5861SOL    HW129219   0.942   2.183  13.162 -0.4720  2.2356  0.0027
 5861SOL    HW229220   0.914   2.157  13.307  2.1521 -0.5228 -0.8254
 5862SOL     OW29221   1.488   4.448   3.034  0.3936  0.0541  0.0382
 5862SOL    HW129222   1.562   4.388   3.047 -0.4540 -1.2512 -1.1208
 5862SOL    HW229223   1.465   4.470   3.124  1.5004 -0.9756  0.5825
 5863SOL     OW29224   3.743   4.409   9.749 -0.0778  0.6777  0.5090
 5863SOL    HW129225   3.799   4.337   9.779 -1.5354 -0.4323  0.6240
 5863SOL    HW229226   3.691   4.428   9.828  0.1316  2.2245  0.2679
 5864SOL     OW29227   3.135   3.373   9.359 -0.0648  0.0054 -0.6977
 5864SOL    HW129228   3.115   3.410   9.445  0.6845 -0.7782 -0.1860
 5864SOL    HW229229   3.123   3.446   9.297 -0.6535 -0.4576 -1.1259
 5865SOL     OW29230   2.539   0.353   4.329 -0.0906  0.0283 -0.1740
 5865SOL    HW129231   2.561   0.260   4.328  2.8734  0.7024  1.0603
 5865SOL    HW229232   2.564   0.383   4.241  1.5104  2.5186  1.1232
 5866SOL     OW29233   0.874   0.543  13.763  0.0124  0.2895 -0.2598
 5866SOL    HW129234   0.779   0.543  13.774  0.0163 -2.9185 -0.0405
 5866SOL    HW229235   0.890   0.634  13.739  0.1484  0.0885 -0.9112
 5867SOL     OW29236   0.246   3.357   1.663 -0.2794  0.3213  0.5514
 5867SOL    HW129237   0.329   3.308   1.659 -0.5556 -0.1407  0.4112
 5867SOL    HW229238   0.258   3.450   1.645  1.0905  0.0102 -0.1665
 5868SOL     OW29239   2.558   1.868  14.645  0.4932  0.4393 -0.1163
 5868SOL    HW129240   2.464   1.878  14.630  0.2807  0.8546  1.4922
 5868SOL    HW229241   2.555   1.810  14.721  1.3099  1.7258  0.8784
 5869SOL     OW29242   2.580   2.372   1.348 -0.5217  0.1843  0.2065
 5869SOL    HW129243   2.565   2.310   1.276  1.4920 -2.3180  1.9362
 5869SOL    HW229244   2.674   2.368   1.367 -0.4786  0.0389 -0.0366
 5870SOL     OW29245   0.357   0.594   6.161  0.3824 -0.4840  0.3043
 5870SOL    HW129246   0.263   0.590   6.140 -0.0457  1.3993  1.7857
 5870SOL    HW229247   0.393   0.551   6.084  1.6799 -1.6522  1.5586
 5871SOL     OW29248   0.641   2.041   3.061 -0.5667  0.7316  0.6359
 5871SOL    HW129249   0.649   2.137   3.063 -0.0392  0.7145 -1.3620
 5871SOL    HW229250   0.548   2.034   3.040  0.1610 -0.4458 -2.1638
 5872SOL     OW29251   4.069   1.066  17.555 -0.2535  0.7240 -0.0267
 5872SOL    HW129252   4.015   1.006  17.504  3.6391  0.5389 -3.8784
 5872SOL    HW229253   4.033   1.143  17.509  0.2116  0.5918 -0.6074
 5873SOL     OW29254   2.520   0.053   7.976 -0.5470  0.2513 -0.4531
 5873SOL    HW129255   2.441   0.015   7.938  0.0948 -0.4603 -1.0623
 5873SOL    HW229256   2.519   0.140   7.935 -1.1735  0.6260  0.3531
 5874SOL     OW29257   0.678   3.242   5.258 -0.4506 -0.1952  0.6636
 5874SOL    HW129258   0.723   3.158   5.264  0.1003 -0.0599 -1.3205
 5874SOL    HW229259   0.592   3.216   5.293 -2.4633  0.9192 -3.4242
 5875SOL     OW29260   1.515   3.423  15.907 -0.1766  0.2999 -0.1379
 5875SOL    HW129261   1.567   3.477  15.967  0.6685 -1.3235  0.5757
 5875SOL    HW229262   1.439   3.477  15.884  0.7193  1.1973 -1.0349
 5876SOL     OW29263   2.257   3.878   5.019 -0.2952  0.2235 -0.2935
 5876SOL    HW129264   2.216   3.940   5.080  0.5722 -0.1193  0.6287
 5876SOL    HW229265   2.295   3.940   4.957 -1.3557  1.1495 -0.0232
 5877SOL     OW29266   4.720   0.967  17.216  0.0514 -0.1599 -0.7361
 5877SOL    HW129267   0.037   0.972  17.293 -1.5518 -2.0977  0.5892
 5877SOL    HW229268   0.003   0.878  17.190  0.4510  0.1714 -1.5064
 5878SOL     OW29269   1.456   1.410   5.978 -0.4762  0.6418  0.2035
 5878SOL    HW129270   1.540   1.444   5.946 -1.1730  1.1585 -1.0705
 5878SOL    HW229271   1.477   1.376   6.065 -1.1280 -0.1533  0.0485
 5879SOL     OW29272   1.866   0.405  11.400  0.0470  0.2185 -0.1282
 5879SOL    HW129273   1.880   0.341  11.331  0.9444 -0.8917  1.0820
 5879SOL    HW229274   1.840   0.483  11.350  1.4138  1.1815  0.6575
 5880SOL     OW29275   1.316   4.455   2.789 -0.1480 -0.2153  0.2732
 5880SOL    HW129276   1.376   4.526   2.766  1.1580 -0.9442  1.3988
 5880SOL    HW229277   1.361   4.429   2.869 -1.3124 -1.7044  0.4588
 5881SOL     OW29278   2.068   0.765   3.693  0.5962 -0.1811  0.1905
 5881SOL    HW129279   2.135   0.832   3.706  0.9820 -0.5078 -0.1235
 5881SOL    HW229280   2.109   0.740   3.610 -1.1617  1.7055 -1.2503
 5882SOL     OW29281   0.608   0.989   6.216  0.1130  0.4248 -0.0151
 5882SOL    HW129282   0.545   0.932   6.261 -0.3058  0.3164 -0.7432
 5882SOL    HW229283   0.613   0.946   6.131 -1.2335 -0.7288  0.4941
 5883SOL     OW29284   3.362   1.845   8.792 -0.0001 -0.2829  0.2878
 5883SOL    HW129285   3.332   1.924   8.746  0.0804 -0.8189 -0.6996
 5883SOL    HW229286   3.383   1.880   8.878 -2.2020  2.1845 -0.1743
 5884SOL     OW29287   0.647   0.765   7.557 -0.5697  0.0634  0.2426
 5884SOL    HW129288   0.714   0.822   7.594 -0.2126  2.2259 -3.7231
 5884SOL    HW229289   0.640   0.703   7.630 -0.2566  0.7078  0.8201
 5885SOL     OW29290   2.619   0.161   7.140 -0.1291  0.4326  0.8880
 5885SOL    HW129291   2.564   0.209   7.202  0.5227  1.8697  0.3411
 5885SOL    HW229292   2.691   0.135   7.197  0.4735  0.2961  0.0667
 5886SOL     OW29293   3.754   3.229   4.769 -0.1507  0.4323 -0.0732
 5886SOL    HW129294   3.805   3.186   4.700 -0.9627  1.3976 -1.2968
 5886SOL    HW229295   3.666   3.219   4.734  0.8292  0.5192 -2.6294
 5887SOL     OW29296   0.708   3.951  17.550 -0.0054 -0.1252  0.1117
 5887SOL    HW129297   0.734   3.880  17.608  1.9644  0.9479  0.5461
 5887SOL    HW229298   0.634   3.994  17.592 -2.1953 -1.8077 -2.0356
 5888SOL     OW29299   0.173   3.538   4.686  0.0408 -0.4506 -0.7253
 5888SOL    HW129300   0.111   3.492   4.743  0.9440 -0.5642  0.1414
 5888SOL    HW229301   0.207   3.603   4.747  1.9764 -1.8490 -0.3341
 5889SOL     OW29302   0.939   2.673   6.200  0.3057  0.1150  0.1801
 5889SOL    HW129303   1.029   2.639   6.197 -0.0649 -1.0508  2.5855
 5889SOL    HW229304   0.924   2.676   6.105  1.0287  0.0105  0.0569
 5890SOL     OW29305   0.371   1.640  17.219 -0.5456 -0.1680  0.4604
 5890SOL    HW129306   0.447   1.677  17.265  0.5311  0.9025 -2.1478
 5890SOL    HW229307   0.315   1.714  17.197  0.0628  0.0272 -0.4725
 5891SOL     OW29308   1.435   2.054  15.337 -0.8031 -0.1719  0.5802
 5891SOL    HW129309   1.440   2.121  15.269 -1.0058 -0.3817  0.3556
 5891SOL    HW229310   1.394   2.116  15.398 -0.0799 -0.1571  1.0454
 5892SOL     OW29311   2.008   2.894   4.383 -0.1569 -0.2591 -0.0158
 5892SOL    HW129312   2.021   2.813   4.432  1.9318  0.3522  0.4094
 5892SOL    HW229313   2.026   2.868   4.293 -0.8115  1.2886 -0.6115
 5893SOL     OW29314   4.312   4.576   4.495 -0.0333 -0.3309  1.1458
 5893SOL    HW129315   4.309   4.526   4.414  0.4274  0.8739  0.3863
 5893SOL    HW229316   4.219   4.581   4.520 -0.8065  2.1945 -2.2164
 5894SOL     OW29317   3.802   0.255  10.705  0.5046 -0.1350 -0.2050
 5894SOL    HW129318   3.740   0.185  10.687 -0.4995  0.8125 -0.3727
 5894SOL    HW229319   3.736   0.315  10.740 -0.6835 -0.8303 -1.2820
 5895SOL     OW29320   3.053   0.825   5.566  0.0456 -0.5104 -0.1257
 5895SOL    HW129321   2.994   0.800   5.637  1.4023 -1.7425  0.5811
 5895SOL    HW229322   3.066   0.745   5.515 -0.0974 -0.7269  0.1753
 5896SOL     OW29323   3.416   4.431  12.306  0.1750 -0.4569  0.1866
 5896SOL    HW129324   3.400   4.342  12.338  1.4560 -1.4286 -1.9018
 5896SOL    HW229325   3.414   4.416  12.211 -1.5037 -1.8765  0.4514
 5897SOL     OW29326   2.288   1.302   1.373  0.1987  0.1812 -0.0778
 5897SOL    HW129327   2.357   1.278   1.436  0.6165 -0.7237 -0.8739
 5897SOL    HW229328   2.252   1.214   1.371 -0.6718  0.5207  0.6944
 5898SOL     OW29329   3.093   4.187   3.259 -0.5192 -0.6096 -0.0134
 5898SOL    HW129330   3.184   4.175   3.232 -0.8121  0.2345 -1.3822
 5898SOL    HW229331   3.108   4.242   3.336 -2.4036  0.6615 -0.5478
 5899SOL     OW29332   1.758   0.152   4.907  0.4333 -0.5844  0.3143
 5899SOL    HW129333   1.845   0.150   4.866  0.1759 -1.6835 -0.1820
 5899SOL    HW229334   1.747   0.246   4.923 -1.4020 -0.7859  0.2080
 5900SOL     OW29335   0.509   0.356   5.656  0.1045  0.3416  0.7530
 5900SOL    HW129336   0.516   0.437   5.605  0.9300  0.5113  1.1425
 5900SOL    HW229337   0.579   0.306   5.615  0.8597  0.8382  1.4259
 5901SOL     OW29338   1.388   2.651   2.899  0.0198  0.2361 -0.0955
 5901SOL    HW129339   1.441   2.629   2.976 -0.7410 -1.2203  0.0221
 5901SOL    HW229340   1.410   2.578   2.841  2.0910  0.9434 -0.1855
 5902SOL     OW29341   4.468   1.601   7.538 -0.6818  0.1533  0.2328
 5902SOL    HW129342   4.421   1.527   7.577 -0.3287 -0.2500 -0.1104
 5902SOL    HW229343   4.512   1.636   7.616  1.9503  0.2882 -1.3010
 5903SOL     OW29344   2.760   0.152   3.683 -0.4481 -0.2633 -0.5826
 5903SOL    HW129345   2.820   0.174   3.753 -0.4160 -0.8550 -0.4205
 5903SOL    HW229346   2.822   0.136   3.612  1.2854 -0.6339  1.0376
 5904SOL     OW29347   3.959   3.348   2.263 -0.3524  0.3291  0.1291
 5904SOL    HW129348   3.940   3.395   2.182 -0.2001 -2.0842 -1.3318
 5904SOL    HW229349   3.891   3.281   2.269 -0.6349  0.3071 -3.0193
 5905SOL     OW29350   1.427   0.415   7.343  0.5123 -0.1195  0.7931
 5905SOL    HW129351   1.425   0.334   7.394 -0.6719 -0.6861 -0.1478
 5905SOL    HW229352   1.364   0.468   7.392 -1.1529 -2.1017  0.8245
 5906SOL     OW29353   3.551   3.458  13.884  0.7247  0.0339 -0.4918
 5906SOL    HW129354   3.521   3.539  13.842  0.1797  0.0019 -0.1509
 5906SOL    HW229355   3.588   3.412  13.808 -1.7387 -0.1577 -1.5643
 5907SOL     OW29356   1.479   1.417   8.811 -0.0489  0.6558  0.1749
 5907SOL    HW129357   1.409   1.463   8.766  0.5787  0.3960 -1.0901
 5907SOL    HW229358   1.528   1.379   8.737 -1.7711 -2.2435  0.5266
 5908SOL     OW29359   4.380   1.060  13.791 -0.1393 -0.1901 -0.2180
 5908SOL    HW129360   4.360   0.967  13.781 -1.5172  0.0454  0.4279
 5908SOL    HW229361   4.473   1.069  13.768  0.5592  0.7432  2.9452
 5909SOL     OW29362   3.452   4.682   1.797  0.5673 -0.7529  0.1615
 5909SOL    HW129363   3.455   4.683   1.893  1.1445 -2.1117  0.1680
 5909SOL    HW229364   3.502   0.022   1.781 -0.8892  0.4788  1.7431
 5910SOL     OW29365   4.335   0.539  10.215  0.4123  0.0286  0.0256
 5910SOL    HW129366   4.401   0.545  10.285 -0.0169 -0.7855  0.4888
 5910SOL    HW229367   4.265   0.495  10.263  1.2108  1.5259  2.5954
 5911SOL     OW29368   2.555   1.871   1.726 -0.7828  0.2283  0.2752
 5911SOL    HW129369   2.554   1.807   1.655 -0.9342  0.0433  0.4424
 5911SOL    HW229370   2.517   1.946   1.682 -0.6067 -0.2641 -0.7174
 5912SOL     OW29371   3.469   2.877  17.692  0.4386  0.2215 -0.6035
 5912SOL    HW129372   3.523   2.880   0.013  3.3487 -0.8966 -2.5447
 5912SOL    HW229373   3.382   2.904  17.719 -0.4229 -1.3636 -1.7745
 5913SOL     OW29374   0.172   0.893  15.631 -0.1681  0.2846 -0.4634
 5913SOL    HW129375   0.103   0.952  15.662  0.0954  0.8508 -0.9610
 5913SOL    HW229376   0.217   0.957  15.577 -1.6092  0.9949 -0.8246
 5914SOL     OW29377   3.590   0.672  11.756 -0.2367 -0.1652 -0.0380
 5914SOL    HW129378   3.529   0.681  11.829 -0.8695 -0.7832 -0.4876
 5914SOL    HW229379   3.561   0.748  11.705 -1.5222 -0.0695  0.8212
 5915SOL     OW29380   0.722   0.463   6.861 -0.1818 -0.2753 -0.0663
 5915SOL    HW129381   0.796   0.437   6.917  1.1970 -0.6505 -2.0847
 5915SOL    HW229382   0.750   0.454   6.770  0.5057  1.0843  0.0095
 5916SOL     OW29383   1.747   3.465   3.272  0.0174  0.0215 -0.1195
 5916SOL    HW129384   1.840   3.450   3.253  0.1883  1.7143 -0.6575
 5916SOL    HW229385   1.721   3.526   3.203 -0.5111  0.6792  0.6552
 5917SOL     OW29386   3.509   1.947   3.551  0.1532  0.2675 -0.3473
 5917SOL    HW129387   3.583   1.890   3.573 -1.2359 -0.9664  1.1022
 5917SOL    HW229388   3.449   1.880   3.521  0.7744 -1.3789  2.0606
 5918SOL     OW29389   2.644   3.790  17.641 -0.0639 -0.3564 -0.0392
 5918SOL    HW129390   2.619   3.774  17.732 -2.0247 -1.0300 -0.6980
 5918SOL    HW229391   2.729   3.745  17.644  0.3253  0.4830  1.3969
 5919SOL     OW29392   3.878   3.666   5.326  0.0970 -0.0477 -0.2042
 5919SOL    HW129393   3.820   3.614   5.380  0.4231 -0.0739  0.1223
 5919SOL    HW229394   3.811   3.711   5.276 -0.3365  0.8816  1.2000
 5920SOL     OW29395   0.894   0.892   7.622  0.3041  0.2732 -0.3328
 5920SOL    HW129396   0.905   0.938   7.706  0.7574  1.4653 -1.0394
 5920SOL    HW229397   0.943   0.957   7.571 -0.1444 -1.6530 -3.1948
 5921SOL     OW29398   1.727   0.899   4.058 -0.0678  0.0869  0.6360
 5921SOL    HW129399   1.644   0.918   4.014  0.2132  1.8787  0.8551
 5921SOL    HW229400   1.701   0.828   4.116 -1.0471  0.0312  0.1233
 5922SOL     OW29401   1.540   1.520   0.359 -0.1658 -0.3071 -0.1746
 5922SOL    HW129402   1.445   1.529   0.372 -0.0212  0.4721  0.3258
 5922SOL    HW229403   1.575   1.537   0.446 -0.1600 -1.3268  0.0176
 5923SOL     OW29404   3.111   2.054   8.407 -0.7160 -0.6188  0.3308
 5923SOL    HW129405   3.050   2.127   8.415  1.4258  1.2571 -0.4799
 5923SOL    HW229406   3.064   1.976   8.436  0.2762 -1.3779 -0.1289
 5924SOL     OW29407   4.283   0.222   2.108 -0.1981 -0.5941 -0.0150
 5924SOL    HW129408   4.376   0.232   2.090 -0.4680  0.0600 -1.0939
 5924SOL    HW229409   4.277   0.294   2.170  0.4654 -0.7030  0.1742
 5925SOL     OW29410   0.492   3.917   9.555  0.1840  0.3495 -0.3883
 5925SOL    HW129411   0.580   3.886   9.576 -0.9920 -1.9687  1.2488
 5925SOL    HW229412   0.464   3.865   9.480 -0.9961  1.9270 -1.0308
 5926SOL     OW29413   2.796   3.593  13.583 -0.4779  0.0066  0.0588
 5926SOL    HW129414   2.776   3.561  13.671  0.6805 -0.2467  0.2308
 5926SOL    HW229415   2.844   3.518  13.548 -1.2041 -0.8964  0.9757
 5927SOL     OW29416   2.374   3.566   3.329  0.3853  0.1365 -0.1851
 5927SOL    HW129417   2.300   3.540   3.383  0.8792 -2.4453 -0.7724
 5927SOL    HW229418   2.385   3.661   3.340 -1.6929  0.3567  0.0576
 5928SOL     OW29419   2.032   2.117  15.436 -0.0918  0.4797 -0.2208
 5928SOL    HW129420   1.982   2.103  15.355  1.0402 -1.3109 -0.6112
 5928SOL    HW229421   2.108   2.170  15.410 -0.8074  0.7756 -1.6972
 5929SOL     OW29422   3.383   0.555   5.810 -0.5263  0.0780  0.0623
 5929SOL    HW129423   3.406   0.604   5.890 -0.4380 -1.2531  0.8456
 5929SOL    HW229424   3.288   0.568   5.811 -0.5837 -0.4245  0.7647
 5930SOL     OW29425   3.535   0.632   2.471 -0.2588 -0.6941  0.4421
 5930SOL    HW129426   3.487   0.709   2.502 -0.7936 -0.7969 -0.1323
 5930SOL    HW229427   3.467   0.566   2.473 -0.5564 -0.3569  1.4358
 5931SOL     OW29428   4.610   0.923   9.309  0.3606 -0.5226 -0.2239
 5931SOL    HW129429   4.539   0.984   9.330  1.8402  1.2107 -0.2396
 5931SOL    HW229430   4.633   0.940   9.217 -1.0067  2.8382  0.0371
 5932SOL     OW29431   4.467   0.932   7.389 -0.5881  0.2507  0.1755
 5932SOL    HW129432   4.381   0.900   7.416 -2.2821  1.8793 -3.2571
 5932SOL    HW229433   4.463   0.898   7.299 -1.5553  0.5560  0.1060
 5933SOL     OW29434   2.914   3.967   7.012 -0.3526  0.3646  0.5418
 5933SOL    HW129435   2.869   3.883   7.003 -1.9572  1.1596  1.1492
 5933SOL    HW229436   2.872   4.005   7.089  0.3138  1.0725  0.5611
 5934SOL     OW29437   3.917   3.217   8.199 -0.0344  0.0854  0.2334
 5934SOL    HW129438   3.978   3.148   8.174  1.3990  0.8478  1.6524
 5934SOL    HW229439   3.877   3.231   8.113  1.7788 -0.4362 -0.6904
 5935SOL     OW29440   1.836   0.056   2.053  0.0314  0.3768 -0.2391
 5935SOL    HW129441   1.890   0.075   2.130  0.5745  1.9835 -1.0224
 5935SOL    HW229442   1.756   0.106   2.070 -0.1223 -0.8365  2.6424
 5936SOL     OW29443   3.387   4.158  12.338 -0.6211  0.4321 -0.0143
 5936SOL    HW129444   3.370   4.128  12.249 -1.0358 -0.2822  0.3003
 5936SOL    HW229445   3.401   4.078  12.389  0.2499  0.3329 -0.4162
 5937SOL     OW29446   0.355   1.622  11.915 -0.4173 -0.1323  0.2992
 5937SOL    HW129447   0.406   1.647  11.839 -1.3111 -0.9970 -0.5871
 5937SOL    HW229448   0.270   1.612  11.872 -0.4697 -0.5487  0.4926
 5938SOL     OW29449   4.444   2.988   8.713 -0.1625 -0.6744  0.1902
 5938SOL    HW129450   4.463   3.031   8.796 -0.1630 -0.2841 -0.0116
 5938SOL    HW229451   4.388   2.916   8.742 -0.7056 -0.3383 -0.0111
 5939SOL     OW29452   0.243   2.183   6.388 -0.1037 -0.3794  0.3800
 5939SOL    HW129453   0.173   2.199   6.325  0.2536  0.7470  0.2718
 5939SOL    HW229454   0.316   2.149   6.337 -0.7147  1.7365 -1.8919
 5940SOL     OW29455   4.631   3.821  10.496 -0.1552 -0.5171  0.3623
 5940SOL    HW129456   4.541   3.844  10.472  0.2871  2.0043  1.0380
 5940SOL    HW229457   4.611   3.771  10.575  0.5796  0.9177  1.4525
 5941SOL     OW29458   3.469   3.636   5.038  0.2878 -0.0114  0.0910
 5941SOL    HW129459   3.421   3.601   4.963 -0.6123  0.9529  0.2178
 5941SOL    HW229460   3.455   3.555   5.088 -1.8292  0.0567 -0.3547
 5942SOL     OW29461   1.459   1.075   8.874  0.1318 -0.6228  0.2365
 5942SOL    HW129462   1.383   1.107   8.826  0.8472  0.1718 -0.3531
 5942SOL    HW229463   1.430   1.087   8.964  1.9842 -0.4576  0.8129
 5943SOL     OW29464   1.368   0.463   5.532 -0.4682  0.0694 -0.1865
 5943SOL    HW129465   1.410   0.534   5.484  1.4367 -2.2954 -2.0065
 5943SOL    HW229466   1.282   0.483   5.496  0.1340  0.6347 -1.3231
 5944SOL     OW29467   4.145   1.027   4.956  0.4708 -0.6413  0.3826
 5944SOL    HW129468   4.054   1.054   4.946 -0.1983 -3.2506 -0.3972
 5944SOL    HW229469   4.132   0.939   4.923  0.2243 -0.5249  0.1726
 5945SOL     OW29470   3.812   0.982   9.446  0.0644 -0.5021 -0.2288
 5945SOL    HW129471   3.779   0.903   9.403 -1.7885 -1.1500  2.3429
 5945SOL    HW229472   3.826   1.033   9.367 -2.4899  0.2712 -0.1919
 5946SOL     OW29473   3.614   1.444   4.525  0.5597  0.2366  0.1729
 5946SOL    HW129474   3.572   1.396   4.596  1.8290 -0.6979  0.3024
 5946SOL    HW229475   3.675   1.492   4.581  0.4373 -2.1319  2.3394
 5947SOL     OW29476   1.316   1.799   6.880 -0.0817 -0.0737 -0.5383
 5947SOL    HW129477   1.267   1.808   6.962 -1.5605  1.1358 -1.5717
 5947SOL    HW229478   1.338   1.706   6.872  0.7148  0.1799 -1.2959
 5948SOL     OW29479   4.248   3.536   6.205 -0.1556 -0.3874  0.1879
 5948SOL    HW129480   4.217   3.565   6.119 -0.6989  2.0926  1.2220
 5948SOL    HW229481   4.295   3.612   6.238 -0.6954 -0.3994  0.9995
 5949SOL     OW29482   3.345   2.459   7.867  0.0901 -0.2022 -0.6123
 5949SOL    HW129483   3.254   2.474   7.843  1.2376  1.7584 -3.7410
 5949SOL    HW229484   3.340   2.514   7.946 -2.3792 -0.9631 -0.2473
 5950SOL     OW29485   2.098   3.480   3.476 -0.0873  0.2782 -0.3236
 5950SOL    HW129486   2.053   3.564   3.470 -2.5038 -0.9223  0.9173
 5950SOL    HW229487   2.073   3.433   3.397 -2.2821 -0.1177  0.6127
 5951SOL     OW29488   3.400   2.347   8.985 -0.2675  0.2956 -0.1627
 5951SOL    HW129489   3.332   2.333   9.050  0.2458  1.6472  0.6601
 5951SOL    HW229490   3.444   2.428   9.012  1.6526 -0.8306  0.0789
 5952SOL     OW29491   1.072   2.403   3.392 -0.1979  0.6715 -0.0026
 5952SOL    HW129492   1.129   2.424   3.466  1.4527 -2.6701 -0.3501
 5952SOL    HW229493   1.071   2.308   3.396 -2.5612  0.6934  0.1381
 5953SOL     OW29494   2.262   3.059   2.116  0.1187 -0.5320  0.4049
 5953SOL    HW129495   2.281   3.143   2.073 -1.7876 -1.0800 -1.5283
 5953SOL    HW229496   2.172   3.074   2.143  0.5414  1.8269  0.5121
 5954SOL     OW29497   2.151   0.253   6.776  0.3151  0.8488 -0.0972
 5954SOL    HW129498   2.090   0.323   6.801  1.8536  0.6303  4.1721
 5954SOL    HW229499   2.148   0.191   6.848  1.0230  0.8072 -0.1101
 5955SOL     OW29500   1.172   1.669   7.507  0.3085  0.1591 -0.3525
 5955SOL    HW129501   1.256   1.626   7.524 -0.2251 -0.9460 -0.5343
 5955SOL    HW229502   1.147   1.709   7.590 -2.6427 -2.0269 -0.2078
 5956SOL     OW29503   1.044   0.980   1.941  0.3285  0.7246  0.0246
 5956SOL    HW129504   1.018   1.072   1.945  0.5283  0.7475  0.8443
 5956SOL    HW229505   1.139   0.979   1.955  0.4273  0.0555 -0.6624
 5957SOL     OW29506   2.396   3.379   3.686 -0.0140 -0.0010 -0.0055
 5957SOL    HW129507   2.411   3.322   3.761 -0.5975 -1.2889 -0.8715
 5957SOL    HW229508   2.314   3.417   3.718  0.1504  1.3351 -1.1684
 5958SOL     OW29509   3.603   2.497   7.824  0.2133  0.0731  0.4518
 5958SOL    HW129510   3.588   2.549   7.745 -1.7648 -1.2834 -0.0557
 5958SOL    HW229511   3.517   2.455   7.829  1.0211 -1.7371 -0.8856
 5959SOL     OW29512   0.875   4.439   3.840  0.5405  0.4689  0.0615
 5959SOL    HW129513   0.916   4.359   3.872 -2.7698 -1.5826 -0.8010
 5959SOL    HW229514   0.945   4.473   3.784  0.7253 -0.5829 -0.3529
 5960SOL     OW29515   4.078   1.441   2.887 -0.8549  0.4396 -0.4916
 5960SOL    HW129516   4.033   1.525   2.891 -1.3115  0.2514 -1.4781
 5960SOL    HW229517   4.034   1.399   2.812  2.4524 -2.8276 -0.6316
 5961SOL     OW29518   0.915   2.623   1.183  0.5840  0.1920 -0.0742
 5961SOL    HW129519   0.995   2.659   1.221  0.5367 -0.0926  0.2945
 5961SOL    HW229520   0.942   2.574   1.105 -0.4223 -0.7478  0.1640
 5962SOL     OW29521   2.902   3.144   6.277 -0.1735  0.1676  0.3686
 5962SOL    HW129522   2.943   3.117   6.194 -2.6726  0.3511 -0.9148
 5962SOL    HW229523   2.858   3.064   6.306 -0.1370  0.2218  0.5758
 5963SOL     OW29524   2.226   3.745   5.650  0.1123  0.0859  0.4265
 5963SOL    HW129525   2.220   3.837   5.678  0.0019 -0.0791  0.9367
 5963SOL    HW229526   2.305   3.715   5.696 -0.0576  0.5107  0.9995
 5964SOL     OW29527   3.959   3.555   5.947 -0.1192  0.3134 -0.0635
 5964SOL    HW129528   4.023   3.500   5.901 -0.3756  0.8770 -1.1143
 5964SOL    HW229529   3.901   3.500   5.998 -1.3450  0.0120 -1.7692
 5965SOL     OW29530   4.075   3.856  12.211  0.2228 -0.1444 -0.6721
 5965SOL    HW129531   4.099   3.770  12.246  1.5333  0.2691 -0.5585
 5965SOL    HW229532   4.027   3.894  12.285  0.4846  0.6902 -0.9274
 5966SOL     OW29533   2.052   2.558   2.743  0.2000  0.3434 -0.0634
 5966SOL    HW129534   1.962   2.589   2.746  0.1307  0.2921 -1.5113
 5966SOL    HW229535   2.046   2.485   2.682 -0.7107  0.5806 -0.2603
 5967SOL     OW29536   2.214   1.944  11.547  0.0972  0.1674 -0.2663
 5967SOL    HW129537   2.180   1.856  11.529  0.0418  0.2290 -0.4678
 5967SOL    HW229538   2.219   1.948  11.642 -1.3493  3.2872 -0.3052
 5968SOL     OW29539   0.985   3.774  12.445  1.1043 -0.2401  0.1998
 5968SOL    HW129540   1.078   3.792  12.460  1.4219 -0.1210 -1.8366
 5968SOL    HW229541   0.970   3.702  12.506 -1.7712 -0.7011 -1.0635
 5969SOL     OW29542   1.952   2.767  17.164 -0.7288  0.4671  0.5602
 5969SOL    HW129543   1.966   2.678  17.133 -0.3943  1.5921 -2.5226
 5969SOL    HW229544   1.871   2.758  17.214 -0.1565  1.5185  1.6933
 5970SOL     OW29545   0.964   1.405   7.489  0.6245  0.2534  0.2645
 5970SOL    HW129546   0.892   1.448   7.442  1.7363  1.4413 -0.3584
 5970SOL    HW229547   1.030   1.475   7.492  0.2467  0.6254 -0.0632
 5971SOL     OW29548   4.009   0.552   1.268 -0.5276  0.0433  0.2483
 5971SOL    HW129549   4.096   0.543   1.309 -0.6534  4.4032  1.4110
 5971SOL    HW229550   3.962   0.595   1.340  0.3163 -1.8960  1.9879
 5972SOL     OW29551   3.543   2.954  16.586 -0.2323  0.6504  0.2279
 5972SOL    HW129552   3.499   2.930  16.504 -1.0225 -0.9392  1.1073
 5972SOL    HW229553   3.517   2.895  16.656 -0.6549 -0.4477 -0.8443
 5973SOL     OW29554   0.415   3.342   5.656  0.4402  0.0015  0.5709
 5973SOL    HW129555   0.390   3.429   5.623  0.6108 -0.0878  0.2049
 5973SOL    HW229556   0.506   3.362   5.677  0.2548  1.5898 -0.1717
 5974SOL     OW29557   1.367   2.974   1.685  0.3313 -0.0824 -0.3411
 5974SOL    HW129558   1.343   3.017   1.767  0.5254 -1.0824  0.2351
 5974SOL    HW229559   1.411   2.899   1.724  1.4646  0.9011  0.2490
 5975SOL     OW29560   1.837   2.618  13.725 -0.0887 -0.0069 -0.3256
 5975SOL    HW129561   1.859   2.709  13.707 -0.8262 -0.2289 -2.2385
 5975SOL    HW229562   1.894   2.582  13.658 -0.6791  0.0016 -0.8256
 5976SOL     OW29563   3.172   4.502   4.698 -0.2253 -0.1018  0.1957
 5976SOL    HW129564   3.228   4.481   4.773 -1.0774  0.8125  1.1069
 5976SOL    HW229565   3.236   4.510   4.628  0.1799  0.8598  0.6708
 5977SOL     OW29566   1.270   0.529   9.983  0.0538 -0.4529 -0.2076
 5977SOL    HW129567   1.197   0.479  10.018  0.6728 -1.2840 -0.1114
 5977SOL    HW229568   1.291   0.467   9.912  1.5141  1.1571 -1.2123
 5978SOL     OW29569   4.468   1.807   6.715 -0.0313  0.0921  0.0393
 5978SOL    HW129570   4.518   1.886   6.739 -0.9166  0.7411 -0.2358
 5978SOL    HW229571   4.528   1.765   6.653  0.7795 -1.1307  1.6527
 5979SOL     OW29572   3.986   3.839   4.555  0.3325 -0.1810  0.3398
 5979SOL    HW129573   3.935   3.776   4.505  1.3363 -1.2860  0.7111
 5979SOL    HW229574   3.917   3.894   4.591 -0.6606 -1.3402  0.2130
 5980SOL     OW29575   1.063   0.615   9.648  0.5163 -0.6040 -0.0490
 5980SOL    HW129576   1.068   0.706   9.676  1.4210 -0.1505 -1.7506
 5980SOL    HW229577   0.968   0.609   9.636  0.2524 -0.9106  2.0928
 5981SOL     OW29578   3.254   3.392   2.610 -0.1132 -0.4702  0.2382
 5981SOL    HW129579   3.226   3.447   2.683  0.3634  0.1769 -0.0576
 5981SOL    HW229580   3.332   3.348   2.642  1.0142  1.2399 -0.1322
 5982SOL     OW29581   4.546   1.641  10.737 -0.8788  0.4028  0.1402
 5982SOL    HW129582   4.609   1.572  10.757 -0.7536  0.4500 -0.0989
 5982SOL    HW229583   4.596   1.722  10.726  0.6701 -1.1353 -4.1971
 5983SOL     OW29584   4.660   3.002   4.855  0.2676 -1.0356 -0.3854
 5983SOL    HW129585   4.734   2.953   4.889  0.8898  0.0643 -0.1643
 5983SOL    HW229586   4.622   3.035   4.936  1.2676  0.8819 -0.7079
 5984SOL     OW29587   4.582   2.616   3.439  0.1007 -0.4561 -0.1347
 5984SOL    HW129588   4.545   2.670   3.509 -1.5029  0.2987 -1.5695
 5984SOL    HW229589   4.658   2.585   3.488  0.4413  0.3087 -0.1873
 5985SOL     OW29590   2.355   1.855   3.372  0.0952 -0.6254 -0.2381
 5985SOL    HW129591   2.315   1.827   3.454  0.9740  2.2167  1.1762
 5985SOL    HW229592   2.380   1.773   3.330 -3.2310 -0.9620 -1.4946
 5986SOL     OW29593   2.048   3.257   6.852  0.7223  0.3960  0.1028
 5986SOL    HW129594   1.955   3.260   6.826  1.0534 -0.0438 -1.1564
 5986SOL    HW229595   2.050   3.178   6.905  0.3420  0.2864 -0.0415
 5987SOL     OW29596   3.186   2.604  14.855 -0.3409  0.6680 -0.1979
 5987SOL    HW129597   3.122   2.571  14.917  0.0197  0.6871  0.1819
 5987SOL    HW229598   3.145   2.594  14.769 -0.9689  3.4983 -0.2319
 5988SOL     OW29599   1.751   2.789  12.427  0.8938  0.6849  0.0403
 5988SOL    HW129600   1.657   2.805  12.420  0.5070 -0.7451  1.8611
 5988SOL    HW229601   1.791   2.833  12.352 -1.3596 -0.2574 -1.7093
 5989SOL     OW29602   1.923   3.374   4.279  0.4302  0.4049  0.2412
 5989SOL    HW129603   1.949   3.282   4.270  2.1400  0.7711  1.4339
 5989SOL    HW229604   1.959   3.411   4.198 -0.4452  1.2539  0.2452
 5990SOL     OW29605   4.053   0.316  10.110 -0.5084  0.2986  0.0379
 5990SOL    HW129606   4.051   0.273  10.025  2.2617  0.1608  0.0384
 5990SOL    HW229607   4.144   0.304  10.138 -0.2785  0.6824 -0.5555
 5991SOL     OW29608   0.960   3.096   8.448  0.1526  0.0029  0.3115
 5991SOL    HW129609   1.034   3.043   8.477 -0.1696 -0.6317 -0.0278
 5991SOL    HW229610   0.890   3.031   8.455  0.0028  0.0715 -0.4604
 5992SOL     OW29611   0.588   4.068  11.811  0.5141  0.1574 -0.2818
 5992SOL    HW129612   0.600   4.052  11.905 -0.6165 -0.9676 -0.3356
 5992SOL    HW229613   0.564   3.982  11.778 -1.2660  0.2906  0.6370
 5993SOL     OW29614   4.624   1.567   2.304 -0.0272  0.5213 -0.2442
 5993SOL    HW129615   4.615   1.501   2.373 -1.1783  0.0754 -0.8176
 5993SOL    HW229616   4.587   1.525   2.226  1.1709  2.7253 -2.0041
 5994SOL     OW29617   2.095   1.073   1.985  0.1936 -0.1295 -0.1362
 5994SOL    HW129618   2.065   0.984   1.962  1.3339 -1.1369  2.2138
 5994SOL    HW229619   2.122   1.061   2.076 -2.0711 -2.1665  0.2691
 5995SOL     OW29620   3.114   1.021   8.487  0.4126 -0.0662  0.4354
 5995SOL    HW129621   3.198   1.057   8.515  0.5806  0.7522 -1.1517
 5995SOL    HW229622   3.104   1.053   8.398  2.5567  0.7553  0.5071
 5996SOL     OW29623   0.578   4.230   0.853  0.3064 -0.2801 -0.2350
 5996SOL    HW129624   0.632   4.195   0.924 -2.3835 -3.0524  0.4385
 5996SOL    HW229625   0.634   4.305   0.831 -0.4788  0.9279  1.9300
 5997SOL     OW29626   4.035   1.186  14.698  0.0414 -0.3016  0.0189
 5997SOL    HW129627   4.038   1.272  14.739 -2.4062 -0.9921  1.6804
 5997SOL    HW229628   4.062   1.204  14.608  1.4900 -1.6159  0.1944
 5998SOL     OW29629   1.018   2.931  10.316  0.4629  0.3474 -0.3256
 5998SOL    HW129630   1.026   2.836  10.328 -1.6784  0.1101 -0.6518
 5998SOL    HW229631   1.109   2.959  10.313  0.8504 -0.9987 -1.2984
 5999SOL     OW29632   0.998   3.565   5.597 -0.3639 -0.7921 -0.0435
 5999SOL    HW129633   0.944   3.490   5.622  0.2454 -1.4186 -0.6127
 5999SOL    HW229634   1.055   3.543   5.524  1.1349 -1.2110  1.2645
 6000SOL     OW29635   0.922   0.646   6.486 -0.2198  0.1033  0.3720
 6000SOL    HW129636   0.909   0.740   6.497 -0.1307  0.3054 -1.2561
 6000SOL    HW229637   1.017   0.645   6.480 -0.3548  1.4873 -1.6418
 6001SOL     OW29638   0.114   0.354  12.530 -0.2729 -0.1768 -0.2389
 6001SOL    HW129639   0.036   0.300  12.537 -1.0781  0.7728 -1.9563
 6001SOL    HW229640   0.183   0.291  12.509 -1.0648 -0.9597 -0.4934
 6002SOL     OW29641   4.125   3.412   2.580  0.0427  0.0655  0.3605
 6002SOL    HW129642   4.112   3.403   2.486 -0.8364  0.3625  0.4509
 6002SOL    HW229643   4.091   3.328   2.610 -0.6096  0.0900 -0.2954
 6003SOL     OW29644   3.123   0.996   2.684  0.1685 -0.1325  0.0620
 6003SOL    HW129645   3.130   1.028   2.774  0.3859  0.0084 -0.0040
 6003SOL    HW229646   3.039   1.030   2.652 -0.2869 -0.5640  0.7997
 6004SOL     OW29647   2.232   1.525   5.872  0.3393  0.2636 -0.3719
 6004SOL    HW129648   2.167   1.565   5.929  0.5672  1.1345 -0.7326
 6004SOL    HW229649   2.289   1.486   5.938 -0.2949 -0.9662 -0.5384
 6005SOL     OW29650   0.757   1.725  11.773 -0.4997  0.5645 -0.4634
 6005SOL    HW129651   0.830   1.699  11.716 -0.6097 -0.4780 -0.1200
 6005SOL    HW229652   0.796   1.809  11.801 -0.1949 -0.3085  1.7415
 6006SOL     OW29653   0.727   4.075   8.400  0.1748 -0.7188  0.4877
 6006SOL    HW129654   0.710   4.059   8.308 -0.3340  0.6184  0.3507
 6006SOL    HW229655   0.636   4.081   8.430  0.2250 -0.7611  0.6520
 6007SOL     OW29656   0.650   3.876   4.298 -0.2052 -0.6261 -0.0762
 6007SOL    HW129657   0.617   3.817   4.366  0.2302 -0.3321  0.3898
 6007SOL    HW229658   0.736   3.836   4.289  0.2039  0.6549 -1.9605
 6008SOL     OW29659   2.382   0.151  10.619  0.0943 -0.0916  0.3131
 6008SOL    HW129660   2.421   0.212  10.682 -0.5257 -0.1644  0.7646
 6008SOL    HW229661   2.399   0.071  10.670 -1.3828 -2.1866 -2.4774
 6009SOL     OW29662   4.077   2.791  12.736  0.3067  0.0640  0.8417
 6009SOL    HW129663   4.153   2.807  12.679 -0.0607  2.6168  1.0594
 6009SOL    HW229664   4.088   2.703  12.773 -0.9868 -1.2288 -1.8635
 6010SOL     OW29665   4.104   1.682   1.437  0.1096 -0.0091  0.0091
 6010SOL    HW129666   4.132   1.731   1.360  3.5364  0.7628  1.7335
 6010SOL    HW229667   4.186   1.674   1.485  0.0090 -2.4579 -0.2360
 6011SOL     OW29668   4.305   1.360   5.819  0.4845 -0.0642 -0.2241
 6011SOL    HW129669   4.332   1.346   5.910  2.8558 -1.1319 -1.0654
 6011SOL    HW229670   4.308   1.270   5.787 -1.9865 -0.2826  0.1997
 6012SOL     OW29671   2.519   1.304   0.896 -0.0039 -0.2513 -0.0679
 6012SOL    HW129672   2.491   1.383   0.943 -1.3512 -0.7879  0.0289
 6012SOL    HW229673   2.477   1.308   0.810 -0.1494 -4.1693 -0.1645
 6013SOL     OW29674   4.477   2.809   2.331  0.3684  0.3687  0.1521
 6013SOL    HW129675   4.513   2.720   2.330  2.2163  1.1136  0.4730
 6013SOL    HW229676   4.557   2.854   2.303 -0.4674  1.7992  0.0829
 6014SOL     OW29677   2.245   3.618   5.116 -0.1932 -0.0889  0.1245
 6014SOL    HW129678   2.255   3.704   5.075 -2.2069  0.3593  0.6010
 6014SOL    HW229679   2.196   3.561   5.056 -1.0772 -1.4969  2.1843
 6015SOL     OW29680   0.280   3.430   5.867 -0.4980  0.5552 -0.2580
 6015SOL    HW129681   0.210   3.377   5.827  0.8446 -0.4923 -1.1958
 6015SOL    HW229682   0.331   3.457   5.792  0.6149 -0.9364 -0.0522
 6016SOL     OW29683   0.336   2.037   9.928 -0.4139  0.0575 -1.3061
 6016SOL    HW129684   0.284   2.070   9.855 -2.1812  1.3877  0.5821
 6016SOL    HW229685   0.276   1.973   9.966 -1.2273  0.1005 -2.5081
 6017SOL     OW29686   1.151   0.432   1.787 -0.0301 -0.2410  0.6039
 6017SOL    HW129687   1.131   0.383   1.707  0.5923  1.4563 -0.5862
 6017SOL    HW229688   1.071   0.423   1.838  0.8365  0.3756  2.0758
 6018SOL     OW29689   3.069   0.531   9.133  0.0321  0.7056 -0.3237
 6018SOL    HW129690   3.090   0.442   9.159 -2.6224  0.0542 -0.4056
 6018SOL    HW229691   3.086   0.576   9.217 -0.7119  0.7934 -0.2161
 6019SOL     OW29692   2.290   4.635   4.280 -0.3201  0.1429 -0.4501
 6019SOL    HW129693   2.303   4.720   4.239 -0.0776 -0.1131 -0.9148
 6019SOL    HW229694   2.325   4.586   4.205 -0.9707 -0.8039 -0.1331
 6020SOL     OW29695   2.560   0.443   1.997 -0.3388  0.0534  0.1107
 6020SOL    HW129696   2.505   0.518   1.973  2.4442  2.3992  1.0363
 6020SOL    HW229697   2.640   0.459   1.948  0.2801 -2.2046  0.4110
 6021SOL     OW29698   1.154   3.771  10.796  0.8476  0.6550  0.1196
 6021SOL    HW129699   1.232   3.724  10.768  1.1081  0.4595  1.1931
 6021SOL    HW229700   1.127   3.730  10.878  1.1107 -1.2140 -0.7238
 6022SOL     OW29701   0.418   2.164   4.610  0.2069 -0.4230  0.0356
 6022SOL    HW129702   0.470   2.244   4.613  1.0746 -0.9772 -0.0272
 6022SOL    HW229703   0.366   2.178   4.530 -0.0059 -1.5438 -0.0308
 6023SOL     OW29704   4.437   2.002   3.472 -0.2661  0.0241  0.0577
 6023SOL    HW129705   4.484   2.073   3.515 -3.9314  1.8773  1.0560
 6023SOL    HW229706   4.506   1.954   3.426 -0.3279 -1.2801  1.3422
 6024SOL     OW29707   4.317   1.427   7.687 -0.1367 -0.9319  0.2344
 6024SOL    HW129708   4.342   1.391   7.772 -1.2709  2.1339  1.8732
 6024SOL    HW229709   4.243   1.372   7.662 -1.4250  1.4569 -1.2547
 6025SOL     OW29710   4.362   3.174   1.773 -0.2162 -0.2011 -0.8787
 6025SOL    HW129711   4.290   3.226   1.738  0.3388  2.6710  2.1630
 6025SOL    HW229712   4.370   3.220   1.857  0.8503 -0.2502 -0.9484
 6026SOL     OW29713   1.124   1.171   8.173  0.1456  0.0722  0.2803
 6026SOL    HW129714   1.126   1.080   8.142 -0.5929  0.2123 -0.1884
 6026SOL    HW229715   1.213   1.200   8.155  0.9038 -1.8435  0.9168
 6027SOL     OW29716   2.549   4.371   8.408  0.0065 -0.1752  0.1619
 6027SOL    HW129717   2.563   4.280   8.380  0.7594 -0.1981  0.6188
 6027SOL    HW229718   2.620   4.423   8.371  0.3472 -0.7498 -0.0049
 6028SOL     OW29719   4.111   2.750   3.497  0.1172 -0.2536  0.2321
 6028SOL    HW129720   4.152   2.739   3.583  1.0180  1.8454  0.0797
 6028SOL    HW229721   4.185   2.773   3.441 -0.4271 -2.3621 -1.3341
 6029SOL     OW29722   0.216   3.020  12.456  0.2457  0.0837 -0.1097
 6029SOL    HW129723   0.183   2.938  12.493  0.8972 -0.8352 -1.5710
 6029SOL    HW229724   0.229   2.987  12.368  3.0101  1.9043 -0.3926
 6030SOL     OW29725   4.054   1.486   5.302 -0.0066  0.1192 -0.2025
 6030SOL    HW129726   3.984   1.477   5.237  1.2717 -0.9226 -1.4308
 6030SOL    HW229727   4.055   1.401   5.346 -0.7328  0.2284  0.0315
 6031SOL     OW29728   0.638   2.944  13.277 -0.1487  0.4460 -0.1708
 6031SOL    HW129729   0.661   2.992  13.198 -2.2116  1.6810 -0.0204
 6031SOL    HW229730   0.706   2.968  13.341  0.7410 -4.3096  0.6799
 6032SOL     OW29731   2.372   3.609   4.254  0.7326  0.1984  0.0925
 6032SOL    HW129732   2.441   3.554   4.218  0.0651 -1.0618  0.7546
 6032SOL    HW229733   2.373   3.691   4.205 -1.8271  1.3283  1.9322
 6033SOL     OW29734   4.631   4.681   7.956  0.3969 -0.2035  0.0905
 6033SOL    HW129735   4.536   4.691   7.957  0.5930  1.3367  3.3185
 6033SOL    HW229736   4.656   4.738   7.883 -2.4200 -0.4971 -1.0869
 6034SOL     OW29737   3.919   2.258  17.256 -0.1321  0.3291 -0.2129
 6034SOL    HW129738   4.010   2.282  17.237 -1.0951  3.4038 -0.9169
 6034SOL    HW229739   3.926   2.165  17.236  2.8500  1.1550 -2.9605
 6035SOL     OW29740   1.412   3.441   5.247 -0.4542 -0.8287  0.0663
 6035SOL    HW129741   1.392   3.351   5.224  0.0958 -0.8313 -0.4165
 6035SOL    HW229742   1.486   3.436   5.308  0.0432 -0.7825 -0.5367
 6036SOL     OW29743   4.358   1.832  12.659  0.5974  0.1929  0.1662
 6036SOL    HW129744   4.334   1.861  12.747  0.0383  1.8845 -0.5483
 6036SOL    HW229745   4.331   1.740  12.657  1.1567  0.0387 -0.2958
 6037SOL     OW29746   1.185   3.994   1.562  0.1465  0.3897 -0.4092
 6037SOL    HW129747   1.199   4.043   1.643  1.4147 -1.4267  0.4649
 6037SOL    HW229748   1.184   4.072   1.507  0.3193 -0.0072 -0.9781
 6038SOL     OW29749   0.894   1.558  13.602  0.2629  0.0754  0.0283
 6038SOL    HW129750   0.848   1.483  13.567  0.4800 -0.9391  1.8964
 6038SOL    HW229751   0.978   1.515  13.619  1.1729  1.2248 -1.5911
 6039SOL     OW29752   0.750   1.572   7.404  0.1035  0.6411  0.0906
 6039SOL    HW129753   0.669   1.552   7.358  0.0791  2.5213 -0.6851
 6039SOL    HW229754   0.709   1.584   7.490  0.2425  1.0892  0.0941
 6040SOL     OW29755   0.775   2.305   6.577  0.0532 -0.4250  0.1385
 6040SOL    HW129756   0.732   2.302   6.662  0.4566  0.4904  0.3679
 6040SOL    HW229757   0.850   2.247   6.592  0.6074  1.0475  3.0640
 6041SOL     OW29758   2.592   4.192   3.888  0.0785  0.2360  0.2911
 6041SOL    HW129759   2.687   4.180   3.879 -0.0971  0.5963 -1.8824
 6041SOL    HW229760   2.555   4.115   3.931 -0.9702 -0.0397 -1.1088
 6042SOL     OW29761   0.532   4.422   3.701 -0.1562 -0.9363 -0.5644
 6042SOL    HW129762   0.607   4.456   3.652  1.0189 -1.9357  0.5663
 6042SOL    HW229763   0.474   4.400   3.628  0.3907  1.8748 -1.8417
 6043SOL     OW29764   1.985   2.094   4.642  0.0051 -0.5793 -0.3341
 6043SOL    HW129765   2.042   2.119   4.569 -0.4635 -0.0625 -0.5198
 6043SOL    HW229766   1.899   2.115   4.604  0.5505  0.4567 -0.9942
 6044SOL     OW29767   4.425   0.613  14.838  0.0508  0.6744  0.2293
 6044SOL    HW129768   4.515   0.588  14.815 -0.6574  0.4806 -2.4121
 6044SOL    HW229769   4.420   0.603  14.933  1.1283 -1.0158  0.1160
 6045SOL     OW29770   2.361   1.474   6.110 -0.7434 -0.3739 -0.5363
 6045SOL    HW129771   2.427   1.456   6.178 -1.2451 -1.4832 -0.3424
 6045SOL    HW229772   2.300   1.400   6.105 -0.0893 -1.0624  1.7514
 6046SOL     OW29773   2.729   1.309   8.291 -0.3495  0.1053 -0.0434
 6046SOL    HW129774   2.660   1.273   8.346  0.7077  0.1121  1.2985
 6046SOL    HW229775   2.708   1.262   8.211 -2.0832 -0.4666  0.7411
 6047SOL     OW29776   3.668   1.235  16.602  0.0054 -0.0689 -0.1922
 6047SOL    HW129777   3.583   1.213  16.563 -0.5919  0.9541  0.5360
 6047SOL    HW229778   3.663   1.244  16.697 -1.0056  4.1421 -0.6449
 6048SOL     OW29779   0.360   1.411  14.465  0.0149  0.5843  0.4748
 6048SOL    HW129780   0.335   1.446  14.379 -0.7569 -1.2012 -0.0376
 6048SOL    HW229781   0.437   1.465  14.484 -0.8539  2.0873 -0.2363
 6049SOL     OW29782   3.390   0.553  15.436 -0.2576  0.5762  0.5368
 6049SOL    HW129783   3.384   0.459  15.416 -0.3227  0.7066 -0.0486
 6049SOL    HW229784   3.426   0.543  15.524  3.6361  1.5439 -0.9180
 6050SOL     OW29785   3.055   3.651   3.106 -0.0025  0.3021  0.1199
 6050SOL    HW129786   3.066   3.571   3.157 -0.2912 -0.0589 -0.3910
 6050SOL    HW229787   3.106   3.699   3.171  1.5800 -0.0009 -0.9114
 6051SOL     OW29788   0.651   0.390   0.381  0.1646  0.2305  0.3637
 6051SOL    HW129789   0.621   0.475   0.348 -1.8894 -0.0621  1.5013
 6051SOL    HW229790   0.657   0.336   0.302  1.9285 -1.7651  1.8696
 6052SOL     OW29791   1.397   1.407   2.715  0.8341  0.3785 -0.1806
 6052SOL    HW129792   1.482   1.443   2.741  0.8562 -2.7174  4.2167
 6052SOL    HW229793   1.415   1.365   2.632  0.2011  0.5566 -0.4062
 6053SOL     OW29794   4.227   3.319   2.226  0.2540 -0.3340 -0.7181
 6053SOL    HW129795   4.135   3.323   2.252 -0.1024  0.2653 -2.0745
 6053SOL    HW229796   4.249   3.231   2.257 -2.6739 -1.1035 -0.8456
 6054SOL     OW29797   1.244   2.717   0.644  0.2335 -0.2771  0.0094
 6054SOL    HW129798   1.188   2.639   0.650  0.9694 -0.8222 -0.0925
 6054SOL    HW229799   1.290   2.719   0.728  0.6834  1.7628 -0.3070
 6055SOL     OW29800   2.853   2.385   5.038  0.6015 -0.2970  0.1414
 6055SOL    HW129801   2.822   2.425   5.119 -0.6802  0.0625 -0.5075
 6055SOL    HW229802   2.845   2.292   5.060 -1.3286 -0.3086 -0.5296
 6056SOL     OW29803   3.975   1.106   6.450  0.3301  0.1922  0.0259
 6056SOL    HW129804   3.921   1.183   6.466 -0.3845  0.0281 -1.5678
 6056SOL    HW229805   3.947   1.083   6.361  0.5229  0.0476  0.0029
 6057SOL     OW29806   0.552   0.940   5.182  0.0945  0.6845  0.3675
 6057SOL    HW129807   0.574   0.880   5.111  0.6422  3.1801 -1.5799
 6057SOL    HW229808   0.638   0.976   5.205  1.3748 -0.9681 -1.9147
 6058SOL     OW29809   0.424   3.627   5.085 -0.3529 -0.0006 -0.0253
 6058SOL    HW129810   0.461   3.708   5.121 -0.0684  0.5081 -1.4600
 6058SOL    HW229811   0.333   3.653   5.070  0.0585  1.2588 -0.3685
 6059SOL     OW29812   3.467   4.734   5.427 -0.0801 -0.3273 -0.1325
 6059SOL    HW129813   3.441   0.073   5.475 -1.5036  0.1400 -1.6320
 6059SOL    HW229814   3.427   0.017   5.343  2.5403  0.7633 -1.0780
 6060SOL     OW29815   3.591   0.890   8.949 -0.1950  0.1418 -0.4880
 6060SOL    HW129816   3.656   0.872   8.882  0.1776  0.0310 -0.0988
 6060SOL    HW229817   3.610   0.980   8.974 -0.6558  0.8162 -2.5912
 6061SOL     OW29818   3.807   0.803   2.606 -0.0988 -0.4816 -0.3231
 6061SOL    HW129819   3.772   0.729   2.656  1.4818 -0.2111  1.1456
 6061SOL    HW229820   3.880   0.752   2.571 -0.0934 -0.1312 -0.8276
 6062SOL     OW29821   1.322   4.695   5.952 -0.3805  0.3047  0.0770
 6062SOL    HW129822   1.403   4.648   5.972  0.1005  0.9862 -0.2979
 6062SOL    HW229823   1.255   4.626   5.957  1.1491 -1.1394  0.5836
 6063SOL     OW29824   3.422   4.714   2.929 -0.1054  0.6587 -0.2009
 6063SOL    HW129825   3.506   4.677   2.957 -0.1411  0.4905 -0.3173
 6063SOL    HW229826   3.406   0.017   3.013 -1.4598 -1.7134  0.7775
 6064SOL     OW29827   0.268   1.142   8.045  0.4728 -0.1559 -0.2866
 6064SOL    HW129828   0.208   1.087   7.995 -0.8077  1.0047 -0.0092
 6064SOL    HW229829   0.326   1.071   8.074  1.5702  0.2154 -1.5808
 6065SOL     OW29830   4.691   0.850   6.702 -0.3235 -0.1059 -0.7890
 6065SOL    HW129831   4.697   0.941   6.730 -0.5279 -0.9225  1.8905
 6065SOL    HW229832   0.043   0.824   6.712  0.3873  1.9243 -2.1106
 6066SOL     OW29833   2.880   3.157   5.982 -0.5740  0.2105  0.1235
 6066SOL    HW129834   2.935   3.235   5.992 -0.4357  0.2399 -0.8734
 6066SOL    HW229835   2.796   3.199   6.001 -1.2640 -1.2230  0.2298
 6067SOL     OW29836   0.394   1.520   2.170 -0.0785 -0.4159 -0.0265
 6067SOL    HW129837   0.470   1.550   2.219 -0.9913 -0.2306  1.2775
 6067SOL    HW229838   0.408   1.425   2.166  0.1642 -0.3678 -0.2766
 6068SOL     OW29839   4.102   0.849   2.551 -0.6128 -0.1488 -0.5739
 6068SOL    HW129840   4.157   0.904   2.494  1.1836 -1.9869 -0.6087
 6068SOL    HW229841   4.152   0.768   2.559 -1.4482 -0.4332  1.6425
 6069SOL     OW29842   2.060   3.171   4.976  0.5433  0.2654 -0.0603
 6069SOL    HW129843   2.072   3.118   5.055  1.8547 -0.1222 -0.5185
 6069SOL    HW229844   2.125   3.122   4.926  1.2135 -1.3373  2.3535
 6070SOL     OW29845   3.961   4.392   3.984 -0.3581  0.0477 -0.5080
 6070SOL    HW129846   3.886   4.365   3.932  1.1761  1.3660 -3.4175
 6070SOL    HW229847   3.995   4.472   3.943  1.6928 -0.0363  1.0153
 6071SOL     OW29848   2.229   0.399  16.762  0.4370  0.0554 -1.1432
 6071SOL    HW129849   2.167   0.348  16.711 -0.9252  2.1107 -1.5436
 6071SOL    HW229850   2.309   0.368  16.720  0.4824  0.8032 -1.6075
 6072SOL     OW29851   0.312   1.071   0.110 -0.4747 -0.1256  0.5408
 6072SOL    HW129852   0.380   1.139   0.108  1.2007 -1.8073  0.5025
 6072SOL    HW229853   0.234   1.125   0.121  2.2085  3.3349  2.5797
 6073SOL     OW29854   2.946   4.099   1.346 -0.6464  0.1928  0.1090
 6073SOL    HW129855   3.021   4.142   1.303 -0.5097  1.1697  1.3328
 6073SOL    HW229856   2.996   4.032   1.393 -1.2746 -1.6429 -1.8395
 6074SOL     OW29857   0.068   0.796  13.599  0.2937  0.5357  0.7689
 6074SOL    HW129858   0.120   0.790  13.680  0.8530 -1.2665  0.2666
 6074SOL    HW229859   0.133   0.764  13.537 -0.5960 -1.3288  0.7986
 6075SOL     OW29860   0.116   3.481   7.737  0.3327 -0.3501 -0.1576
 6075SOL    HW129861   0.034   3.449   7.772  1.3063 -1.0193  1.4947
 6075SOL    HW229862   0.112   3.569   7.774  0.1668  0.8399 -2.9793
 6076SOL     OW29863   2.767   0.656   7.228 -0.1634 -0.4061 -0.3423
 6076SOL    HW129864   2.793   0.714   7.157 -0.5949  0.7800  0.4632
 6076SOL    HW229865   2.832   0.586   7.232  1.5286  1.2616  0.8601
 6077SOL     OW29866   1.017   0.867   6.014 -0.6627 -0.2811  0.1828
 6077SOL    HW129867   0.932   0.831   6.038 -0.6928  0.6460  1.4214
 6077SOL    HW229868   1.079   0.797   6.034 -0.5443  0.0876  1.0673
 6078SOL     OW29869   2.985   2.015   2.758  0.1631 -0.0210  0.2300
 6078SOL    HW129870   2.895   1.984   2.767  0.1465 -0.0416  0.0076
 6078SOL    HW229871   3.035   1.947   2.803  1.9895 -1.5180 -3.9860
 6079SOL     OW29872   0.819   0.747   7.957 -0.0656  0.2939  0.3583
 6079SOL    HW129873   0.795   0.664   7.998 -2.7329  0.6182 -0.5881
 6079SOL    HW229874   0.875   0.720   7.884 -1.1471 -2.7484  0.6760
 6080SOL     OW29875   3.692   0.132   1.211 -0.1685 -0.3469  0.0547
 6080SOL    HW129876   3.751   0.207   1.218  0.9930 -1.2435 -0.1043
 6080SOL    HW229877   3.677   0.134   1.117  1.8408 -0.1777 -0.2549
 6081SOL     OW29878   4.503   1.967   9.281 -0.1279 -0.2855  0.4991
 6081SOL    HW129879   4.418   1.996   9.246  1.6456  3.0381 -1.0078
 6081SOL    HW229880   4.481   1.912   9.356 -1.4212  0.4197  0.6305
 6082SOL     OW29881   1.956   0.639   7.687 -0.1583  0.5774 -0.4518
 6082SOL    HW129882   1.986   0.730   7.690  0.6157  0.3797 -2.1365
 6082SOL    HW229883   1.922   0.633   7.777 -1.3597 -1.3977 -1.0398
 6083SOL     OW29884   1.400   1.605  14.430 -0.1184 -0.4441 -0.2824
 6083SOL    HW129885   1.384   1.581  14.339 -0.8967 -0.7687 -0.0628
 6083SOL    HW229886   1.442   1.531  14.475 -1.3382 -0.5827  0.6271
 6084SOL     OW29887   3.035   2.741   8.343  0.0670  0.1133 -0.5208
 6084SOL    HW129888   3.127   2.718   8.328 -0.0354 -1.4075  1.2729
 6084SOL    HW229889   3.028   2.685   8.420  1.8667  1.3866  0.5721
 6085SOL     OW29890   4.658   3.649   6.648  0.0208 -0.2861 -0.3698
 6085SOL    HW129891   4.592   3.599   6.600  0.2110  1.0572 -2.0287
 6085SOL    HW229892   4.600   3.686   6.715 -2.2146 -0.0415 -2.4244
 6086SOL     OW29893   2.604   0.404   8.634  0.0112 -0.1297 -0.3196
 6086SOL    HW129894   2.580   0.368   8.720  0.9897 -1.0446 -0.4207
 6086SOL    HW229895   2.664   0.472   8.663  1.3776 -1.5777  0.2344
 6087SOL     OW29896   0.964   0.711   1.372 -0.3098  0.6799 -0.1501
 6087SOL    HW129897   0.970   0.702   1.467 -0.2490 -2.0188 -0.3850
 6087SOL    HW229898   1.050   0.674   1.348 -0.0659  1.5757 -0.6545
 6088SOL     OW29899   2.930   2.172   1.656  0.1917  0.3571 -0.3709
 6088SOL    HW129900   2.875   2.125   1.718  0.2416  0.4842 -0.2302
 6088SOL    HW229901   2.896   2.261   1.666  0.8799  0.9697 -3.2845
 6089SOL     OW29902   2.798   0.661   9.055 -0.0301  0.2917 -0.1380
 6089SOL    HW129903   2.857   0.659   9.131 -1.6708 -1.8917  1.0776
 6089SOL    HW229904   2.707   0.666   9.084 -0.3819  0.0197 -1.1924
 6090SOL     OW29905   0.829   0.669   9.082  0.4319  1.1969 -0.2458
 6090SOL    HW129906   0.865   0.758   9.080  1.0907  0.9042 -1.4622
 6090SOL    HW229907   0.742   0.691   9.049 -0.1605 -0.7692  0.0396
 6091SOL     OW29908   2.308   2.594   6.485  0.0943  0.2600 -0.2702
 6091SOL    HW129909   2.257   2.516   6.506  0.4484  0.2618  0.5891
 6091SOL    HW229910   2.396   2.558   6.492  0.5861  1.4074 -0.6664
 6092SOL     OW29911   4.405   1.006   6.318 -0.2564  0.5030 -0.0360
 6092SOL    HW129912   4.346   1.075   6.351 -1.1963 -0.6080  0.6482
 6092SOL    HW229913   4.409   0.948   6.395  1.3952 -0.7400 -1.0571
 6093SOL     OW29914   1.718   1.702   8.582  0.1701 -0.2413  0.1907
 6093SOL    HW129915   1.759   1.683   8.497  1.3894 -0.4533  0.8210
 6093SOL    HW229916   1.728   1.621   8.631 -0.7887 -1.0620 -0.9851
 6094SOL     OW29917   1.784   2.407  16.542  0.5668  0.3065 -0.0715
 6094SOL    HW129918   1.768   2.483  16.487  0.4299  0.3605  0.0448
 6094SOL    HW229919   1.714   2.351  16.510 -0.1941  1.2827 -0.0955
 6095SOL     OW29920   2.914   0.623   0.891 -0.3608  0.6219 -0.0115
 6095SOL    HW129921   3.004   0.657   0.887  0.1680 -1.2089 -2.8275
 6095SOL    HW229922   2.929   0.530   0.903 -1.2797  0.4170 -0.4444
 6096SOL     OW29923   2.524   3.859   8.362  0.1292  0.0757 -0.0296
 6096SOL    HW129924   2.458   3.881   8.296  2.2480  1.0526 -1.8480
 6096SOL    HW229925   2.467   3.841   8.437  1.2018  1.3470  1.1020
 6097SOL     OW29926   2.814   1.041   4.290  0.3666 -0.5043 -0.1003
 6097SOL    HW129927   2.836   0.976   4.357  0.2594  2.5957  2.9423
 6097SOL    HW229928   2.822   1.121   4.342  0.4316 -0.2989 -0.4204
 6098SOL     OW29929   2.242   2.231   3.454 -0.5256 -0.1108 -0.1809
 6098SOL    HW129930   2.252   2.165   3.523 -1.0998 -0.3869 -0.3596
 6098SOL    HW229931   2.317   2.290   3.462 -0.4481 -0.2473  0.1332
 6099SOL     OW29932   2.958   4.594  13.074 -0.1820 -0.5055  0.1447
 6099SOL    HW129933   2.867   4.578  13.051 -0.4937  3.4818 -1.4957
 6099SOL    HW229934   3.007   4.527  13.026  0.7339  0.9792 -1.0091
 6100SOL     OW29935   1.865   2.307   7.557 -0.2000 -0.3602  0.0554
 6100SOL    HW129936   1.845   2.214   7.544  0.2275 -0.4697  0.1750
 6100SOL    HW229937   1.818   2.325   7.638 -1.3562  2.8552 -1.3336
 6101SOL     OW29938   0.465   0.192   1.431  0.0911 -0.4709  0.1372
 6101SOL    HW129939   0.541   0.136   1.412 -0.1665 -0.3562 -1.2057
 6101SOL    HW229940   0.405   0.139   1.483  0.4655 -3.7577 -2.7403
 6102SOL     OW29941   0.022   3.296   5.454 -0.9334  0.0186  0.3607
 6102SOL    HW129942   0.071   3.242   5.392 -1.2148  0.4132 -0.2170
 6102SOL    HW229943   0.083   3.370   5.454  1.5005 -2.0298  2.0600
 6103SOL     OW29944   3.228   2.259   3.793  0.2583  0.1082  0.5309
 6103SOL    HW129945   3.253   2.287   3.881  1.1105  1.9214 -0.2899
 6103SOL    HW229946   3.267   2.172   3.792  2.0647  0.9683 -1.9301
 6104SOL     OW29947   1.068   2.289   0.495  0.3867  0.1310 -0.1662
 6104SOL    HW129948   1.017   2.294   0.414  0.8316  1.1328 -0.3936
 6104SOL    HW229949   1.147   2.292   0.441 -0.3681 -0.2133 -1.2958
 6105SOL     OW29950   1.841   0.878  16.001  0.8057  0.0134 -0.2294
 6105SOL    HW129951   1.829   0.906  16.091  4.0137 -1.5872  0.6898
 6105SOL    HW229952   1.889   0.795  16.010 -1.7145 -1.3568  0.7775
 6106SOL     OW29953   2.653   0.831   4.652  0.8477  0.7138  0.6422
 6106SOL    HW129954   2.658   0.742   4.686  1.7678  0.2797 -0.6515
 6106SOL    HW229955   2.639   0.884   4.731  0.0066  0.2121  0.8317
 6107SOL     OW29956   3.940   4.242   4.684 -0.0084  0.0547 -0.3495
 6107SOL    HW129957   4.006   4.226   4.752  0.6302  1.7364 -0.5953
 6107SOL    HW229958   3.864   4.259   4.739 -0.3097  0.4781 -0.9098
 6108SOL     OW29959   3.854   1.328   8.525  0.1433  0.4175  0.3808
 6108SOL    HW129960   3.918   1.345   8.594 -0.3705  1.2811  0.6496
 6108SOL    HW229961   3.815   1.246   8.554  1.8104 -0.3930  0.3342
 6109SOL     OW29962   1.659   2.284   3.274  0.0918  0.1857 -0.5119
 6109SOL    HW129963   1.619   2.200   3.294 -0.5113  0.5549 -0.1708
 6109SOL    HW229964   1.646   2.278   3.179 -0.1801  0.4028 -0.4880
 6110SOL     OW29965   1.561   0.967  10.398  0.3197 -0.2657 -0.1963
 6110SOL    HW129966   1.575   0.902  10.467 -1.1730 -0.9249 -0.5135
 6110SOL    HW229967   1.521   1.038  10.448 -0.3077  0.6909 -2.0887
 6111SOL     OW29968   3.987   2.320   9.099  0.5791 -0.1999  0.0119
 6111SOL    HW129969   4.065   2.265   9.106  0.7010 -0.1387 -0.9117
 6111SOL    HW229970   4.020   2.407   9.077  3.2950 -0.9537  1.2096
 6112SOL     OW29971   4.690   3.004   2.574 -0.6996 -0.3364 -0.1774
 6112SOL    HW129972   4.619   3.012   2.638 -1.1881 -1.9457 -0.5259
 6112SOL    HW229973   4.738   3.085   2.593 -2.4236  0.7415 -0.4699
 6113SOL     OW29974   0.895   4.681   5.891  0.6322  0.5066 -0.1555
 6113SOL    HW129975   0.865   4.634   5.969 -0.2056  1.7610  0.2646
 6113SOL    HW229976   0.859   0.029   5.895 -1.8740 -0.5344 -0.2545
 6114SOL     OW29977   2.316   4.105   1.481  0.5396  0.1035 -0.1187
 6114SOL    HW129978   2.276   4.191   1.467  0.2403  0.1381  0.9444
 6114SOL    HW229979   2.317   4.103   1.577  0.6270 -1.3829 -0.1581
 6115SOL     OW29980   0.742   3.480  17.585 -0.0537  0.5164  0.1579
 6115SOL    HW129981   0.684   3.521  17.649  0.6973  1.0262  0.5198
 6115SOL    HW229982   0.827   3.495  17.626 -0.4570  2.4884  0.2798
 6116SOL     OW29983   3.931   1.236   8.016 -0.2878  0.3198 -0.0898
 6116SOL    HW129984   3.879   1.166   8.054  0.5791  0.0375  0.5882
 6116SOL    HW229985   3.980   1.276   8.088 -0.9680  2.3953 -0.7820
 6117SOL     OW29986   3.861   4.352   6.070 -0.2683  0.2539 -0.2335
 6117SOL    HW129987   3.936   4.305   6.033  0.9825  0.5907  1.8462
 6117SOL    HW229988   3.858   4.308   6.155 -2.2217  1.9451  0.5432
 6118SOL     OW29989   0.164   2.287   7.269 -0.0670  0.2581  0.4370
 6118SOL    HW129990   0.092   2.234   7.303  0.8305 -1.1063  0.2215
 6118SOL    HW229991   0.175   2.365   7.323 -0.3227  0.5200  0.1146
 6119SOL     OW29992   2.392   1.234  10.668 -0.1550  0.1231 -0.4459
 6119SOL    HW129993   2.337   1.224  10.590 -0.5821 -0.7295 -0.0320
 6119SOL    HW229994   2.413   1.141  10.670 -0.1641  0.1467  1.0076
 6120SOL     OW29995   3.985   1.325   8.286 -0.2835 -0.2198 -0.0590
 6120SOL    HW129996   3.990   1.230   8.294  0.7018 -0.3047 -1.6052
 6120SOL    HW229997   3.927   1.342   8.360  1.1138 -0.7477  1.1564
 6121SOL     OW29998   0.370   0.499  16.652  0.2872  0.4849 -0.0638
 6121SOL    HW129999   0.348   0.506  16.745  1.5841  1.4517  0.1699
 6121SOL    HW230000   0.293   0.467  16.605  0.6815 -1.6002  0.7166
 6122SOL     OW30001   0.574   4.403   3.966 -0.2202  0.0629  0.2813
 6122SOL    HW130002   0.585   4.418   3.872 -1.0731  0.0658  0.1794
 6122SOL    HW230003   0.655   4.437   4.003  0.4548  0.9785 -2.0520
 6123SOL     OW30004   0.104   2.118   7.536 -0.5808  0.1136 -0.0764
 6123SOL    HW130005   0.159   2.087   7.465 -0.6538  0.8667 -0.4607
 6123SOL    HW230006   0.166   2.178   7.577  0.8051 -1.3804 -0.0001
 6124SOL     OW30007   1.183   0.302   2.607  0.3826  0.3499  0.1638
 6124SOL    HW130008   1.113   0.287   2.671  1.4483  1.9854  1.7171
 6124SOL    HW230009   1.124   0.336   2.540 -0.2916 -0.7528  0.1988
 6125SOL     OW30010   3.464   1.579   6.081 -0.2427  0.3315 -0.0590
 6125SOL    HW130011   3.538   1.528   6.114 -0.0021  0.6166 -0.1624
 6125SOL    HW230012   3.452   1.637   6.156  0.4954 -0.9051  1.0143
 6126SOL     OW30013   4.671   1.429   4.679  0.8447  0.1640  0.5471
 6126SOL    HW130014   4.688   1.393   4.766  1.5334 -1.2774 -0.1874
 6126SOL    HW230015   4.576   1.427   4.666  0.9602 -2.2595  0.1757
 6127SOL     OW30016   1.839   0.983   2.895  0.0315 -0.3246  0.4060
 6127SOL    HW130017   1.868   1.018   2.979 -2.9582  0.0158  1.2949
 6127SOL    HW230018   1.756   1.029   2.880 -0.0268 -0.3368  0.6909
 6128SOL     OW30019   4.262   2.688   5.510 -0.8792 -0.5524  0.1645
 6128SOL    HW130020   4.260   2.782   5.488 -0.0174 -0.5844 -0.0601
 6128SOL    HW230021   4.175   2.671   5.474  0.2256 -1.6232 -2.0315
 6129SOL     OW30022   0.529   0.754   3.014 -0.2427 -0.5195 -0.6624
 6129SOL    HW130023   0.564   0.817   3.076  1.6249 -1.7115 -0.5140
 6129SOL    HW230024   0.574   0.789   2.937  0.3628 -0.5492 -0.3196
 6130SOL     OW30025   4.505   2.855  15.945  0.2033 -0.2486  0.2486
 6130SOL    HW130026   4.436   2.811  15.993 -1.2964 -1.3897 -2.9707
 6130SOL    HW230027   4.589   2.816  15.969  0.3640  0.5727  1.0285
 6131SOL     OW30028   2.889   1.788  11.326 -0.4702  0.6459 -0.6298
 6131SOL    HW130029   2.843   1.717  11.281  0.5825 -1.1797  1.1379
 6131SOL    HW230030   2.827   1.820  11.392 -2.0163 -0.9624 -1.3002
 6132SOL     OW30031   0.980   2.757   5.223  0.1452  0.2625 -0.3914
 6132SOL    HW130032   0.903   2.748   5.279  0.5960 -0.0023  0.1868
 6132SOL    HW230033   1.050   2.769   5.287  0.6802 -1.8417 -0.5735
 6133SOL     OW30034   3.107   3.004   3.115 -0.5341  0.0813 -0.1717
 6133SOL    HW130035   3.185   3.035   3.069  0.8153  0.2483  2.2214
 6133SOL    HW230036   3.051   3.081   3.101 -1.9724 -0.7788  0.8583
 6134SOL     OW30037   2.190   4.302   5.569  0.2712  0.3888  0.3898
 6134SOL    HW130038   2.221   4.271   5.654  3.8284 -2.2529 -1.8637
 6134SOL    HW230039   2.107   4.257   5.554  0.0449  0.9180  0.0475
 6135SOL     OW30040   4.329   2.350   6.434 -0.3692 -1.0825  0.4842
 6135SOL    HW130041   4.235   2.331   6.437 -1.1900  3.0517  1.5783
 6135SOL    HW230042   4.344   2.334   6.341  0.6470 -1.0924  0.6413
 6136SOL     OW30043   3.755   0.183   2.611  0.4664 -0.3023  0.9203
 6136SOL    HW130044   3.776   0.141   2.527  1.3359  3.7838 -0.9058
 6136SOL    HW230045   3.679   0.133   2.641 -1.0688  0.7550 -1.2611
 6137SOL     OW30046   0.040   4.411   3.799  0.5637  0.2365 -0.6112
 6137SOL    HW130047   4.731   4.476   3.849  1.8880  0.9813 -0.2715
 6137SOL    HW230048   0.131   4.439   3.807  0.0449  1.6910  0.2848
 6138SOL     OW30049   2.569   4.069  14.265 -0.4236  0.4132  0.8915
 6138SOL    HW130050   2.496   4.011  14.246 -0.3693 -0.2528  2.7736
 6138SOL    HW230051   2.627   4.001  14.298  1.2446  1.6279  0.4895
 6139SOL     OW30052   0.033   0.588   8.224 -0.2621 -0.2673 -0.1587
 6139SOL    HW130053   0.026   0.493   8.217  2.3398 -0.3091 -1.9015
 6139SOL    HW230054   0.062   0.584   8.315 -0.9850  1.4471  0.1335
 6140SOL     OW30055   3.261   4.242   9.932 -0.2249  0.5695 -0.4929
 6140SOL    HW130056   3.349   4.276   9.947  0.5294 -0.9840 -1.5090
 6140SOL    HW230057   3.205   4.311   9.968  1.0000  0.6307  1.2868
 6141SOL     OW30058   3.000   4.495   2.890  0.0677  0.4546  0.2533
 6141SOL    HW130059   3.053   4.415   2.885  1.7343  1.5341  0.7932
 6141SOL    HW230060   3.056   4.558   2.845  1.8360  0.1420  2.0659
 6142SOL     OW30061   2.311   3.033   2.880 -0.7191 -0.2429 -0.1576
 6142SOL    HW130062   2.315   3.043   2.976  2.6308 -0.1053 -0.3261
 6142SOL    HW230063   2.344   2.944   2.871  1.6295  0.6150 -0.0403
 6143SOL     OW30064   4.447   0.068   8.843  0.3465  0.2020 -0.6479
 6143SOL    HW130065   4.368   0.118   8.865 -1.2208 -2.4284 -0.4233
 6143SOL    HW230066   4.422   4.728   8.888  0.9652  1.1042  1.3500
 6144SOL     OW30067   4.586   2.460  15.365 -0.3190  0.3078  0.2808
 6144SOL    HW130068   4.620   2.455  15.276 -1.5154 -0.1094 -0.1507
 6144SOL    HW230069   4.630   2.535  15.403 -0.9025  0.6954  0.1897
 6145SOL     OW30070   0.516   2.952   4.623 -0.2140 -0.7702 -0.0120
 6145SOL    HW130071   0.422   2.961   4.637  0.0722  2.0326  0.1123
 6145SOL    HW230072   0.551   2.913   4.703  0.1583 -1.6366 -0.6085
 6146SOL     OW30073   2.173   0.255   8.268  0.1460 -0.0046 -0.3966
 6146SOL    HW130074   2.134   0.170   8.245  0.7584 -0.0991 -1.0846
 6146SOL    HW230075   2.239   0.264   8.200  0.7069 -0.5934  0.0763
 6147SOL     OW30076   3.758   1.709  13.751 -0.0520  0.3758 -0.2546
 6147SOL    HW130077   3.685   1.767  13.728 -0.2805  1.2774  2.6410
 6147SOL    HW230078   3.831   1.765  13.724  0.2487  0.3746  0.5624
 6148SOL     OW30079   2.694   0.468  16.711 -0.6435 -0.0089 -0.3129
 6148SOL    HW130080   2.772   0.449  16.763 -0.9772  0.4552  0.3543
 6148SOL    HW230081   2.678   0.559  16.736  0.9313  0.6293 -1.6175
 6149SOL     OW30082   0.791   0.059   3.153  0.2236 -0.2688 -0.1928
 6149SOL    HW130083   0.881   0.027   3.140  0.8622  1.2258  0.5620
 6149SOL    HW230084   0.760   0.010   3.229  0.5447 -0.0554  0.0793
 6150SOL     OW30085   1.521   0.311   0.807  0.6135 -0.2985  0.3211
 6150SOL    HW130086   1.536   0.377   0.874 -0.2568 -0.8691  1.0706
 6150SOL    HW230087   1.441   0.277   0.847  0.1178  0.0749 -0.3360
 6151SOL     OW30088   0.166   2.276   8.503  0.8241  0.3184  0.0014
 6151SOL    HW130089   0.122   2.361   8.493 -1.9528 -0.8821  1.9520
 6151SOL    HW230090   0.142   2.241   8.589  0.7757 -0.8036 -0.4757
 6152SOL     OW30091   3.516   0.333   3.689  0.2950  0.0415  0.2803
 6152SOL    HW130092   3.467   0.410   3.660 -0.1848  0.6837  2.7802
 6152SOL    HW230093   3.442   0.285   3.727  0.2795  0.4708  0.7872
 6153SOL     OW30094   1.886   2.479   0.268  1.0157 -0.1072 -0.5636
 6153SOL    HW130095   1.827   2.428   0.213  0.7286 -0.1398 -0.2269
 6153SOL    HW230096   1.942   2.407   0.295  2.1844  0.8074 -0.5344
 6154SOL     OW30097   0.971   4.177   2.259 -0.5425 -0.9839  0.3605
 6154SOL    HW130098   0.884   4.199   2.294 -0.7089 -1.6364  0.3669
 6154SOL    HW230099   1.015   4.156   2.342 -2.8356  0.3423  1.9376
 6155SOL     OW30100   1.998   3.217   7.701  0.0321 -0.4871  0.2515
 6155SOL    HW130101   1.910   3.233   7.667  1.3210  2.6455 -1.5759
 6155SOL    HW230102   1.999   3.121   7.696 -0.5205 -0.5761  2.1530
 6156SOL     OW30103   0.055   1.758  13.685  0.1731 -0.3310  0.0020
 6156SOL    HW130104   0.052   1.777  13.592 -2.6663  4.3891  1.0614
 6156SOL    HW230105   0.075   1.841  13.729 -0.5077  0.1500 -0.5834
 6157SOL     OW30106   2.633   2.211  15.029  0.1674 -0.0563 -0.0419
 6157SOL    HW130107   2.591   2.272  14.968  0.4311 -0.2289 -0.3904
 6157SOL    HW230108   2.726   2.229  15.019 -0.3268  1.8946 -1.1186
 6158SOL     OW30109   0.483   1.165   1.072  0.5470  0.0153 -0.3634
 6158SOL    HW130110   0.561   1.131   1.117  0.4368 -1.3933 -1.2385
 6158SOL    HW230111   0.466   1.096   1.007 -0.8303  0.8065 -0.8442
 6159SOL     OW30112   2.500   2.382  16.790  0.5156  0.6052  0.1470
 6159SOL    HW130113   2.486   2.476  16.801 -1.1075  0.3620  0.1204
 6159SOL    HW230114   2.540   2.371  16.703  3.3722  0.5747  1.4463
 6160SOL     OW30115   0.238   1.124   5.653  0.2862 -0.1957 -0.3683
 6160SOL    HW130116   0.298   1.195   5.678  1.2544 -1.3261  0.5381
 6160SOL    HW230117   0.159   1.177   5.662  0.5280 -0.0666  1.0957
 6161SOL     OW30118   3.658   3.768   4.265 -0.3313 -0.1523  0.2988
 6161SOL    HW130119   3.576   3.771   4.313  1.0513  2.4432  2.4883
 6161SOL    HW230120   3.703   3.694   4.305 -0.1483 -0.8767 -1.2334
 6162SOL     OW30121   4.572   2.104   3.850  0.0951 -0.0255  0.0554
 6162SOL    HW130122   4.565   2.057   3.933 -1.8519  0.9416  0.4254
 6162SOL    HW230123   4.540   2.193   3.863 -1.8008 -0.8865  1.1758
 6163SOL     OW30124   3.140   0.614   5.133 -0.1980  0.0764 -0.2644
 6163SOL    HW130125   3.048   0.612   5.110 -0.3060 -2.5637  0.4518
 6163SOL    HW230126   3.171   0.695   5.092 -0.9619  0.2235 -0.5445
 6164SOL     OW30127   0.311   4.457   7.754 -0.2567 -0.0399  0.4708
 6164SOL    HW130128   0.342   4.456   7.844 -0.2582 -2.8331  0.4492
 6164SOL    HW230129   0.307   4.361   7.753  1.7724 -0.1190  0.5414
 6165SOL     OW30130   0.489   1.274   8.921  0.2478 -0.4618 -0.7220
 6165SOL    HW130131   0.509   1.368   8.924 -2.9695  0.1662  0.8507
 6165SOL    HW230132   0.562   1.228   8.879  1.1262 -1.2574  1.6745
 6166SOL     OW30133   2.774   3.438   7.837 -0.2051 -0.1244  0.2207
 6166SOL    HW130134   2.772   3.343   7.841 -0.2025 -0.1278  0.1297
 6166SOL    HW230135   2.734   3.449   7.750  0.0834 -0.2324  0.0759
 6167SOL     OW30136   0.202   3.951   5.803 -0.3883  0.1021 -0.3572
 6167SOL    HW130137   0.195   3.858   5.823 -0.9932  0.2270  0.0100
 6167SOL    HW230138   0.124   3.978   5.851  0.4570 -0.6679  1.4402
 6168SOL     OW30139   3.352   3.181   3.299 -0.7543  0.5429  0.1633
 6168SOL    HW130140   3.378   3.183   3.391  1.4312  1.5064 -0.4793
 6168SOL    HW230141   3.264   3.150   3.322 -0.5305 -1.3618 -1.5568
 6169SOL     OW30142   1.740   3.582   7.623 -0.4661 -0.1432  0.0284
 6169SOL    HW130143   1.659   3.554   7.666 -0.7370 -0.4236 -0.6526
 6169SOL    HW230144   1.705   3.603   7.536 -1.1052 -1.1199  0.0470
 6170SOL     OW30145   1.506   1.447   7.994  0.5904 -0.2531  0.4636
 6170SOL    HW130146   1.582   1.455   8.052  1.9963  0.1531 -1.4289
 6170SOL    HW230147   1.481   1.539   7.997  0.1530 -0.3397 -0.5814
 6171SOL     OW30148   2.661   3.013  11.512 -0.2547  0.1687 -0.6481
 6171SOL    HW130149   2.641   2.947  11.578  2.7794  0.7055  0.8049
 6171SOL    HW230150   2.648   3.096  11.557 -2.5024 -0.3373 -0.3395
 6172SOL     OW30151   3.319   3.814   5.352 -0.2914 -0.1746  0.7402
 6172SOL    HW130152   3.291   3.905   5.368  2.1217  0.8440 -0.7809
 6172SOL    HW230153   3.322   3.809   5.256 -1.3873 -0.6344  0.7342
 6173SOL     OW30154   3.644   0.349   7.495  0.0684 -0.3803  0.5402
 6173SOL    HW130155   3.562   0.363   7.542 -0.5297 -0.8603 -0.3451
 6173SOL    HW230156   3.702   0.329   7.569  0.3254 -0.2059  0.3874
 6174SOL     OW30157   1.995   4.594   1.589  0.6805  0.1006  0.1523
 6174SOL    HW130158   2.038   4.649   1.654 -3.4904  1.1531  1.9980
 6174SOL    HW230159   2.070   4.592   1.529  1.4386  1.0939  1.0754
 6175SOL     OW30160   4.037   3.095   0.569 -0.3638  0.2008  0.1282
 6175SOL    HW130161   3.948   3.065   0.549  0.7877 -2.7417 -0.5160
 6175SOL    HW230162   4.052   3.143   0.488  0.4016  1.9008  1.2629
 6176SOL     OW30163   1.877   4.155  17.290 -0.0022 -0.2466  0.4085
 6176SOL    HW130164   1.913   4.224  17.233  0.1554 -0.7573 -0.1120
 6176SOL    HW230165   1.937   4.081  17.284  0.9832  0.5563  0.2602
 6177SOL     OW30166   1.045   1.133   7.538 -0.1987 -0.3003  0.3483
 6177SOL    HW130167   1.019   1.221   7.510  0.0131 -0.1369  0.6617
 6177SOL    HW230168   1.104   1.106   7.468 -0.3388  0.1491  0.0558
 6178SOL     OW30169   4.563   1.519   4.940 -0.2159 -0.0152  0.1637
 6178SOL    HW130170   4.527   1.431   4.929  0.4583 -0.5679  2.3943
 6178SOL    HW230171   4.639   1.504   4.995 -0.7614 -2.4816  0.2223
 6179SOL     OW30172   2.007   4.183   2.351  0.2001 -0.1060 -0.0506
 6179SOL    HW130173   2.068   4.255   2.368  0.6393 -0.3255 -0.7040
 6179SOL    HW230174   2.065   4.124   2.303  0.4304  0.7626 -0.8281
 6180SOL     OW30175   1.030   1.012   0.989  0.2682  0.0343 -0.5750
 6180SOL    HW130176   1.066   1.023   0.901  1.9207  0.8958  0.2200
 6180SOL    HW230177   1.013   0.918   0.991 -0.6374  0.2680  2.0604
 6181SOL     OW30178   0.926   3.531  12.150  0.5372  0.1205  0.2099
 6181SOL    HW130179   0.944   3.624  12.140 -1.6851  0.4574 -0.6261
 6181SOL    HW230180   0.953   3.489  12.068  0.2523  0.9996 -0.3378
 6182SOL     OW30181   3.823   0.479  13.367 -0.6816  0.2467  0.1504
 6182SOL    HW130182   3.818   0.438  13.453 -1.1879  1.9373  0.9295
 6182SOL    HW230183   3.840   0.571  13.388 -1.0006  0.1875  0.6612
 6183SOL     OW30184   0.875   1.857   4.405 -0.2381 -0.0757 -0.0193
 6183SOL    HW130185   0.924   1.877   4.485  0.1368 -0.0145 -0.2657
 6183SOL    HW230186   0.786   1.884   4.430  0.7793  3.2547  0.0028
 6184SOL     OW30187   3.393   2.661  10.785 -0.5687 -0.4718 -0.0745
 6184SOL    HW130188   3.354   2.736  10.830  0.8626 -0.7001  1.5374
 6184SOL    HW230189   3.358   2.599  10.849  1.5935  0.7478  2.2974
 6185SOL     OW30190   1.414   1.870   2.826  0.1015 -0.1765 -0.1446
 6185SOL    HW130191   1.468   1.832   2.757  2.6124  1.0971  1.0832
 6185SOL    HW230192   1.357   1.927   2.775 -0.0685  0.0651  0.3171
 6186SOL     OW30193   2.932   4.000   3.215  0.3670 -0.1198 -0.2829
 6186SOL    HW130194   2.916   3.974   3.306  2.3999  0.9670  0.3634
 6186SOL    HW230195   3.000   4.066   3.227  0.9903 -0.7106 -0.5708
 6187SOL     OW30196   4.659   1.711   5.612 -0.1399  0.3679 -0.0410
 6187SOL    HW130197   4.617   1.668   5.686  0.6276 -0.4680 -0.0968
 6187SOL    HW230198   4.590   1.726   5.547  1.3290  1.5100 -1.3324
 6188SOL     OW30199   0.506   3.287  11.713 -0.2488  0.4747  0.2002
 6188SOL    HW130200   0.440   3.355  11.695 -0.3290 -0.7117 -3.8790
 6188SOL    HW230201   0.588   3.322  11.679  0.3573 -2.3107 -1.1691
 6189SOL     OW30202   0.736   3.076   3.695  0.1860 -0.2014  0.4602
 6189SOL    HW130203   0.680   3.015   3.646  1.5619 -0.1014 -1.2404
 6189SOL    HW230204   0.725   3.035   3.781  0.6860 -1.0141  0.1312
 6190SOL     OW30205   3.709   1.273  10.237  0.2758  0.3618  0.3705
 6190SOL    HW130206   3.779   1.240  10.181 -0.0005 -0.4860  0.5248
 6190SOL    HW230207   3.683   1.192  10.281 -0.3220 -0.0900 -0.8211
 6191SOL     OW30208   3.308   2.943   7.711 -0.4145 -0.0040  0.1821
 6191SOL    HW130209   3.240   2.993   7.756  1.3432  2.8611 -0.3415
 6191SOL    HW230210   3.385   3.001   7.710  0.1150 -0.6857  4.3499
 6192SOL     OW30211   3.461   1.816  11.394  0.0136 -0.2798  0.0871
 6192SOL    HW130212   3.456   1.911  11.387 -0.7701 -0.3647 -0.5197
 6192SOL    HW230213   3.367   1.799  11.401  0.0241  0.2426  1.4435
 6193SOL     OW30214   4.047   0.508   7.446  0.1773 -0.3285 -0.2156
 6193SOL    HW130215   4.026   0.424   7.407  2.1563 -1.3276  0.8788
 6193SOL    HW230216   4.058   0.485   7.538  0.6030 -2.1468 -0.7343
 6194SOL     OW30217   2.883   3.250  15.243 -0.0545  1.1814  0.0455
 6194SOL    HW130218   2.793   3.271  15.266  0.1517  2.4003 -0.2710
 6194SOL    HW230219   2.928   3.332  15.260 -0.3887  0.9057  2.2906
 6195SOL     OW30220   3.668   0.405   1.788  0.2940 -0.1333  0.2792
 6195SOL    HW130221   3.680   0.459   1.866 -1.6327 -0.8412  1.0629
 6195SOL    HW230222   3.629   0.460   1.720  0.2914  1.4040  1.5277
 6196SOL     OW30223   0.438   1.482   4.876 -0.1162 -0.3665 -0.3686
 6196SOL    HW130224   0.459   1.569   4.841 -0.8723  0.5169  1.3690
 6196SOL    HW230225   0.404   1.439   4.797 -0.8957  0.4016 -0.4493
 6197SOL     OW30226   2.274   2.730   7.423  0.0781 -0.5171 -0.7692
 6197SOL    HW130227   2.344   2.717   7.359 -0.3648 -2.2423 -0.9063
 6197SOL    HW230228   2.215   2.796   7.387  0.6901  0.1219 -0.6156
 6198SOL     OW30229   2.866   4.334   7.582 -0.2713 -0.0752  0.8099
 6198SOL    HW130230   2.892   4.308   7.671 -0.9407 -0.7575  0.8017
 6198SOL    HW230231   2.942   4.297   7.536 -0.3942  0.6286  0.0407
 6199SOL     OW30232   0.367   4.336   3.488  0.2208 -0.5676 -0.5771
 6199SOL    HW130233   0.408   4.257   3.453  1.4989 -0.9484  1.7986
 6199SOL    HW230234   0.357   4.389   3.408 -1.7872  0.6772  0.4948
 6200SOL     OW30235   2.500   0.489   1.526 -0.2500 -0.0052 -0.2449
 6200SOL    HW130236   2.416   0.452   1.500 -0.6582  0.5113  0.3212
 6200SOL    HW230237   2.532   0.520   1.441 -2.7363  0.4361 -1.0170
 6201SOL     OW30238   3.069   3.760   8.350  0.1669 -0.2971 -0.3384
 6201SOL    HW130239   2.983   3.753   8.392  0.6224  1.0158  0.7985
 6201SOL    HW230240   3.126   3.705   8.404  0.9511 -0.0118 -0.8900
 6202SOL     OW30241   2.467   4.303   1.839 -0.4326  0.0156  0.4596
 6202SOL    HW130242   2.391   4.245   1.842  0.7296 -1.4413  1.6964
 6202SOL    HW230243   2.435   4.357   1.767  3.7561  1.3660 -0.4145
 6203SOL     OW30244   0.890   2.496   2.939  0.5220 -0.5072  0.0622
 6203SOL    HW130245   0.982   2.497   2.966  0.5129  0.9850  0.0381
 6203SOL    HW230246   0.853   2.521   3.024  2.0537 -0.8052  0.8165
 6204SOL     OW30247   0.341   1.606  12.805  0.0744  0.4326 -0.3592
 6204SOL    HW130248   0.341   1.649  12.890 -0.9808 -0.9594  0.3497
 6204SOL    HW230249   0.325   1.515  12.829  0.9267  0.3704 -0.0218
 6205SOL     OW30250   4.677   3.255   6.195 -0.6553 -0.1183 -0.1540
 6205SOL    HW130251   4.607   3.318   6.182  0.0668  0.6748 -0.2164
 6205SOL    HW230252   4.653   3.218   6.280 -1.5289  3.6975  1.2380
 6206SOL     OW30253   0.720   0.941  16.236  0.4464  0.0997  0.0096
 6206SOL    HW130254   0.634   0.903  16.254  0.0571  0.4300 -1.1533
 6206SOL    HW230255   0.742   0.987  16.317  1.0261 -0.7987  0.3696
 6207SOL     OW30256   4.135   2.298   4.337  0.0384 -0.4263 -0.3455
 6207SOL    HW130257   4.162   2.321   4.248  2.0386  0.7865  0.5723
 6207SOL    HW230258   4.217   2.302   4.386 -0.8458 -0.1767  1.0985
 6208SOL     OW30259   3.030   1.301   0.816  0.0928  0.4091  0.1822
 6208SOL    HW130260   3.002   1.218   0.856  0.5187 -0.1524 -0.6868
 6208SOL    HW230261   2.942   1.330   0.791  0.6116  2.2549  0.5186
 6209SOL     OW30262   4.060   4.659   6.027 -0.0380  0.0157  0.2955
 6209SOL    HW130263   3.988   4.721   6.038 -2.0938 -2.1595 -0.9643
 6209SOL    HW230264   4.140   4.713   6.025  0.3084 -0.4505  1.4904
 6210SOL     OW30265   4.728   3.585   8.117  0.5822 -0.5307 -0.6862
 6210SOL    HW130266   0.021   3.601   8.205  3.1331 -1.0069 -1.5470
 6210SOL    HW230267   4.646   3.538   8.128  0.0741 -0.0346 -2.3325
 6211SOL     OW30268   0.682   1.932   8.714  0.0716 -0.1106 -0.7500
 6211SOL    HW130269   0.652   1.869   8.648  0.5017 -0.3419 -0.7277
 6211SOL    HW230270   0.663   2.011   8.664  0.2657  0.5191  0.1775
 6212SOL     OW30271   0.165   3.406  16.294  0.0110 -0.0472 -0.2502
 6212SOL    HW130272   0.074   3.396  16.323  0.3943  0.0784  1.0227
 6212SOL    HW230273   0.200   3.317  16.306  2.3361  0.7258 -1.2284
 6213SOL     OW30274   4.138   4.020   6.207 -0.0264 -0.2460 -0.3942
 6213SOL    HW130275   4.215   4.076   6.217 -0.2448  0.1880 -1.1289
 6213SOL    HW230276   4.121   4.005   6.299 -0.8657 -0.7226 -0.6295
 6214SOL     OW30277   1.095   0.109   3.411  0.2270  0.1336  0.1884
 6214SOL    HW130278   1.173   0.142   3.455  0.1855 -0.6998  0.8862
 6214SOL    HW230279   1.135   0.033   3.367 -0.7111  0.4678 -1.2332
 6215SOL     OW30280   3.596   0.654   5.420 -0.0487  0.2151 -0.0283
 6215SOL    HW130281   3.592   0.609   5.504 -0.7189 -0.2301 -0.2915
 6215SOL    HW230282   3.556   0.741   5.429 -0.1654  0.0544  1.0702
 6216SOL     OW30283   2.114   4.497   6.696 -0.2292  0.0210  0.0607
 6216SOL    HW130284   2.187   4.553   6.673  1.1122 -1.3232  1.0451
 6216SOL    HW230285   2.100   4.505   6.791 -2.0183 -1.5245 -0.0569
 6217SOL     OW30286   3.409   4.498  10.878 -0.2988 -0.6885  0.3805
 6217SOL    HW130287   3.390   4.457  10.793 -0.6440  0.7725 -0.2634
 6217SOL    HW230288   3.430   4.588  10.852  1.6086 -0.7251  1.8213
 6218SOL     OW30289   3.536   0.197   9.364 -0.0417  0.3830  0.0493
 6218SOL    HW130290   3.629   0.196   9.387  0.1898 -0.7316 -0.9455
 6218SOL    HW230291   3.521   0.106   9.388  1.6026 -0.1893 -1.0640
 6219SOL     OW30292   0.920   2.755   4.728  0.4773  0.2114  0.5636
 6219SOL    HW130293   0.872   2.827   4.770  1.2835  1.5983 -0.9254
 6219SOL    HW230294   0.967   2.723   4.805 -0.0370 -0.7263  0.4825
 6220SOL     OW30295   2.794   4.174  14.700 -0.1100  0.0870  0.2790
 6220SOL    HW130296   2.734   4.166  14.626  0.0573  1.0747  0.0316
 6220SOL    HW230297   2.861   4.112  14.672 -0.9777 -1.2010  1.0734
 6221SOL     OW30298   1.472   0.634   8.128 -0.1912 -0.1286  0.4453
 6221SOL    HW130299   1.483   0.557   8.073 -0.8996 -1.2633  1.8990
 6221SOL    HW230300   1.494   0.701   8.063 -0.0032  1.0751  1.7598
 6222SOL     OW30301   2.767   1.144   6.793  0.2788 -0.4347 -0.1649
 6222SOL    HW130302   2.701   1.078   6.774  1.9838 -1.9155 -0.9415
 6222SOL    HW230303   2.748   1.162   6.885  0.6590 -0.2969 -0.1129
 6223SOL     OW30304   4.017   1.095   5.235  0.3231 -0.3566 -0.5040
 6223SOL    HW130305   4.096   1.045   5.258  0.0234 -0.0981  1.0873
 6223SOL    HW230306   4.018   1.091   5.139  0.5574 -1.9237 -0.4485
 6224SOL     OW30307   1.254   3.210   8.505  0.2550  0.5717  0.2669
 6224SOL    HW130308   1.349   3.208   8.512  0.1247 -2.0754  1.2162
 6224SOL    HW230309   1.224   3.133   8.458 -1.7985  0.5828  1.5450
 6225SOL     OW30310   1.732   1.543  15.625 -0.1808 -0.0404  0.3198
 6225SOL    HW130311   1.718   1.449  15.612  0.0664 -0.1103  0.5371
 6225SOL    HW230312   1.730   1.570  15.534 -3.2103  0.1531  0.4591
 6226SOL     OW30313   4.083   0.698   5.547  0.3863 -0.0611  0.5098
 6226SOL    HW130314   4.036   0.623   5.510 -1.5521  0.9784  0.8192
 6226SOL    HW230315   4.167   0.655   5.561  1.2815  1.4267 -0.2175
 6227SOL     OW30316   1.467   3.240   5.890  0.2912 -0.2482 -0.4782
 6227SOL    HW130317   1.450   3.218   5.799  1.6708 -0.2877 -0.7172
 6227SOL    HW230318   1.559   3.217   5.889  0.7132  1.5279 -1.7462
 6228SOL     OW30319   4.546   0.259   6.397  0.2914  0.1058 -0.3006
 6228SOL    HW130320   4.534   0.165   6.411 -2.3817  0.7313  1.5955
 6228SOL    HW230321   4.630   0.273   6.440  0.2924 -0.9997  0.0643
 6229SOL     OW30322   4.047   3.207  11.462  0.3209 -0.6414 -0.0035
 6229SOL    HW130323   4.134   3.200  11.422 -0.4605 -0.1312 -1.7818
 6229SOL    HW230324   4.012   3.281  11.413  2.9146  0.1604 -0.6786
 6230SOL     OW30325   0.259   1.305  11.815  0.1962  0.5309 -0.4659
 6230SOL    HW130326   0.259   1.224  11.764  1.6920  0.7196 -0.7603
 6230SOL    HW230327   0.174   1.307  11.858  1.0482 -0.6318  1.2492
 6231SOL     OW30328   1.894   4.720   2.339  0.0395  0.6553 -0.3116
 6231SOL    HW130329   1.874   4.733   2.432  0.5150 -1.0717  0.0173
 6231SOL    HW230330   1.888   4.625   2.342  2.6270  0.4890  0.1167
 6232SOL     OW30331   3.998   0.719   9.871 -0.1124 -0.2003 -0.2683
 6232SOL    HW130332   3.989   0.748   9.780 -0.3184  1.2889  0.2132
 6232SOL    HW230333   3.955   0.790   9.920 -2.4427 -1.4796 -0.4463
 6233SOL     OW30334   3.843   1.497   8.826 -0.0876  0.5001  0.1221
 6233SOL    HW130335   3.882   1.527   8.908  0.8404  0.9418 -0.4770
 6233SOL    HW230336   3.901   1.426   8.798  0.6314  1.4913 -0.8990
 6234SOL     OW30337   4.617   0.340   1.346 -0.1041  0.4654 -1.0012
 6234SOL    HW130338   4.548   0.274   1.342 -0.1848  0.4491  0.5514
 6234SOL    HW230339   4.631   0.347   1.251 -0.4165  0.5638 -1.0407
 6235SOL     OW30340   0.532   1.464   7.633  0.4284 -0.4441 -0.0610
 6235SOL    HW130341   0.510   1.421   7.550 -0.7386 -1.3735  0.7365
 6235SOL    HW230342   0.508   1.548   7.592  0.6548 -1.1348 -1.5976
 6236SOL     OW30343   4.345   3.053   4.396 -0.4796 -0.0853  0.2106
 6236SOL    HW130344   4.346   3.030   4.304  0.3741  1.6205 -0.2116
 6236SOL    HW230345   4.328   3.147   4.387  0.3231 -0.0977 -1.3064
 6237SOL     OW30346   1.791   2.181   3.531  0.4051  0.3215 -1.0316
 6237SOL    HW130347   1.780   2.190   3.436 -2.2941 -3.2286 -1.0664
 6237SOL    HW230348   1.797   2.086   3.535  0.4180  0.3839  0.3303
 6238SOL     OW30349   2.348   2.128   2.088  0.7771  0.0395  0.2139
 6238SOL    HW130350   2.422   2.068   2.091 -0.8245 -2.0201 -0.7321
 6238SOL    HW230351   2.396   2.208   2.110  2.2140 -0.6587 -0.3740
 6239SOL     OW30352   3.168   0.595   9.445 -0.4433 -0.2243 -0.1424
 6239SOL    HW130353   3.260   0.618   9.433 -0.3606  0.3343  1.6120
 6239SOL    HW230354   3.172   0.517   9.500  0.7461  0.5601  0.8947
 6240SOL     OW30355   0.993   1.640   0.822 -1.2520 -0.3886 -1.2045
 6240SOL    HW130356   0.929   1.705   0.794 -1.6539 -0.1462  0.3005
 6240SOL    HW230357   0.938   1.598   0.887  0.2404 -1.7050 -0.7881
 6241SOL     OW30358   2.946   0.826   7.464  0.5803 -0.5177  0.3145
 6241SOL    HW130359   2.944   0.847   7.558  0.2933 -2.1999  0.6847
 6241SOL    HW230360   2.882   0.890   7.431 -0.7221 -3.0129 -1.9928
 6242SOL     OW30361   2.481   3.219  10.523 -0.0855  0.7179 -0.0415
 6242SOL    HW130362   2.442   3.305  10.540 -2.7453  0.1010 -2.9042
 6242SOL    HW230363   2.543   3.241  10.453 -0.5473 -0.3266 -0.7799
 6243SOL     OW30364   1.829   0.109   1.521 -0.5741 -0.4444 -0.2018
 6243SOL    HW130365   1.855   0.148   1.605 -1.3188 -1.7356  0.6301
 6243SOL    HW230366   1.858   0.019   1.534 -2.4074 -1.1749 -1.3449
 6244SOL     OW30367   4.015   2.000  15.211 -0.1561  0.0128  0.3852
 6244SOL    HW130368   4.053   1.939  15.148 -0.7723  0.6886 -0.6389
 6244SOL    HW230369   4.019   2.070  15.146 -0.1887 -1.3432 -1.0811
 6245SOL     OW30370   1.209   3.295   1.987 -0.4869  0.0179 -0.0714
 6245SOL    HW130371   1.189   3.349   2.063 -0.4087 -0.0205 -0.0242
 6245SOL    HW230372   1.143   3.319   1.922 -1.7146 -1.2062  0.7180
 6246SOL     OW30373   3.820   3.311   7.968  0.2417  0.8402  0.3080
 6246SOL    HW130374   3.811   3.406   7.978 -1.9790  0.9582 -2.9979
 6246SOL    HW230375   3.871   3.309   7.887  0.9077 -0.7821  0.7580
 6247SOL     OW30376   0.972   3.279   5.685 -0.0214 -0.2942 -0.0454
 6247SOL    HW130377   0.942   3.228   5.760  1.0220  0.1258  0.6671
 6247SOL    HW230378   0.936   3.224   5.615 -2.0153 -1.1543  1.6476
 6248SOL     OW30379   3.442   1.312   9.961 -0.3748  0.3561  0.6770
 6248SOL    HW130380   3.513   1.248   9.957 -0.5170  0.2689 -0.6144
 6248SOL    HW230381   3.364   1.257   9.954  1.6143 -2.1546 -1.7421
 6249SOL     OW30382   0.952   4.395   5.278  0.1177  0.1040 -0.0760
 6249SOL    HW130383   0.874   4.398   5.222 -1.0150 -0.9808  1.4419
 6249SOL    HW230384   1.010   4.465   5.249  0.0281  0.7773  1.3825
 6250SOL     OW30385   2.081   2.100   4.894  0.3785 -0.2712  0.0946
 6250SOL    HW130386   2.059   2.110   4.802 -0.0517  0.5129  0.2824
 6250SOL    HW230387   2.038   2.016   4.912  2.5105 -1.1696  1.0552
 6251SOL     OW30388   1.543   0.813  12.994 -0.1480  0.1373 -0.4710
 6251SOL    HW130389   1.514   0.730  12.958 -2.3155 -0.3954  2.5890
 6251SOL    HW230390   1.534   0.869  12.917 -2.0330  0.3584 -0.0816
 6252SOL     OW30391   2.665   4.089   8.360 -1.0136  0.0131 -0.0841
 6252SOL    HW130392   2.619   4.008   8.381  0.9296 -1.2632 -0.7660
 6252SOL    HW230393   2.718   4.063   8.284 -0.3403  2.2868 -0.4057
 6253SOL     OW30394   4.700   0.706   3.359  0.2771  0.5766 -0.6982
 6253SOL    HW130395   4.672   0.769   3.292  0.2827  0.0999 -1.1469
 6253SOL    HW230396   4.622   0.652   3.372  0.4445  0.9836  2.0386
 6254SOL     OW30397   2.238   0.188  16.433  0.1242  0.1608  0.0736
 6254SOL    HW130398   2.304   0.176  16.501  0.7540  3.2427  0.0023
 6254SOL    HW230399   2.224   0.094  16.422 -1.1820  0.5772 -1.9494
 6255SOL     OW30400   4.324   2.145  16.041  0.2520 -0.4389  0.5346
 6255SOL    HW130401   4.292   2.233  16.021  0.0957 -0.6634 -0.2060
 6255SOL    HW230402   4.352   2.119  15.953 -2.1636  1.1211 -0.6707
 6256SOL     OW30403   2.940   0.442  16.874  0.4702 -0.2724 -0.2837
 6256SOL    HW130404   3.016   0.491  16.841 -0.0248  0.6424 -0.0710
 6256SOL    HW230405   2.965   0.350  16.861  0.3207 -0.5503  1.3184
 6257SOL     OW30406   1.172   4.225  13.172  0.4309  0.2943 -0.0349
 6257SOL    HW130407   1.249   4.270  13.206 -0.4051  1.2127  0.6686
 6257SOL    HW230408   1.143   4.176  13.249 -0.6846  1.1874  0.1242
 6258SOL     OW30409   1.236   2.853  13.691 -0.2217 -0.0612  0.1844
 6258SOL    HW130410   1.246   2.775  13.636  0.4718  0.1661 -0.0020
 6258SOL    HW230411   1.140   2.858  13.693 -0.2036  0.3796 -0.3135
 6259SOL     OW30412   2.619   1.579   4.467 -0.5914  0.1061  0.2627
 6259SOL    HW130413   2.596   1.670   4.484  0.3138  0.9165 -2.8606
 6259SOL    HW230414   2.541   1.535   4.433 -0.4525 -1.2827  1.7234
 6260SOL     OW30415   3.235   2.199  14.467 -0.5761  0.3243  0.1735
 6260SOL    HW130416   3.247   2.176  14.559  0.7037 -0.1126 -0.1038
 6260SOL    HW230417   3.161   2.260  14.474  0.5444  1.5741  1.0863
 6261SOL     OW30418   3.091   1.763   5.839 -0.1606 -0.4081  0.1891
 6261SOL    HW130419   3.128   1.825   5.902 -0.2217 -0.2845  0.1005
 6261SOL    HW230420   3.099   1.809   5.756 -0.1782  1.6223  1.3211
 6262SOL     OW30421   3.223   1.744   7.518 -0.5301  0.3673 -0.2067
 6262SOL    HW130422   3.265   1.757   7.433  2.7943  1.0210  1.5328
 6262SOL    HW230423   3.245   1.654   7.543  0.1665  0.9037  1.1649
 6263SOL     OW30424   4.635   4.619  11.325  0.0640  0.1356  0.7814
 6263SOL    HW130425   4.724   4.648  11.307 -0.6472  1.3021 -0.8618
 6263SOL    HW230426   4.588   4.700  11.340  0.4107  0.5721 -0.4428
 6264SOL     OW30427   2.705   2.667   5.814  0.1585  0.2002 -0.1493
 6264SOL    HW130428   2.669   2.586   5.852 -1.0590 -0.0577 -1.8775
 6264SOL    HW230429   2.732   2.735   5.876 -0.1797  0.7619 -0.6264
 6265SOL     OW30430   0.304   0.510   0.746  0.3831 -0.0680 -0.5219
 6265SOL    HW130431   0.384   0.548   0.708  0.7182 -0.6851 -0.4323
 6265SOL    HW230432   0.338   0.445   0.808 -0.1243  0.5824  0.4368
 6266SOL     OW30433   4.456   0.032   3.115 -0.4978 -0.3515 -0.4862
 6266SOL    HW130434   4.446   0.008   3.023 -2.0715  0.0970 -0.4347
 6266SOL    HW230435   4.547   0.062   3.119  0.5614 -4.0044  2.7105
 6267SOL     OW30436   4.374   0.681   3.209  0.0151  0.2044  0.3558
 6267SOL    HW130437   4.389   0.763   3.162  1.0770  0.5305  1.2556
 6267SOL    HW230438   4.286   0.659   3.179  0.0217 -0.4244  0.8049
 6268SOL     OW30439   1.117   3.195  11.278  0.3487  0.2655  0.3240
 6268SOL    HW130440   1.200   3.173  11.237  0.0440 -1.7958  0.8341
 6268SOL    HW230441   1.123   3.289  11.296 -0.6166  0.5535 -0.8516
 6269SOL     OW30442   2.352   0.444   2.428 -0.1827 -0.0456  0.2182
 6269SOL    HW130443   2.269   0.419   2.388 -0.9345  2.0785  0.4670
 6269SOL    HW230444   2.321   0.454   2.518 -2.5475 -0.4393 -0.5552
 6270SOL     OW30445   3.653   1.147   8.994 -0.1102  0.7342  0.0840
 6270SOL    HW130446   3.599   1.226   8.997  0.3276  1.1110 -1.8201
 6270SOL    HW230447   3.742   1.182   9.004  0.2685 -0.2645  0.2530
 6271SOL     OW30448   4.228   2.597   2.215  0.1079 -0.1729 -0.2232
 6271SOL    HW130449   4.284   2.652   2.160  0.2098 -0.8783 -0.8241
 6271SOL    HW230450   4.300   2.549   2.257  0.8984  0.7617 -0.4989
 6272SOL     OW30451   1.648   4.107   3.359 -0.1397 -0.1644 -0.2518
 6272SOL    HW130452   1.589   4.051   3.409 -1.9669  1.5862 -0.4728
 6272SOL    HW230453   1.690   4.042   3.301 -0.7147 -0.0037 -0.8501
 6273SOL     OW30454   3.037   2.735  17.450 -0.0903  0.6985  0.1120
 6273SOL    HW130455   3.128   2.748  17.475 -0.5616  2.3718  0.9737
 6273SOL    HW230456   3.005   2.715  17.538  0.1939 -0.4054 -0.0310
 6274SOL     OW30457   0.008   2.974   8.646 -0.1517 -0.1066  0.2941
 6274SOL    HW130458   0.016   3.067   8.627 -0.0258  0.5906  3.6988
 6274SOL    HW230459   4.653   2.961   8.652 -0.0912 -0.8319 -0.2967
 6275SOL     OW30460   4.181   4.024   2.723  0.0439  0.3175  0.0496
 6275SOL    HW130461   4.221   3.937   2.718 -0.1933  0.1712  0.7128
 6275SOL    HW230462   4.103   4.004   2.773  0.4940  0.6004  0.8707
 6276SOL     OW30463   0.885   2.638   8.536  0.5402  0.0741  0.2406
 6276SOL    HW130464   0.818   2.617   8.471  0.3392  0.7898  0.2245
 6276SOL    HW230465   0.863   2.574   8.604 -1.7529 -0.2894 -0.8413
 6277SOL     OW30466   3.429   1.308   2.819 -0.1060 -0.0880 -0.7585
 6277SOL    HW130467   3.481   1.388   2.813  0.7837 -0.6421 -0.4724
 6277SOL    HW230468   3.350   1.338   2.863  1.1603  0.6754  1.0234
 6278SOL     OW30469   3.051   1.248   8.957  0.1461 -0.0635 -0.0099
 6278SOL    HW130470   3.146   1.237   8.956 -0.0539 -1.8837  1.2737
 6278SOL    HW230471   3.022   1.157   8.957  0.5972 -0.2015 -0.9505
 6279SOL     OW30472   2.037   2.898  14.484  0.4538  0.6352  0.2111
 6279SOL    HW130473   2.044   2.805  14.508  1.4975  0.7509  0.3472
 6279SOL    HW230474   2.129   2.924  14.484  0.8036 -0.5588 -0.3172
 6280SOL     OW30475   4.263   2.718   3.718 -0.0743  0.3044  0.1159
 6280SOL    HW130476   4.356   2.729   3.697 -0.2051  1.2526  0.0320
 6280SOL    HW230477   4.261   2.624   3.736 -1.6655  0.4934  0.9040
 6281SOL     OW30478   2.433   0.534   8.978  0.5433  0.3366  0.3077
 6281SOL    HW130479   2.352   0.551   8.929  0.9852 -1.9787 -1.2669
 6281SOL    HW230480   2.462   0.624   8.993 -2.7871  1.4601  0.0526
 6282SOL     OW30481   1.214   3.326   7.675  0.0482  0.1582 -0.3562
 6282SOL    HW130482   1.192   3.235   7.655  1.3733 -0.3383  0.4473
 6282SOL    HW230483   1.127   3.363   7.662 -0.9802 -1.7188  1.1525
 6283SOL     OW30484   1.739   3.932   7.232 -0.7067 -0.1645 -0.1744
 6283SOL    HW130485   1.815   3.876   7.246 -0.7226 -0.1117  0.1177
 6283SOL    HW230486   1.734   3.961   7.323 -0.0501  0.4750 -0.3439
 6284SOL     OW30487   0.449   2.278   5.054 -0.5786  0.4621  0.1847
 6284SOL    HW130488   0.412   2.288   5.142 -0.7446 -0.4022  0.2112
 6284SOL    HW230489   0.530   2.329   5.060 -0.9021  1.4570 -3.7531
 6285SOL     OW30490   0.528   3.548   7.159  0.0442  0.1984  0.5428
 6285SOL    HW130491   0.535   3.455   7.180 -0.1406 -0.3915 -1.9757
 6285SOL    HW230492   0.521   3.588   7.246 -4.7999 -0.9280  0.7015
 6286SOL     OW30493   4.718   3.828   4.035  0.4686 -0.5709 -0.1785
 6286SOL    HW130494   0.006   3.800   4.122  2.3182 -0.5238 -0.7773
 6286SOL    HW230495   0.053   3.809   3.979  0.8596 -2.1723  0.8778
 6287SOL     OW30496   3.029   3.731  16.673 -0.4007 -0.6862  0.1394
 6287SOL    HW130497   3.034   3.787  16.751 -2.5326 -0.4292  0.0888
 6287SOL    HW230498   3.116   3.694  16.665 -0.3653 -0.5588 -0.0568
 6288SOL     OW30499   2.339   3.846   3.396  0.0927 -0.0235  0.3364
 6288SOL    HW130500   2.360   3.878   3.308  0.0350 -2.7318 -0.6472
 6288SOL    HW230501   2.425   3.851   3.437 -0.5750 -1.1934  1.8486
 6289SOL     OW30502   1.557   0.074  16.542  0.2718 -0.2826 -0.1636
 6289SOL    HW130503   1.608   0.123  16.607 -2.5981  1.2555  0.9863
 6289SOL    HW230504   1.538   4.736  16.594 -0.9071 -1.0014 -1.6835
 6290SOL     OW30505   3.145   1.993  12.032  0.3366  0.2450  0.2356
 6290SOL    HW130506   3.051   1.983  12.046  0.6491 -1.4838  1.1265
 6290SOL    HW230507   3.165   2.085  12.052 -2.2044  1.4795 -2.9818
 6291SOL     OW30508   0.791   3.565   7.961 -0.0348 -0.2923 -0.3068
 6291SOL    HW130509   0.790   3.612   8.044  0.2695  2.2333 -1.7301
 6291SOL    HW230510   0.813   3.641   7.907  0.4735 -0.1749  0.0701
 6292SOL     OW30511   0.064   4.027   6.851  0.2660  0.1297 -0.1402
 6292SOL    HW130512   0.100   3.959   6.795 -1.8639  0.6010 -2.0654
 6292SOL    HW230513   0.053   3.989   6.939  1.0689 -1.0819 -0.5637
 6293SOL     OW30514   4.020   3.987  16.112  0.4465  0.1363  0.8206
 6293SOL    HW130515   4.057   4.075  16.107 -0.9302  0.5848 -1.2560
 6293SOL    HW230516   3.924   3.995  16.111  0.4919  0.6572  0.5571
 6294SOL     OW30517   1.541   0.976   6.021  0.4046  0.7716  0.3782
 6294SOL    HW130518   1.483   0.999   6.094 -0.8311 -0.4807 -0.2077
 6294SOL    HW230519   1.523   1.051   5.964 -1.6097  0.4968  0.6700
 6295SOL     OW30520   4.590   0.006   6.441  0.4533 -0.6272  0.0613
 6295SOL    HW130521   4.542   4.709   6.516 -1.0527  0.8967 -0.1434
 6295SOL    HW230522   4.631   4.664   6.414  0.3703 -0.9478  0.9201
 6296SOL     OW30523   3.756   1.605   2.173  0.2790 -0.5229  0.1353
 6296SOL    HW130524   3.727   1.661   2.101  1.5394  0.3633  0.3050
 6296SOL    HW230525   3.718   1.523   2.142 -1.2318  0.3598 -0.3813
 6297SOL     OW30526   4.675   0.801   1.451  0.2812 -0.0222  0.5582
 6297SOL    HW130527   0.002   0.861   1.420  0.3232 -0.8323 -0.9391
 6297SOL    HW230528   4.671   0.738   1.378  2.3834 -0.9513  1.2464
 6298SOL     OW30529   1.828   3.595   4.962 -0.3775  0.5174 -0.2334
 6298SOL    HW130530   1.862   3.676   4.923  1.4954 -2.0932 -3.9943
 6298SOL    HW230531   1.751   3.630   5.005 -1.5101 -0.7619 -1.2206
 6299SOL     OW30532   2.378   4.261   3.035 -0.2010  0.4414 -0.2150
 6299SOL    HW130533   2.474   4.253   3.042  0.0760  3.5942 -0.5612
 6299SOL    HW230534   2.358   4.180   2.989 -1.0912 -0.2320  1.3747
 6300SOL     OW30535   2.757   2.692   1.605 -0.0119  0.0475  0.5386
 6300SOL    HW130536   2.824   2.716   1.542 -1.3166  2.0326 -0.1093
 6300SOL    HW230537   2.806   2.639   1.668  1.8082  1.0848 -0.0284
 6301SOL     OW30538   2.398   0.875   1.540 -0.3784  0.5449  0.1649
 6301SOL    HW130539   2.480   0.846   1.579 -0.1909 -1.4878 -1.7252
 6301SOL    HW230540   2.349   0.909   1.615 -0.7784  1.0067 -0.2981
 6302SOL     OW30541   2.480   4.631   1.821 -0.3130  0.1680 -0.4918
 6302SOL    HW130542   2.407   4.675   1.865 -0.1221 -0.5794  0.5788
 6302SOL    HW230543   2.434   4.584   1.751  1.8127 -2.7427  0.0408
 6303SOL     OW30544   0.446   3.791  14.961  0.2557  0.5229  0.1083
 6303SOL    HW130545   0.497   3.739  15.023 -0.1061 -1.4286 -1.2016
 6303SOL    HW230546   0.522   3.832  14.920  0.4019 -0.0407 -0.1848
 6304SOL     OW30547   0.022   3.326   2.411  0.1986 -0.0758 -0.4243
 6304SOL    HW130548   4.712   3.321   2.493  1.0544  1.8766  0.2059
 6304SOL    HW230549   0.020   3.421   2.413  0.5576 -0.0829  0.4187
 6305SOL     OW30550   1.947   1.911   8.395 -0.4677 -0.3307 -0.5949
 6305SOL    HW130551   1.900   1.994   8.390 -1.6437 -0.8197  2.6879
 6305SOL    HW230552   1.990   1.911   8.480  0.0353  2.3162 -0.8321
 6306SOL     OW30553   3.533   1.813  11.136 -0.2181 -0.4347 -0.8086
 6306SOL    HW130554   3.472   1.743  11.109 -0.5805 -0.7768  0.9090
 6306SOL    HW230555   3.497   1.829  11.223  1.9027  0.5902 -0.1422
 6307SOL     OW30556   2.659   0.917   6.078  0.0030 -0.3267 -0.1790
 6307SOL    HW130557   2.576   0.923   6.125 -1.8974  0.5985 -3.5871
 6307SOL    HW230558   2.682   1.010   6.074 -0.4679 -0.1599  1.1117
 6308SOL     OW30559   1.245   0.915   8.163  0.1906 -0.1263 -0.0019
 6308SOL    HW130560   1.333   0.952   8.160  0.1530 -0.1018 -0.8525
 6308SOL    HW230561   1.223   0.898   8.255 -1.5947 -3.4379 -1.0213
 6309SOL     OW30562   1.500   4.111   9.790  0.3400  0.0557  0.7197
 6309SOL    HW130563   1.492   4.204   9.812  2.5329 -0.0372  1.8977
 6309SOL    HW230564   1.594   4.116   9.773  0.2364 -0.2866  0.0326
 6310SOL     OW30565   0.489   4.467  11.653 -0.2571 -0.1342 -0.2204
 6310SOL    HW130566   0.399   4.485  11.678 -0.2168  1.9182 -1.5385
 6310SOL    HW230567   0.501   4.540  11.591  0.5591  0.5457  0.7324
 6311SOL     OW30568   1.479   1.027  12.467  0.5787 -0.0487 -0.1538
 6311SOL    HW130569   1.426   1.011  12.545  1.2400 -0.7113  0.1707
 6311SOL    HW230570   1.449   0.946  12.426  1.6750  0.8073 -2.6685
 6312SOL     OW30571   4.025   3.677   3.708  0.1369  0.1450  0.0154
 6312SOL    HW130572   3.935   3.706   3.725 -0.3382 -1.2631 -0.1011
 6312SOL    HW230573   4.057   3.762   3.679 -1.8142  0.7783 -0.3125
 6313SOL     OW30574   0.814   4.451   2.437 -0.0368  0.2683 -0.1685
 6313SOL    HW130575   0.827   4.437   2.531 -3.0503  0.1364  0.2240
 6313SOL    HW230576   0.904   4.475   2.414  0.4961  1.2072  2.8633
 6314SOL     OW30577   3.560   1.076   2.916 -0.1440 -0.2759  0.2966
 6314SOL    HW130578   3.650   1.107   2.931  0.8611 -1.9073 -2.3617
 6314SOL    HW230579   3.514   1.155   2.887 -0.7872  0.7827  4.2699
 6315SOL     OW30580   2.725   0.204   5.508 -0.0091 -0.3266 -0.2259
 6315SOL    HW130581   2.796   0.266   5.526 -0.1195  0.0179 -0.9766
 6315SOL    HW230582   2.753   0.125   5.555 -0.3413 -0.2598  0.0835
 6316SOL     OW30583   0.607   1.910   6.210  0.3827 -0.1452 -0.3130
 6316SOL    HW130584   0.663   1.886   6.283  2.1899  0.5314 -1.4660
 6316SOL    HW230585   0.663   1.880   6.138  1.7375 -0.5942  0.9466
 6317SOL     OW30586   3.980   3.367   7.763  0.5499  0.8034 -0.6547
 6317SOL    HW130587   4.067   3.405   7.762  0.8693  0.0072 -2.2211
 6317SOL    HW230588   4.001   3.278   7.735  0.5310  0.7245 -0.4221
 6318SOL     OW30589   1.809   4.084  16.837  0.0766 -0.0933  0.1440
 6318SOL    HW130590   1.795   4.001  16.791  0.3385  0.7342 -1.4101
 6318SOL    HW230591   1.775   4.148  16.775  0.2662 -0.3860 -0.2632
 6319SOL     OW30592   2.481   4.711   0.905 -0.1052 -0.2767 -0.0394
 6319SOL    HW130593   2.500   4.676   0.818  2.5388  1.8662 -0.3005
 6319SOL    HW230594   2.396   0.008   0.879 -1.2897 -2.1050  1.1687
 6320SOL     OW30595   1.692   0.761   6.126  0.1128 -0.6006  0.3202
 6320SOL    HW130596   1.708   0.708   6.048  1.5655 -2.1054  1.6470
 6320SOL    HW230597   1.634   0.829   6.091  0.5098 -0.5200 -0.1879
 6321SOL     OW30598   3.958   2.555   1.140  0.5454 -0.1777  0.2584
 6321SOL    HW130599   3.912   2.524   1.218  0.2890 -0.6240 -0.0629
 6321SOL    HW230600   4.041   2.594   1.167  0.2518  2.1154 -2.1476
 6322SOL     OW30601   3.972   4.027   5.377  0.1507 -0.2776 -0.1050
 6322SOL    HW130602   3.966   4.013   5.471  1.8169 -1.2472 -0.1359
 6322SOL    HW230603   3.934   4.114   5.371 -0.5850 -0.6026 -0.1070
 6323SOL     OW30604   2.400   2.222   9.189 -0.2118  0.4267  0.2054
 6323SOL    HW130605   2.386   2.136   9.229  1.8309 -0.4292 -0.8923
 6323SOL    HW230606   2.327   2.232   9.128  0.1203 -0.6629 -0.3718
 6324SOL     OW30607   3.105   2.337   5.225 -0.4362  0.3911  0.3635
 6324SOL    HW130608   3.038   2.383   5.276 -0.7022  0.6395 -0.2118
 6324SOL    HW230609   3.113   2.383   5.142 -0.7689 -0.9779 -0.4197
 6325SOL     OW30610   1.722   0.818   3.524  0.1591  0.7237 -0.5925
 6325SOL    HW130611   1.629   0.812   3.501 -0.3253 -0.0187  1.5511
 6325SOL    HW230612   1.757   0.889   3.469 -0.6795  2.1113  0.6559
 6326SOL     OW30613   1.462   3.647   8.055 -0.2835 -0.4652  0.4529
 6326SOL    HW130614   1.405   3.712   8.097 -1.5815 -1.3071 -0.0100
 6326SOL    HW230615   1.403   3.593   8.003  0.7561 -0.5661 -0.6351
 6327SOL     OW30616   0.813   0.899   4.239  0.2125  0.8268  0.1402
 6327SOL    HW130617   0.834   0.913   4.332  1.2835  0.3060 -0.0202
 6327SOL    HW230618   0.742   0.962   4.230 -1.5265 -0.7733  2.4109
 6328SOL     OW30619   2.184   0.582  16.983 -0.4469  0.2868  0.7847
 6328SOL    HW130620   2.269   0.583  17.025 -0.3832 -0.4015  0.6663
 6328SOL    HW230621   2.214   0.542  16.901 -0.5397  0.4585  0.6656
 6329SOL     OW30622   3.395   3.989   5.719 -0.7410 -0.1321 -0.1718
 6329SOL    HW130623   3.456   3.980   5.792 -0.2183  2.3653 -0.2947
 6329SOL    HW230624   3.455   3.995   5.644  1.0013 -0.6533  1.1963
 6330SOL     OW30625   3.429   1.999   0.445 -0.0762  0.2345 -0.3790
 6330SOL    HW130626   3.397   1.914   0.415  1.3387  0.3822 -2.3228
 6330SOL    HW230627   3.363   2.065   0.423 -0.6902 -0.2019  0.1831
 6331SOL     OW30628   3.262   2.952   6.054 -1.0200  0.5128  0.0967
 6331SOL    HW130629   3.186   2.895   6.066  0.0672 -0.8433  0.4991
 6331SOL    HW230630   3.303   2.952   6.140 -1.6336 -0.4629  0.3885
 6332SOL     OW30631   2.732   3.761   1.402  0.0336 -0.2042  0.9059
 6332SOL    HW130632   2.803   3.717   1.448  0.1829 -0.1377  0.7376
 6332SOL    HW230633   2.708   3.841   1.449 -2.1085  0.4272 -1.2607
 6333SOL     OW30634   0.849   0.126   7.635 -0.0561  0.2541 -0.8535
 6333SOL    HW130635   0.939   0.152   7.614  0.5825  1.1017  2.9091
 6333SOL    HW230636   0.849   0.145   7.729 -0.9492 -0.6553 -0.6759
 6334SOL     OW30637   1.574   1.967   3.792 -0.4456 -0.6951 -0.4079
 6334SOL    HW130638   1.516   1.927   3.858 -1.3432  0.5318 -0.4723
 6334SOL    HW230639   1.607   2.045   3.836  2.2495 -1.8461 -0.3806
 6335SOL     OW30640   4.668   2.843   0.757  0.1621  0.6848  0.3867
 6335SOL    HW130641   4.660   2.768   0.697  0.5586  0.3703  0.7207
 6335SOL    HW230642   4.656   2.911   0.691  0.7963  1.9028  1.5202
 6336SOL     OW30643   0.178   2.854   5.180  0.1809 -0.2008  0.5450
 6336SOL    HW130644   0.156   2.778   5.235 -1.1767  0.1217  0.4649
 6336SOL    HW230645   0.200   2.908   5.257 -0.3931 -2.0337  1.9988
 6337SOL     OW30646   4.179   3.666   2.642  0.5360 -0.6787  0.4926
 6337SOL    HW130647   4.146   3.583   2.609 -1.4430  0.4658 -0.3783
 6337SOL    HW230648   4.140   3.735   2.588 -1.8646 -2.4458 -0.0051
 6338SOL     OW30649   4.485   4.486  16.050 -0.2132  0.0361 -0.4688
 6338SOL    HW130650   4.546   4.555  16.026  0.5841 -0.2060  0.8394
 6338SOL    HW230651   4.457   4.503  16.140  0.5892  1.4030 -0.4855
 6339SOL     OW30652   3.756   3.705   7.389 -0.1614  0.0269  0.1035
 6339SOL    HW130653   3.727   3.778   7.334 -1.6161  0.1266  0.9762
 6339SOL    HW230654   3.674   3.690   7.436 -0.1627  1.6856  0.6502
 6340SOL     OW30655   1.241   1.446   4.876  0.1524  0.7028 -0.1607
 6340SOL    HW130656   1.276   1.531   4.902  2.8314 -0.5795  0.4759
 6340SOL    HW230657   1.148   1.468   4.874  0.3912  1.8664  0.9690
 6341SOL     OW30658   1.632   0.177  16.782 -0.3334  0.1570 -0.4686
 6341SOL    HW130659   1.690   0.102  16.792  0.6398  1.2002  1.6605
 6341SOL    HW230660   1.567   0.163  16.851  1.4058 -2.6532  0.6000
 6342SOL     OW30661   4.260   0.392   6.921  0.1884 -0.1558  0.1408
 6342SOL    HW130662   4.299   0.446   6.852 -0.2605 -0.9308 -0.7095
 6342SOL    HW230663   4.191   0.337   6.885  0.4897 -0.5638  0.1859
 6343SOL     OW30664   2.295   4.532   4.526 -0.5101 -0.0441 -0.3200
 6343SOL    HW130665   2.330   4.569   4.445 -0.9218  1.8928  0.3832
 6343SOL    HW230666   2.205   4.542   4.495 -1.0892 -0.9054  1.0600
 6344SOL     OW30667   1.263   2.216   0.332 -0.4930  0.1286 -0.9764
 6344SOL    HW130668   1.249   2.123   0.347 -0.5147  0.1437 -0.9028
 6344SOL    HW230669   1.358   2.225   0.325 -0.5395 -0.7705 -2.7400
 6345SOL     OW30670   2.945   1.754  16.641  0.0671  0.0266 -0.0715
 6345SOL    HW130671   2.935   1.796  16.726  1.7045  1.0127 -0.3739
 6345SOL    HW230672   2.867   1.698  16.646  0.8765 -1.1405 -0.4229
 6346SOL     OW30673   2.978   2.246  14.196 -0.0340 -0.8713 -0.0073
 6346SOL    HW130674   3.031   2.243  14.116 -1.9094 -1.4607 -1.2441
 6346SOL    HW230675   3.029   2.306  14.250 -2.1957  0.2450  0.7895
 6347SOL     OW30676   0.728   0.354  14.790 -0.2141  0.2716  1.0805
 6347SOL    HW130677   0.755   0.350  14.882  2.0342  0.9399  0.4474
 6347SOL    HW230678   0.811   0.345  14.744 -0.6987  0.7879  0.1103
 6348SOL     OW30679   3.505   2.311   5.605 -0.1190 -0.1617  0.2104
 6348SOL    HW130680   3.458   2.328   5.524 -0.1915 -0.5408  0.1741
 6348SOL    HW230681   3.594   2.328   5.575 -0.2387 -0.2184 -0.1723
 6349SOL     OW30682   1.120   3.491   6.117 -0.0991  0.3772 -0.0176
 6349SOL    HW130683   1.209   3.458   6.106  1.6515  4.8447  0.4828
 6349SOL    HW230684   1.109   3.548   6.041 -2.5369 -0.7213 -0.4841
 6350SOL     OW30685   0.626   4.677   5.676 -0.0106  0.1635  0.2098
 6350SOL    HW130686   0.663   4.589   5.685 -1.4260 -0.5216 -0.6318
 6350SOL    HW230687   0.554   4.672   5.739  0.6600  0.3574  0.9856
 6351SOL     OW30688   3.675   0.039  15.633  0.1309  0.0429  0.3498
 6351SOL    HW130689   3.605   0.063  15.572  0.6885 -0.4546 -0.4925
 6351SOL    HW230690   3.700   4.688  15.617 -3.5189 -0.9852  0.4991
 6352SOL     OW30691   4.674   1.682  16.371 -0.1835 -0.1603  0.2826
 6352SOL    HW130692   0.014   1.688  16.421 -0.1560  1.2519  0.0724
 6352SOL    HW230693   4.642   1.602  16.412 -1.8464 -0.9140 -2.4626
 6353SOL     OW30694   1.440   2.753   2.191 -0.2746 -0.3136  0.5471
 6353SOL    HW130695   1.359   2.801   2.169 -0.0423  0.3039  1.0230
 6353SOL    HW230696   1.502   2.824   2.207  0.4752 -0.5913 -1.1735
 6354SOL     OW30697   2.973   3.060  12.620 -0.0153  0.7248 -0.0256
 6354SOL    HW130698   2.997   3.065  12.712  0.8421  0.7537 -0.2525
 6354SOL    HW230699   2.877   3.064  12.620 -0.1103 -1.1849 -0.4919
 6355SOL     OW30700   3.387   1.431   6.820 -0.1563 -0.1117  0.1635
 6355SOL    HW130701   3.376   1.493   6.892  1.8511 -1.9435  2.0638
 6355SOL    HW230702   3.405   1.348   6.866 -2.3600 -0.7587 -0.1457
 6356SOL     OW30703   0.249   2.641   6.380 -0.0964  0.3248 -0.3594
 6356SOL    HW130704   0.273   2.556   6.343 -1.1710 -0.0238 -0.2529
 6356SOL    HW230705   0.318   2.656   6.445 -1.2575 -0.8643  1.1732
 6357SOL     OW30706   1.494   1.019   9.807  0.2704 -0.6733 -0.2247
 6357SOL    HW130707   1.440   1.013   9.728  0.3069 -0.1266 -0.2942
 6357SOL    HW230708   1.431   0.979   9.867  0.7503 -0.2585  0.5553
 6358SOL     OW30709   1.415   0.813   7.109 -0.5226 -0.2017 -0.0988
 6358SOL    HW130710   1.472   0.756   7.161 -0.2510  1.3396  1.2794
 6358SOL    HW230711   1.392   0.878   7.175 -1.3920  1.0964 -1.6801
 6359SOL     OW30712   0.637   0.063   9.036 -0.4858 -0.2223 -0.4242
 6359SOL    HW130713   0.676   0.040   8.952 -1.7982 -1.3655 -0.7332
 6359SOL    HW230714   0.571   4.733   9.037  0.9871 -1.5418  2.2427
 6360SOL     OW30715   4.141   2.193   8.498  0.0438  0.4189 -0.1231
 6360SOL    HW130716   4.154   2.156   8.411  1.6823 -2.5942  1.3877
 6360SOL    HW230717   4.200   2.135   8.547  0.8024  0.0606 -1.4570
 6361SOL     OW30718   3.753   0.776  12.340 -0.4235  0.1957  0.1283
 6361SOL    HW130719   3.751   0.723  12.260 -2.4079  0.1905  0.1886
 6361SOL    HW230720   3.695   0.726  12.397  2.6173 -2.4147  0.9420
 6362SOL     OW30721   0.662   2.139   8.531  0.5882 -0.6604  0.1198
 6362SOL    HW130722   0.698   2.215   8.485  0.4197  0.1569  1.3246
 6362SOL    HW230723   0.656   2.074   8.461 -0.5465  0.2329 -0.6059
 6363SOL     OW30724   3.319   2.922  10.869 -0.4271 -0.0527  0.2549
 6363SOL    HW130725   3.245   2.910  10.929  0.1873  0.1633  1.0569
 6363SOL    HW230726   3.284   2.974  10.797 -2.1499 -0.6047  0.6923
 6364SOL     OW30727   4.611   3.137   1.290  0.4569 -0.2794 -0.0020
 6364SOL    HW130728   4.542   3.141   1.357 -0.6621  0.0819 -1.1933
 6364SOL    HW230729   4.664   3.077   1.342  0.0966 -0.5666  0.0344
 6365SOL     OW30730   4.299   2.451   3.780 -0.2083  0.3268  0.0788
 6365SOL    HW130731   4.231   2.385   3.768  1.9209 -2.0706  1.2677
 6365SOL    HW230732   4.365   2.411   3.724 -0.4607 -0.0252  0.0323
 6366SOL     OW30733   1.688   4.314  14.755  0.2109  0.1059  0.0037
 6366SOL    HW130734   1.718   4.398  14.791 -1.7269  0.6628  0.3593
 6366SOL    HW230735   1.615   4.291  14.814  0.2678  0.5570  0.2485
 6367SOL     OW30736   2.542   0.111   7.551 -0.9243  0.1200  0.0928
 6367SOL    HW130737   2.531   0.016   7.542  0.3496 -0.0354  0.2526
 6367SOL    HW230738   2.458   0.129   7.593 -1.0932  1.5769 -0.8730
 6368SOL     OW30739   1.511   4.124   7.681 -0.2173  0.2949 -0.8300
 6368SOL    HW130740   1.418   4.121   7.702 -0.0740  0.7007 -0.1423
 6368SOL    HW230741   1.554   4.066   7.745 -1.7907 -0.2723 -0.2788
 6369SOL     OW30742   4.525   3.364  16.663 -0.0920 -0.0973  0.0311
 6369SOL    HW130743   4.479   3.395  16.586 -0.1405 -1.4533 -0.4892
 6369SOL    HW230744   4.464   3.355  16.737  0.2812  0.0174  0.3579
 6370SOL     OW30745   4.628   0.149   3.686  0.0699  0.2135  0.4565
 6370SOL    HW130746   4.608   0.062   3.652  0.5346  1.1765 -2.2544
 6370SOL    HW230747   4.724   0.148   3.688  0.0509 -3.6621  1.0054
 6371SOL     OW30748   0.897   1.823   5.255  0.0760  0.0074 -0.2516
 6371SOL    HW130749   0.986   1.852   5.236  1.2675 -3.5275 -0.0902
 6371SOL    HW230750   0.907   1.753   5.319  0.0614  0.7301  0.5300
 6372SOL     OW30751   4.171   3.918  10.635 -0.2292  0.0385  0.1220
 6372SOL    HW130752   4.216   3.921  10.551 -0.7514  1.5727 -0.1065
 6372SOL    HW230753   4.206   3.991  10.685  1.2988 -1.9849  2.0239
 6373SOL     OW30754   0.451   3.029   6.696  0.4060  0.3147  0.1132
 6373SOL    HW130755   0.430   3.107   6.645 -1.0571 -1.3952 -1.9382
 6373SOL    HW230756   0.536   3.040   6.738  0.4477  0.5263 -0.0245
 6374SOL     OW30757   0.395   2.758   3.247 -0.0339 -0.4597 -0.6111
 6374SOL    HW130758   0.469   2.815   3.263  0.0602 -1.2484  1.7919
 6374SOL    HW230759   0.403   2.774   3.153 -1.3068 -0.3576 -0.7066
 6375SOL     OW30760   3.494   4.568   8.467  0.3154 -0.3535 -0.7943
 6375SOL    HW130761   3.409   4.532   8.443  0.4275 -1.4898  0.5442
 6375SOL    HW230762   3.557   4.505   8.432 -0.1608 -1.3631  0.1659
 6376SOL     OW30763   4.056   4.371   8.000  0.4361 -0.0483  0.2697
 6376SOL    HW130764   4.131   4.414   8.041  1.0591 -0.8428 -0.0618
 6376SOL    HW230765   4.086   4.282   7.985  2.5570  0.8672 -0.8490
 6377SOL     OW30766   2.881   1.690   4.950  0.1620  0.2328 -0.1788
 6377SOL    HW130767   2.836   1.696   4.865 -1.5827  0.5040  0.7542
 6377SOL    HW230768   2.955   1.633   4.934 -0.6765 -0.3179 -2.1691
 6378SOL     OW30769   0.734   2.596   5.345  0.7969  0.0460 -0.2975
 6378SOL    HW130770   0.657   2.630   5.299 -0.5119 -3.1517 -0.4763
 6378SOL    HW230771   0.754   2.523   5.286  0.0379  0.0837 -0.6013
 6379SOL     OW30772   2.938   4.574  15.848 -0.1269 -0.2936 -0.3536
 6379SOL    HW130773   2.920   4.665  15.823 -1.4102 -0.3531  0.3514
 6379SOL    HW230774   2.865   4.540  15.900 -0.0849  1.2859  0.7345
 6380SOL     OW30775   3.776   3.565   7.983 -0.8456 -0.5857  0.1643
 6380SOL    HW130776   3.734   3.633   8.035 -1.5014 -1.1183  0.3332
 6380SOL    HW230777   3.772   3.609   7.898 -1.6239  0.0551  0.5314
 6381SOL     OW30778   4.458   4.229   4.191  0.1045  0.1929  0.5647
 6381SOL    HW130779   4.546   4.192   4.189 -0.9163 -2.2130 -0.0558
 6381SOL    HW230780   4.409   4.158   4.233  0.2484  0.4272  1.1276
 6382SOL     OW30781   2.156   0.486  15.729  0.4840  0.1636 -0.2925
 6382SOL    HW130782   2.122   0.565  15.686  1.2673 -0.7397 -2.5672
 6382SOL    HW230783   2.221   0.467  15.661  1.5464  0.9722  0.5039
 6383SOL     OW30784   2.433   3.173   6.169  0.0084  0.1442 -0.4931
 6383SOL    HW130785   2.418   3.242   6.234 -0.6859 -0.7476  0.2938
 6383SOL    HW230786   2.385   3.209   6.095 -1.8463 -1.2864  0.0013
 6384SOL     OW30787   3.918   3.148  13.649  0.1089 -0.4407  0.2515
 6384SOL    HW130788   3.993   3.122  13.703 -0.7590 -0.7554  1.3126
 6384SOL    HW230789   3.964   3.154  13.565  2.7358 -1.9163  1.5712
 6385SOL     OW30790   2.922   3.133   2.367 -0.3025  0.6522  0.1811
 6385SOL    HW130791   2.866   3.080   2.424 -0.8053  1.1051  0.1094
 6385SOL    HW230792   2.946   3.213   2.414 -3.3684  1.4028  0.5108
 6386SOL     OW30793   3.370   0.644   1.521 -0.5179 -0.4069  0.5810
 6386SOL    HW130794   3.418   0.715   1.563  0.2241 -1.2817  1.2221
 6386SOL    HW230795   3.311   0.615   1.591  0.4500  0.7909  1.8882
 6387SOL     OW30796   0.026   2.977  16.622 -0.4240  0.3359 -0.0728
 6387SOL    HW130797   0.037   2.893  16.666  0.4867  1.9801  2.8454
 6387SOL    HW230798   4.707   2.950  16.552 -0.8820  1.6857 -0.2075
 6388SOL     OW30799   0.450   2.941   5.052 -0.0584 -0.1323 -0.3266
 6388SOL    HW130800   0.362   2.977   5.044  0.2756  0.3565 -1.8066
 6388SOL    HW230801   0.501   3.020   5.032 -1.0002  0.3022 -1.0070
 6389SOL     OW30802   3.763   4.331   7.186  0.1305 -0.1997  0.0074
 6389SOL    HW130803   3.681   4.352   7.231  0.3167 -0.1384  0.3238
 6389SOL    HW230804   3.756   4.394   7.115  0.4271 -0.9140 -0.6490
 6390SOL     OW30805   0.508   1.346  12.894  0.3066  0.0460 -0.4355
 6390SOL    HW130806   0.567   1.405  12.847  1.5482 -1.9856 -1.4074
 6390SOL    HW230807   0.491   1.272  12.836  1.2590 -0.4618 -0.0687
 6391SOL     OW30808   1.417   1.248  13.314 -0.0221  0.2170 -0.2940
 6391SOL    HW130809   1.447   1.316  13.374 -0.0305 -0.9069  0.9758
 6391SOL    HW230810   1.442   1.174  13.370 -0.3750  1.0656  0.9655
 6392SOL     OW30811   0.520   3.334   0.237 -0.4222  0.2152 -0.5718
 6392SOL    HW130812   0.443   3.297   0.194 -0.0265  1.5528 -2.4407
 6392SOL    HW230813   0.563   3.260   0.281 -0.9840  0.0537 -0.2878
 6393SOL     OW30814   4.592   3.991   8.097  0.2341 -0.5892  0.5122
 6393SOL    HW130815   4.557   4.066   8.049 -0.9970 -1.3277  0.2559
 6393SOL    HW230816   4.539   3.918   8.063 -0.6148  0.8879 -1.3288
 6394SOL     OW30817   3.152   1.133  11.978  0.1128  0.0241 -0.1254
 6394SOL    HW130818   3.242   1.162  11.960 -0.8413  3.4446  0.5875
 6394SOL    HW230819   3.109   1.218  11.983 -1.1190 -0.5697 -0.7417
 6395SOL     OW30820   3.369   0.308   3.342  0.4874  0.1543 -0.1030
 6395SOL    HW130821   3.407   0.371   3.403 -0.8391  1.7589 -0.9370
 6395SOL    HW230822   3.350   0.365   3.267  0.6431 -1.2602 -1.2292
 6396SOL     OW30823   1.806   2.242  12.657  0.3310  0.0952 -0.3009
 6396SOL    HW130824   1.754   2.163  12.640  0.2568 -0.3557  1.9382
 6396SOL    HW230825   1.865   2.213  12.728 -2.4352 -0.6218  1.7085
 6397SOL     OW30826   3.773   3.975   9.649  0.5323 -0.4150  0.4285
 6397SOL    HW130827   3.755   3.882   9.630 -1.7155 -0.2227  1.6434
 6397SOL    HW230828   3.753   3.970   9.742 -1.9281  1.3568  0.0036
 6398SOL     OW30829   0.770   1.254   2.823 -0.2860 -0.2560  0.1536
 6398SOL    HW130830   0.699   1.308   2.787  0.8502  0.0756 -1.5635
 6398SOL    HW230831   0.850   1.297   2.794  0.4769 -2.6296 -1.2226
 6399SOL     OW30832   4.676   0.097   9.431  0.5048 -0.2788 -0.1671
 6399SOL    HW130833   4.733   0.027   9.462  0.1245 -0.0965  0.9330
 6399SOL    HW230834   4.590   0.065   9.459 -0.2567  1.9724  0.1063
 6400SOL     OW30835   1.423   1.235  12.175 -0.3644  0.6736 -0.4656
 6400SOL    HW130836   1.518   1.246  12.175 -0.4190  1.1202  1.8527
 6400SOL    HW230837   1.416   1.141  12.194 -1.2259  0.5804 -1.2538
 6401SOL     OW30838   2.354   1.534  15.254  0.0392 -0.1481  0.1876
 6401SOL    HW130839   2.286   1.593  15.220  0.1208  0.7344  1.5538
 6401SOL    HW230840   2.340   1.454  15.205  2.7017 -0.0360 -0.7534
 6402SOL     OW30841   2.945   1.161  13.247 -0.0103  0.5208 -0.1670
 6402SOL    HW130842   3.021   1.153  13.189  0.3799  0.0614  0.4089
 6402SOL    HW230843   2.919   1.251  13.227 -2.3309 -0.0414  0.3224
 6403SOL     OW30844   2.225   0.743   8.833  0.1719 -0.4138 -0.0126
 6403SOL    HW130845   2.164   0.701   8.773  0.6389  1.4225 -1.7942
 6403SOL    HW230846   2.244   0.826   8.788 -1.7027  0.6200  1.1230
 6404SOL     OW30847   0.852   2.872   5.645 -0.2505 -0.3749 -0.0231
 6404SOL    HW130848   0.828   2.876   5.738 -1.2571  1.2006 -0.3453
 6404SOL    HW230849   0.786   2.814   5.608  0.4835  0.0281 -1.9610
 6405SOL     OW30850   4.073   1.073   8.220 -0.3017  0.6102  0.1623
 6405SOL    HW130851   4.073   0.991   8.170 -2.0737  0.0262  1.1330
 6405SOL    HW230852   4.168   1.089   8.221 -0.1756 -0.1442  0.4964
 6406SOL     OW30853   4.280   3.821   3.030 -0.6299  0.6278 -0.0712
 6406SOL    HW130854   4.223   3.886   3.071 -1.0929  0.2288 -0.0845
 6406SOL    HW230855   4.223   3.771   2.971  1.4365 -1.3774 -0.3449
 6407SOL     OW30856   0.409   1.235   2.286 -0.0668 -0.3065 -0.0484
 6407SOL    HW130857   0.370   1.193   2.209 -1.2003 -3.0729  2.0201
 6407SOL    HW230858   0.338   1.218   2.348  0.7246 -2.1378  0.3455
 6408SOL     OW30859   2.877   3.755   1.926 -0.1340 -0.1463  0.5218
 6408SOL    HW130860   2.884   3.758   2.021 -0.5283 -0.5877  0.5702
 6408SOL    HW230861   2.928   3.830   1.898 -0.7612  0.6736  1.5783
 6409SOL     OW30862   0.897   0.017   2.123 -0.5588 -0.0360  0.0982
 6409SOL    HW130863   0.908   4.662   2.128  0.8774 -0.0092 -2.6692
 6409SOL    HW230864   0.922   0.045   2.211 -1.2448  0.9459 -0.0284
 6410SOL     OW30865   0.675   0.691   3.658 -0.0920  0.1691 -0.5911
 6410SOL    HW130866   0.722   0.676   3.576  0.6176 -1.2264  0.0580
 6410SOL    HW230867   0.651   0.600   3.677  2.2312 -0.0283  1.3440
 6411SOL     OW30868   3.810   1.937   8.255 -0.5873  0.0355  0.0523
 6411SOL    HW130869   3.744   1.938   8.186 -2.0898 -2.5400  1.4531
 6411SOL    HW230870   3.767   1.978   8.329 -0.3460 -1.6352  1.1184
 6412SOL     OW30871   1.184   3.300   8.261  0.1965  0.0611 -0.2205
 6412SOL    HW130872   1.201   3.280   8.353  2.0981 -0.3333 -0.6710
 6412SOL    HW230873   1.108   3.358   8.274  0.6643  0.5056  0.4792
 6413SOL     OW30874   0.564   2.039   2.308 -0.0566  0.1277  0.1105
 6413SOL    HW130875   0.493   2.082   2.355 -1.1952  0.8497 -2.3206
 6413SOL    HW230876   0.598   1.996   2.387  1.1082  0.8874  0.0272
 6414SOL     OW30877   3.227   1.524  10.015 -0.4222  0.0613  0.0731
 6414SOL    HW130878   3.300   1.475   9.978 -2.1908 -3.2597  0.9699
 6414SOL    HW230879   3.202   1.463  10.084 -1.2392  0.9816  0.5828
 6415SOL     OW30880   4.466   4.117  11.613  0.1603  0.0921 -0.2838
 6415SOL    HW130881   4.515   4.058  11.556  0.6589  0.4285 -0.2080
 6415SOL    HW230882   4.479   4.197  11.562 -1.7762 -0.5237 -1.7529
 6416SOL     OW30883   2.434   3.282  12.161 -0.6533 -0.8769  0.4294
 6416SOL    HW130884   2.439   3.374  12.187  0.1110 -1.3733  2.0403
 6416SOL    HW230885   2.527   3.264  12.147 -0.2061  1.9844 -0.2888
 6417SOL     OW30886   1.388   2.323   8.101  0.0414 -0.2376  0.2965
 6417SOL    HW130887   1.314   2.309   8.160 -0.8765  0.5019 -0.6799
 6417SOL    HW230888   1.432   2.238   8.096 -0.2652 -0.4266  0.8163
 6418SOL     OW30889   3.319   3.283  13.917  0.1591 -1.0276 -0.1543
 6418SOL    HW130890   3.387   3.348  13.903 -2.0525  1.3339 -0.0779
 6418SOL    HW230891   3.359   3.198  13.902  0.3806 -0.8925 -0.3267
 6419SOL     OW30892   0.742   2.991  10.306 -0.0084  0.4095 -0.3440
 6419SOL    HW130893   0.753   3.083  10.282 -0.9679 -0.0432 -2.5670
 6419SOL    HW230894   0.831   2.960  10.323  0.5263  2.3564  0.2984
 6420SOL     OW30895   3.857   0.526  12.573  0.0286  0.5019 -0.1824
 6420SOL    HW130896   3.837   0.499  12.663 -0.9652 -0.2131 -0.6298
 6420SOL    HW230897   3.779   0.563  12.531 -0.4151 -0.0403  0.1705
 6421SOL     OW30898   1.175   0.450  16.391 -0.0023  0.3433  0.6275
 6421SOL    HW130899   1.249   0.394  16.415  0.6606  0.1378 -1.8394
 6421SOL    HW230900   1.218   0.523  16.346  2.4142 -0.7259  1.1891
 6422SOL     OW30901   2.239   2.194  12.528 -0.5473 -0.1803  0.5144
 6422SOL    HW130902   2.214   2.114  12.575 -0.2445  0.4851  1.7849
 6422SOL    HW230903   2.160   2.215  12.477 -0.8428 -0.0198  1.0388
 6423SOL     OW30904   2.569   1.440   2.622  0.2209 -0.1412 -0.3294
 6423SOL    HW130905   2.590   1.477   2.537  1.8098  3.3767  1.6376
 6423SOL    HW230906   2.474   1.452   2.627  0.1617 -2.1424  3.5302
 6424SOL     OW30907   1.973   2.341   6.592  0.6987 -0.2693  0.4313
 6424SOL    HW130908   1.949   2.291   6.515  2.3200  1.3849 -1.1517
 6424SOL    HW230909   1.963   2.432   6.565  2.1971  0.1945  1.4062
 6425SOL     OW30910   0.416   3.875   3.762 -0.0571 -0.5461 -0.1670
 6425SOL    HW130911   0.454   3.788   3.760 -0.8223 -0.8926  0.3081
 6425SOL    HW230912   0.473   3.924   3.822 -1.2770 -0.2257  0.7253
 6426SOL     OW30913   2.434   3.300   7.072  0.2487 -0.3174  0.5470
 6426SOL    HW130914   2.429   3.293   6.977 -0.5020  1.8642  0.4252
 6426SOL    HW230915   2.525   3.328   7.080  0.1615  0.8957 -3.0767
 6427SOL     OW30916   0.438   3.509   2.583 -0.3372  0.0883  0.2886
 6427SOL    HW130917   0.389   3.472   2.509 -1.0282 -1.7937  1.6792
 6427SOL    HW230918   0.411   3.601   2.573  1.6632  0.8838  2.3952
 6428SOL     OW30919   4.140   1.750   5.278 -0.3398  0.4454 -0.2007
 6428SOL    HW130920   4.090   1.668   5.281  1.0990 -0.4604 -0.4842
 6428SOL    HW230921   4.228   1.712   5.290 -1.0526 -1.3352 -0.5758
 6429SOL     OW30922   1.925   4.537   3.646 -0.6672  0.4736 -0.3564
 6429SOL    HW130923   1.974   4.460   3.674 -0.9693  0.4664  0.1501
 6429SOL    HW230924   1.970   4.616   3.678 -1.3550  0.0387  1.6476
 6430SOL     OW30925   0.327   0.811   1.027  0.0298 -0.5463 -0.1482
 6430SOL    HW130926   0.355   0.880   0.967  1.5783 -1.1755 -0.1456
 6430SOL    HW230927   0.412   0.781   1.061 -0.5061 -1.3403  0.4840
 6431SOL     OW30928   0.640   1.816   2.793  0.1371 -0.1711 -0.3381
 6431SOL    HW130929   0.714   1.755   2.801  0.3283 -0.1193 -1.6343
 6431SOL    HW230930   0.576   1.777   2.852  0.9878 -0.0288  0.6752
 6432SOL     OW30931   4.702   0.603   6.378  0.1547 -0.1073  0.4705
 6432SOL    HW130932   4.671   0.609   6.469  3.1036 -0.8410  1.5349
 6432SOL    HW230933   4.619   0.622   6.334  0.0777  2.7765  1.8084
 6433SOL     OW30934   1.857   0.740   2.384  0.3064 -0.2851 -0.2975
 6433SOL    HW130935   1.883   0.700   2.467 -1.8383  0.1015  0.5598
 6433SOL    HW230936   1.785   0.684   2.355 -0.4313  1.3227 -1.5595
 6434SOL     OW30937   1.009   3.666   8.703 -0.1571 -0.1326 -0.2628
 6434SOL    HW130938   1.032   3.582   8.743 -1.8792  0.7217  2.5721
 6434SOL    HW230939   1.031   3.730   8.771 -1.0560 -0.2202  0.1232
 6435SOL     OW30940   0.658   1.256   5.345 -0.0710 -0.3247  0.0571
 6435SOL    HW130941   0.709   1.323   5.393  1.1625  0.7358 -2.7181
 6435SOL    HW230942   0.588   1.316   5.320  1.0811  0.6639 -0.8430
 6436SOL     OW30943   4.734   0.584   5.894  0.0618 -0.1327  0.3619
 6436SOL    HW130944   4.737   0.501   5.942 -1.0522 -0.1378  0.4283
 6436SOL    HW230945   0.088   0.597   5.880  0.6301 -1.8912  2.4688
 6437SOL     OW30946   1.859   4.162  16.561  0.8373 -0.0501 -0.7621
 6437SOL    HW130947   1.885   4.079  16.521  0.7802  0.0040 -0.9113
 6437SOL    HW230948   1.947   4.199  16.566 -0.3454  2.7837 -0.6369
 6438SOL     OW30949   0.570   1.339   1.941  0.0627  0.0371  0.5302
 6438SOL    HW130950   0.516   1.301   2.009  0.9249 -0.9163  0.6795
 6438SOL    HW230951   0.640   1.274   1.933  0.1770  0.4174 -1.8299
 6439SOL     OW30952   1.247   3.893   1.180  0.4466 -0.8778  0.2122
 6439SOL    HW130953   1.172   3.859   1.131  0.8259 -1.7312  0.2203
 6439SOL    HW230954   1.267   3.817   1.235 -1.0898 -0.1275  1.8017
 6440SOL     OW30955   1.667   0.739   6.603 -0.2491  0.4784  0.2697
 6440SOL    HW130956   1.601   0.670   6.617 -0.7060  0.6651 -0.9899
 6440SOL    HW230957   1.750   0.691   6.598 -0.0402  1.2471 -3.8459
 6441SOL     OW30958   4.438   1.147   9.266  0.6423 -0.2902 -0.1481
 6441SOL    HW130959   4.502   1.182   9.204 -0.0999 -0.6827 -1.1388
 6441SOL    HW230960   4.402   1.217   9.319  0.9360 -0.9141  0.8781
 6442SOL     OW30961   4.489   3.522   8.891 -0.0953 -0.7826  0.1677
 6442SOL    HW130962   4.498   3.611   8.858 -0.3456 -0.4326  1.0445
 6442SOL    HW230963   4.403   3.526   8.934  0.3923 -0.2332  1.1010
 6443SOL     OW30964   2.586   2.395   9.244 -0.1860  0.5543  0.2384
 6443SOL    HW130965   2.522   2.325   9.232  2.2025 -1.3390 -1.4023
 6443SOL    HW230966   2.568   2.411   9.336 -1.6699 -0.3218  0.0950
 6444SOL     OW30967   0.132   4.658   9.526 -0.4188  0.1989 -0.7018
 6444SOL    HW130968   0.154   4.665   9.619 -0.1204 -1.0558 -0.6852
 6444SOL    HW230969   0.158   4.572   9.494  0.4900 -0.5389  1.9673
 6445SOL     OW30970   2.267   3.177   7.858  0.4104 -0.1981 -0.6344
 6445SOL    HW130971   2.198   3.240   7.835  1.0780  1.9303  3.0955
 6445SOL    HW230972   2.215   3.104   7.892 -2.3943  1.8803 -0.3760
 6446SOL     OW30973   0.701   1.675   5.597  0.6974 -0.4638 -0.6407
 6446SOL    HW130974   0.751   1.739   5.547 -0.5801 -0.2239 -1.6240
 6446SOL    HW230975   0.630   1.657   5.535  1.2233 -0.1170 -1.3392
 6447SOL     OW30976   4.374   3.195   7.788  0.4476 -0.0608 -0.0352
 6447SOL    HW130977   4.321   3.268   7.818  2.5914  1.0507  1.0576
 6447SOL    HW230978   4.350   3.125   7.849  0.5576 -0.4462 -0.4312
 6448SOL     OW30979   0.359   2.260   9.043 -0.6591 -0.4949 -0.0665
 6448SOL    HW130980   0.432   2.320   9.031  0.0406 -1.1662  0.8900
 6448SOL    HW230981   0.368   2.205   8.965 -1.3025 -0.5730 -0.0933
 6449SOL     OW30982   4.006   2.744  11.327  0.4709  0.0362 -0.1045
 6449SOL    HW130983   4.020   2.660  11.282  1.7655  0.5089 -0.5962
 6449SOL    HW230984   3.921   2.767  11.290  1.1839  3.5602  0.4390
 6450SOL     OW30985   2.766   1.576  16.028  0.0867  0.1844  0.1175
 6450SOL    HW130986   2.679   1.599  16.061  1.0081  1.6576  1.4862
 6450SOL    HW230987   2.819   1.605  16.103  1.2833 -1.8629  0.0675
 6451SOL     OW30988   3.313   4.112   3.108  0.0691 -0.3138 -0.9052
 6451SOL    HW130989   3.284   4.038   3.056  2.6463 -3.5849  2.2878
 6451SOL    HW230990   3.382   4.072   3.162 -0.6161 -0.4933 -0.1618
 6452SOL     OW30991   2.699   0.873   2.153  0.2411  0.2092  0.1619
 6452SOL    HW130992   2.668   0.804   2.094  0.8226  0.3331 -0.2930
 6452SOL    HW230993   2.616   0.908   2.187  1.2139  1.8516  0.8443
 6453SOL     OW30994   1.591   0.665   9.811 -0.4173  0.0634  0.3485
 6453SOL    HW130995   1.582   0.748   9.763 -2.8258  0.5825  1.6822
 6453SOL    HW230996   1.686   0.654   9.808 -0.6602 -2.0268  0.5643
 6454SOL     OW30997   2.219   4.527  11.845  0.4768  0.5329  0.2501
 6454SOL    HW130998   2.254   4.615  11.826  0.1033  0.4872 -0.6577
 6454SOL    HW230999   2.252   4.507  11.932  0.2113  1.8345  0.6541
 6455SOL     OW31000   3.633   2.643  15.215 -0.2805  0.5053 -0.0690
 6455SOL    HW131001   3.584   2.645  15.132  0.8888 -1.2967 -0.8001
 6455SOL    HW231002   3.568   2.606  15.275 -0.1270 -0.6297 -0.5849
 6456SOL     OW31003   1.446   2.951   3.044  0.3770  0.2574  0.0621
 6456SOL    HW131004   1.467   2.859   3.055  1.2997  0.2990 -1.3664
 6456SOL    HW231005   1.407   2.964   3.131 -0.3335 -0.0715 -0.2091
 6457SOL     OW31006   0.274   4.569  15.428 -0.0261  0.3949 -0.1991
 6457SOL    HW131007   0.258   4.497  15.367 -0.2046 -1.2814  1.8338
 6457SOL    HW231008   0.237   4.645  15.383 -1.6213 -0.6601 -0.6874
 6458SOL     OW31009   1.095   3.808   2.490 -0.2488  0.2121  0.2612
 6458SOL    HW131010   1.021   3.857   2.454 -2.6141 -3.0768  0.6694
 6458SOL    HW231011   1.140   3.885   2.524  0.9116  0.5286 -1.9990
 6459SOL     OW31012   1.256   3.370   2.570  0.3464  0.1518  0.0761
 6459SOL    HW131013   1.284   3.317   2.496 -0.8709  0.7409 -0.8045
 6459SOL    HW231014   1.271   3.320   2.650 -1.4771 -0.4496  0.0275
 6460SOL     OW31015   0.105   0.571   8.483  0.2243  0.8987  0.8665
 6460SOL    HW131016   0.035   0.586   8.547 -1.3870 -3.3478  0.1238
 6460SOL    HW231017   0.181   0.569   8.541  1.8331 -1.2018 -1.3331
 6461SOL     OW31018   2.524   1.098  16.787 -0.5991 -0.1054 -0.0773
 6461SOL    HW131019   2.616   1.125  16.781 -0.6750 -0.0107 -0.7449
 6461SOL    HW231020   2.531   1.041  16.711 -1.1316  0.6033 -0.6544
 6462SOL     OW31021   3.105   0.755   2.293  0.2588  0.1615 -0.5220
 6462SOL    HW131022   3.098   0.840   2.250  1.0462  0.1948 -0.5977
 6462SOL    HW231023   3.013   0.731   2.304  0.5414 -0.3958  0.6437
 6463SOL     OW31024   2.592   3.490   2.889 -0.3933  0.1378 -0.4106
 6463SOL    HW131025   2.648   3.463   2.816 -0.2234  0.9221 -0.5681
 6463SOL    HW231026   2.660   3.489   2.956  2.5917  0.1894 -3.4457
 6464SOL     OW31027   1.966   4.223   1.415  0.1643 -0.0845  0.1235
 6464SOL    HW131028   1.891   4.164   1.425  1.9529 -2.4038 -0.1055
 6464SOL    HW231029   1.927   4.280   1.349  0.8838 -2.1703 -2.1137
 6465SOL     OW31030   4.271   0.905   8.569 -0.3245  0.2688 -0.2749
 6465SOL    HW131031   4.293   0.869   8.655  1.3538  1.4638 -0.1953
 6465SOL    HW231032   4.248   0.829   8.515  0.8291 -0.7688  0.6990
 6466SOL     OW31033   0.650   3.131   4.974 -0.2299  1.0512 -0.1198
 6466SOL    HW131034   0.697   3.164   5.051  0.2219  0.2793 -0.0655
 6466SOL    HW231035   0.658   3.206   4.915 -2.9419 -0.4843 -2.4431
 6467SOL     OW31036   2.613   1.666   5.607  0.0718  0.3910  0.5152
 6467SOL    HW131037   2.634   1.719   5.684 -2.4117  0.7622  0.9219
 6467SOL    HW231038   2.635   1.730   5.539  0.1261 -1.7038 -1.4089
 6468SOL     OW31039   4.666   1.475   9.377 -0.0686 -0.1758  0.1753
 6468SOL    HW131040   4.667   1.571   9.378  2.3680 -0.2245  0.4171
 6468SOL    HW231041   4.576   1.460   9.346 -0.7024  0.7274  1.5525
 6469SOL     OW31042   4.318   2.577   2.670 -0.0748 -0.0308 -0.4330
 6469SOL    HW131043   4.269   2.499   2.643 -0.0775 -0.2273  0.1359
 6469SOL    HW231044   4.278   2.588   2.756  3.3189  0.1504  1.1245
 6470SOL     OW31045   3.550   1.720   4.220 -0.7434 -0.1580  0.1055
 6470SOL    HW131046   3.623   1.774   4.251  0.2084 -1.2754 -0.1983
 6470SOL    HW231047   3.493   1.702   4.295  2.0346 -0.4894  2.1240
 6471SOL     OW31048   4.111   0.897   7.271  0.5778  0.0164  0.3999
 6471SOL    HW131049   4.116   0.802   7.284 -0.2985 -0.2095 -0.8761
 6471SOL    HW231050   4.093   0.926   7.360  1.1421  1.0984  0.1559
 6472SOL     OW31051   3.262   1.162   9.367  0.5243 -0.0539  0.0340
 6472SOL    HW131052   3.179   1.123   9.339  0.6538 -0.9399  0.8768
 6472SOL    HW231053   3.317   1.086   9.389 -0.2699 -0.7230 -0.2887
 6473SOL     OW31054   0.080   0.942   9.484  0.5367 -0.2199 -0.0242
 6473SOL    HW131055   4.735   0.945   9.440  1.0646 -3.7718 -1.3084
 6473SOL    HW231056   0.121   1.025   9.462 -0.2388 -0.2238 -1.4835
 6474SOL     OW31057   3.487   2.685   3.202 -0.1318  0.2026  0.2197
 6474SOL    HW131058   3.477   2.642   3.117  0.4207  0.4307  0.0391
 6474SOL    HW231059   3.469   2.618   3.268  0.7583  1.1609  1.4192
 6475SOL     OW31060   3.159   0.161   0.956  0.3831 -0.1854 -0.2530
 6475SOL    HW131061   3.246   0.166   0.996 -0.6127 -0.3595  1.9303
 6475SOL    HW231062   3.182   0.107   0.881  0.1534 -1.0305  0.2813
 6476SOL     OW31063   0.842   1.655   3.402  0.3015  0.4104 -0.2814
 6476SOL    HW131064   0.847   1.709   3.323  0.3515 -0.7655 -1.0839
 6476SOL    HW231065   0.761   1.609   3.377  0.7420 -0.4929 -0.0601
 6477SOL     OW31066   0.518   3.552   8.204 -0.3053 -1.0311  0.3815
 6477SOL    HW131067   0.431   3.517   8.222 -0.5053 -1.2913 -1.1146
 6477SOL    HW231068   0.535   3.526   8.114  2.2015  0.3190  0.4548
 6478SOL     OW31069   2.384   3.989   1.256  0.4019  0.5381  0.4444
 6478SOL    HW131070   2.369   4.035   1.339 -2.6853 -0.2850  0.3710
 6478SOL    HW231071   2.479   3.997   1.254  0.4470  0.2572  1.3445
 6479SOL     OW31072   1.002   0.564   0.321 -0.4152 -0.7723  0.4257
 6479SOL    HW131073   0.976   0.643   0.274  4.0262 -0.4252 -1.5051
 6479SOL    HW231074   1.088   0.542   0.284 -0.4386 -0.4099  0.1548
 6480SOL     OW31075   0.381   1.986   2.987 -0.0588 -0.3077  0.2981
 6480SOL    HW131076   0.342   2.014   2.904 -0.6166  0.0727  0.6844
 6480SOL    HW231077   0.313   1.926   3.019  0.0833  0.4181  1.9285
 6481SOL     OW31078   0.562   1.681   7.224  0.1138  0.1088 -0.2352
 6481SOL    HW131079   0.523   1.740   7.160 -0.2998 -0.1809 -0.2523
 6481SOL    HW231080   0.651   1.714   7.228  0.8941 -1.7217 -2.2021
 6482SOL     OW31081   4.409   3.288  12.269  0.8732 -0.2318 -0.2433
 6482SOL    HW131082   4.331   3.278  12.324  1.6966  0.0672  1.0046
 6482SOL    HW231083   4.387   3.365  12.218 -1.4276 -1.0229 -0.4651
 6483SOL     OW31084   4.689   2.188  13.714  0.5043  0.4348 -0.2595
 6483SOL    HW131085   4.673   2.281  13.735  0.6443  0.1377  1.1930
 6483SOL    HW231086   0.026   2.194  13.659  0.8676 -1.0560  0.1021
 6484SOL     OW31087   0.548   3.426   5.976  0.1746  0.6111  0.0420
 6484SOL    HW131088   0.617   3.482   6.011 -2.3060  1.7968  3.0228
 6484SOL    HW231089   0.467   3.476   5.988  1.0976  2.4428 -1.4352
 6485SOL     OW31090   3.570   3.799   3.430  0.6710 -0.4292  0.1388
 6485SOL    HW131091   3.591   3.711   3.463 -0.7626 -0.7493  0.2123
 6485SOL    HW231092   3.503   3.815   3.496 -0.4992 -1.0968 -0.8828
 6486SOL     OW31093   0.615   1.956   4.446 -0.1169  1.0357 -0.0235
 6486SOL    HW131094   0.539   1.945   4.389  0.1102  0.8711 -0.2940
 6486SOL    HW231095   0.571   1.958   4.531 -0.8013  0.0081 -0.3456
 6487SOL     OW31096   2.467   4.579   4.051  0.7607  0.7468  0.9330
 6487SOL    HW131097   2.505   4.550   3.968  0.0565  2.3816  0.0332
 6487SOL    HW231098   2.515   4.662   4.059  0.3869  1.0554 -0.0115
 6488SOL     OW31099   2.882   1.815   8.772 -0.2372  0.0846  0.5637
 6488SOL    HW131100   2.809   1.805   8.832 -0.2139 -0.1075  0.5609
 6488SOL    HW231101   2.944   1.761   8.822  1.0953  0.3502 -0.7874
 6489SOL     OW31102   0.718   2.115   7.153 -0.0216 -0.2714 -0.6424
 6489SOL    HW131103   0.712   2.189   7.214 -0.3741 -1.3460  0.6269
 6489SOL    HW231104   0.771   2.151   7.083  1.1763 -0.8962 -0.0499
 6490SOL     OW31105   2.014   4.132  13.439 -0.7992 -0.3496  0.4744
 6490SOL    HW131106   2.047   4.066  13.500  0.7374 -0.3906 -0.3912
 6490SOL    HW231107   2.029   4.073  13.366 -1.4403 -1.9688  1.6470
 6491SOL     OW31108   1.075   1.383   5.172  0.1065 -0.4315 -0.9486
 6491SOL    HW131109   1.067   1.465   5.123  1.4689  0.1261 -0.2376
 6491SOL    HW231110   1.094   1.316   5.107  0.3655 -2.4777  1.2399
 6492SOL     OW31111   4.730   1.367   8.174 -0.9178  0.0796  0.0379
 6492SOL    HW131112   4.739   1.459   8.149  1.1727  0.6077  2.7706
 6492SOL    HW231113   0.075   1.325   8.174 -0.5929  0.7462 -0.0882
 6493SOL     OW31114   0.177   2.501   7.471 -0.1111 -0.5048 -0.0418
 6493SOL    HW131115   0.091   2.494   7.513 -0.3776  3.0980  0.0244
 6493SOL    HW231116   0.227   2.536   7.545 -0.1904 -0.8080  0.1545
 6494SOL     OW31117   2.091   2.312  16.974 -0.0925  0.0333 -0.1348
 6494SOL    HW131118   2.019   2.316  16.910  0.4520  2.0591 -0.5991
 6494SOL    HW231119   2.162   2.283  16.917 -1.2664 -1.7527 -0.7209
 6495SOL     OW31120   3.804   0.500   3.503  0.5344  0.1282  0.0607
 6495SOL    HW131121   3.837   0.582   3.467 -1.1236  1.0708  0.6734
 6495SOL    HW231122   3.840   0.434   3.443 -1.2446 -1.6005  0.8778
 6496SOL     OW31123   3.037   2.795   6.072  0.3850 -0.0097  0.2889
 6496SOL    HW131124   2.999   2.758   6.152  1.4151 -0.6779  0.4793
 6496SOL    HW231125   3.041   2.716   6.018 -1.6953 -0.1019  0.2856
 6497SOL     OW31126   4.366   0.538   9.482  0.0842 -0.0305  0.6928
 6497SOL    HW131127   4.306   0.608   9.508 -0.2089  0.0925 -0.2911
 6497SOL    HW231128   4.395   0.501   9.565  2.2425  0.2450  0.0521
 6498SOL     OW31129   3.641   1.205   6.290 -0.2586  0.1161  0.1730
 6498SOL    HW131130   3.550   1.226   6.312 -0.5614  0.3680 -1.3314
 6498SOL    HW231131   3.660   1.151   6.367  1.1309 -0.9394 -0.9106
 6499SOL     OW31132   3.252   1.973   4.820  0.2923 -0.0456  0.3124
 6499SOL    HW131133   3.261   2.067   4.831 -2.3981  0.4060 -1.4663
 6499SOL    HW231134   3.324   1.951   4.760  0.1175 -1.3269  0.5753
 6500SOL     OW31135   3.210   0.299  13.422  0.2032  0.7217  0.4889
 6500SOL    HW131136   3.228   0.212  13.458  3.2387  1.2741  0.3001
 6500SOL    HW231137   3.138   0.325  13.480  0.2297  2.0421 -0.0624
 6501SOL     OW31138   3.856   2.654  15.365 -0.0536 -0.1115 -0.0498
 6501SOL    HW131139   3.888   2.574  15.323  0.4119  0.5600 -0.9974
 6501SOL    HW231140   3.773   2.662  15.318 -0.7979 -0.6571  1.1775
 6502SOL     OW31141   4.455   3.790   5.749 -0.4443  0.7941 -0.2165
 6502SOL    HW131142   4.521   3.761   5.811  1.6365 -0.1329 -2.8439
 6502SOL    HW231143   4.397   3.840   5.807 -0.6990 -0.1836  0.3716
 6503SOL     OW31144   0.181   1.369   8.986  0.0330 -0.3817  0.5188
 6503SOL    HW131145   0.174   1.404   9.074  1.6284 -1.0182  0.9107
 6503SOL    HW231146   0.260   1.315   8.993 -0.5644 -1.3869 -0.4515
 6504SOL     OW31147   1.853   1.293   9.437  0.0192  0.6797  0.3544
 6504SOL    HW131148   1.864   1.246   9.354  1.4665  0.3562  0.7361
 6504SOL    HW231149   1.764   1.264   9.459 -0.2120  0.6327 -0.6117
 6505SOL     OW31150   2.823   0.026  10.676 -0.5251 -0.8884 -0.3170
 6505SOL    HW131151   2.740   4.734  10.642  0.3732 -2.7791 -0.6982
 6505SOL    HW231152   2.875   4.708  10.620 -0.1011 -3.0913  2.3485
 6506SOL     OW31153   1.302   2.112   3.586  0.5454 -0.2620 -0.0748
 6506SOL    HW131154   1.239   2.172   3.626 -0.6564 -0.9509 -0.9336
 6506SOL    HW231155   1.275   2.030   3.628  1.8155  0.6247  2.5132
 6507SOL     OW31156   4.424   0.586   2.390  0.0588  0.1663 -0.0999
 6507SOL    HW131157   4.382   0.615   2.471  0.0365  1.4044 -0.5602
 6507SOL    HW231158   4.494   0.651   2.387 -0.3121  0.4665 -2.3714
 6508SOL     OW31159   4.479   4.178   5.582  0.5392  0.2601  0.2394
 6508SOL    HW131160   4.503   4.086   5.566  2.5929  0.8805 -0.2427
 6508SOL    HW231161   4.454   4.185   5.674 -2.5871 -1.4412 -0.4886
 6509SOL     OW31162   3.158   4.738   9.145  0.3968 -1.1806  0.0364
 6509SOL    HW131163   3.155   4.654   9.191 -0.5562 -0.3130  1.5816
 6509SOL    HW231164   3.223   4.720   9.078  1.5536  1.9605  0.3220
 6510SOL     OW31165   2.522   1.571   3.947 -0.4594 -0.2706  0.6182
 6510SOL    HW131166   2.434   1.600   3.922 -0.6336  0.2079  1.8208
 6510SOL    HW231167   2.548   1.649   3.995 -3.2246 -0.0628  1.8051
 6511SOL     OW31168   1.791   2.585   2.951 -0.3025  0.0161 -0.0940
 6511SOL    HW131169   1.811   2.677   2.966  0.3780 -0.1031 -0.2367
 6511SOL    HW231170   1.871   2.548   2.990 -0.5626  1.5323  1.8891
 6512SOL     OW31171   4.572   0.216   7.486 -0.3958 -0.3705 -0.6805
 6512SOL    HW131172   4.535   0.170   7.410  0.0707 -1.0724 -0.4777
 6512SOL    HW231173   4.651   0.254   7.448  0.6030 -2.8593 -1.1116
 6513SOL     OW31174   4.171   1.754   4.061  0.4127  0.5071 -0.4248
 6513SOL    HW131175   4.136   1.763   3.973 -1.4393 -0.8813  0.1674
 6513SOL    HW231176   4.196   1.844   4.081  3.8122 -0.0552 -2.1183
 6514SOL     OW31177   2.900   0.873   4.500 -0.1428 -0.2586  0.5544
 6514SOL    HW131178   2.924   0.790   4.460 -3.2431  0.3368 -2.4881
 6514SOL    HW231179   2.840   0.845   4.569 -0.9855 -1.5025 -0.7010
 6515SOL     OW31180   4.601   0.029  13.606 -0.1904 -0.1087  0.7845
 6515SOL    HW131181   4.688   0.008  13.641  0.8296 -0.9581 -2.2469
 6515SOL    HW231182   4.545   4.726  13.670  0.2298  0.2941  1.4213
 6516SOL     OW31183   4.569   4.490   2.621  0.4700  0.1558 -0.3133
 6516SOL    HW131184   4.514   4.567   2.640 -0.3764 -0.9198  1.6265
 6516SOL    HW231185   4.638   4.539   2.577  1.1610 -2.5355 -2.1859
 6517SOL     OW31186   1.954   1.902   7.699  1.2108  0.5666  0.4518
 6517SOL    HW131187   2.025   1.875   7.759 -0.2917 -1.5969  1.2671
 6517SOL    HW231188   1.903   1.955   7.759 -0.9641  0.5542 -1.4054
 6518SOL     OW31189   2.217   3.893   9.124  0.0799  0.3857 -0.1577
 6518SOL    HW131190   2.206   3.988   9.120  2.0352  0.6590  1.1405
 6518SOL    HW231191   2.157   3.871   9.052  1.3785 -1.4502 -0.6679
 6519SOL     OW31192   3.123   1.241   7.958  0.0533  0.2476 -0.0148
 6519SOL    HW131193   3.106   1.211   8.048 -1.0984  1.8307  0.2848
 6519SOL    HW231194   3.048   1.202   7.913 -0.3530 -0.5557  1.3286
 6520SOL     OW31195   0.233   4.244   8.449 -0.0584  0.6388  0.0246
 6520SOL    HW131196   0.272   4.321   8.407 -1.4047  1.6356  0.6186
 6520SOL    HW231197   0.310   4.187   8.457 -1.6640 -1.7046 -1.3531
 6521SOL     OW31198   1.668   0.014  10.132  0.2902  0.3525 -0.3703
 6521SOL    HW131199   1.725   4.694  10.180  1.6074 -0.5693 -3.0969
 6521SOL    HW231200   1.641   0.061  10.210 -0.1228 -0.4047 -0.0515
 6522SOL     OW31201   3.227   4.675   3.468 -0.0123 -0.0925  0.4227
 6522SOL    HW131202   3.224   4.641   3.379 -0.7461  0.9348  0.0504
 6522SOL    HW231203   3.315   4.714   3.467 -0.0420 -0.1055 -2.5502
 6523SOL     OW31204   1.663   4.622   8.451 -0.2523  0.2411 -0.5236
 6523SOL    HW131205   1.667   4.531   8.480 -1.2074  0.5760  0.6922
 6523SOL    HW231206   1.573   4.635   8.422  0.1850 -1.3835 -2.5801
 6524SOL     OW31207   2.234   3.380   3.060  0.2680 -0.5537 -0.1193
 6524SOL    HW131208   2.306   3.342   3.111  0.1443 -1.1662 -0.3970
 6524SOL    HW231209   2.278   3.422   2.986 -0.6998 -0.6007 -0.7196
 6525SOL     OW31210   4.619   0.899  14.528 -0.1041  0.0979 -0.2135
 6525SOL    HW131211   4.637   0.990  14.506 -0.3848  0.3726  0.7162
 6525SOL    HW231212   4.552   0.893  14.597 -1.7286 -0.3798 -1.8270
 6526SOL     OW31213   0.663   0.305   7.270  0.6828  0.2998  0.1628
 6526SOL    HW131214   0.602   0.243   7.229  0.1481  0.1894  1.1202
 6526SOL    HW231215   0.646   0.391   7.233  1.8516  0.1478 -0.7497
 6527SOL     OW31216   1.420   2.876   5.306 -0.2794 -0.0607 -0.0877
 6527SOL    HW131217   1.389   2.963   5.330 -1.3846  0.5729 -3.7819
 6527SOL    HW231218   1.426   2.839   5.394  2.0718  3.6379  1.2571
 6528SOL     OW31219   0.558   1.197   7.121  0.7627 -0.4299 -0.2971
 6528SOL    HW131220   0.652   1.202   7.104  0.3696  2.1494 -1.7496
 6528SOL    HW231221   0.511   1.219   7.040  1.7810 -0.8211 -0.9912
 6529SOL     OW31222   4.021   2.653   3.934 -0.2734 -0.1076  0.8337
 6529SOL    HW131223   4.111   2.637   3.964 -0.3355 -0.3981  0.8540
 6529SOL    HW231224   4.041   2.649   3.840  0.1422 -2.6520  1.0316
 6530SOL     OW31225   2.674   4.370   4.903  0.5109 -0.0925 -0.7272
 6530SOL    HW131226   2.758   4.416   4.898  0.4773  0.2804  1.8217
 6530SOL    HW231227   2.710   4.290   4.940  0.8034  0.6133  0.5377
 6531SOL     OW31228   2.701   1.123   3.644  0.2985 -0.1746 -0.1854
 6531SOL    HW131229   2.625   1.177   3.623 -0.2287 -0.4429  1.0043
 6531SOL    HW231230   2.680   1.034   3.616 -1.8378  0.9018 -1.9217
 6532SOL     OW31231   3.247   4.075   5.340  0.7472 -0.4252  0.6423
 6532SOL    HW131232   3.259   4.116   5.255  3.1704 -0.3140  1.0310
 6532SOL    HW231233   3.276   4.141   5.403  3.4459 -1.6037  0.6322
 6533SOL     OW31234   3.201   1.578   5.079  0.3525  0.2740 -0.0639
 6533SOL    HW131235   3.165   1.564   4.992  0.5088 -1.0716  0.0939
 6533SOL    HW231236   3.275   1.635   5.056 -0.8365  0.9639 -2.1264
 6534SOL     OW31237   4.693   0.159   7.718 -0.1295 -0.0422  0.1470
 6534SOL    HW131238   4.626   0.178   7.652  0.3111  0.2847 -0.2094
 6534SOL    HW231239   0.037   0.167   7.673  1.4855 -3.5942  2.5281
 6535SOL     OW31240   3.169   2.467   9.872  0.1115 -0.1614 -0.4669
 6535SOL    HW131241   3.155   2.557   9.903 -0.3557 -0.2471 -0.4212
 6535SOL    HW231242   3.251   2.452   9.918 -0.1746  0.7098  0.3473
 6536SOL     OW31243   1.614   1.358  15.250  0.2161 -0.6143 -0.2042
 6536SOL    HW131244   1.649   1.272  15.273  1.2218  0.4991  2.3659
 6536SOL    HW231245   1.573   1.393  15.328  0.0051 -2.6362  0.5798
 6537SOL     OW31246   2.928   1.665  16.234 -0.0699 -0.1725  0.2160
 6537SOL    HW131247   2.999   1.605  16.208 -1.8591 -1.7978 -0.8994
 6537SOL    HW231248   2.960   1.707  16.314 -0.7350  0.8020 -0.0349
 6538SOL     OW31249   0.811   0.707   8.683  0.3460  0.1693  0.2611
 6538SOL    HW131250   0.901   0.687   8.708  0.5548  2.0352  1.0038
 6538SOL    HW231251   0.797   0.797   8.711  1.1106  0.7651 -1.2800
 6539SOL     OW31252   3.010   2.792  12.715 -0.6851  0.6282 -0.3987
 6539SOL    HW131253   2.983   2.831  12.632  3.1852 -0.6752 -2.2713
 6539SOL    HW231254   2.936   2.741  12.748  0.3783  0.7174  2.1177
 6540SOL     OW31255   2.874   0.495   1.271 -0.0978 -1.4316  0.1014
 6540SOL    HW131256   2.887   0.562   1.338  1.6802  0.9424 -2.5991
 6540SOL    HW231257   2.786   0.519   1.241  0.9095 -0.1082 -1.8143
 6541SOL     OW31258   2.704   1.407  15.344 -0.3595  0.0495  0.0814
 6541SOL    HW131259   2.699   1.317  15.313  0.4515  0.2132 -0.5511
 6541SOL    HW231260   2.691   1.445  15.257 -0.9582  0.1167  0.2027
 6542SOL     OW31261   3.897   0.410   1.619 -0.0687  0.4259  0.2816
 6542SOL    HW131262   3.844   0.426   1.541  1.0950 -0.6982 -0.7651
 6542SOL    HW231263   3.827   0.377   1.675 -0.7386  0.6407 -0.4285
 6543SOL     OW31264   4.707   4.005   2.722  0.0975 -0.8142 -0.0294
 6543SOL    HW131265   4.668   4.039   2.642 -1.1756 -0.0836  0.9119
 6543SOL    HW231266   4.626   3.991   2.771  0.9754 -0.1216  1.6197
 6544SOL     OW31267   1.073   0.703   8.760 -0.2360 -0.3100 -0.2619
 6544SOL    HW131268   1.134   0.646   8.714  0.6199  0.0357  0.4644
 6544SOL    HW231269   1.089   0.791   8.727  0.1644 -0.2852  0.0013
 6545SOL     OW31270   3.911   1.170   5.787 -0.0081 -0.8795 -0.2800
 6545SOL    HW131271   3.899   1.081   5.754  0.3024 -0.7368 -0.7767
 6545SOL    HW231272   3.986   1.152   5.844 -0.2265 -1.4174 -0.1664
 6546SOL     OW31273   3.326   2.476   6.716 -0.6229  0.4765 -0.0724
 6546SOL    HW131274   3.356   2.565   6.732  1.7750 -0.2240 -0.6952
 6546SOL    HW231275   3.354   2.441   6.800 -1.2341 -0.3647 -0.2186
 6547SOL     OW31276   0.781   3.554   2.715  0.2463 -0.0402  0.1563
 6547SOL    HW131277   0.844   3.568   2.644 -0.6941  1.9665 -0.2959
 6547SOL    HW231278   0.703   3.541   2.661  0.3008 -1.4770  0.4332
 6548SOL     OW31279   3.597   1.958   2.684  0.0975  0.2380 -0.3984
 6548SOL    HW131280   3.619   1.913   2.603  1.6083 -0.3923  0.3698
 6548SOL    HW231281   3.608   2.049   2.659  0.5887 -0.0157 -1.0908
 6549SOL     OW31282   2.454   0.081   2.509  0.2380  0.1344  0.3423
 6549SOL    HW131283   2.526   0.064   2.448 -1.0743  0.7695 -1.4117
 6549SOL    HW231284   2.378   0.090   2.450  1.2457  1.8231 -0.7075
 6550SOL     OW31285   2.003   1.001   7.525  0.0012 -0.2730 -0.3450
 6550SOL    HW131286   1.991   1.095   7.508 -2.3396 -0.4171  0.5263
 6550SOL    HW231287   1.909   0.987   7.526  0.0493 -0.4835  1.2813
 6551SOL     OW31288   2.132   2.501   7.364 -0.5797 -0.3118 -0.1129
 6551SOL    HW131289   2.045   2.530   7.392 -0.4277  1.6677 -1.7216
 6551SOL    HW231290   2.185   2.578   7.385  0.9124 -1.5022  0.4589
 6552SOL     OW31291   2.300   2.214  17.244  0.3474  0.5833  0.2189
 6552SOL    HW131292   2.371   2.215  17.179 -0.5212 -2.9467 -0.7719
 6552SOL    HW231293   2.347   2.242  17.322  0.6017  0.6558  0.0396
 6553SOL     OW31294   1.852   1.094   4.181 -0.5110 -0.9447  0.5649
 6553SOL    HW131295   1.902   1.142   4.115  0.8664 -1.9684  0.8694
 6553SOL    HW231296   1.817   1.022   4.129 -0.3620 -0.5313 -0.1142
 6554SOL     OW31297   4.506   1.101   1.276 -0.0837 -0.2699 -0.5311
 6554SOL    HW131298   4.459   1.050   1.342 -4.8248  0.9329 -3.0116
 6554SOL    HW231299   4.435   1.110   1.213  0.3494 -0.2306 -1.0091
 6555SOL     OW31300   2.201   0.645   5.403  0.1852 -0.2695  0.4673
 6555SOL    HW131301   2.155   0.652   5.320 -2.6887  4.5191  2.4112
 6555SOL    HW231302   2.170   0.559   5.430 -1.5066 -0.1503 -1.0823
 6556SOL     OW31303   3.608   0.405   8.228  0.3464  0.0712 -1.0159
 6556SOL    HW131304   3.630   0.324   8.181  0.6824 -0.2424 -0.3208
 6556SOL    HW231305   3.674   0.406   8.297 -2.1523 -0.5178  1.3667
 6557SOL     OW31306   0.035   4.615   2.536 -0.4612 -0.6690  0.2025
 6557SOL    HW131307   0.082   4.543   2.579  0.0464  1.1448  2.6919
 6557SOL    HW231308   0.057   4.595   2.445  0.6643  0.8667  0.1209
 6558SOL     OW31309   2.215   3.873   6.312  0.3448  0.5943  0.0450
 6558SOL    HW131310   2.150   3.869   6.383  0.0501 -0.5398 -0.2924
 6558SOL    HW231311   2.186   3.947   6.258  1.0487 -0.2707 -1.5156
 6559SOL     OW31312   0.683   4.224   1.204 -0.1858 -0.2173  0.0280
 6559SOL    HW131313   0.738   4.152   1.233  0.6420  0.6668  0.6203
 6559SOL    HW231314   0.742   4.266   1.141 -0.5320 -0.2275 -0.3025
 6560SOL     OW31315   2.799   3.022   1.767 -0.0476  0.1495 -0.0781
 6560SOL    HW131316   2.873   3.019   1.828  0.1498 -1.7260 -0.4214
 6560SOL    HW231317   2.725   3.010   1.827 -0.2310 -3.3744 -1.0548
 6561SOL     OW31318   0.363   1.163   4.224 -0.2568 -0.5240 -0.1163
 6561SOL    HW131319   0.336   1.091   4.281 -2.4100 -0.7537 -1.4344
 6561SOL    HW231320   0.308   1.231   4.264 -1.1401 -1.9158  1.0309
 6562SOL     OW31321   0.990   1.214   4.945  0.1089  0.4860 -0.2695
 6562SOL    HW131322   0.973   1.289   4.888 -0.2386  1.8884  1.6818
 6562SOL    HW231323   0.916   1.208   5.005  0.7856 -0.7636  0.4438
 6563SOL     OW31324   3.165   0.609  16.302  0.9550  0.1635 -0.2191
 6563SOL    HW131325   3.156   0.550  16.377  0.5645  1.6478  0.8920
 6563SOL    HW231326   3.083   0.584  16.261  1.6548 -1.0490 -0.8911
 6564SOL     OW31327   0.283   0.261  17.662 -0.2062  0.7856 -0.2046
 6564SOL    HW131328   0.221   0.188  17.667  0.1470  0.3179 -2.5231
 6564SOL    HW231329   0.333   0.252  17.743  1.4837 -0.7638 -1.4214
 6565SOL     OW31330   1.758   1.588   2.358 -0.1444 -0.4180 -0.2864
 6565SOL    HW131331   1.803   1.660   2.401  0.1427 -0.3417 -0.7088
 6565SOL    HW231332   1.741   1.632   2.274 -1.7925  1.9939  1.3057
 6566SOL     OW31333   2.779   1.191  16.743  0.1655 -0.3892 -0.0498
 6566SOL    HW131334   2.875   1.195  16.745  0.1317  2.1662 -2.1069
 6566SOL    HW231335   2.761   1.238  16.661  0.9426  0.8368  0.4812
 6567SOL     OW31336   1.972   0.144   3.585 -0.2095  0.0503 -0.0788
 6567SOL    HW131337   2.047   0.203   3.596 -0.3128  0.0914  0.4167
 6567SOL    HW231338   1.931   0.197   3.517 -1.0092 -0.3198  0.1235
 6568SOL     OW31339   1.728   3.576  12.719 -0.4565 -0.3948 -0.3307
 6568SOL    HW131340   1.736   3.598  12.812  1.7109  3.2584 -1.3563
 6568SOL    HW231341   1.782   3.497  12.719  0.3348  0.1455  1.7062
 6569SOL     OW31342   2.168   4.058   8.416  0.6297 -0.2005  0.0316
 6569SOL    HW131343   2.138   4.144   8.386 -1.4745 -0.5303  1.1909
 6569SOL    HW231344   2.207   4.087   8.498  1.9567 -0.5506 -0.4817
 6570SOL     OW31345   1.819   4.194   8.992  0.2545 -0.0256 -0.0792
 6570SOL    HW131346   1.845   4.186   9.084  0.1634 -2.9250 -0.3144
 6570SOL    HW231347   1.768   4.275   8.994 -1.0437 -0.8569  0.3130
 6571SOL     OW31348   0.102   3.682   3.136 -0.3973 -0.0711 -0.5106
 6571SOL    HW131349   0.124   3.658   3.046  0.3764 -1.9844  0.2009
 6571SOL    HW231350   0.166   3.626   3.180 -0.2196  1.0461  0.6743
 6572SOL     OW31351   3.140   0.142   9.461 -0.4600 -0.4482  0.6734
 6572SOL    HW131352   3.223   0.097   9.444 -1.2602 -1.4889 -0.4707
 6572SOL    HW231353   3.175   0.229   9.476  1.1439 -0.6270 -2.0688
 6573SOL     OW31354   1.236   3.405  14.555  0.0704 -0.2147 -0.4127
 6573SOL    HW131355   1.285   3.368  14.629  0.0364  0.6151  0.0380
 6573SOL    HW231356   1.265   3.496  14.562  0.3200 -0.3189 -0.0805
 6574SOL     OW31357   2.032   1.976   5.433  0.3900 -0.2343  0.3319
 6574SOL    HW131358   1.950   1.952   5.389  0.1672 -0.0851  0.6635
 6574SOL    HW231359   2.084   2.014   5.362 -1.4615 -0.1573 -1.0030
 6575SOL     OW31360   2.818   0.507   2.446  0.2685  0.1121 -0.0150
 6575SOL    HW131361   2.747   0.465   2.398 -0.1455  0.0469  0.6605
 6575SOL    HW231362   2.819   0.592   2.403 -0.3528 -0.4886 -1.2082
 6576SOL     OW31363   2.622   1.363   2.336  0.0466  0.0064 -0.0626
 6576SOL    HW131364   2.604   1.351   2.243  1.1274  1.0582 -0.4115
 6576SOL    HW231365   2.717   1.374   2.341  0.4639 -3.1224 -0.8551
 6577SOL     OW31366   0.559   3.563   0.027 -0.3700 -0.0622 -0.0383
 6577SOL    HW131367   0.621   3.559   0.099  0.2579 -1.0967 -0.6466
 6577SOL    HW231368   0.472   3.577   0.066 -0.4370 -1.4833  0.3186
 6578SOL     OW31369   1.376   0.265   1.889  0.5917  0.8285 -0.3726
 6578SOL    HW131370   1.284   0.289   1.880  0.1329 -0.2101  1.5618
 6578SOL    HW231371   1.383   0.191   1.827  0.0093  0.6419 -0.2208
 6579SOL     OW31372   2.428   0.691   5.901  0.8160 -0.0011  0.0007
 6579SOL    HW131373   2.451   0.783   5.886  0.2601  0.3239  1.1130
 6579SOL    HW231374   2.391   0.676   5.814  0.7204  0.6893 -0.0767
 6580SOL     OW31375   4.671   4.041   1.990 -0.7878 -0.1128  0.0871
 6580SOL    HW131376   4.627   4.099   2.052 -2.7402  0.7678 -2.1360
 6580SOL    HW231377   4.620   4.064   1.912 -2.2196 -0.6899  0.8334
 6581SOL     OW31378   0.260   2.163   9.680 -0.3038 -0.0880 -0.0411
 6581SOL    HW131379   0.208   2.216   9.740 -1.8034 -2.7081  0.9799
 6581SOL    HW231380   0.293   2.234   9.625 -2.9287  0.3793 -0.9983
 6582SOL     OW31381   1.109   1.633   2.105 -1.0371 -0.6587 -0.0399
 6582SOL    HW131382   1.136   1.610   2.016  0.9935  0.4260  0.2976
 6582SOL    HW231383   1.140   1.723   2.107 -1.1212 -0.5681 -2.3383
 6583SOL     OW31384   3.070   3.178   3.525 -0.3611 -0.0869  0.5527
 6583SOL    HW131385   3.006   3.117   3.488  1.2891 -1.7546  0.4714
 6583SOL    HW231386   3.113   3.118   3.586  2.3371  1.3085  0.0173
 6584SOL     OW31387   1.179   3.773   9.850 -0.5549 -0.3383  0.1290
 6584SOL    HW131388   1.271   3.748   9.852  0.0678  1.7812 -1.1535
 6584SOL    HW231389   1.189   3.865   9.875 -1.2523 -0.3823  0.5622
 6585SOL     OW31390   3.848   1.761   9.581  0.1776 -0.2167 -1.1714
 6585SOL    HW131391   3.928   1.776   9.633 -0.2446 -1.1812 -0.2344
 6585SOL    HW231392   3.797   1.699   9.633  1.4911  0.6433  1.1710
 6586SOL     OW31393   3.665   3.542   8.767 -0.5166  0.0731  1.0033
 6586SOL    HW131394   3.631   3.465   8.813 -2.0104  0.2422  0.1779
 6586SOL    HW231395   3.689   3.494   8.688  0.8535  1.1526  0.7737
 6587SOL     OW31396   2.765   4.586   4.379  0.5937  0.1681 -0.2503
 6587SOL    HW131397   2.773   4.496   4.410 -0.4641  0.7127  1.6459
 6587SOL    HW231398   2.722   4.615   4.460 -0.5504 -2.5722  0.1322
 6588SOL     OW31399   4.180   3.804   8.133  0.0261 -0.0967 -0.0089
 6588SOL    HW131400   4.126   3.749   8.076 -0.8149 -0.6316  1.3084
 6588SOL    HW231401   4.115   3.827   8.199  0.4251 -0.7106  0.5939
 6589SOL     OW31402   0.408   3.812   2.132 -0.4296 -0.1698 -0.4142
 6589SOL    HW131403   0.372   3.872   2.067 -3.1684 -0.0610  1.1942
 6589SOL    HW231404   0.353   3.822   2.210  2.1822  0.4479  1.3760
 6590SOL     OW31405   3.346   1.724  13.274 -0.2234 -0.2853 -0.0816
 6590SOL    HW131406   3.438   1.709  13.256 -0.2731  0.5805 -1.0741
 6590SOL    HW231407   3.309   1.703  13.188 -1.0687  2.0513 -0.2752
 6591SOL     OW31408   2.983   3.370   2.522 -0.1990 -0.4414 -0.3658
 6591SOL    HW131409   3.073   3.373   2.556 -0.5782 -0.9004  0.6635
 6591SOL    HW231410   2.977   3.461   2.494  0.6701  0.1514  1.3509
 6592SOL     OW31411   1.423   1.238   5.214 -0.0165 -0.5825 -0.3954
 6592SOL    HW131412   1.445   1.238   5.121 -0.4360 -0.1787 -0.5003
 6592SOL    HW231413   1.342   1.187   5.218  0.1482 -0.6737  1.7753
 6593SOL     OW31414   0.465   2.140   6.236 -0.1950  0.4498 -0.3788
 6593SOL    HW131415   0.538   2.191   6.271  0.8659 -3.0480  2.4743
 6593SOL    HW231416   0.506   2.054   6.231  2.0046  1.4823  0.0096
 6594SOL     OW31417   1.004   1.513   4.612  0.3299  0.5270  0.1161
 6594SOL    HW131418   0.990   1.508   4.707  1.3005  2.2965  0.3375
 6594SOL    HW231419   1.019   1.607   4.603  3.4300  0.0426  0.5140
 6595SOL     OW31420   4.060   0.959   6.704  0.0229 -0.2911 -0.5675
 6595SOL    HW131421   4.028   1.022   6.638 -0.4126  0.0982  0.0152
 6595SOL    HW231422   4.011   0.879   6.685 -1.2639 -0.0154  1.5651
 6596SOL     OW31423   3.715   4.614   4.116 -0.0944 -0.0944 -0.5082
 6596SOL    HW131424   3.709   4.695   4.166  0.7009  0.8515 -1.9184
 6596SOL    HW231425   3.646   4.558   4.150  1.8412 -1.6469  0.8784
 6597SOL     OW31426   0.860   1.554   6.585 -0.2125  0.2950  0.0719
 6597SOL    HW131427   0.831   1.622   6.523  0.8251  0.1159 -0.6187
 6597SOL    HW231428   0.904   1.498   6.521  3.8699  3.0652  0.5073
 6598SOL     OW31429   1.561   4.541   7.054 -0.5547 -0.2921 -0.1172
 6598SOL    HW131430   1.619   4.529   7.129 -1.0796  1.9394  0.6293
 6598SOL    HW231431   1.610   4.490   6.988 -1.1422 -2.1088  0.8549
 6599SOL     OW31432   3.523   0.516   3.420  0.2137 -1.0528 -0.3232
 6599SOL    HW131433   3.528   0.579   3.347  1.3977  0.5825  1.1512
 6599SOL    HW231434   3.618   0.515   3.437  0.3949 -1.7529 -1.3707
 6600SOL     OW31435   3.068   3.216  13.788  0.1171  0.9775 -0.2821
 6600SOL    HW131436   3.120   3.137  13.779 -1.8070 -0.3787  0.5053
 6600SOL    HW231437   3.141   3.274  13.810 -0.5759  0.7560  2.6332
 6601SOL     OW31438   1.688   1.233  12.187 -0.0607 -0.1623 -0.0844
 6601SOL    HW131439   1.728   1.320  12.196  1.3274 -1.0155  2.2723
 6601SOL    HW231440   1.676   1.243  12.093 -1.2571 -0.9891 -0.0029
 6602SOL     OW31441   3.108   3.531   5.268 -0.2119  0.2548 -0.4705
 6602SOL    HW131442   3.091   3.469   5.197  0.7048  0.9999 -1.3419
 6602SOL    HW231443   3.203   3.530   5.284 -0.4073 -0.0790  0.6560
 6603SOL     OW31444   0.987   4.733   4.013 -0.2548 -0.5879  0.3944
 6603SOL    HW131445   0.917   4.700   3.957  1.1882  0.8274 -2.2229
 6603SOL    HW231446   1.067   0.003   3.962 -1.1752  0.1295 -0.9022
 6604SOL     OW31447   3.006   4.561  14.705 -0.3355 -0.5657  0.3275
 6604SOL    HW131448   3.015   4.654  14.685 -1.5705 -0.4590  0.2526
 6604SOL    HW231449   3.058   4.518  14.637 -0.1928  0.9443 -0.5173
 6605SOL     OW31450   0.945   2.591   4.993 -0.4041  0.0356 -0.5473
 6605SOL    HW131451   0.973   2.615   5.081 -0.8151 -1.8371  0.0833
 6605SOL    HW231452   1.017   2.552   4.944  0.8524  1.9818 -0.2694
 6606SOL     OW31453   4.700   0.479   5.585 -0.2053 -0.0273 -0.5407
 6606SOL    HW131454   4.677   0.522   5.668  1.8725 -0.7830  0.4365
 6606SOL    HW231455   4.735   0.552   5.533  4.5702 -0.6129  1.7704
 6607SOL     OW31456   2.016   4.460   6.327 -0.3976 -0.2306 -0.5882
 6607SOL    HW131457   2.037   4.553   6.319  1.1975 -0.5426  0.0281
 6607SOL    HW231458   2.012   4.432   6.236  0.9826  0.6831 -0.9287
 6608SOL     OW31459   0.829   0.962  11.155  0.5506  0.2639 -0.1326
 6608SOL    HW131460   0.915   0.993  11.126  1.0973 -0.8823  0.2503
 6608SOL    HW231461   0.809   0.900  11.084  0.0520  1.9717 -1.4727
 6609SOL     OW31462   1.441   3.551   3.616 -0.8054  0.4214  0.3461
 6609SOL    HW131463   1.439   3.556   3.712  0.3947 -1.0348  0.4550
 6609SOL    HW231464   1.466   3.459   3.608 -2.6265 -0.2660  2.6113
 6610SOL     OW31465   1.183   2.034   2.235 -0.2078  0.0918 -0.1135
 6610SOL    HW131466   1.224   2.106   2.282 -1.8254  0.7883  0.2092
 6610SOL    HW231467   1.109   2.011   2.291  0.4666  0.8067  1.0718
 6611SOL     OW31468   1.986   4.137   7.210 -0.2901 -0.0399 -0.2222
 6611SOL    HW131469   2.046   4.176   7.274 -0.6964  0.1705  0.0354
 6611SOL    HW231470   1.911   4.197   7.216  1.1318  1.8542 -1.1837
 6612SOL     OW31471   4.124   3.418  11.245  0.3371  0.1890  0.0324
 6612SOL    HW131472   4.109   3.510  11.267 -0.2086 -0.3473  1.9350
 6612SOL    HW231473   4.069   3.411  11.167 -0.6587 -0.8128  0.8287
 6613SOL     OW31474   0.436   1.700  12.159  0.1797 -1.0484 -0.0546
 6613SOL    HW131475   0.384   1.680  12.081  0.3454  0.6287 -0.5885
 6613SOL    HW231476   0.491   1.768  12.119  0.5660 -1.1851  0.2493
 6614SOL     OW31477   0.299   2.215   5.518 -0.1416 -0.0840 -0.2944
 6614SOL    HW131478   0.318   2.207   5.424  1.5831 -0.2003  0.0638
 6614SOL    HW231479   0.309   2.128   5.556 -1.8072  1.0818  2.7351
 6615SOL     OW31480   4.460   3.254   6.802 -0.0383  0.6818 -0.0246
 6615SOL    HW131481   4.534   3.259   6.742 -0.6020 -1.0049 -0.8630
 6615SOL    HW231482   4.459   3.166   6.840  1.1220  1.0712  0.9371
 6616SOL     OW31483   4.095   1.980  12.236  0.0261  0.3425  0.2661
 6616SOL    HW131484   4.087   2.051  12.300 -1.5497  0.5451 -0.1611
 6616SOL    HW231485   4.174   1.936  12.268  1.0532  0.2434 -2.4120
 6617SOL     OW31486   3.002   0.846   1.757  0.2585 -0.4861  0.7171
 6617SOL    HW131487   3.026   0.762   1.717  0.9879  0.8236 -1.5365
 6617SOL    HW231488   3.076   0.876   1.809 -0.1669 -1.3522  1.8186
 6618SOL     OW31489   0.638   2.301   5.576 -0.0312 -0.2244 -0.0562
 6618SOL    HW131490   0.620   2.207   5.582  0.6537 -0.4823 -2.0714
 6618SOL    HW231491   0.548   2.331   5.588 -0.5045 -0.7039 -2.5140
 6619SOL     OW31492   3.468   4.014   5.106  0.5493 -0.6021  0.1484
 6619SOL    HW131493   3.408   3.939   5.104  1.2167 -1.1459  0.6075
 6619SOL    HW231494   3.432   4.069   5.036  1.5943 -0.4398 -0.2599
 6620SOL     OW31495   3.200   2.930  17.725 -0.1407 -0.0496 -0.5733
 6620SOL    HW131496   3.172   2.851  17.679  0.0108 -0.6870  0.4087
 6620SOL    HW231497   3.150   2.990  17.670 -0.4911 -0.5083 -0.7497
 6621SOL     OW31498   1.023   3.756   1.049  0.0694  0.0411  0.1734
 6621SOL    HW131499   0.994   3.739   0.959  0.6579 -0.2952  0.0534
 6621SOL    HW231500   1.048   3.670   1.082  2.1021  0.3183 -0.7019
 6622SOL     OW31501   1.662   1.298   6.786 -0.3701 -0.0417  0.4131
 6622SOL    HW131502   1.658   1.203   6.801  1.1246  0.2980  3.0762
 6622SOL    HW231503   1.568   1.311   6.775 -0.5061 -0.3074  1.2804
 6623SOL     OW31504   4.424   4.032   8.479 -0.2060  0.1228  0.2779
 6623SOL    HW131505   4.367   4.054   8.553  2.9020 -0.5299  2.8697
 6623SOL    HW231506   4.409   3.937   8.487  2.3062  0.0354  3.7144
 6624SOL     OW31507   1.232   0.193   4.859  0.0800  0.0147  0.5199
 6624SOL    HW131508   1.208   0.101   4.871  1.2616 -0.2995  0.4401
 6624SOL    HW231509   1.266   0.197   4.770 -2.2569 -0.1649 -0.3869
 6625SOL     OW31510   0.257   1.885  14.893 -0.1813 -0.5797 -0.1364
 6625SOL    HW131511   0.278   1.924  14.978  0.9438 -1.2877 -0.0795
 6625SOL    HW231512   0.167   1.865  14.916  0.3378 -2.2110  0.5055
 6626SOL     OW31513   4.218   4.182   9.245  0.3907  0.1282  0.1863
 6626SOL    HW131514   4.167   4.155   9.322  2.6655  0.9553  1.9890
 6626SOL    HW231515   4.260   4.104   9.210 -2.1807 -0.9445 -0.5542
 6627SOL     OW31516   2.106   1.698  11.437 -0.3131  0.4629  0.7879
 6627SOL    HW131517   2.085   1.611  11.470 -0.6415  0.3200  0.1993
 6627SOL    HW231518   2.117   1.694  11.342  0.8545 -1.8116  1.0332
 6628SOL     OW31519   1.019   2.219  13.422  0.2329  0.2545 -0.7166
 6628SOL    HW131520   1.096   2.232  13.367  1.8057  2.1321  1.9467
 6628SOL    HW231521   1.058   2.198  13.507 -1.4496  2.0409  0.4875
 6629SOL     OW31522   2.935   3.514   4.586 -0.0466 -0.4384 -0.0851
 6629SOL    HW131523   2.891   3.477   4.510 -0.0991 -0.1495 -0.1938
 6629SOL    HW231524   2.868   3.527   4.653  1.5383  1.2687  1.1964
 6630SOL     OW31525   0.774   3.733  16.593 -0.1927 -0.5047 -0.0864
 6630SOL    HW131526   0.859   3.752  16.632  1.0742  1.0590 -3.7027
 6630SOL    HW231527   0.720   3.778  16.659 -0.2906  0.6856 -0.9756
 6631SOL     OW31528   3.427   0.701  12.696 -0.0748  0.3744 -0.0686
 6631SOL    HW131529   3.342   0.704  12.740  0.2323  1.1074  0.4789
 6631SOL    HW231530   3.469   0.658  12.771  1.5484  1.6451 -0.2597
 6632SOL     OW31531   0.064   1.306   5.763  0.4601  0.3702 -0.4821
 6632SOL    HW131532   0.007   1.297   5.839 -2.0636  0.1509 -2.4099
 6632SOL    HW231533   0.090   1.398   5.762  1.6937  0.0270  1.4342
 6633SOL     OW31534   2.078   4.240  17.477 -0.7864 -0.5242  0.7726
 6633SOL    HW131535   2.075   4.206  17.566  1.2882 -2.4575  0.1024
 6633SOL    HW231536   1.994   4.212  17.440 -0.4076  0.0620 -0.5243
 6634SOL     OW31537   2.285   2.366   7.147 -0.0289 -0.2851 -0.2684
 6634SOL    HW131538   2.237   2.411   7.216  0.2090  0.7674 -0.7864
 6634SOL    HW231539   2.222   2.372   7.075 -0.6135 -0.2600  0.2496
 6635SOL     OW31540   1.787   4.140   9.796  0.2670  0.2281 -0.0900
 6635SOL    HW131541   1.815   4.051   9.818 -0.6604 -0.2242 -0.7729
 6635SOL    HW231542   1.818   4.134   9.706  3.9138  1.1844  1.0831
 6636SOL     OW31543   1.281   3.791  12.452  0.4510 -0.0764 -0.4720
 6636SOL    HW131544   1.318   3.774  12.366  1.3696 -1.0310  0.1108
 6636SOL    HW231545   1.346   3.742  12.504  0.2554 -0.9388 -1.0450
 6637SOL     OW31546   0.254   3.282  14.540  0.1423  0.7221  0.0709
 6637SOL    HW131547   0.288   3.280  14.450 -0.5121 -3.7138 -0.0372
 6637SOL    HW231548   0.315   3.350  14.570 -0.2877  1.3131 -0.4043
 6638SOL     OW31549   0.650   2.452   6.905  0.4329 -0.0372  0.3363
 6638SOL    HW131550   0.556   2.468   6.913  0.2947  0.2641 -1.8737
 6638SOL    HW231551   0.688   2.539   6.902 -1.7472  0.8330 -1.7553
 6639SOL     OW31552   1.902   0.641   8.001 -0.2098  0.0098 -0.2206
 6639SOL    HW131553   1.990   0.676   8.008 -0.4634  0.1698  2.2523
 6639SOL    HW231554   1.876   0.635   8.093 -0.5493 -0.5490 -0.3513
 6640SOL     OW31555   1.248   0.670   5.680 -0.2946 -0.1351  0.7615
 6640SOL    HW131556   1.326   0.621   5.652 -0.0036  0.9210 -0.2819
 6640SOL    HW231557   1.287   0.713   5.757  1.1214 -1.3493  0.7297
 6641SOL     OW31558   3.951   1.254   2.459 -0.3216  0.3934  0.5504
 6641SOL    HW131559   3.947   1.316   2.532  1.2674  1.1552 -0.0074
 6641SOL    HW231560   3.893   1.181   2.483  0.0419  0.9063  3.0654
 6642SOL     OW31561   1.805   2.152   8.809  0.3422  0.3585 -0.2347
 6642SOL    HW131562   1.901   2.158   8.804  0.3708 -0.2950 -0.4996
 6642SOL    HW231563   1.782   2.060   8.799  1.5317  0.1086 -0.7567
 6643SOL     OW31564   4.476   3.177   3.855  0.0717  0.4274  0.0650
 6643SOL    HW131565   4.421   3.250   3.826  1.4735  1.6694  0.4814
 6643SOL    HW231566   4.506   3.218   3.937 -0.4391  2.1598 -0.6187
 6644SOL     OW31567   2.350   3.236  15.712 -0.1138  0.3464  0.2420
 6644SOL    HW131568   2.428   3.288  15.690 -1.0577  1.6529  0.0163
 6644SOL    HW231569   2.289   3.301  15.745 -1.0133 -0.7007  0.6336
 6645SOL     OW31570   3.335   1.977   3.874 -0.2111  0.3980  0.0747
 6645SOL    HW131571   3.421   1.940   3.895 -0.0673 -0.6314 -2.2926
 6645SOL    HW231572   3.337   2.036   3.949  0.3440 -0.5374  0.8053
 6646SOL     OW31573   0.420   3.172   5.411  0.2930  0.3308 -0.5576
 6646SOL    HW131574   0.412   3.222   5.493 -0.4044  1.9028 -1.5810
 6646SOL    HW231575   0.383   3.088   5.438 -2.0891  2.0994  1.6953
 6647SOL     OW31576   2.655   1.870  13.370 -0.2938  0.3545  0.1360
 6647SOL    HW131577   2.630   1.943  13.314 -0.4906  0.0289 -0.1965
 6647SOL    HW231578   2.592   1.882  13.441 -1.3934 -1.5905 -0.5024
 6648SOL     OW31579   2.691   0.183  13.049 -0.3094 -0.3572 -0.5736
 6648SOL    HW131580   2.603   0.146  13.052 -0.3895 -0.2159 -1.1194
 6648SOL    HW231581   2.733   0.124  13.111  0.2024  2.0803  1.3994
 6649SOL     OW31582   0.054   2.139   9.936 -0.2164 -0.6264 -0.8324
 6649SOL    HW131583   0.048   2.215   9.995  1.4816 -0.5342 -0.7714
 6649SOL    HW231584   0.069   2.071  10.002 -0.4601 -0.1847 -0.3181
 6650SOL     OW31585   2.541   1.066   1.783  0.4560  0.9135 -0.4822
 6650SOL    HW131586   2.631   1.064   1.753 -0.0130  1.5269 -1.9292
 6650SOL    HW231587   2.538   1.064   1.879 -2.3058 -1.3564 -0.5945
 6651SOL     OW31588   3.669   2.205   6.877 -0.4971 -0.4630  0.1083
 6651SOL    HW131589   3.725   2.252   6.939 -2.7717  1.2750  0.8383
 6651SOL    HW231590   3.598   2.265   6.854 -0.4326  0.1220  1.3990
 6652SOL     OW31591   3.246   1.276   4.192 -0.0778 -0.3953 -0.2224
 6652SOL    HW131592   3.275   1.195   4.148  0.1819  0.5374 -1.7823
 6652SOL    HW231593   3.162   1.245   4.224  0.6198  0.8876  2.8044
 6653SOL     OW31594   3.247   4.013   9.113 -0.5206 -0.0207 -0.1758
 6653SOL    HW131595   3.156   4.034   9.134 -0.0948  0.4980  1.1936
 6653SOL    HW231596   3.272   4.084   9.053  1.8703 -2.0808 -1.6109
 6654SOL     OW31597   3.889   2.960  12.889 -0.2669  0.2691 -0.0696
 6654SOL    HW131598   3.960   2.901  12.862 -0.7079 -0.9961  1.5373
 6654SOL    HW231599   3.833   2.965  12.811 -0.2505  0.9521 -0.0323
 6655SOL     OW31600   2.246   2.836   6.970  0.1580  0.5182  0.1985
 6655SOL    HW131601   2.336   2.825   6.939 -0.2406  0.1440 -0.8310
 6655SOL    HW231602   2.224   2.751   7.009 -0.1421  0.1609 -0.7684
 6656SOL     OW31603   0.983   2.773   8.743 -0.1744  0.1038 -0.2727
 6656SOL    HW131604   0.967   2.719   8.666  1.1036 -2.3208  1.1774
 6656SOL    HW231605   0.915   2.840   8.737 -1.6567 -1.5172 -1.4824
 6657SOL     OW31606   1.171   0.442   0.883 -0.4384 -0.0571 -0.1196
 6657SOL    HW131607   1.209   0.527   0.908  0.9283 -0.9729  0.8794
 6657SOL    HW231608   1.083   0.474   0.865 -0.7050  0.0486  1.4535
 6658SOL     OW31609   0.830   1.369   4.419  0.3386  0.1663  0.3079
 6658SOL    HW131610   0.888   1.427   4.469  1.3707 -0.1919 -0.4781
 6658SOL    HW231611   0.902   1.329   4.371 -1.5481  0.7132 -2.9179
 6659SOL     OW31612   0.250   1.273   5.382 -0.3139 -0.1972 -0.4166
 6659SOL    HW131613   0.167   1.267   5.336 -1.7577 -2.3148  2.4459
 6659SOL    HW231614   0.273   1.180   5.388  1.7215  0.1625 -2.6111
 6660SOL     OW31615   1.463   0.763   3.077 -0.4982  0.4737  0.1447
 6660SOL    HW131616   1.444   0.670   3.064 -1.6812  0.8052 -0.5342
 6660SOL    HW231617   1.553   0.761   3.045  0.0640 -1.4822  1.8253
 6661SOL     OW31618   3.534   0.297   8.783 -0.3907  0.1374  0.7829
 6661SOL    HW131619   3.575   0.225   8.831  0.2875  1.5652  2.3336
 6661SOL    HW231620   3.467   0.258   8.727  2.2483 -0.1718 -2.1333
 6662SOL     OW31621   1.487   2.006   1.815 -0.0531  0.0147 -0.2403
 6662SOL    HW131622   1.470   2.089   1.859  0.0256  0.1180 -0.4076
 6662SOL    HW231623   1.537   1.953   1.877  0.1616  0.8961  0.3392
 6663SOL     OW31624   3.787   2.666  17.749  0.1105  0.2676 -0.4830
 6663SOL    HW131625   3.796   2.736   0.055  2.3657 -0.2302 -0.2241
 6663SOL    HW231626   3.804   2.725  17.675  0.7413 -0.9577 -1.3049
 6664SOL     OW31627   2.827   1.303   3.449 -0.6553  0.2774  0.0403
 6664SOL    HW131628   2.784   1.275   3.530  1.4604 -0.4372  0.9140
 6664SOL    HW231629   2.871   1.383   3.481  1.9188 -1.1336  0.0401
 6665SOL     OW31630   2.004   0.867   3.196 -0.4294  0.4893  0.1153
 6665SOL    HW131631   1.914   0.889   3.222 -0.5803  0.6780 -0.5681
 6665SOL    HW231632   2.040   0.868   3.285 -0.7037 -0.5121  0.2286
 6666SOL     OW31633   3.626   4.467   6.898  0.4906 -0.2378 -0.0915
 6666SOL    HW131634   3.704   4.517   6.920 -1.7637  3.1022  0.2891
 6666SOL    HW231635   3.568   4.486   6.971 -0.9397  0.2161 -1.3591
 6667SOL     OW31636   1.107   1.516   9.989  0.7048 -0.2661  0.0299
 6667SOL    HW131637   1.158   1.513   9.908 -1.7104 -0.7265 -1.4748
 6667SOL    HW231638   1.030   1.567   9.966  0.0923 -0.7346  1.0566
 6668SOL     OW31639   1.838   4.261   7.817 -0.3181 -0.0675 -0.1849
 6668SOL    HW131640   1.808   4.170   7.810  1.9529 -0.6785 -1.9118
 6668SOL    HW231641   1.772   4.303   7.762 -0.9295  0.1540  0.7121
 6669SOL     OW31642   3.951   3.942   3.859  0.8792  0.1994 -0.4917
 6669SOL    HW131643   3.919   3.906   3.942  1.0139  0.4925 -0.3159
 6669SOL    HW231644   4.043   3.956   3.881  1.5099 -1.0612 -2.3277
 6670SOL     OW31645   2.005   4.455  10.418 -0.3790 -0.0850 -0.4361
 6670SOL    HW131646   1.984   4.381  10.475  2.1261 -1.9268 -1.8417
 6670SOL    HW231647   2.067   4.411  10.359 -1.4874 -2.0835 -0.1124
 6671SOL     OW31648   2.873   3.328   7.357 -0.6504 -0.0760  0.1350
 6671SOL    HW131649   2.939   3.290   7.414 -0.8163  1.6686  1.5136
 6671SOL    HW231650   2.793   3.298   7.401  1.1925 -2.4362  1.8416
 6672SOL     OW31651   2.928   2.845   1.153  0.2028  0.1876  0.4183
 6672SOL    HW131652   3.003   2.826   1.210  0.6037 -0.2687 -0.2560
 6672SOL    HW231653   2.977   2.894   1.086  0.9944 -0.4902  0.4970
 6673SOL     OW31654   2.944   1.098   6.501  0.6590 -0.3348  0.9225
 6673SOL    HW131655   2.895   1.029   6.457  0.6586 -0.0129  0.4172
 6673SOL    HW231656   2.894   1.175   6.472  1.3986  0.1974  1.0608
 6674SOL     OW31657   2.578   3.631   6.453 -0.0003 -0.0209  0.2233
 6674SOL    HW131658   2.503   3.662   6.402  0.0504 -1.0860 -0.5047
 6674SOL    HW231659   2.643   3.639   6.383  0.9839 -1.3339  1.0043
 6675SOL     OW31660   2.289   1.130   2.887  0.1339  0.4728 -0.2860
 6675SOL    HW131661   2.373   1.095   2.858  0.2243  0.0668  0.4849
 6675SOL    HW231662   2.227   1.098   2.821 -0.7922  1.8634 -0.0977
 6676SOL     OW31663   3.772   2.506  14.240  0.1630 -1.0692  0.6260
 6676SOL    HW131664   3.841   2.496  14.305  1.4149 -2.0834 -0.8441
 6676SOL    HW231665   3.744   2.597  14.252  0.6556 -0.9675  1.0200
 6677SOL     OW31666   0.828   1.758  12.462 -0.0902 -0.6473 -0.4291
 6677SOL    HW131667   0.791   1.683  12.415 -1.7761 -0.1894  0.1996
 6677SOL    HW231668   0.756   1.795  12.511  1.6287  2.7743 -0.4719
 6678SOL     OW31669   1.447   2.179   0.612 -0.1014  0.0519  0.5206
 6678SOL    HW131670   1.376   2.228   0.570  1.8566 -0.1995 -3.1248
 6678SOL    HW231671   1.481   2.246   0.671  2.1213  1.3447 -2.2403
 6679SOL     OW31672   4.321   2.951   5.391 -0.0614 -0.2035  0.5364
 6679SOL    HW131673   4.411   2.984   5.396 -0.3822  0.5889  1.2690
 6679SOL    HW231674   4.276   2.996   5.320 -1.6181 -0.2372  1.4787
 6680SOL     OW31675   2.591   4.048   2.692  0.9234 -0.4449  0.1224
 6680SOL    HW131676   2.652   4.002   2.634  3.0971 -0.3658  2.3580
 6680SOL    HW231677   2.660   4.096   2.738 -0.4974 -0.7856  2.5793
 6681SOL     OW31678   0.026   2.891   5.682 -0.7243 -0.4995  0.0913
 6681SOL    HW131679   4.727   2.812   5.644 -0.8715 -0.7731  0.8164
 6681SOL    HW231680   4.707   2.910   5.755 -0.9001 -0.6315 -0.0155
 6682SOL     OW31681   4.624   2.654   8.376 -0.9291  0.7735 -0.3118
 6682SOL    HW131682   4.580   2.680   8.295  1.0080  0.1552 -1.5690
 6682SOL    HW231683   4.689   2.723   8.383  0.7466 -0.9124  0.9642
 6683SOL     OW31684   2.131   3.510   0.612 -0.0743 -0.5343 -0.0611
 6683SOL    HW131685   2.049   3.524   0.661  0.3672 -1.1333  0.8590
 6683SOL    HW231686   2.089   3.525   0.528  1.0014 -1.2696 -0.7304
 6684SOL     OW31687   1.693   4.393  10.585  0.6994 -0.4303  0.2887
 6684SOL    HW131688   1.759   4.354  10.642 -0.0507 -0.0269  1.4270
 6684SOL    HW231689   1.718   4.347  10.505 -2.9964  0.0550 -1.1801
 6685SOL     OW31690   2.645   2.438   3.713 -0.1609  0.3085  0.4438
 6685SOL    HW131691   2.699   2.381   3.767  0.1282 -1.0755 -1.3239
 6685SOL    HW231692   2.683   2.432   3.626 -2.2170 -0.5931 -0.4050
 6686SOL     OW31693   0.806   4.478   0.490 -0.0894 -0.1182 -0.7867
 6686SOL    HW131694   0.775   4.554   0.539  1.3345  0.2342 -0.4425
 6686SOL    HW231695   0.720   4.449   0.460 -1.5114  0.2397  2.9297
 6687SOL     OW31696   0.059   1.411  12.964  0.0261 -0.2867 -0.5552
 6687SOL    HW131697   0.114   1.382  12.892 -1.2095 -0.7919 -1.2973
 6687SOL    HW231698   4.734   1.460  12.914 -0.5695 -0.2510  0.2488
 6688SOL     OW31699   4.720   1.279  16.426 -0.0525  0.1326  0.5109
 6688SOL    HW131700   4.649   1.341  16.411  1.7549  2.2913  0.8682
 6688SOL    HW231701   4.679   1.198  16.395 -0.4743  1.2415 -1.8088
 6689SOL     OW31702   0.578   1.376   4.066 -0.2696  0.1553  0.2059
 6689SOL    HW131703   0.606   1.367   3.975  1.8141  1.4058  0.7138
 6689SOL    HW231704   0.506   1.315   4.083 -1.0543  0.9482 -0.2643
 6690SOL     OW31705   2.285   3.678   7.203  0.7572 -0.2766 -0.6927
 6690SOL    HW131706   2.279   3.630   7.120 -0.1036 -0.1123 -0.7318
 6690SOL    HW231707   2.254   3.765   7.177 -0.0087 -0.3804 -0.1350
 6691SOL     OW31708   2.517   3.622   6.072  0.3332 -0.2217 -0.4496
 6691SOL    HW131709   2.529   3.528   6.057 -0.7453 -0.5961  1.0342
 6691SOL    HW231710   2.453   3.625   6.143  1.5667  0.6155  0.6477
 6692SOL     OW31711   4.377   2.177   0.702 -0.1679 -0.2071  0.2306
 6692SOL    HW131712   4.292   2.183   0.659 -0.0290  0.4121  0.0498
 6692SOL    HW231713   4.409   2.090   0.679  4.2602  0.8694  2.3345
 6693SOL     OW31714   0.472   1.971  15.049 -0.4326 -0.2470 -0.1693
 6693SOL    HW131715   0.441   2.032  15.116 -0.5430  0.3431 -0.7581
 6693SOL    HW231716   0.510   2.037  14.991  2.6244 -1.6582  0.2162
 6694SOL     OW31717   2.865   0.398   2.716 -0.2161  0.2873  0.0057
 6694SOL    HW131718   2.857   0.469   2.652  2.1804 -0.3021 -0.9529
 6694SOL    HW231719   2.781   0.358   2.695 -0.4783  0.6107  0.4630
 6695SOL     OW31720   2.700   2.009   6.875 -0.3624  0.0800 -0.3034
 6695SOL    HW131721   2.688   1.984   6.967 -1.9455  3.2447  0.3443
 6695SOL    HW231722   2.713   2.103   6.888 -0.4911  0.4402 -2.6764
 6696SOL     OW31723   0.716   1.432   8.429 -0.2995  0.2032  0.2800
 6696SOL    HW131724   0.710   1.471   8.517 -0.0240  0.4261  0.2001
 6696SOL    HW231725   0.810   1.447   8.416 -0.1831  0.5277  1.4371
 6697SOL     OW31726   2.605   3.214  11.732  0.1853 -0.3297 -0.2590
 6697SOL    HW131727   2.523   3.195  11.777 -0.7693  1.6356 -1.1666
 6697SOL    HW231728   2.650   3.260  11.802  1.6487  0.0310 -1.4238
 6698SOL     OW31729   2.172   0.431   5.869  0.2258 -0.0641  0.8268
 6698SOL    HW131730   2.145   0.364   5.806  2.6853 -0.3888  0.1393
 6698SOL    HW231731   2.173   0.388   5.955  2.2158  0.8050  1.2323
 6699SOL     OW31732   4.047   1.033   0.305 -0.3835  0.6223 -0.3164
 6699SOL    HW131733   4.019   1.050   0.215  2.6191 -0.0682 -1.3797
 6699SOL    HW231734   3.982   1.088   0.349 -0.0285  1.6296 -1.0632
 6700SOL     OW31735   0.830   0.965   1.763  0.4683 -0.6077 -0.0345
 6700SOL    HW131736   0.900   0.961   1.828 -0.1556  3.3114  0.8884
 6700SOL    HW231737   0.815   0.870   1.759  1.0371 -0.7176  0.5448
 6701SOL     OW31738   3.776   0.254  15.399  0.5796 -0.3752 -0.1239
 6701SOL    HW131739   3.813   0.309  15.330  0.2377 -2.8051 -2.2535
 6701SOL    HW231740   3.828   0.174  15.406  3.7354  1.7998  0.8732
 6702SOL     OW31741   1.010   0.625   3.015  0.3805  0.4786 -0.4253
 6702SOL    HW131742   0.944   0.603   2.950 -0.4775  0.9510  0.2906
 6702SOL    HW231743   0.969   0.704   3.050  2.6644  0.9396  1.2415
 6703SOL     OW31744   3.183   1.005  13.456  0.0118  0.3813 -0.3131
 6703SOL    HW131745   3.205   1.086  13.502 -0.5256  2.5926 -3.9856
 6703SOL    HW231746   3.124   0.962  13.519 -0.7747  0.0649 -1.2640
 6704SOL     OW31747   1.717   1.573   7.319 -0.4932 -0.3396 -0.1069
 6704SOL    HW131748   1.696   1.664   7.298 -0.6043 -0.5087 -0.7171
 6704SOL    HW231749   1.810   1.589   7.334 -0.2117 -0.9561 -1.1879
 6705SOL     OW31750   3.707   2.072   3.387 -0.2460 -0.2514 -0.9644
 6705SOL    HW131751   3.632   2.020   3.416  0.1367 -0.0405  0.3992
 6705SOL    HW231752   3.664   2.128   3.322  1.2637  1.2945 -0.6181
 6706SOL     OW31753   2.952   0.642   4.354  0.3464 -0.6886  0.3000
 6706SOL    HW131754   2.941   0.547   4.348 -1.4246 -0.3809 -1.3403
 6706SOL    HW231755   3.022   0.658   4.291  0.1140 -1.7717 -0.2345
 6707SOL     OW31756   2.384   3.601   4.528 -0.3700 -0.1852 -0.1934
 6707SOL    HW131757   2.321   3.531   4.513 -0.4467  0.0088 -0.7774
 6707SOL    HW231758   2.403   3.617   4.435  0.0624  2.2705  0.3202
 6708SOL     OW31759   3.855   4.711   8.409 -0.1527  0.0722  0.8984
 6708SOL    HW131760   3.796   0.007   8.342 -0.2856 -1.7826  0.0152
 6708SOL    HW231761   3.879   0.054   8.449  1.5494 -0.8415  1.7547
 6709SOL     OW31762   1.391   0.267  16.448 -0.9667  0.5842 -0.0424
 6709SOL    HW131763   1.440   0.186  16.461 -0.7547  0.5852 -0.8407
 6709SOL    HW231764   1.379   0.296  16.539 -2.1581  1.8911 -0.6204
 6710SOL     OW31765   1.186   3.798   6.811  0.1652 -0.1937  0.3105
 6710SOL    HW131766   1.169   3.857   6.885 -2.0368  0.3326 -0.6417
 6710SOL    HW231767   1.121   3.731   6.829 -1.9268  2.4840  2.7975
 6711SOL     OW31768   0.134   1.957  13.885  0.4748  0.4801 -0.1978
 6711SOL    HW131769   0.128   2.034  13.828  0.1385  0.0361 -0.7487
 6711SOL    HW231770   0.066   1.984  13.948 -0.3139  1.3057 -1.3985
 6712SOL     OW31771   0.125   0.985   7.902 -0.0692  0.1965 -0.4363
 6712SOL    HW131772   0.100   1.024   7.818  1.6394 -0.8671 -1.4613
 6712SOL    HW231773   0.128   0.893   7.877 -0.7009  0.4201 -1.3344
 6713SOL     OW31774   3.639   3.818   6.918 -0.1891  0.2443  0.2803
 6713SOL    HW131775   3.578   3.744   6.923 -1.1415  1.1380  1.8650
 6713SOL    HW231776   3.685   3.814   7.002 -0.9023  1.1950  0.7249
 6714SOL     OW31777   2.152   3.353  16.431  0.0735 -0.0422 -0.3160
 6714SOL    HW131778   2.175   3.445  16.418 -0.0936  0.2457  1.3654
 6714SOL    HW231779   2.057   3.356  16.418  0.2148 -1.6579 -1.7194
 6715SOL     OW31780   1.020   1.857  16.627  0.2954  0.4888  0.3586
 6715SOL    HW131781   0.946   1.894  16.675  0.1871  0.2081  0.4122
 6715SOL    HW231782   1.036   1.921  16.559  1.8581 -0.2882 -0.0090
 6716SOL     OW31783   2.746   0.160   3.347 -0.2342 -0.2243 -0.0526
 6716SOL    HW131784   2.698   0.110   3.282  2.0285 -2.3382 -0.0778
 6716SOL    HW231785   2.779   0.102   3.415 -0.1003  1.5095  1.3698
 6717SOL     OW31786   2.036   0.348   2.940 -0.6812 -0.7108 -0.4151
 6717SOL    HW131787   2.086   0.409   2.886 -0.4107  0.1979  0.8612
 6717SOL    HW231788   2.073   0.261   2.928  1.6853  0.1268  0.6862
 6718SOL     OW31789   1.150   1.193  13.221 -0.1948 -0.2190 -0.2429
 6718SOL    HW131790   1.243   1.211  13.228 -0.2247  0.0100 -0.4649
 6718SOL    HW231791   1.111   1.258  13.280  0.7381 -0.1975  0.3470
 6719SOL     OW31792   2.089   4.008   3.368  0.3965 -0.2809 -0.0830
 6719SOL    HW131793   2.111   4.093   3.329 -1.4041  0.8440  1.3390
 6719SOL    HW231794   2.171   3.964   3.388 -0.2247 -1.1034  0.6364
 6720SOL     OW31795   2.048   2.204   0.043  0.3213 -0.0566  0.7091
 6720SOL    HW131796   2.128   2.203  17.748  1.2159  0.7778  2.0485
 6720SOL    HW231797   1.974   2.216  17.741  1.5110  3.5468 -0.0467
 6721SOL     OW31798   3.466   0.733   7.742  0.0478  0.0172  0.2423
 6721SOL    HW131799   3.551   0.693   7.758 -0.9851 -1.9564  0.8175
 6721SOL    HW231800   3.402   0.673   7.780  0.6854 -1.8931 -1.7098
 6722SOL     OW31801   1.855   0.191   0.474 -0.2576 -0.1882 -0.3731
 6722SOL    HW131802   1.894   0.263   0.425  0.2467  0.1696  0.5461
 6722SOL    HW231803   1.917   0.175   0.545 -0.9351  0.5490  0.3954
 6723SOL     OW31804   4.156   3.850  13.190  0.0043  0.4545  0.4393
 6723SOL    HW131805   4.237   3.887  13.225 -0.3533  1.1859  0.4946
 6723SOL    HW231806   4.147   3.891  13.104  1.9341 -1.0680 -0.4889
 6724SOL     OW31807   2.736   3.718   6.982 -0.3587  0.1972 -0.1584
 6724SOL    HW131808   2.704   3.641   7.031  0.3588  2.0296  3.1850
 6724SOL    HW231809   2.689   3.708   6.899 -0.4429  0.1889 -0.1104
 6725SOL     OW31810   1.167   3.927  12.179 -0.2324  0.0147 -0.2591
 6725SOL    HW131811   1.254   3.956  12.151 -0.9933  2.7680  0.2235
 6725SOL    HW231812   1.157   3.967  12.266 -0.3128 -1.1445  0.2608
 6726SOL     OW31813   4.123   3.035   8.206 -0.0365 -0.1630  0.6149
 6726SOL    HW131814   4.106   2.974   8.134 -0.2607 -0.8160  1.2273
 6726SOL    HW231815   4.214   3.059   8.187  0.7333 -1.5795  2.4920
 6727SOL     OW31816   2.275   1.486   2.236  0.1425 -0.2214 -0.6860
 6727SOL    HW131817   2.346   1.539   2.200  1.1730 -2.0460 -1.3375
 6727SOL    HW231818   2.248   1.421   2.171  0.2670  0.3957 -1.3496
 6728SOL     OW31819   0.298   1.837   2.655  0.0798 -0.1652 -0.1910
 6728SOL    HW131820   0.255   1.908   2.608  0.5706 -0.1230 -0.5803
 6728SOL    HW231821   0.214   1.792   2.661 -0.7971  1.4907 -0.1764
 6729SOL     OW31822   2.409   0.900   6.158  0.7518 -0.2039  0.0724
 6729SOL    HW131823   2.432   0.812   6.188  2.1041  0.4855  1.0642
 6729SOL    HW231824   2.317   0.894   6.185  0.5992  1.1094 -0.1272
 6730SOL     OW31825   2.285   0.571   4.545 -0.0504 -0.2739 -0.1089
 6730SOL    HW131826   2.242   0.651   4.513  2.0281  0.2076 -1.6610
 6730SOL    HW231827   2.242   0.572   4.630  1.6754 -1.3619  0.7677
 6731SOL     OW31828   3.864   3.596  13.195 -0.7083  0.6349  0.4242
 6731SOL    HW131829   3.878   3.526  13.259  0.4016  1.3033  0.9088
 6731SOL    HW231830   3.823   3.672  13.236 -1.0644  1.9043 -2.2738
 6732SOL     OW31831   1.556   0.374   2.505 -0.3009 -0.1784 -0.1729
 6732SOL    HW131832   1.503   0.336   2.435 -1.4407 -0.7621  1.0161
 6732SOL    HW231833   1.610   0.303   2.540  0.2400  0.4221  0.2111
 6733SOL     OW31834   0.699   0.874   1.011  0.0830 -0.1255  0.0264
 6733SOL    HW131835   0.704   0.904   0.920  1.5258  0.5903  0.3398
 6733SOL    HW231836   0.705   0.962   1.048  0.2939 -0.7583  1.5067
 6734SOL     OW31837   3.737   3.752  13.649  0.4780 -0.5185  0.1549
 6734SOL    HW131838   3.758   3.659  13.644 -1.0350 -0.6890 -3.1383
 6734SOL    HW231839   3.768   3.779  13.735 -4.2197  0.5292  1.5491
 6735SOL     OW31840   2.525   3.848   2.873 -0.3470 -0.4733  0.2766
 6735SOL    HW131841   2.541   3.758   2.842  1.6642  0.7495 -2.2559
 6735SOL    HW231842   2.557   3.903   2.801 -1.4656 -1.0775 -0.6814
 6736SOL     OW31843   3.109   3.935   7.433 -0.6133 -0.4669 -0.1718
 6736SOL    HW131844   3.134   3.870   7.367 -0.0383 -1.0879  0.6480
 6736SOL    HW231845   3.145   4.009   7.384 -1.6711  0.3176  0.2367
 6737SOL     OW31846   1.848   2.342  13.570  0.0889  0.0917 -0.3978
 6737SOL    HW131847   1.767   2.291  13.558 -0.3418  1.3258 -2.6561
 6737SOL    HW231848   1.896   2.294  13.637  1.6825  0.2609 -1.4296
 6738SOL     OW31849   3.286   2.461   2.387  0.0158  0.4313 -0.8874
 6738SOL    HW131850   3.228   2.419   2.323 -0.6303 -0.5138  0.3238
 6738SOL    HW231851   3.217   2.493   2.445 -0.2078  0.6999 -1.3000
 6739SOL     OW31852   3.987   4.473   5.856  0.0631 -0.7496  0.6076
 6739SOL    HW131853   4.032   4.537   5.911 -1.4502 -1.8341  3.1007
 6739SOL    HW231854   3.919   4.445   5.916 -1.9013 -1.4381 -1.9116
 6740SOL     OW31855   4.716   4.127   3.758  0.5450  0.5481 -0.4317
 6740SOL    HW131856   4.722   4.221   3.742 -0.5947  0.6850 -0.0255
 6740SOL    HW231857   0.070   4.109   3.751  0.6874  0.9662  0.4656
 6741SOL     OW31858   4.674   2.182  17.089 -0.0270 -0.3233 -0.0296
 6741SOL    HW131859   4.606   2.241  17.057 -0.6791 -0.7138  0.6438
 6741SOL    HW231860   4.705   2.221  17.171 -2.7593  1.9411 -0.1044
 6742SOL     OW31861   0.474   2.114  16.392  0.2198  0.2140  1.0718
 6742SOL    HW131862   0.421   2.085  16.466  0.0957  0.6730  1.1671
 6742SOL    HW231863   0.558   2.084  16.425  0.8156  0.0451 -0.6110
 6743SOL     OW31864   3.922   4.100  16.932  0.1611  0.0629 -0.2641
 6743SOL    HW131865   3.989   4.032  16.927  0.2912  0.0814  1.0346
 6743SOL    HW231866   3.871   4.064  17.005 -1.0212  1.2402 -0.5219
 6744SOL     OW31867   3.992   1.828  11.939  0.0630 -0.0729  0.2678
 6744SOL    HW131868   3.939   1.771  11.995 -0.3870  0.8011  0.7347
 6744SOL    HW231869   3.954   1.799  11.856 -1.7991  1.6086  0.5529
 6745SOL     OW31870   2.026   3.364   3.224  0.2716  0.2631 -0.1217
 6745SOL    HW131871   2.089   3.368   3.153 -1.4852  0.7413 -1.6530
 6745SOL    HW231872   2.015   3.269   3.233 -1.8735  0.3024 -2.2730
 6746SOL     OW31873   0.611   4.676   6.020  0.6893 -0.2528 -0.1695
 6746SOL    HW131874   0.541   4.680   5.955  1.9476 -0.7088 -1.5531
 6746SOL    HW231875   0.573   4.618   6.086 -0.3403  0.5736 -0.0538
 6747SOL     OW31876   3.743   3.324   2.640 -0.7510 -0.1810  0.4695
 6747SOL    HW131877   3.710   3.345   2.553  1.0006 -4.6714 -1.2953
 6747SOL    HW231878   3.799   3.249   2.618 -0.9159 -0.3058  0.4784
 6748SOL     OW31879   0.251   2.767  13.804 -0.2814 -0.0560  0.2054
 6748SOL    HW131880   0.239   2.715  13.725  1.8400  0.9368 -0.7873
 6748SOL    HW231881   0.320   2.831  13.783  1.2568 -2.1974 -1.2167
 6749SOL     OW31882   4.494   1.530  11.096  0.2446  0.5073 -0.0723
 6749SOL    HW131883   4.448   1.476  11.032 -0.3839 -0.6624  1.3472
 6749SOL    HW231884   4.416   1.578  11.123  0.5677  0.7875  0.3669
 6750SOL     OW31885   0.732   0.991   7.967 -0.8938  0.1810 -0.6699
 6750SOL    HW131886   0.775   0.906   7.960 -0.6069  0.1777  1.3421
 6750SOL    HW231887   0.810   1.047   7.962  0.3008 -1.4198 -0.0331
 6751SOL     OW31888   1.698   2.121   6.219  0.1452  0.5436  0.3498
 6751SOL    HW131889   1.645   2.146   6.144 -0.9521 -0.1110  0.9150
 6751SOL    HW231890   1.653   2.051   6.267  0.2594  0.8764  0.9475
 6752SOL     OW31891   1.493   0.899   9.306 -0.1375 -0.2155 -0.6990
 6752SOL    HW131892   1.525   0.889   9.216 -1.1161  0.0338 -1.0859
 6752SOL    HW231893   1.565   0.866   9.359 -0.5363 -0.6421 -0.4256
 6753SOL     OW31894   2.898   4.108  15.003 -0.2883  0.2037 -0.1368
 6753SOL    HW131895   2.910   4.079  14.913  1.5747  1.7995 -0.4050
 6753SOL    HW231896   2.921   4.201  15.005  1.1622 -0.1824  1.6791
 6754SOL     OW31897   0.875   0.066   4.906  0.3955 -0.4313 -0.0406
 6754SOL    HW131898   0.894   0.075   4.813 -1.4846  1.2782 -0.2604
 6754SOL    HW231899   0.834   4.719   4.910  0.4046 -0.3351  1.9599
 6755SOL     OW31900   1.733   3.166   5.890 -0.1173 -0.1592 -0.4414
 6755SOL    HW131901   1.749   3.142   5.982  1.6809  2.2025 -0.1389
 6755SOL    HW231902   1.690   3.086   5.860 -1.0625  0.6124 -1.1292
 6756SOL     OW31903   4.357   2.552  16.306 -0.2991  0.0952  0.0172
 6756SOL    HW131904   4.423   2.482  16.306 -0.0657  0.3101  0.8136
 6756SOL    HW231905   4.282   2.505  16.342  0.6290 -1.6449 -0.3296
 6757SOL     OW31906   2.323   1.102   9.090 -0.3050  0.1743 -0.0547
 6757SOL    HW131907   2.324   1.116   9.185  0.6325 -0.7514  0.0738
 6757SOL    HW231908   2.330   1.007   9.085 -0.2468  0.0614  2.2253
 6758SOL     OW31909   3.872   2.686   7.904  0.1294  0.1437 -0.0810
 6758SOL    HW131910   3.785   2.667   7.940 -0.4793  0.4570 -1.3969
 6758SOL    HW231911   3.906   2.597   7.912  3.7494  1.3171 -2.5111
 6759SOL     OW31912   0.938   2.726  11.239  0.4133 -0.2847  0.2610
 6759SOL    HW131913   1.029   2.747  11.221  0.0830  0.7605 -0.1728
 6759SOL    HW231914   0.943   2.686  11.326 -1.4385 -1.0243  0.0210
 6760SOL     OW31915   3.667   0.851  14.601  0.0680  0.1243 -0.3103
 6760SOL    HW131916   3.611   0.921  14.566  0.8158  0.1922 -1.3427
 6760SOL    HW231917   3.746   0.901  14.621  0.5358 -0.6801 -0.1888
 6761SOL     OW31918   2.421   1.661   2.861 -0.4814 -0.3722  0.0917
 6761SOL    HW131919   2.473   1.735   2.830 -1.4964  0.2715 -0.0663
 6761SOL    HW231920   2.460   1.639   2.945 -0.6260 -2.6022 -0.4200
 6762SOL     OW31921   0.452   3.868   5.314 -0.6444 -0.2687  0.0517
 6762SOL    HW131922   0.416   3.890   5.401  0.8361 -0.3434  0.6823
 6762SOL    HW231923   0.544   3.867   5.342 -0.0657  1.5804 -1.7772
 6763SOL     OW31924   3.993   3.211   5.058  0.3423 -0.0908  0.5276
 6763SOL    HW131925   4.065   3.268   5.084 -0.4206  1.2895 -0.3557
 6763SOL    HW231926   3.941   3.273   5.007 -1.2039 -0.9545  1.0346
 6764SOL     OW31927   3.067   3.100   1.880 -0.3845 -0.3271 -0.1512
 6764SOL    HW131928   3.150   3.144   1.902 -0.0006 -1.1457  0.0386
 6764SOL    HW231929   3.020   3.115   1.962  1.2361 -2.0672  1.1205
 6765SOL     OW31930   0.254   3.012   8.348  0.3374 -0.6263 -0.0142
 6765SOL    HW131931   0.164   3.009   8.381  0.1306 -0.0525 -0.5316
 6765SOL    HW231932   0.244   3.082   8.284 -1.9701 -0.9004  0.0524
 6766SOL     OW31933   3.604   1.312   6.597  0.3781 -0.2929  0.1902
 6766SOL    HW131934   3.523   1.357   6.574  2.2636  1.0982 -3.6593
 6766SOL    HW231935   3.677   1.345   6.545 -0.3501  1.4448  0.2663
 6767SOL     OW31936   4.072   3.407   6.384 -0.5197  0.3086  0.0328
 6767SOL    HW131937   4.133   3.408   6.309 -2.2334 -0.7198 -1.3668
 6767SOL    HW231938   4.071   3.501   6.399  0.1016  0.0675  1.5923
 6768SOL     OW31939   1.111   2.226   7.904 -0.2518  0.2537  0.0067
 6768SOL    HW131940   1.167   2.271   7.841 -0.5136  1.0496  0.3341
 6768SOL    HW231941   1.153   2.146   7.936 -1.2952 -0.0633  0.5942
 6769SOL     OW31942   4.507   1.307   3.311  0.5391 -0.1460 -0.8216
 6769SOL    HW131943   4.464   1.249   3.373  0.8102  0.5365  0.0021
 6769SOL    HW231944   4.597   1.282   3.331  0.4080 -0.4806 -0.6600
 6770SOL     OW31945   1.669   3.411   2.703  0.2582  0.2072 -0.6143
 6770SOL    HW131946   1.755   3.452   2.692  0.8653 -0.7074  0.7573
 6770SOL    HW231947   1.610   3.475   2.664 -0.0828 -0.0293 -0.4803
 6771SOL     OW31948   3.482   3.544   5.730  0.0045 -0.3151 -0.0687
 6771SOL    HW131949   3.426   3.570   5.657  0.4311 -1.0892 -0.6658
 6771SOL    HW231950   3.570   3.553   5.693 -0.0029  1.0694  0.2434
 6772SOL     OW31951   0.005   4.039   0.314 -0.3853 -0.1667  0.2539
 6772SOL    HW131952   4.701   3.957   0.336  0.8603 -0.8006  0.3252
 6772SOL    HW231953   0.060   4.053   0.391  1.4042  0.9392 -1.2493
 6773SOL     OW31954   1.218   0.397   9.089  0.2029 -0.5730  0.5483
 6773SOL    HW131955   1.163   0.319   9.099  1.4841 -1.0241  3.9883
 6773SOL    HW231956   1.161   0.458   9.134  0.1992  0.4522 -0.8398
 6774SOL     OW31957   0.826   3.124   2.643 -0.4049 -0.4154  0.5405
 6774SOL    HW131958   0.920   3.116   2.623 -0.4087  1.9580 -0.3811
 6774SOL    HW231959   0.789   3.163   2.564  2.1429 -3.1290 -1.9911
 6775SOL     OW31960   0.959   4.194   1.397  0.6732 -0.5519 -0.2575
 6775SOL    HW131961   0.885   4.180   1.456  1.0674  1.2873  0.6753
 6775SOL    HW231962   0.972   4.289   1.400  2.5915 -0.7771 -1.6214
 6776SOL     OW31963   2.367   0.137   4.484 -0.2998  0.2250  0.6390
 6776SOL    HW131964   2.327   0.214   4.443  0.7081 -0.6658 -2.0188
 6776SOL    HW231965   2.447   0.141   4.432 -1.2059 -0.5052 -0.8250
 6777SOL     OW31966   1.446   0.995   8.536  0.0362 -0.1292 -0.3682
 6777SOL    HW131967   1.508   1.068   8.538 -0.9166  0.6664  0.1911
 6777SOL    HW231968   1.457   0.952   8.620  3.2467  0.5479 -0.4698
 6778SOL     OW31969   2.874   4.407  12.791  0.4751  0.3190  0.0987
 6778SOL    HW131970   2.875   4.486  12.737 -0.1699 -0.8075 -1.5788
 6778SOL    HW231971   2.955   4.424  12.839  0.9204 -1.7653  0.0740
 6779SOL     OW31972   2.704   1.738  16.418  0.3710  0.8381 -0.4383
 6779SOL    HW131973   2.696   1.833  16.425  2.1959  1.1108 -2.1447
 6779SOL    HW231974   2.778   1.732  16.358 -0.2883 -1.0880 -1.0594
 6780SOL     OW31975   2.725   3.332  12.434  0.3071 -0.2454 -0.0081
 6780SOL    HW131976   2.658   3.309  12.498  0.7284 -0.6652  0.2864
 6780SOL    HW231977   2.724   3.427  12.444  0.3237 -0.3143  0.6804
 6781SOL     OW31978   1.780   1.269   2.408 -0.0688 -0.0401 -0.1882
 6781SOL    HW131979   1.701   1.239   2.363 -0.3194  0.0202  0.2083
 6781SOL    HW231980   1.841   1.275   2.335 -1.8226  2.6697 -1.3995
 6782SOL     OW31981   2.717   4.422  16.522  0.1112  0.0690  0.4370
 6782SOL    HW131982   2.671   4.338  16.518 -2.8231  1.6992  0.3998
 6782SOL    HW231983   2.787   4.396  16.461 -1.7643 -0.4854 -1.4555
 6783SOL     OW31984   3.302   3.337   1.672 -0.2179  0.0140 -0.0365
 6783SOL    HW131985   3.322   3.423   1.708  0.4504 -1.3894  2.9782
 6783SOL    HW231986   3.267   3.284   1.744  0.4912  2.3063  1.9836
 6784SOL     OW31987   2.693   4.056   9.213  0.1260 -0.1848  0.5983
 6784SOL    HW131988   2.701   4.151   9.213  0.3619 -0.2008  2.1495
 6784SOL    HW231989   2.757   4.035   9.146 -0.5628 -0.6589  0.0889
 6785SOL     OW31990   4.131   1.492  13.727  0.1041  0.1596 -0.2812
 6785SOL    HW131991   4.099   1.421  13.783  2.0397  0.9032  1.7694
 6785SOL    HW231992   4.060   1.487  13.663 -1.0058  0.7794  0.8794
 6786SOL     OW31993   1.177   1.164  15.626  0.1806 -0.2390 -0.4054
 6786SOL    HW131994   1.266   1.196  15.609  0.6576 -1.3513  0.0238
 6786SOL    HW231995   1.200   1.086  15.676  1.4617  0.5592  0.2699
 6787SOL     OW31996   4.015   0.816   1.583 -0.1250 -0.2020  0.2019
 6787SOL    HW131997   4.023   0.828   1.677 -0.8937  3.0413 -0.1460
 6787SOL    HW231998   3.995   0.904   1.551 -2.7841 -0.3116  1.5027
 6788SOL     OW31999   2.403   3.877   3.145 -0.5456  0.3256 -0.0338
 6788SOL    HW132000   2.465   3.843   3.080  1.0530  1.5449  0.8416
 6788SOL    HW232001   2.370   3.951   3.095 -0.3158  1.2288  1.1413
 6789SOL     OW32002   4.077   4.689  16.839  0.1515  0.0089 -0.1377
 6789SOL    HW132003   4.110   0.027  16.795 -2.0303  2.0124  1.8129
 6789SOL    HW232004   4.102   4.621  16.776 -0.1828 -0.3026  0.0689
 6790SOL     OW32005   3.540   2.190   3.187  0.3598 -0.0559  0.3449
 6790SOL    HW132006   3.515   2.136   3.112  2.3438  1.1998 -1.2217
 6790SOL    HW232007   3.454   2.181   3.227 -0.5185 -0.6264 -1.6789
 6791SOL     OW32008   3.273   1.697   1.549 -0.0888  0.2340  0.9469
 6791SOL    HW132009   3.236   1.608   1.551  1.2821 -0.3842 -0.9464
 6791SOL    HW232010   3.250   1.722   1.638  0.0799  1.4096  0.6611
 6792SOL     OW32011   1.800   2.443   0.952  0.1881  1.0340 -0.0903
 6792SOL    HW132012   1.781   2.502   1.024 -1.6428 -1.0868  1.1713
 6792SOL    HW232013   1.879   2.487   0.922 -1.6101  3.6047 -1.0114
 6793SOL     OW32014   0.558   2.608   3.014  0.4396 -0.1515 -0.1992
 6793SOL    HW132015   0.559   2.596   3.109 -0.4961 -2.9410 -0.5470
 6793SOL    HW232016   0.495   2.680   3.002 -0.1205 -0.3607  1.4688
 6794SOL     OW32017   4.144   4.225   7.114  0.2711  0.1519 -0.5497
 6794SOL    HW132018   4.220   4.177   7.146 -0.4651  0.6615  1.9108
 6794SOL    HW232019   4.086   4.149   7.102 -1.7429  1.3984  1.3871
 6795SOL     OW32020   3.683   2.542  10.642  0.4255 -0.2786 -0.3724
 6795SOL    HW132021   3.672   2.549  10.736  2.3177  2.5140 -0.3547
 6795SOL    HW232022   3.600   2.587  10.625  0.9198  0.8959  0.3025
 6796SOL     OW32023   0.002   4.598   2.863 -0.0560  0.0416 -0.2878
 6796SOL    HW132024   4.683   4.550   2.805 -0.8660 -1.2626  1.6190
 6796SOL    HW232025   4.704   4.583   2.949  0.2418  0.2415 -0.1221
 6797SOL     OW32026   0.341   4.697   4.509 -0.0243 -0.0064 -0.1294
 6797SOL    HW132027   0.339   0.025   4.442  0.6072 -1.9540 -2.1388
 6797SOL    HW232028   0.400   4.633   4.469  1.7719  0.0634  2.4084
 6798SOL     OW32029   3.758   3.374   6.704  0.0352  0.2856  0.0043
 6798SOL    HW132030   3.663   3.369   6.714  0.1154  0.8917  0.9881
 6798SOL    HW232031   3.772   3.377   6.609  0.2596  2.0371  0.0980
 6799SOL     OW32032   3.983   1.141  15.603 -0.1387  0.3741  0.1508
 6799SOL    HW132033   3.904   1.181  15.639  0.3052 -0.5217  2.1579
 6799SOL    HW232034   4.049   1.210  15.609 -0.0735  0.3580 -0.4505
 6800SOL     OW32035   0.911   3.228   6.446  0.5346  0.3199 -0.3297
 6800SOL    HW132036   0.853   3.165   6.404 -1.3882  1.5805  0.4334
 6800SOL    HW232037   0.974   3.242   6.375  0.2805 -2.3564 -1.0614
 6801SOL     OW32038   0.374   4.369   8.008 -0.0232  0.6342  0.6694
 6801SOL    HW132039   0.282   4.349   8.026 -0.3277  1.7120  0.3000
 6801SOL    HW232040   0.413   4.284   8.032 -0.3347  0.5476  0.8628
 6802SOL     OW32041   3.785   4.645   1.808  0.0427  0.5477 -0.8534
 6802SOL    HW132042   3.848   4.712   1.833  0.6430 -1.2985  2.6155
 6802SOL    HW232043   3.728   4.697   1.752 -1.2957 -0.0531 -0.0413
 6803SOL     OW32044   2.804   4.591   9.320  0.3240  0.7308  0.8271
 6803SOL    HW132045   2.893   4.569   9.291 -0.7303 -3.2476  0.6858
 6803SOL    HW232046   2.776   4.504   9.345 -0.7256  0.9087  0.2466
 6804SOL     OW32047   3.461   4.659   0.430 -0.7474  0.4549 -0.1625
 6804SOL    HW132048   3.461   4.564   0.435  0.4652  0.3690 -1.7555
 6804SOL    HW232049   3.437   4.667   0.338  0.4140  0.1463 -0.4960
 6805SOL     OW32050   3.015   4.477   7.298 -0.2939  0.2470 -0.2601
 6805SOL    HW132051   3.034   4.551   7.356 -0.1593 -1.2018  1.5450
 6805SOL    HW232052   2.922   4.490   7.279 -0.4358 -0.4285 -0.0467
 6806SOL     OW32053   1.928   2.794   6.055  0.0460 -0.1579 -0.3082
 6806SOL    HW132054   1.952   2.805   6.147 -2.4574  2.3127  0.0395
 6806SOL    HW232055   2.010   2.765   6.016 -1.4635 -1.2343 -2.6859
 6807SOL     OW32056   3.443   3.963   8.825  0.2050 -0.8047 -0.1365
 6807SOL    HW132057   3.479   3.882   8.861  3.2596 -0.2807 -2.0060
 6807SOL    HW232058   3.375   3.927   8.769 -0.4869 -1.2613  0.9927
 6808SOL     OW32059   2.365   2.953   3.627  0.2934  0.4388 -0.2211
 6808SOL    HW132060   2.430   2.971   3.559  1.3585 -0.7798  0.4860
 6808SOL    HW232061   2.283   2.980   3.587 -1.0957  0.7898  2.8630
 6809SOL     OW32062   0.048   4.654   1.870 -0.1020  0.2109 -0.4833
 6809SOL    HW132063   0.022   4.734   1.825 -0.7780  1.8591  2.8704
 6809SOL    HW232064   0.142   4.651   1.853 -0.6574  4.1096 -4.1838
 6810SOL     OW32065   3.870   1.423   2.682  0.1440 -0.1396  0.2470
 6810SOL    HW132066   3.778   1.430   2.655  0.2251  0.4052  0.1118
 6810SOL    HW232067   3.898   1.509   2.651  2.4877 -0.7087  0.7981
 6811SOL     OW32068   2.378   3.600   0.686 -0.3160 -0.3764 -0.3692
 6811SOL    HW132069   2.397   3.519   0.733  2.1022 -1.0897 -2.5612
 6811SOL    HW232070   2.285   3.595   0.668 -0.1589  0.3688 -1.3598
 6812SOL     OW32071   3.156   3.773   6.444 -0.6198 -0.6780 -0.7987
 6812SOL    HW132072   3.199   3.688   6.446 -0.1875 -0.5618 -3.7668
 6812SOL    HW232073   3.220   3.820   6.390  0.0420 -0.7727 -0.0943
 6813SOL     OW32074   2.169   0.943  17.069 -0.2335 -0.2576  0.5531
 6813SOL    HW132075   2.164   1.026  17.022 -2.1044 -1.2110 -0.9605
 6813SOL    HW232076   2.250   0.956  17.118  1.7525 -0.6834 -2.6648
 6814SOL     OW32077   1.921   0.127  16.665 -0.0703  0.5196 -0.2456
 6814SOL    HW132078   1.978   0.086  16.730  1.9327  1.7808 -1.1910
 6814SOL    HW232079   1.882   0.203  16.709 -1.9951 -0.3437 -0.4496
 6815SOL     OW32080   2.507   2.553  15.040  0.2567  0.1529  0.0271
 6815SOL    HW132081   2.562   2.583  15.112 -1.2287  0.2758  1.0950
 6815SOL    HW232082   2.578   2.528  14.980  0.7887  2.8024 -0.4394
 6816SOL     OW32083   3.655   1.897   6.043  0.1374 -0.6572 -0.0378
 6816SOL    HW132084   3.731   1.899   5.984  0.2819  2.1915  0.2374
 6816SOL    HW232085   3.586   1.899   5.977 -1.1680  0.0452  1.3696
 6817SOL     OW32086   1.952   4.069   5.854 -0.7539 -0.2524 -0.0341
 6817SOL    HW132087   1.927   3.979   5.873  2.6730 -1.0416  0.7947
 6817SOL    HW232088   1.918   4.112   5.932 -3.0384 -0.3036 -1.0119
 6818SOL     OW32089   0.336   1.367   5.630  0.4677 -0.1103  0.3852
 6818SOL    HW132090   0.291   1.324   5.557 -1.7069  0.8078  1.1839
 6818SOL    HW232091   0.344   1.452   5.586  0.4868 -0.1841  0.2454
 6819SOL     OW32092   4.153   0.561   3.084 -0.1993  0.1773 -0.1416
 6819SOL    HW132093   4.119   0.612   3.011  1.0370  0.9277 -0.1983
 6819SOL    HW232094   4.168   0.479   3.038 -0.5517  1.0006 -1.7098
 6820SOL     OW32095   3.289   1.605   8.235  0.0735 -0.3350 -0.4986
 6820SOL    HW132096   3.207   1.648   8.209  0.4530 -0.4215 -1.8173
 6820SOL    HW232097   3.324   1.662   8.304  0.1830  1.5893 -2.1495
 6821SOL     OW32098   0.165   4.359   9.498 -0.1806  0.3271 -0.3157
 6821SOL    HW132099   0.174   4.267   9.525 -0.4896  0.9832  1.9961
 6821SOL    HW232100   0.073   4.370   9.519  0.0107  3.6634 -1.3380
 6822SOL     OW32101   1.652   2.015  17.063  0.5600  0.1041 -0.3945
 6822SOL    HW132102   1.709   2.034  17.138 -0.9489 -2.6533  1.4103
 6822SOL    HW232103   1.682   1.924  17.057  0.5358  0.1257 -0.8770
 6823SOL     OW32104   1.515   2.754   1.780 -0.0387  0.2583  0.1829
 6823SOL    HW132105   1.462   2.730   1.856  0.7045 -0.4570  0.4757
 6823SOL    HW232106   1.600   2.727   1.817  0.7128 -0.4160 -2.0439
 6824SOL     OW32107   2.308   0.713  15.250  0.4556  0.2208 -0.1494
 6824SOL    HW132108   2.325   0.752  15.165  3.1296 -0.9387 -0.1438
 6824SOL    HW232109   2.214   0.733  15.253  0.6321  1.0316 -0.1107
 6825SOL     OW32110   1.868   0.609   4.083  0.0206  0.6925 -0.0440
 6825SOL    HW132111   1.790   0.633   4.132 -0.6403 -0.5076 -0.5183
 6825SOL    HW232112   1.928   0.599   4.157  2.0035  2.1732 -1.4492
 6826SOL     OW32113   3.080   1.235   1.656  0.4511 -0.8533  0.5528
 6826SOL    HW132114   3.001   1.217   1.707 -0.3613  1.6978  0.1801
 6826SOL    HW232115   3.144   1.169   1.685  0.3757 -1.4550 -0.6484
 6827SOL     OW32116   4.251   4.490   5.379  0.1285 -0.0870 -0.6415
 6827SOL    HW132117   4.289   4.548   5.313 -0.0287  2.8334  1.8651
 6827SOL    HW232118   4.280   4.534   5.459 -0.1810  1.8061 -1.5705
 6828SOL     OW32119   2.901   3.121   4.877 -0.0090  0.6578  0.3402
 6828SOL    HW132120   2.890   3.047   4.936 -0.4845  0.2086 -0.3034
 6828SOL    HW232121   2.996   3.125   4.867 -0.2112 -0.2181 -2.1439
 6829SOL     OW32122   1.764   0.510   0.813 -0.2274  0.0615  0.1813
 6829SOL    HW132123   1.680   0.542   0.846  0.0475 -0.9325  1.8582
 6829SOL    HW232124   1.797   0.595   0.784  1.3090 -1.4073 -2.3818
 6830SOL     OW32125   1.380   3.551   5.595  0.4204  0.2521  0.7452
 6830SOL    HW132126   1.303   3.506   5.630  0.4952  0.5210  1.2678
 6830SOL    HW232127   1.348   3.617   5.534  0.6469 -1.3084 -1.0669
 6831SOL     OW32128   4.535   0.520   6.906  0.1306  0.3405  0.7192
 6831SOL    HW132129   4.510   0.568   6.985 -1.3565 -2.9395  2.2419
 6831SOL    HW232130   4.535   0.431   6.939  0.1159 -0.2484 -0.8668
 6832SOL     OW32131   1.480   4.740  14.790  0.5714  0.0352 -0.2272
 6832SOL    HW132132   1.488   4.669  14.854  2.1226 -0.8427 -1.4022
 6832SOL    HW232133   1.387   4.732  14.766  0.8698 -0.1080 -1.3165
 6833SOL     OW32134   1.767   3.041   6.390 -0.3540  0.4272  0.0369
 6833SOL    HW132135   1.782   3.133   6.365  3.2273 -0.1950 -0.1237
 6833SOL    HW232136   1.824   3.032   6.467  0.6301  2.6507 -0.4159
 6834SOL     OW32137   0.680   0.015   9.410 -0.2312 -0.9555  0.1566
 6834SOL    HW132138   0.647   4.735   9.497  0.4305 -1.2181  0.3375
 6834SOL    HW232139   0.617   0.083   9.385  0.1104 -0.5946  0.2780
 6835SOL     OW32140   1.665   0.263  13.978 -0.9154  0.1851 -0.4786
 6835SOL    HW132141   1.605   0.332  14.006 -0.4888  0.9230 -1.3810
 6835SOL    HW232142   1.608   0.187  13.987 -0.3611 -0.0767  0.7824
 6836SOL     OW32143   3.032   1.404   9.740 -0.2133  0.0601 -0.5909
 6836SOL    HW132144   3.052   1.449   9.658  1.0093 -1.6837 -1.2566
 6836SOL    HW232145   3.101   1.337   9.742 -2.4192 -2.1832 -0.1349
 6837SOL     OW32146   0.901   3.390  10.965 -0.2435 -0.4048  0.1784
 6837SOL    HW132147   0.979   3.394  11.020 -0.1036  0.0424 -0.0563
 6837SOL    HW232148   0.888   3.295  10.958 -1.6434 -0.2176  0.2602
 6838SOL     OW32149   4.006   3.505  14.240  0.1493 -0.3620  0.2458
 6838SOL    HW132150   4.096   3.490  14.212 -0.4439  1.3507 -2.5573
 6838SOL    HW232151   3.968   3.458  14.166  1.3502  1.0419 -1.2791
 6839SOL     OW32152   3.371   0.718   3.962 -0.1214  0.2365  0.1785
 6839SOL    HW132153   3.427   0.640   3.974  0.8640  0.9518  0.2352
 6839SOL    HW232154   3.437   0.786   3.977  1.1393 -1.0138  0.3310
 6840SOL     OW32155   3.561   2.850   3.807  0.7681 -0.0382  0.1392
 6840SOL    HW132156   3.639   2.886   3.764  0.3921 -1.8090 -1.9792
 6840SOL    HW232157   3.595   2.767   3.840 -1.1184 -0.9967 -0.3670
 6841SOL     OW32158   2.044   4.344   3.786  0.6357  1.0110 -0.4256
 6841SOL    HW132159   2.129   4.301   3.789  0.2278  0.0432 -2.9482
 6841SOL    HW232160   2.049   4.412   3.853 -0.7811 -0.0810  0.7656
 6842SOL     OW32161   2.175   3.478   5.627 -0.4540  0.3689 -0.0943
 6842SOL    HW132162   2.195   3.571   5.629  3.7032 -0.4727 -2.9130
 6842SOL    HW232163   2.260   3.449   5.594 -0.3133  0.6623  0.0107
 6843SOL     OW32164   1.437   4.420   6.666  0.0017 -0.6041 -0.2265
 6843SOL    HW132165   1.341   4.423   6.667 -0.0716 -2.6098 -1.5025
 6843SOL    HW232166   1.454   4.509   6.699  0.0767 -0.0162 -1.8620
 6844SOL     OW32167   0.705   4.254   2.285  0.2219  0.1898  0.8436
 6844SOL    HW132168   0.739   4.339   2.313  0.4411 -0.4540  2.5755
 6844SOL    HW232169   0.646   4.250   2.360 -0.4274  1.6965  0.3953
 6845SOL     OW32170   0.475   4.302   9.190 -0.2175 -0.1496 -0.4566
 6845SOL    HW132171   0.396   4.349   9.217  0.2485  0.4693 -0.1819
 6845SOL    HW232172   0.475   4.318   9.095  1.5058 -0.7741 -0.5631
 6846SOL     OW32173   1.693   2.516   7.968  0.2285 -0.0794 -0.1792
 6846SOL    HW132174   1.746   2.499   8.046  0.2437  0.7272 -0.0221
 6846SOL    HW232175   1.629   2.578   8.002  1.0935  1.3631 -1.1975
 6847SOL     OW32176   3.553   2.364   8.655 -0.1596  0.0510  0.1516
 6847SOL    HW132177   3.592   2.423   8.591  0.2668  0.3958  0.7350
 6847SOL    HW232178   3.461   2.390   8.666  0.1721  1.5504 -0.7574
 6848SOL     OW32179   4.699   2.457   8.562  0.5211  0.0515 -0.0786
 6848SOL    HW132180   4.677   2.530   8.505 -0.7702  0.6316  1.1617
 6848SOL    HW232181   4.639   2.386   8.539  0.4413  0.1728 -0.2417
 6849SOL     OW32182   0.697   4.358   6.762  0.1335  0.1904  0.1811
 6849SOL    HW132183   0.709   4.331   6.853  0.5791 -0.8290 -0.1814
 6849SOL    HW232184   0.788   4.370   6.736  1.0006 -4.3016  1.2364
 6850SOL     OW32185   2.945   2.836   3.281 -0.4954  0.2507 -0.2653
 6850SOL    HW132186   2.901   2.896   3.341 -0.8839 -0.4353  0.1419
 6850SOL    HW232187   2.993   2.896   3.224 -2.4663  2.7625  0.7362
 6851SOL     OW32188   3.025   2.456   3.064  0.0648 -0.0639 -0.8812
 6851SOL    HW132189   3.019   2.494   2.977  1.2419  0.1863 -0.8549
 6851SOL    HW232190   3.120   2.464   3.071 -0.2116  0.3577  2.2059
 6852SOL     OW32191   2.514   4.134  14.610  0.2800  0.3498 -0.4429
 6852SOL    HW132192   2.570   4.059  14.588 -1.3868 -0.8831 -0.5285
 6852SOL    HW232193   2.436   4.114  14.559  0.7287  0.8640 -1.3318
 6853SOL     OW32194   0.548   0.902   3.497 -0.0817 -0.5398 -0.0697
 6853SOL    HW132195   0.607   0.842   3.542 -1.7020 -0.6154  1.9620
 6853SOL    HW232196   0.506   0.938   3.575  1.3226  0.7476  0.0893
 6854SOL     OW32197   1.692   2.327   4.342  0.0175  0.2808 -0.0251
 6854SOL    HW132198   1.729   2.302   4.426 -0.1520  0.1649  0.0157
 6854SOL    HW232199   1.610   2.369   4.369  0.6779  1.4858  0.0862
 6855SOL     OW32200   1.924   2.549   4.351 -1.0135 -0.2377 -0.3274
 6855SOL    HW132201   1.919   2.630   4.300  2.4512 -0.1718 -0.5855
 6855SOL    HW232202   1.876   2.485   4.299  0.0229 -0.0461 -1.5138
 6856SOL     OW32203   3.799   1.578   7.679 -0.2599  0.3961 -0.4167
 6856SOL    HW132204   3.792   1.482   7.676 -0.4102  0.4038 -0.2829
 6856SOL    HW232205   3.789   1.610   7.589  0.9690 -0.5671 -0.9035
 6857SOL     OW32206   0.344   0.530   9.281 -0.3247 -0.5751 -0.5903
 6857SOL    HW132207   0.284   0.465   9.318 -0.7273  0.7560  1.0898
 6857SOL    HW232208   0.356   0.495   9.193  0.3841  0.9519 -1.0925
 6858SOL     OW32209   1.143   1.841   7.733 -0.0814 -0.1539 -0.4508
 6858SOL    HW132210   1.051   1.852   7.756 -0.5109 -1.9819 -1.3018
 6858SOL    HW232211   1.185   1.819   7.816  0.1465  0.6304 -0.3596
 6859SOL     OW32212   0.091   1.210  10.681 -0.2122 -0.2118 -0.3203
 6859SOL    HW132213   0.112   1.247  10.596  1.0055  2.0907  0.9865
 6859SOL    HW232214   0.168   1.156  10.699 -1.9063 -2.4189  0.3222
 6860SOL     OW32215   4.284   4.698   7.511  0.3649 -0.3656 -0.0028
 6860SOL    HW132216   4.284   0.030   7.574  0.9786 -0.6072  0.2652
 6860SOL    HW232217   4.217   4.640   7.548 -0.3468  0.4945  0.0460
 6861SOL     OW32218   2.187   1.438  14.557 -0.2473  0.0998 -0.1915
 6861SOL    HW132219   2.134   1.509  14.594  0.5649  0.8350 -0.4278
 6861SOL    HW232220   2.271   1.481  14.542 -0.4839  0.9751  0.9738
 6862SOL     OW32221   4.212   3.891   8.782  0.6448 -0.1089 -0.0084
 6862SOL    HW132222   4.222   3.799   8.758  0.0728  0.1734 -1.3057
 6862SOL    HW232223   4.300   3.907   8.818 -0.4954 -0.1196  2.7886
 6863SOL     OW32224   3.733   0.804   9.259 -0.8357  0.5334  0.2538
 6863SOL    HW132225   3.639   0.798   9.244 -0.5304 -1.1981 -1.0412
 6863SOL    HW232226   3.769   0.748   9.190 -1.6406  0.4847 -0.1240
 6864SOL     OW32227   0.444   1.193  12.685 -0.5081  0.1920  0.1085
 6864SOL    HW132228   0.439   1.100  12.704 -1.7494  0.0990 -0.7320
 6864SOL    HW232229   0.466   1.191  12.592 -1.7667  0.4009 -0.1886
 6865SOL     OW32230   3.128   0.622   3.218 -0.0182 -0.2660  0.0444
 6865SOL    HW132231   3.155   0.664   3.299  1.4118 -1.0871 -0.0037
 6865SOL    HW232232   3.200   0.560   3.209  0.6255  0.4508  0.3048
 6866SOL     OW32233   0.615   1.036   2.318 -0.1321 -0.2945 -0.1304
 6866SOL    HW132234   0.574   1.121   2.335 -1.0662 -0.2815 -2.4206
 6866SOL    HW232235   0.703   1.044   2.354  0.5968 -0.0084 -1.9883
 6867SOL     OW32236   1.977   4.615   4.251 -0.1808 -0.3418 -0.2849
 6867SOL    HW132237   2.004   4.651   4.335  0.6981 -1.4118 -0.1146
 6867SOL    HW232238   1.983   4.522   4.272  0.9066  0.1056  1.4171
 6868SOL     OW32239   4.243   1.335   4.721 -0.2440  0.8318 -0.7582
 6868SOL    HW132240   4.292   1.417   4.724 -0.0182  0.6885 -0.5853
 6868SOL    HW232241   4.152   1.367   4.720 -0.4790  0.1468 -1.2290
 6869SOL     OW32242   3.093   1.423   2.870  0.4385  1.2977 -1.2105
 6869SOL    HW132243   3.132   1.393   2.952  1.0585 -1.3268 -2.4550
 6869SOL    HW232244   3.026   1.481   2.908  0.3197 -0.2973  1.0107
 6870SOL     OW32245   2.464   3.996   9.811  0.1871  0.5362 -0.0631
 6870SOL    HW132246   2.485   3.918   9.862  0.2662  1.7827  1.8060
 6870SOL    HW232247   2.378   4.014   9.849  0.6920  0.5753  1.0786
 6871SOL     OW32248   0.441   2.487   2.724 -0.2424 -0.0064 -0.1217
 6871SOL    HW132249   0.534   2.510   2.733 -0.5538  1.1346  0.2481
 6871SOL    HW232250   0.421   2.473   2.816 -1.4315  1.5248 -0.1427
 6872SOL     OW32251   4.227   3.357   5.435 -0.1567 -0.1709  0.4434
 6872SOL    HW132252   4.203   3.445   5.405 -2.4994 -1.1278 -0.4867
 6872SOL    HW232253   4.323   3.356   5.433 -0.1727 -0.4625 -0.1394
 6873SOL     OW32254   1.761   1.442   4.994  0.4919  0.1552  0.7560
 6873SOL    HW132255   1.777   1.465   5.085 -1.9890 -0.8467  1.4319
 6873SOL    HW232256   1.842   1.472   4.952  2.0964  0.8345  4.3609
 6874SOL     OW32257   2.787   3.247   4.074 -0.1345  0.2739 -0.6533
 6874SOL    HW132258   2.857   3.191   4.108 -1.6246 -0.7595  0.7242
 6874SOL    HW232259   2.809   3.244   3.981  0.2398  1.0842 -0.5899
 6875SOL     OW32260   3.472   3.876   0.370  0.7200  0.9940  0.0857
 6875SOL    HW132261   3.390   3.826   0.381  2.3616 -0.9630  3.6483
 6875SOL    HW232262   3.436   3.953   0.326  0.7869 -1.0802 -3.5448
 6876SOL     OW32263   2.769   0.965   3.333  0.5196 -0.0706 -0.0238
 6876SOL    HW132264   2.720   0.942   3.412  1.2949 -0.8224  0.2387
 6876SOL    HW232265   2.714   1.035   3.298 -1.1952 -1.2950  0.2206
 6877SOL     OW32266   3.602   0.308   6.419  0.1583 -0.6671 -0.6057
 6877SOL    HW132267   3.615   0.225   6.465 -0.4997 -0.0638  0.6945
 6877SOL    HW232268   3.668   0.361   6.465 -2.1115  0.4067  1.4577
 6878SOL     OW32269   4.027   4.334  13.646 -0.2573  0.2001 -0.4120
 6878SOL    HW132270   4.011   4.391  13.571  2.4684  0.3843 -0.8412
 6878SOL    HW232271   3.939   4.297  13.640  0.0425 -1.0083  2.3886
 6879SOL     OW32272   0.062   0.035   5.794 -0.0775  0.4072 -0.0800
 6879SOL    HW132273   0.054   0.005   5.703 -0.5631  1.0011 -0.2308
 6879SOL    HW232274   0.147   0.078   5.784  0.7329 -0.8957  1.2126
 6880SOL     OW32275   1.208   1.596   8.324  0.4217  0.2118  0.0164
 6880SOL    HW132276   1.196   1.562   8.236  2.2671 -1.4412  0.4100
 6880SOL    HW232277   1.196   1.691   8.330  0.0926  0.1949 -0.4358
 6881SOL     OW32278   3.810   1.873   4.311 -0.5859  0.5509 -0.0552
 6881SOL    HW132279   3.824   1.829   4.395  0.4954  2.1496  0.6057
 6881SOL    HW232280   3.886   1.931   4.322 -1.1970  1.3682 -0.1769
 6882SOL     OW32281   1.024   3.638   3.474  0.2176  0.0059 -0.1552
 6882SOL    HW132282   1.062   3.581   3.540  0.4507 -0.4907 -0.7169
 6882SOL    HW232283   0.933   3.611   3.461  0.2295 -0.0750 -0.0667
 6883SOL     OW32284   3.790   1.951   3.010 -0.2478 -0.2693  0.0444
 6883SOL    HW132285   3.711   2.003   3.024 -0.4908 -0.5285 -0.3394
 6883SOL    HW232286   3.830   1.968   3.095 -0.2418  2.7717 -0.5619
 6884SOL     OW32287   3.334   1.722   4.396 -0.2573  0.7674  0.3065
 6884SOL    HW132288   3.319   1.650   4.335 -0.2665  1.5982 -0.6726
 6884SOL    HW232289   3.295   1.791   4.343  1.2415  2.1756  1.0265
 6885SOL     OW32290   0.572   1.748   1.610  0.3225 -0.2307  0.2110
 6885SOL    HW132291   0.542   1.686   1.675 -3.3974  0.2746 -1.0420
 6885SOL    HW232292   0.660   1.766   1.644  0.1746 -2.4009  1.6806
 6886SOL     OW32293   2.509   3.916   6.316  0.2794 -0.7449 -0.3516
 6886SOL    HW132294   2.560   3.978   6.369 -2.1881  0.1950  0.9653
 6886SOL    HW232295   2.427   3.933   6.362  0.5274 -1.7984  0.4738
 6887SOL     OW32296   4.316   2.743   4.427  0.4284  0.4750  0.0492
 6887SOL    HW132297   4.276   2.828   4.408 -3.2535 -0.9832  1.2237
 6887SOL    HW232298   4.243   2.683   4.412 -0.2156  1.0131  0.9806
 6888SOL     OW32299   0.627   3.989   8.879  0.2563  0.1850  0.0196
 6888SOL    HW132300   0.695   4.053   8.902 -1.5439  2.1220 -0.0469
 6888SOL    HW232301   0.665   3.962   8.795  2.0101  2.8585 -0.0545
 6889SOL     OW32302   4.084   3.832  17.480  0.4363 -0.7649 -0.1395
 6889SOL    HW132303   4.099   3.743  17.512  2.0991 -0.1389  0.7985
 6889SOL    HW232304   4.084   3.816  17.385  1.2758 -1.3902 -0.0323
 6890SOL     OW32305   4.463   2.138  15.800  0.0618  0.1062  0.5168
 6890SOL    HW132306   4.532   2.078  15.830 -0.1199 -1.1244 -1.5273
 6890SOL    HW232307   4.505   2.217  15.768 -0.0983  0.0962  0.2843
 6891SOL     OW32308   3.308   0.498  13.115  0.2986  0.1292  0.0408
 6891SOL    HW132309   3.348   0.574  13.158  2.5027 -1.1816  0.3030
 6891SOL    HW232310   3.238   0.539  13.065 -0.8453 -0.6567  0.9757
 6892SOL     OW32311   3.764   1.308   2.137 -0.0711  0.1246 -0.4798
 6892SOL    HW132312   3.713   1.304   2.217  0.3214 -2.0180 -0.3267
 6892SOL    HW232313   3.703   1.273   2.071 -0.6384 -1.0584  0.6775
 6893SOL     OW32314   3.075   3.651   4.791 -0.7139 -0.2645  0.2096
 6893SOL    HW132315   2.983   3.656   4.816  0.3688  1.4448  3.7214
 6893SOL    HW232316   3.055   3.596   4.715 -2.5244  0.0063  0.5050
 6894SOL     OW32317   3.572   1.524   4.986  0.5579 -0.1540 -0.0551
 6894SOL    HW132318   3.611   1.465   5.051 -0.6333 -2.0539 -1.0716
 6894SOL    HW232319   3.501   1.560   5.041  1.9295  2.9059 -0.2934
 6895SOL     OW32320   0.687   4.055   7.133 -0.1853 -0.2843  0.0041
 6895SOL    HW132321   0.715   3.969   7.164 -2.6238 -0.7758  0.8399
 6895SOL    HW232322   0.603   4.036   7.089 -1.0149 -0.0134  1.4858
 6896SOL     OW32323   1.905   3.183   5.466  0.2971  0.3981 -0.3407
 6896SOL    HW132324   1.959   3.260   5.486  0.0487  0.7441 -1.0098
 6896SOL    HW232325   1.919   3.158   5.375 -0.7590  2.0616 -0.9661
 6897SOL     OW32326   3.988   0.329   5.273 -0.2897  0.0272 -0.3638
 6897SOL    HW132327   3.974   0.418   5.304  0.4713  0.6233 -1.7308
 6897SOL    HW232328   4.027   0.293   5.353  0.4251 -0.1695 -0.7997
 6898SOL     OW32329   2.601   2.794   6.184 -0.4517  0.0883  0.1172
 6898SOL    HW132330   2.524   2.745   6.156  0.4611 -1.4599  0.2932
 6898SOL    HW232331   2.668   2.729   6.164  0.2107  0.2499  1.8033
 6899SOL     OW32332   3.104   2.081   5.325 -0.2527 -0.3986 -0.6108
 6899SOL    HW132333   3.109   2.175   5.309  1.4799 -0.1734  1.2793
 6899SOL    HW232334   3.161   2.041   5.260 -0.9225  0.6529 -1.8405
 6900SOL     OW32335   3.147   3.909   2.481  0.0971  0.8021  0.4507
 6900SOL    HW132336   3.097   3.904   2.563  1.0408 -1.8389  0.8737
 6900SOL    HW232337   3.136   4.000   2.455 -0.8533  0.6299  0.2397
 6901SOL     OW32338   2.663   3.311   9.824  0.7103 -0.0274 -0.4003
 6901SOL    HW132339   2.592   3.247   9.817  1.0090 -0.3934 -0.0786
 6901SOL    HW232340   2.642   3.385   9.767 -1.4170  0.4006  0.9057
 6902SOL     OW32341   0.474   3.510   3.461 -0.0680  0.0898  0.0135
 6902SOL    HW132342   0.558   3.520   3.506  0.0347  0.0748 -0.1751
 6902SOL    HW232343   0.428   3.486   3.542 -1.1068 -0.2550 -0.6804
 6903SOL     OW32344   2.958   0.552  13.356  0.7182 -0.1675  0.2072
 6903SOL    HW132345   2.917   0.639  13.355  0.9121 -0.0292  2.5236
 6903SOL    HW232346   2.962   0.537  13.262 -2.2688 -2.3981  0.4278
 6904SOL     OW32347   3.835   3.037   2.799  0.0112  0.4564 -0.0851
 6904SOL    HW132348   3.910   3.097   2.807 -0.6540  1.3300 -0.3824
 6904SOL    HW232349   3.890   2.962   2.823  1.2880  1.5524  0.3980
 6905SOL     OW32350   4.082   2.451   8.471 -0.1435 -0.2656 -0.1285
 6905SOL    HW132351   4.080   2.356   8.471  1.4042 -0.2839  0.0652
 6905SOL    HW232352   4.060   2.459   8.378 -1.8187 -3.8113 -0.0399
 6906SOL     OW32353   2.123   0.551   4.767  0.4693 -0.4948  0.0910
 6906SOL    HW132354   2.067   0.559   4.844  0.1711  1.6635 -0.3494
 6906SOL    HW232355   2.117   0.455   4.768  1.9197 -0.5583  2.2795
 6907SOL     OW32356   3.053   1.758   4.127  0.3208  0.2263  0.4081
 6907SOL    HW132357   3.129   1.798   4.171  0.2999  0.9375 -0.2182
 6907SOL    HW232358   3.053   1.800   4.042  0.7043 -1.2142 -0.3029
 6908SOL     OW32359   0.649   1.140   4.270  0.0619  0.4794  0.0487
 6908SOL    HW132360   0.558   1.150   4.242 -0.5634 -3.4633  0.6162
 6908SOL    HW232361   0.633   1.159   4.362  0.9646 -0.7677  0.4720
 6909SOL     OW32362   3.787   0.783   5.109 -0.4139  0.3070  0.0409
 6909SOL    HW132363   3.829   0.818   5.031 -2.1438 -1.1002 -1.5026
 6909SOL    HW232364   3.836   0.817   5.184  1.2008 -0.4079 -0.6992
 6910SOL     OW32365   3.670   3.260   8.315 -0.1287 -0.1223  0.1293
 6910SOL    HW132366   3.611   3.185   8.305 -1.1380  0.9134 -1.6207
 6910SOL    HW232367   3.755   3.220   8.294  0.0791  0.0994  0.5513
 6911SOL     OW32368   2.162   1.107   6.545  0.3518  0.0697 -0.1998
 6911SOL    HW132369   2.124   1.030   6.588 -1.0082  2.4026  2.7644
 6911SOL    HW232370   2.121   1.181   6.591 -1.2557 -0.2528 -1.1086
 6912SOL     OW32371   2.849   3.143  17.039  0.2152 -0.2225 -0.5112
 6912SOL    HW132372   2.832   3.050  17.027 -1.2146  0.1068 -0.9809
 6912SOL    HW232373   2.759   3.174  17.043 -0.0073 -0.9641  0.1906
 6913SOL     OW32374   2.066   2.173   1.738  0.3365  0.0963  0.2626
 6913SOL    HW132375   2.083   2.267   1.728  1.5949 -0.0173  1.3626
 6913SOL    HW232376   2.096   2.144   1.824  0.2594 -1.8879 -0.3805
 6914SOL     OW32377   2.901   2.936   0.797 -0.6587 -0.8549 -0.0191
 6914SOL    HW132378   2.965   2.868   0.818 -0.1789 -0.6507 -0.8363
 6914SOL    HW232379   2.928   2.979   0.716 -0.3086  0.2552  0.6809
 6915SOL     OW32380   2.331   3.632   6.299  0.7527 -0.6080 -0.2837
 6915SOL    HW132381   2.298   3.721   6.285 -0.3115 -0.7339  1.3160
 6915SOL    HW232382   2.286   3.612   6.382 -0.0084  0.4383 -0.4395
 6916SOL     OW32383   3.231   3.436   1.435  0.1403  0.4939  0.3714
 6916SOL    HW132384   3.212   3.353   1.392  3.0023  0.5172 -0.9412
 6916SOL    HW232385   3.270   3.411   1.519  1.7807  2.7676  0.2748
 6917SOL     OW32386   3.761   3.566  14.049  0.3826 -0.5430  0.4196
 6917SOL    HW132387   3.765   3.645  13.995 -0.8650 -0.2136  0.8292
 6917SOL    HW232388   3.685   3.516  14.021  0.7519 -1.0899  0.3794
 6918SOL     OW32389   1.499   1.613   5.035 -0.2700  0.4097 -0.1276
 6918SOL    HW132390   1.484   1.521   5.013 -1.5827  0.3723  0.8855
 6918SOL    HW232391   1.543   1.599   5.119 -0.4406  1.4217  0.1255
 6919SOL     OW32392   3.872   2.839   7.466  0.3547 -0.1498  0.3073
 6919SOL    HW132393   3.938   2.859   7.399  1.2609  1.6484  1.7271
 6919SOL    HW232394   3.789   2.874   7.434 -1.0738 -1.1784  2.8913
 6920SOL     OW32395   1.104   2.376   4.582 -0.0694  0.1337 -0.3182
 6920SOL    HW132396   1.122   2.432   4.658  1.1379 -0.6100 -0.0578
 6920SOL    HW232397   1.189   2.331   4.582 -0.8640 -1.3842 -0.2415
 6921SOL     OW32398   4.601   2.047  15.553  0.1654 -0.1596 -0.6428
 6921SOL    HW132399   4.534   2.039  15.621  2.0162 -1.5202  1.0199
 6921SOL    HW232400   4.551   2.089  15.484 -0.1631  1.5370  0.6122
 6922SOL     OW32401   0.539   3.718  10.439 -0.0188 -0.1567 -0.2479
 6922SOL    HW132402   0.561   3.702  10.531 -1.1194  0.6049  0.1516
 6922SOL    HW232403   0.473   3.649  10.428  1.9374 -1.7641 -1.8410
 6923SOL     OW32404   2.123   0.756   7.398  0.0975  0.1973 -0.4526
 6923SOL    HW132405   2.199   0.801   7.360  0.9148  0.4923  1.5226
 6923SOL    HW232406   2.082   0.829   7.444  0.0422  1.4606 -2.5134
 6924SOL     OW32407   1.041   2.497  12.012  0.9167 -0.2094  0.7047
 6924SOL    HW132408   0.968   2.449  12.049 -0.7226  1.5812 -0.2257
 6924SOL    HW232409   1.025   2.466  11.923 -1.0500  1.4197  0.5021
 6925SOL     OW32410   0.973   1.581  14.959 -0.7410 -0.0264 -0.2217
 6925SOL    HW132411   1.013   1.494  14.957 -1.3274 -0.3180  0.7359
 6925SOL    HW232412   1.051   1.634  14.942 -0.3817 -0.6153 -0.4031
 6926SOL     OW32413   1.769   4.725  10.551 -0.8760 -0.0506  0.2427
 6926SOL    HW132414   1.750   4.639  10.515  0.2826 -0.4847  0.6659
 6926SOL    HW232415   1.687   0.031  10.535  0.7059  2.1623 -1.5169
 6927SOL     OW32416   0.788   2.882   5.928  0.0721  0.2706  0.4243
 6927SOL    HW132417   0.706   2.865   5.974  0.1109 -1.7565 -0.2823
 6927SOL    HW232418   0.836   2.800   5.940 -0.9699 -0.6484 -1.7115
 6928SOL     OW32419   3.585   4.058   4.412  0.5775  0.0834  0.1210
 6928SOL    HW132420   3.638   4.019   4.482 -0.6654 -0.6848  0.6522
 6928SOL    HW232421   3.651   4.073   4.345 -1.5591  2.1863 -1.4746
 6929SOL     OW32422   2.325   0.167   8.878 -0.0198  0.4543  0.1696
 6929SOL    HW132423   2.412   0.197   8.852  0.2973 -0.4634  0.1587
 6929SOL    HW232424   2.281   0.179   8.794  0.9963 -2.6569 -0.8169
 6930SOL     OW32425   1.957   4.273   2.046  0.6185 -0.0695  0.0813
 6930SOL    HW132426   2.047   4.285   2.078 -0.1683 -0.6192  2.4880
 6930SOL    HW232427   1.917   4.358   2.027 -0.5601 -0.9886 -1.5403
 6931SOL     OW32428   3.079   0.277   8.870  0.3819 -0.1791 -0.2841
 6931SOL    HW132429   2.995   0.322   8.872  1.1174  1.2042 -0.4836
 6931SOL    HW232430   3.116   0.290   8.958 -0.2870 -1.0502  0.1302
 6932SOL     OW32431   3.386   1.845   7.297 -0.1936  0.6417 -0.2169
 6932SOL    HW132432   3.418   1.757   7.276  2.1231  1.8033 -1.5786
 6932SOL    HW232433   3.350   1.867   7.211  1.1983 -1.5729 -1.3605
 6933SOL     OW32434   4.463   1.749   4.847 -0.4768 -0.1533 -0.6139
 6933SOL    HW132435   4.548   1.783   4.818 -1.1893 -0.3821 -3.0035
 6933SOL    HW232436   4.490   1.664   4.882 -2.9381 -0.6166  0.1798
 6934SOL     OW32437   3.431   2.205   2.380 -0.0304 -0.5255  0.5903
 6934SOL    HW132438   3.516   2.244   2.358 -0.7069 -0.0033 -1.1083
 6934SOL    HW232439   3.372   2.278   2.361  0.3887 -0.1194  0.8483
 6935SOL     OW32440   2.528   0.776   9.458 -0.2121  0.3302  0.2704
 6935SOL    HW132441   2.487   0.741   9.379 -2.7107 -1.8144  2.4995
 6935SOL    HW232442   2.552   0.692   9.498 -0.3987 -0.5939 -1.5421
 6936SOL     OW32443   3.022   3.927  16.458  0.0457 -0.1992 -0.6170
 6936SOL    HW132444   2.993   3.889  16.541 -1.8298  1.6900 -0.3872
 6936SOL    HW232445   3.042   3.855  16.398  1.1420  0.4501 -1.0391
 6937SOL     OW32446   4.041   2.673   8.648 -0.4626  0.6274  0.0783
 6937SOL    HW132447   4.058   2.598   8.591 -1.5866  0.2558  0.2415
 6937SOL    HW232448   3.982   2.629   8.708 -0.9158 -0.5238 -1.2135
 6938SOL     OW32449   1.295   4.723   3.034 -0.3375 -0.1609  0.0888
 6938SOL    HW132450   1.311   0.071   3.001 -0.6639 -0.9811 -2.2305
 6938SOL    HW232451   1.383   4.687   3.041  0.1453  1.0114 -0.0128
 6939SOL     OW32452   3.763   3.145   3.263  0.6801 -0.1027 -0.0622
 6939SOL    HW132453   3.751   3.168   3.355 -1.0655 -0.1602 -0.2625
 6939SOL    HW232454   3.852   3.111   3.258  0.9437  0.6490 -0.3866
 6940SOL     OW32455   1.961   3.192   8.865  0.0342 -0.7043  0.2782
 6940SOL    HW132456   1.960   3.132   8.939  2.9919  1.7595  2.3001
 6940SOL    HW232457   1.933   3.271   8.912 -2.6972 -0.2238 -2.0972
 6941SOL     OW32458   0.235   0.992   4.388  0.0511  0.0977  0.2448
 6941SOL    HW132459   0.254   1.005   4.481 -1.3697 -0.4201  0.6085
 6941SOL    HW232460   0.188   0.908   4.393 -0.8229  0.5000 -1.2918
 6942SOL     OW32461   2.145   0.754   9.160  0.0389  0.1539  0.3773
 6942SOL    HW132462   2.112   0.763   9.070  2.0498 -0.4832 -0.4240
 6942SOL    HW232463   2.121   0.666   9.189 -1.8503  1.8256  3.8781
 6943SOL     OW32464   3.861   4.373   1.813 -0.1099  0.0178 -0.3620
 6943SOL    HW132465   3.955   4.394   1.814 -0.2399  0.5631  1.4228
 6943SOL    HW232466   3.819   4.456   1.789  1.8309  0.9726 -0.4865
 6944SOL     OW32467   1.611   4.564   1.953  0.9210  0.1616  0.2067
 6944SOL    HW132468   1.568   4.595   2.033 -2.5138 -1.1964 -1.1168
 6944SOL    HW232469   1.690   4.617   1.941  0.7680  0.2075 -0.5458
 6945SOL     OW32470   3.349   3.794   9.245  0.5829 -0.3946  0.0828
 6945SOL    HW132471   3.439   3.822   9.260  1.0065 -0.4125 -2.4680
 6945SOL    HW232472   3.308   3.852   9.181 -2.1352 -0.9221  1.3385
 6946SOL     OW32473   2.766   4.682   0.458  0.0560  0.1561 -0.4282
 6946SOL    HW132474   2.692   4.637   0.419  0.2268  0.9689 -1.6721
 6946SOL    HW232475   2.783   4.616   0.526  3.0834  0.9196 -0.4351
 6947SOL     OW32476   0.734   3.078   6.307  0.1290 -0.6509  0.1895
 6947SOL    HW132477   0.672   3.128   6.254  0.1800 -1.2886 -0.4889
 6947SOL    HW232478   0.687   3.000   6.336  0.7899 -1.2020 -0.2116
 6948SOL     OW32479   2.531   0.240   6.500  0.3062 -0.1033 -0.2340
 6948SOL    HW132480   2.464   0.250   6.433 -0.5320  0.2428  0.6509
 6948SOL    HW232481   2.598   0.192   6.450  1.1141 -0.4817  1.1890
 6949SOL     OW32482   4.679   2.963   3.439 -0.1840  0.4133  0.1346
 6949SOL    HW132483   0.015   2.935   3.489  0.4108 -0.7419 -1.4003
 6949SOL    HW232484   4.618   2.988   3.508  0.2329 -2.6278  1.5861
 6950SOL     OW32485   0.694   1.816   7.578 -0.3711 -0.1804  0.2683
 6950SOL    HW132486   0.608   1.776   7.565 -0.6241  0.0749  1.1728
 6950SOL    HW232487   0.698   1.887   7.513  1.1185 -0.2398  0.2977
 6951SOL     OW32488   4.559   3.174  11.644  0.3771  0.5623  0.0539
 6951SOL    HW132489   4.551   3.212  11.557  0.1484 -0.1621 -0.2414
 6951SOL    HW232490   4.630   3.110  11.631  0.6338  1.3255 -2.2747
 6952SOL     OW32491   0.627   3.046   4.395  0.7876 -0.6810  0.3709
 6952SOL    HW132492   0.552   3.086   4.351  2.0071  0.3604 -0.7767
 6952SOL    HW232493   0.583   3.002   4.468  0.5741  2.0504  1.9016
 6953SOL     OW32494   4.464   0.908   2.641 -1.1380 -0.4556  0.1407
 6953SOL    HW132495   4.456   0.904   2.546  3.6543  2.4288 -0.4093
 6953SOL    HW232496   4.516   0.832   2.666 -1.8167 -1.8995 -2.9058
 6954SOL     OW32497   0.024   3.616   2.445 -0.0699  0.1538 -0.1333
 6954SOL    HW132498   0.076   3.692   2.418 -0.3458  0.1467 -0.6911
 6954SOL    HW232499   0.023   3.629   2.540  0.5001 -1.6603  0.1154
 6955SOL     OW32500   3.761   1.130   1.564  0.0932  0.3355  0.4143
 6955SOL    HW132501   3.769   1.087   1.649 -0.7361  0.2722  0.4619
 6955SOL    HW232502   3.734   1.218   1.593 -2.3506  0.5238 -2.3713
 6956SOL     OW32503   1.088   4.671   2.807  0.2122  0.1133 -0.3610
 6956SOL    HW132504   1.089   4.596   2.867  0.4853  0.6566  0.3147
 6956SOL    HW232505   1.134   4.735   2.862 -1.3649  0.8645  0.1087
 6957SOL     OW32506   0.670   1.192   8.735  0.1790  0.3048 -0.4239
 6957SOL    HW132507   0.740   1.235   8.688  0.4133 -0.6656 -0.9608
 6957SOL    HW232508   0.604   1.205   8.667 -0.4418 -2.3772 -0.3337
 6958SOL     OW32509   4.362   4.567   1.030  0.3905 -0.7422  0.3242
 6958SOL    HW132510   4.339   4.611   0.948  2.7073 -0.4588 -0.1650
 6958SOL    HW232511   4.388   4.645   1.080 -2.2078  1.6839 -2.1271
 6959SOL     OW32512   3.277   3.496  14.566  0.3008  0.4325 -0.2765
 6959SOL    HW132513   3.360   3.493  14.518 -0.5850  1.4956 -1.8941
 6959SOL    HW232514   3.263   3.411  14.608  1.4918 -1.1735 -3.1115
 6960SOL     OW32515   3.187   2.243   8.654 -0.4409  0.1936 -0.0702
 6960SOL    HW132516   3.112   2.246   8.713 -0.0192  0.2591  0.4565
 6960SOL    HW232517   3.170   2.160   8.610  0.5730  0.5752 -1.1794
 6961SOL     OW32518   0.195   0.989  17.413 -0.1200 -0.8810 -0.4027
 6961SOL    HW132519   0.184   1.084  17.411 -3.1987 -1.2331 -0.3236
 6961SOL    HW232520   0.184   0.969  17.506 -0.9247 -0.3391 -0.3809
 6962SOL     OW32521   4.605   0.614   4.266 -0.3689  0.5528  0.2576
 6962SOL    HW132522   4.676   0.551   4.278  2.8018  3.9605 -0.4899
 6962SOL    HW232523   4.598   0.646   4.356  1.1779  0.1873  0.5017
 6963SOL     OW32524   2.564   0.437   9.993 -0.0899  0.1033  0.2141
 6963SOL    HW132525   2.496   0.476   9.938  0.2440  0.6318  0.1692
 6963SOL    HW232526   2.507   0.411  10.065 -0.7032 -1.6504 -0.9144
 6964SOL     OW32527   3.809   4.014   1.771  0.4268  0.2670 -0.6931
 6964SOL    HW132528   3.783   3.921   1.772  0.4204  0.2702 -0.5494
 6964SOL    HW232529   3.904   4.015   1.775  0.3911 -2.3457  1.2637
 6965SOL     OW32530   4.003   0.896   5.731  0.0256 -0.1217 -0.1431
 6965SOL    HW132531   4.027   0.846   5.809 -0.9777 -0.0593  0.2045
 6965SOL    HW232532   4.059   0.857   5.663  2.2708 -1.1675  2.3060
 6966SOL     OW32533   2.940   3.216   8.035 -0.3041 -0.1135  0.3998
 6966SOL    HW132534   2.880   3.150   7.998  1.1840 -0.7010 -0.9818
 6966SOL    HW232535   2.923   3.287   7.973 -1.6425 -0.3821  0.4493
 6967SOL     OW32536   3.004   4.518   8.382  0.4385 -0.8011 -0.4246
 6967SOL    HW132537   2.980   4.519   8.290 -0.2750 -2.2200 -0.2501
 6967SOL    HW232538   2.923   4.540   8.427 -0.8473 -3.4286 -1.4446
 6968SOL     OW32539   1.626   0.890  10.057 -0.4420  0.1880 -0.1389
 6968SOL    HW132540   1.569   0.952  10.011 -0.8829 -1.5963 -1.9958
 6968SOL    HW232541   1.576   0.813  10.084 -0.4623  0.9220  1.9060
 6969SOL     OW32542   0.488   3.309  12.457 -0.0082  0.2636  0.0883
 6969SOL    HW132543   0.501   3.255  12.379  2.1967 -0.8667  1.2766
 6969SOL    HW232544   0.484   3.398  12.420  2.3234  0.5280  0.4565
 6970SOL     OW32545   1.581   3.516  13.341 -0.0846  0.3597  0.0845
 6970SOL    HW132546   1.487   3.504  13.328 -0.3260  2.8092 -0.4743
 6970SOL    HW232547   1.587   3.596  13.288 -1.3415  0.7540  0.5273
 6971SOL     OW32548   1.688   2.479  12.713 -0.0484 -0.0132  0.0850
 6971SOL    HW132549   1.732   2.402  12.676  0.0875 -0.5259  1.2997
 6971SOL    HW232550   1.768   2.527  12.737  0.2959 -0.4761 -0.1246
 6972SOL     OW32551   1.441   1.607  14.912  0.1025 -0.1204  0.2538
 6972SOL    HW132552   1.358   1.641  14.944  0.7172 -0.0686  1.7561
 6972SOL    HW232553   1.447   1.657  14.830 -0.0609 -1.6184 -0.6882
 6973SOL     OW32554   2.883   3.229   8.604 -0.5252 -0.0635 -0.2119
 6973SOL    HW132555   2.809   3.243   8.545 -1.6269 -1.9625  0.7256
 6973SOL    HW232556   2.832   3.204   8.681  0.1355 -1.2093 -0.1454
 6974SOL     OW32557   1.336   4.204   5.898 -0.4946 -0.1588 -0.8059
 6974SOL    HW132558   1.249   4.181   5.929  0.9823 -0.9887  2.8045
 6974SOL    HW232559   1.327   4.191   5.804 -1.6691 -1.0357 -0.5697
 6975SOL     OW32560   3.873   0.548   3.782  0.2625 -0.1989 -0.4523
 6975SOL    HW132561   3.790   0.571   3.741 -0.4336 -2.4003 -0.2470
 6975SOL    HW232562   3.893   0.472   3.728  0.2201 -1.2890  1.0628
 6976SOL     OW32563   1.408   4.446  11.337  0.4196  0.5966 -0.1670
 6976SOL    HW132564   1.324   4.491  11.344 -0.2939 -0.8753  0.9204
 6976SOL    HW232565   1.380   4.355  11.326  1.5085  0.4233 -1.5230
 6977SOL     OW32566   4.008   2.996   4.739  0.3834 -0.4807 -0.0474
 6977SOL    HW132567   3.943   2.936   4.776 -0.5903 -0.0045 -0.9812
 6977SOL    HW232568   3.990   3.068   4.800 -0.0572 -0.2715 -0.4261
 6978SOL     OW32569   0.121   2.033   2.486 -0.3881  0.2572 -0.2865
 6978SOL    HW132570   0.060   1.980   2.435 -3.2881  2.3669  0.9766
 6978SOL    HW232571   0.069   2.113   2.498 -0.6503 -0.0678  0.7107
 6979SOL     OW32572   1.178   2.600   5.775 -0.4841 -0.0635  0.2055
 6979SOL    HW132573   1.247   2.653   5.736 -1.6240  0.9466 -0.4701
 6979SOL    HW232574   1.209   2.586   5.864  0.6450 -2.8168 -0.6115
 6980SOL     OW32575   4.037   0.428   4.551  0.1083  0.5146 -0.6749
 6980SOL    HW132576   4.056   0.336   4.569 -2.1284  0.5065  1.6164
 6980SOL    HW232577   4.125   0.453   4.520 -0.4449  1.9609 -1.0652
 6981SOL     OW32578   3.616   1.010   5.983 -0.5371  0.1117 -0.0090
 6981SOL    HW132579   3.646   0.950   6.051  0.4369  0.7567  0.1360
 6981SOL    HW232580   3.697   1.060   5.970 -1.7406  2.7150  2.5187
 6982SOL     OW32581   0.977   0.737   0.110  0.3306  0.5100  0.0663
 6982SOL    HW132582   1.054   0.721   0.054  0.3528 -0.0971  0.2725
 6982SOL    HW232583   0.971   0.832   0.103  1.3876  0.3804 -2.8074
 6983SOL     OW32584   1.385   0.439   6.439  0.1878  0.2840 -0.5147
 6983SOL    HW132585   1.310   0.497   6.451 -0.3273 -0.2506 -1.2005
 6983SOL    HW232586   1.427   0.497   6.375  1.1662  1.7742  1.4480
 6984SOL     OW32587   2.510   1.455   6.725 -0.3534  0.2537 -0.0654
 6984SOL    HW132588   2.483   1.484   6.638 -0.1031 -0.5359 -0.4027
 6984SOL    HW232589   2.522   1.365   6.695  2.0388  0.2300  0.9512
 6985SOL     OW32590   4.362   2.461   8.309 -0.3508  0.0711 -0.0827
 6985SOL    HW132591   4.441   2.451   8.362  0.3483  3.1341 -0.5465
 6985SOL    HW232592   4.296   2.416   8.362  1.1970 -0.4293  1.4329
 6986SOL     OW32593   3.571   3.551  10.186 -0.1127 -0.2698  0.3158
 6986SOL    HW132594   3.591   3.612  10.258  2.3935 -0.0154 -0.6012
 6986SOL    HW232595   3.592   3.602  10.108 -1.7127 -0.0147  0.0532
 6987SOL     OW32596   2.441   3.372   2.194  0.1591  0.3089 -0.1991
 6987SOL    HW132597   2.436   3.370   2.099 -0.3379 -0.4097 -0.1568
 6987SOL    HW232598   2.377   3.303   2.212  0.9362  0.1732  2.1534
 6988SOL     OW32599   1.808   0.273   9.196  1.4074  0.0639 -0.2939
 6988SOL    HW132600   1.817   0.231   9.111  0.2788  2.8806 -1.7887
 6988SOL    HW232601   1.722   0.312   9.181  0.8494 -1.1598 -0.1991
 6989SOL     OW32602   0.138   1.105   7.650 -0.1403 -0.8740  0.3772
 6989SOL    HW132603   0.209   1.170   7.651 -2.0321  1.1685 -0.0725
 6989SOL    HW232604   0.193   1.029   7.628 -1.4959 -1.7411  0.0171
 6990SOL     OW32605   3.241   4.528  11.799  0.3057 -0.6949  0.2189
 6990SOL    HW132606   3.313   4.544  11.860  0.3484 -0.3143  0.0690
 6990SOL    HW232607   3.266   4.443  11.762  0.3736 -0.5231 -0.1315
 6991SOL     OW32608   2.947   0.094   4.407  0.1022 -0.0585  0.1080
 6991SOL    HW132609   2.961   0.013   4.357  0.7026 -0.7613  1.4209
 6991SOL    HW232610   2.884   0.071   4.475  0.3743 -0.1777  0.3176
 6992SOL     OW32611   2.753   4.548   3.590 -0.5004  0.2793  0.0143
 6992SOL    HW132612   2.833   4.599   3.597  0.0735 -0.8571  1.8994
 6992SOL    HW232613   2.758   4.509   3.503 -2.7489 -0.8729  0.4006
 6993SOL     OW32614   3.593   2.341   3.815 -0.0313 -0.0977 -0.4684
 6993SOL    HW132615   3.560   2.339   3.725 -0.9705 -1.9004 -0.0766
 6993SOL    HW232616   3.637   2.257   3.814 -0.6145 -0.4074 -0.0119
 6994SOL     OW32617   0.353   2.186   5.975  0.2924 -0.0480 -0.5865
 6994SOL    HW132618   0.375   2.178   6.068  1.6426  2.4969 -0.6642
 6994SOL    HW232619   0.383   2.273   5.949 -0.4484  0.7652  1.2834
 6995SOL     OW32620   1.185   0.619   3.230  0.3123  0.0385 -0.3439
 6995SOL    HW132621   1.136   0.687   3.276 -0.7782 -0.5698 -0.6247
 6995SOL    HW232622   1.124   0.596   3.160  0.1396 -1.0066  0.1616
 6996SOL     OW32623   4.106   4.689   8.735 -0.4828  0.0158 -0.2747
 6996SOL    HW132624   4.154   4.653   8.810  0.0259 -1.8999 -1.4992
 6996SOL    HW232625   4.060   0.019   8.780  0.2553 -0.6453  1.5087
 6997SOL     OW32626   1.097   3.135  14.076 -0.6008 -0.0840 -0.5945
 6997SOL    HW132627   1.077   3.175  14.160 -2.2460 -0.2281 -0.9336
 6997SOL    HW232628   1.076   3.043  14.095 -0.7252  0.3112  1.2241
 6998SOL     OW32629   0.312   4.374   6.304 -0.4095 -0.6752 -0.5342
 6998SOL    HW132630   0.380   4.402   6.243  0.4836  0.7771  1.1520
 6998SOL    HW232631   0.353   4.310   6.362  1.0290  0.2060 -0.6014
 6999SOL     OW32632   0.676   1.770   5.119 -0.1158  0.4478 -0.7171
 6999SOL    HW132633   0.696   1.833   5.049 -0.0612  0.7563 -0.4213
 6999SOL    HW232634   0.744   1.779   5.185  0.5110  0.5297 -1.3723
 7000SOL     OW32635   4.590   3.527  14.282 -0.0006  0.1247  0.7416
 7000SOL    HW132636   4.661   3.543  14.345  0.9973 -1.1203 -0.0478
 7000SOL    HW232637   4.515   3.578  14.310 -1.1748 -1.1476 -0.0582
 7001SOL     OW32638   4.682   1.858  12.744 -0.0521  0.0117 -0.6292
 7001SOL    HW132639   4.684   1.953  12.729  2.0503  0.1132  0.2849
 7001SOL    HW232640   4.593   1.838  12.714 -0.0437  0.0007 -0.6468
 7002SOL     OW32641   0.447   1.088   3.318 -0.0106  0.3715 -0.6017
 7002SOL    HW132642   0.495   1.037   3.383  1.7959  1.7333 -0.8702
 7002SOL    HW232643   0.411   1.157   3.373 -0.9311  0.2981 -1.1073
 7003SOL     OW32644   3.954   2.917   6.944 -0.0697  0.0040  0.0747
 7003SOL    HW132645   3.955   2.861   6.866  1.2999 -1.5669  1.2296
 7003SOL    HW232646   3.858   2.925   6.942  0.0969  1.6398 -1.0164
 7004SOL     OW32647   2.506   0.965   2.328 -0.5158  0.2652 -0.7191
 7004SOL    HW132648   2.466   1.009   2.403  4.1816  1.6314  0.9882
 7004SOL    HW232649   2.479   0.873   2.338  0.0152  0.1844  0.0297
 7005SOL     OW32650   3.062   3.603   6.906  0.7160  0.0774 -0.6286
 7005SOL    HW132651   3.054   3.551   6.986 -0.9416  0.2471 -0.6946
 7005SOL    HW232652   2.992   3.565   6.853 -0.7902 -0.6557  1.9283
 7006SOL     OW32653   4.429   4.281   2.755 -0.5491 -1.1491  0.0447
 7006SOL    HW132654   4.362   4.244   2.697 -1.4899 -0.4609  0.6761
 7006SOL    HW232655   4.476   4.347   2.704  0.2469 -0.8198  1.2049
 7007SOL     OW32656   1.875   0.055  12.031 -0.2756 -0.3535 -0.1953
 7007SOL    HW132657   1.812   0.026  11.965 -1.0081 -0.6608  0.6363
 7007SOL    HW232658   1.846   4.729  12.093  0.4635  0.1055  0.6409
 7008SOL     OW32659   3.951   3.730  16.857 -0.5298  0.4722  0.3084
 7008SOL    HW132660   3.883   3.734  16.923 -2.0550 -1.1264 -1.1654
 7008SOL    HW232661   3.921   3.792  16.790 -2.1346  0.0285  0.6160
 7009SOL     OW32662   4.206   2.339   4.092  0.0930  0.1622 -0.1712
 7009SOL    HW132663   4.216   2.433   4.078 -2.0298  0.6384  1.5499
 7009SOL    HW232664   4.140   2.322   4.026  0.7478  1.0252 -1.0384
 7010SOL     OW32665   2.573   0.486   8.176  0.1559 -0.3393  0.2779
 7010SOL    HW132666   2.598   0.569   8.217  2.8377 -0.2643 -1.4711
 7010SOL    HW232667   2.605   0.509   8.088  0.3639 -0.7334  0.2511
 7011SOL     OW32668   1.190   2.636   6.358  0.5756  0.4615  0.3773
 7011SOL    HW132669   1.195   2.721   6.402 -0.7571  0.3865  0.6729
 7011SOL    HW232670   1.104   2.606   6.388  0.2153  2.2048  1.0887
 7012SOL     OW32671   3.538   4.071   1.503  0.1880 -0.4232 -0.2426
 7012SOL    HW132672   3.469   4.132   1.529  0.7262 -0.0151  0.2214
 7012SOL    HW232673   3.613   4.116   1.541  0.0826  2.3059 -3.2176
 7013SOL     OW32674   0.075   0.591  12.925 -0.1573 -0.0912 -0.1712
 7013SOL    HW132675   0.057   0.681  12.896 -1.9201 -1.2400 -2.6520
 7013SOL    HW232676   0.010   0.591  12.995 -1.9680  0.3819 -1.8415
 7014SOL     OW32677   2.552   3.115   8.424 -0.3801  0.1669 -0.3776
 7014SOL    HW132678   2.505   3.032   8.431 -1.2552  0.6599 -0.3724
 7014SOL    HW232679   2.476   3.174   8.424  1.6492  2.7654 -1.8371
 7015SOL     OW32680   1.122   0.923   1.255 -0.2753  0.7174 -0.6180
 7015SOL    HW132681   1.039   0.876   1.264  0.8096 -1.1360 -0.2238
 7015SOL    HW232682   1.103   0.975   1.177 -1.1015  0.3079 -0.6895
 7016SOL     OW32683   4.132   2.991  12.249  0.2476  0.6820 -0.6808
 7016SOL    HW132684   4.087   3.047  12.186 -1.7943 -0.6296 -0.3969
 7016SOL    HW232685   4.084   3.000  12.331 -0.1999 -0.0615 -0.8495
 7017SOL     OW32686   3.421   3.884   2.177  0.0535  0.0752  0.1549
 7017SOL    HW132687   3.511   3.905   2.152 -0.1313  2.4388  1.4191
 7017SOL    HW232688   3.433   3.881   2.272  0.9275 -1.7575 -0.0115
 7018SOL     OW32689   0.662   2.393   6.005  0.1006  0.3946 -0.0577
 7018SOL    HW132690   0.738   2.388   6.063 -0.3906  1.6432  0.6822
 7018SOL    HW232691   0.610   2.436   6.074  1.3000  1.2004  0.3452
 7019SOL     OW32692   3.011   2.984   8.282  0.1282 -0.5682  0.3319
 7019SOL    HW132693   2.916   2.987   8.270  0.2326 -2.6603 -1.0110
 7019SOL    HW232694   3.016   2.891   8.305 -0.8254 -0.0928  2.4699
 7020SOL     OW32695   2.630   2.175   2.152  0.2230  0.2224 -0.0818
 7020SOL    HW132696   2.652   2.226   2.074 -0.6369 -0.1248 -0.5515
 7020SOL    HW232697   2.625   2.090   2.107  1.7518  0.8038 -1.3526
 7021SOL     OW32698   1.331   3.947   8.762  0.1953 -0.2311 -0.3282
 7021SOL    HW132699   1.416   3.990   8.766  1.6396 -3.0444 -0.7105
 7021SOL    HW232700   1.307   3.943   8.854 -1.6556 -1.9156 -0.8895
 7022SOL     OW32701   0.448   1.874   1.873 -0.6882 -0.0102  0.2111
 7022SOL    HW132702   0.466   1.919   1.956 -1.9980 -2.0209  1.5934
 7022SOL    HW232703   0.509   1.923   1.817 -1.4795 -0.2234 -0.8282
 7023SOL     OW32704   0.052   4.369   4.404 -0.1234 -0.5318 -0.3265
 7023SOL    HW132705   0.090   4.456   4.391  1.3491 -1.0020  0.8186
 7023SOL    HW232706   0.065   4.319   4.323  1.6850 -0.0351 -0.3492
 7024SOL     OW32707   3.264   0.846   8.680 -0.5544  0.0657  0.1201
 7024SOL    HW132708   3.229   0.790   8.750 -0.5441 -2.5805 -1.9907
 7024SOL    HW232709   3.245   0.801   8.598  0.4648  0.6947 -0.4535
 7025SOL     OW32710   2.820   4.058  17.609  0.2991 -0.4219  0.2444
 7025SOL    HW132711   2.819   4.114  17.686  0.6794  1.0153 -0.8060
 7025SOL    HW232712   2.753   3.997  17.640  2.3134 -2.4946  0.5116
 7026SOL     OW32713   4.137   1.278   9.812 -0.5279  0.2942  0.5575
 7026SOL    HW132714   4.158   1.205   9.871  0.5836  0.6728  0.6345
 7026SOL    HW232715   4.136   1.356   9.867  1.5556  1.9619 -1.7765
 7027SOL     OW32716   0.028   3.400  16.765 -0.2454  0.7201  0.2031
 7027SOL    HW132717   0.073   3.356  16.693 -3.3705 -0.0987 -1.2000
 7027SOL    HW232718   4.681   3.403  16.726 -1.1356 -2.0737  2.0242
 7028SOL     OW32719   3.110   2.576   2.599  0.0199  0.0400  0.0282
 7028SOL    HW132720   3.094   2.583   2.693 -2.7851  1.2161 -0.5361
 7028SOL    HW232721   3.140   2.667   2.591 -1.6738  0.6965  1.2213
 7029SOL     OW32722   3.400   2.571   0.268  0.0601 -0.0480 -0.2190
 7029SOL    HW132723   3.474   2.550   0.210 -1.2827 -1.1748 -1.5307
 7029SOL    HW232724   3.378   2.484   0.301  0.8738 -0.3438 -0.4429
 7030SOL     OW32725   0.492   1.985   1.472 -0.4203  0.2270 -0.0419
 7030SOL    HW132726   0.546   1.906   1.480  1.3032  1.5535  1.2337
 7030SOL    HW232727   0.526   2.026   1.551  0.5857  1.1275 -0.9501
 7031SOL     OW32728   4.107   0.055   3.347 -0.5427  0.3436 -0.4808
 7031SOL    HW132729   4.156   0.124   3.302 -0.4018  0.5098 -0.0674
 7031SOL    HW232730   4.094   4.737   3.272 -0.8342 -0.1444 -0.0516
 7032SOL     OW32731   2.719   3.306   6.986  0.1016 -0.0993  0.7047
 7032SOL    HW132732   2.794   3.352   6.948 -1.4248  3.0065  1.4700
 7032SOL    HW232733   2.683   3.256   6.912  0.3750  1.3026 -0.3821
 7033SOL     OW32734   2.416   0.714   2.293 -0.5960 -0.2377  0.6414
 7033SOL    HW132735   2.384   0.653   2.226 -1.1345 -0.1940  0.8563
 7033SOL    HW232736   2.443   0.650   2.360 -0.4540 -0.9812 -0.1247
 7034SOL     OW32737   3.627   3.455   7.705 -0.3019  0.0980  0.0436
 7034SOL    HW132738   3.602   3.547   7.697 -2.1794 -0.3432  0.9433
 7034SOL    HW232739   3.570   3.409   7.766 -2.2470  1.6052 -0.6128
 7035SOL     OW32740   3.281   1.014   7.294 -0.0099 -0.1971 -0.1662
 7035SOL    HW132741   3.305   1.056   7.377 -2.1202  1.0409 -0.1634
 7035SOL    HW232742   3.324   0.929   7.300  0.7760  0.1713 -0.5691
 7036SOL     OW32743   3.657   3.952   2.055 -0.3084 -0.0542 -0.4682
 7036SOL    HW132744   3.676   4.027   1.999 -0.5840  0.4348  0.0953
 7036SOL    HW232745   3.721   3.981   2.119 -0.8530  3.9763 -1.7856
 7037SOL     OW32746   0.303   2.590   4.595  0.3350  0.4444 -0.0200
 7037SOL    HW132747   0.311   2.558   4.685  0.3628 -0.1835 -0.2427
 7037SOL    HW232748   0.385   2.555   4.559 -0.5360  0.0062 -1.5396
 7038SOL     OW32749   2.182   0.272  14.463  0.0671  0.3701 -0.1526
 7038SOL    HW132750   2.137   0.257  14.380  0.4433 -3.2225  0.2763
 7038SOL    HW232751   2.228   0.188  14.464 -1.2669 -0.3326  2.1310
 7039SOL     OW32752   0.657   0.672   7.272 -0.0722  0.2115  0.3628
 7039SOL    HW132753   0.625   0.690   7.360 -1.4984 -1.0370  0.1041
 7039SOL    HW232754   0.701   0.754   7.252 -1.8432  1.5475  1.9932
 7040SOL     OW32755   4.147   0.506  16.142  0.2779  0.5838  0.1611
 7040SOL    HW132756   4.221   0.503  16.081 -1.1858  1.4575 -1.6443
 7040SOL    HW232757   4.156   0.428  16.197 -1.1201 -0.4463 -1.0780
 7041SOL     OW32758   2.518   1.390   9.337  0.4447 -0.2382 -0.0024
 7041SOL    HW132759   2.498   1.458   9.401 -0.4708 -0.2596 -0.2706
 7041SOL    HW232760   2.463   1.322   9.376  0.0667  1.1561  1.9184
 7042SOL     OW32761   3.865   1.841   5.861  0.1058  0.2168 -0.1986
 7042SOL    HW132762   3.814   1.790   5.798  1.6225 -1.6472  0.0825
 7042SOL    HW232763   3.877   1.774   5.928  1.3765 -1.1523 -1.7855
 7043SOL     OW32764   4.276   0.543  14.247  0.2362  0.3602 -0.1662
 7043SOL    HW132765   4.296   0.596  14.324 -0.1844 -0.8057  0.7466
 7043SOL    HW232766   4.262   0.453  14.276 -1.8256  0.0138 -2.3302
 7044SOL     OW32767   4.334   4.411   2.293 -0.0301  0.3820 -0.2550
 7044SOL    HW132768   4.257   4.388   2.240  0.5598 -0.3286 -0.7982
 7044SOL    HW232769   4.368   4.489   2.250 -2.5673  1.9990  0.6260
 7045SOL     OW32770   3.668   4.182   7.662  0.1749 -0.0570 -0.4109
 7045SOL    HW132771   3.755   4.219   7.674 -0.4825  0.6751  2.0833
 7045SOL    HW232772   3.671   4.098   7.709 -0.0631  0.5308  0.6425
 7046SOL     OW32773   4.455   1.742   2.523 -0.1227  0.2230 -0.2674
 7046SOL    HW132774   4.388   1.717   2.460 -0.0844 -1.5736  0.4129
 7046SOL    HW232775   4.442   1.836   2.534  1.1970  0.4033 -0.2979
 7047SOL     OW32776   1.977   4.730  17.195  0.0183 -0.4117 -0.8528
 7047SOL    HW132777   2.069   4.706  17.185  0.3554  1.6182 -2.5140
 7047SOL    HW232778   1.944   4.640  17.199  0.8918 -0.4117  6.7935
 7048SOL     OW32779   2.954   1.454   8.343  0.1671 -0.8321 -0.4174
 7048SOL    HW132780   2.994   1.424   8.424  1.9334 -1.5810 -1.5779
 7048SOL    HW232781   2.878   1.398   8.328 -0.0135 -0.8402  0.5123
 7049SOL     OW32782   1.942   0.389   9.794  0.4713  0.1591  0.4109
 7049SOL    HW132783   1.896   0.340   9.862  1.3724 -0.0237  0.8857
 7049SOL    HW232784   2.035   0.400   9.816  1.0719 -0.6374 -1.7479
 7050SOL     OW32785   0.450   4.119   1.958 -0.3678  0.1904  0.1732
 7050SOL    HW132786   0.375   4.061   1.950  0.6968 -1.3071  1.0577
 7050SOL    HW232787   0.490   4.092   1.876  0.0982  0.7978  0.1932
 7051SOL     OW32788   1.607   1.627   0.594 -0.0941  0.4919 -0.2149
 7051SOL    HW132789   1.564   1.671   0.667  0.5736  1.5785 -0.4847
 7051SOL    HW232790   1.690   1.602   0.637 -0.9094 -0.1674  0.9883
 7052SOL     OW32791   0.738   0.957   7.289  0.2603  0.1096  0.3688
 7052SOL    HW132792   0.820   1.004   7.299  0.4208  0.0938 -0.8750
 7052SOL    HW232793   0.683   1.009   7.347  0.4221  0.4107  0.2522
 7053SOL     OW32794   3.757   2.592  11.402  0.0850  0.1409  0.2757
 7053SOL    HW132795   3.769   2.635  11.317 -0.0622 -0.9411 -0.3019
 7053SOL    HW232796   3.806   2.511  11.390  0.1006 -0.2340  2.8791
 7054SOL     OW32797   0.838   0.632   9.403 -0.0762 -0.0123 -0.3927
 7054SOL    HW132798   0.809   0.679   9.481  1.5647  0.3888 -0.0046
 7054SOL    HW232799   0.769   0.569   9.386  2.6174 -3.2184  0.5104
 7055SOL     OW32800   2.401   3.620   2.583 -0.3604 -0.4684  0.1550
 7055SOL    HW132801   2.483   3.626   2.631 -1.0524  2.4333  0.9583
 7055SOL    HW232802   2.438   3.590   2.500  0.2750  1.0940 -0.1282
 7056SOL     OW32803   2.543   3.007  14.623 -0.4105  0.0637 -0.1558
 7056SOL    HW132804   2.470   2.978  14.569  0.5244 -1.3619 -0.6608
 7056SOL    HW232805   2.578   3.084  14.579 -0.0001 -0.3357 -0.5298
 7057SOL     OW32806   4.157   1.358   9.150  0.5863 -0.2158 -0.0132
 7057SOL    HW132807   4.104   1.436   9.133 -0.4406 -0.3259  2.6415
 7057SOL    HW232808   4.229   1.405   9.192  0.5820  0.5014 -0.8115
 7058SOL     OW32809   2.205   2.014   2.796  0.5127 -0.2245  0.7349
 7058SOL    HW132810   2.300   2.008   2.785  0.3188  1.3069 -1.6221
 7058SOL    HW232811   2.191   2.065   2.875  2.7114  1.7462 -0.1679
 7059SOL     OW32812   0.115   2.750   7.684  0.2074  0.1409 -0.0003
 7059SOL    HW132813   0.199   2.787   7.712 -0.4498 -0.5094  2.8036
 7059SOL    HW232814   0.118   2.671   7.739  0.8139 -0.8679 -1.4775
 7060SOL     OW32815   4.549   0.246   2.098  0.6883  0.2019 -0.2309
 7060SOL    HW132816   4.615   0.300   2.052  1.7823  0.4980  1.7011
 7060SOL    HW232817   4.604   0.189   2.152 -0.3593  0.9716  1.6475
 7061SOL     OW32818   1.715   0.732   2.954  0.5085  0.0407  0.4374
 7061SOL    HW132819   1.751   0.815   2.923 -1.4922  0.9208  0.4145
 7061SOL    HW232820   1.737   0.677   2.878  1.5623  2.6716 -1.1589
 7062SOL     OW32821   0.346   1.862   9.348 -0.2491  0.1261  0.1552
 7062SOL    HW132822   0.353   1.946   9.301  0.2916 -1.1990 -2.1472
 7062SOL    HW232823   0.317   1.887   9.435  1.2124  1.8337  0.1618
 7063SOL     OW32824   2.843   0.432   3.747 -0.0638  0.2634  0.1798
 7063SOL    HW132825   2.850   0.465   3.657  2.0111  0.3206  0.3521
 7063SOL    HW232826   2.799   0.509   3.784  0.2421  0.0282  1.0238
 7064SOL     OW32827   4.260   3.318   4.383 -0.0864  0.1905  0.7215
 7064SOL    HW132828   4.313   3.355   4.453  0.4851  0.1234  0.3170
 7064SOL    HW232829   4.285   3.361   4.302  0.1808  1.7612  1.6504
 7065SOL     OW32830   4.400   3.072   6.187  0.2088  0.0771  0.4668
 7065SOL    HW132831   4.476   3.017   6.166 -1.5451 -2.2650  0.3420
 7065SOL    HW232832   4.401   3.073   6.283  0.5101 -1.6759  0.4949
 7066SOL     OW32833   1.887   2.522  11.340 -0.2623 -0.0667  0.4569
 7066SOL    HW132834   1.866   2.433  11.312  0.0372  0.5756 -1.7875
 7066SOL    HW232835   1.971   2.503  11.381 -0.5127  0.5418  1.2597
 7067SOL     OW32836   4.049   3.461  16.761  0.2496  0.0886  0.0558
 7067SOL    HW132837   4.011   3.549  16.761 -0.9619 -0.4330 -0.1313
 7067SOL    HW232838   3.994   3.424  16.830 -3.2933  0.6264 -2.4953
 7068SOL     OW32839   0.808   3.496   0.125  0.1786  0.1207  0.2225
 7068SOL    HW132840   0.799   3.481   0.219 -2.9974  1.5220  0.1525
 7068SOL    HW232841   0.811   3.411   0.082 -1.2251  1.1189 -1.8591
 7069SOL     OW32842   1.046   3.143   6.671 -0.2424 -0.1026  0.2492
 7069SOL    HW132843   1.122   3.192   6.639 -0.1935 -0.0482  0.4534
 7069SOL    HW232844   0.982   3.187   6.614  0.6904 -1.8901 -2.1695
 7070SOL     OW32845   0.313   0.795   2.128  0.2689  0.1641  0.0934
 7070SOL    HW132846   0.388   0.736   2.135 -0.0122 -0.2487 -0.3916
 7070SOL    HW232847   0.336   0.864   2.066  0.1325  0.1126 -0.0133
 7071SOL     OW32848   1.604   4.279   1.984 -0.4599 -0.7210  0.2493
 7071SOL    HW132849   1.606   4.368   1.950 -1.1601 -0.5944  0.5505
 7071SOL    HW232850   1.531   4.273   2.046 -0.3640 -0.8542  0.3505
 7072SOL     OW32851   3.528   1.092   7.848  0.3414  0.2533 -0.0838
 7072SOL    HW132852   3.438   1.090   7.814  0.3697  0.0996 -0.1487
 7072SOL    HW232853   3.502   1.067   7.936  1.2652 -2.2133 -0.5379
 7073SOL     OW32854   4.505   3.470   8.618 -0.1879  0.1907 -0.4510
 7073SOL    HW132855   4.517   3.497   8.709  1.6684 -1.2342 -0.2713
 7073SOL    HW232856   4.418   3.430   8.611  0.6995 -1.6582 -0.7757
 7074SOL     OW32857   2.941   2.472   1.707  0.1570  0.0803 -0.2355
 7074SOL    HW132858   2.999   2.485   1.782  1.0628 -1.1274 -0.7292
 7074SOL    HW232859   3.002   2.495   1.637 -0.8792 -0.5040 -1.3376
 7075SOL     OW32860   3.913   1.999   7.008  0.2642 -0.0853  0.3411
 7075SOL    HW132861   3.984   2.058   6.983  0.4494 -0.9886 -1.2431
 7075SOL    HW232862   3.874   2.028   7.091  0.4129 -0.6892  0.6213
 7076SOL     OW32863   4.201   2.928  10.583  0.0439  0.2989  0.5018
 7076SOL    HW132864   4.119   2.974  10.568  0.5647  0.8962 -0.5962
 7076SOL    HW232865   4.246   3.005  10.618 -0.6480  0.5381  0.8568
 7077SOL     OW32866   3.609   0.734   1.351 -0.4303  0.2113 -0.3350
 7077SOL    HW132867   3.689   0.692   1.383 -1.6920 -1.1507  1.0060
 7077SOL    HW232868   3.642   0.823   1.339  0.3469 -0.0527 -0.1599
 7078SOL     OW32869   4.175   3.101   1.045 -0.4465 -0.1411 -0.2788
 7078SOL    HW132870   4.083   3.097   1.071 -0.8888 -0.2314 -1.8346
 7078SOL    HW232871   4.168   3.118   0.951 -1.6482 -2.7164 -0.6553
 7079SOL     OW32872   1.657   0.575   2.310 -0.5476  0.4949 -0.0633
 7079SOL    HW132873   1.577   0.606   2.267  0.4678 -0.6361 -2.7274
 7079SOL    HW232874   1.624   0.516   2.378  1.2788 -0.1227  0.2763
 7080SOL     OW32875   0.895   4.470   3.328 -0.4045 -0.2219 -0.3353
 7080SOL    HW132876   0.912   4.381   3.297 -0.5136 -0.5008  0.4032
 7080SOL    HW232877   0.986   4.491   3.351 -0.7702  0.9427  0.0894
 7081SOL     OW32878   2.092   0.367   8.003 -0.0490 -0.1675  0.3267
 7081SOL    HW132879   2.129   0.450   7.973  1.4965 -1.8539 -2.4469
 7081SOL    HW232880   2.162   0.329   8.056 -1.1978 -2.3877  0.2803
 7082SOL     OW32881   0.829   4.120   7.655  0.4423  0.1772  0.5313
 7082SOL    HW132882   0.840   4.199   7.601 -2.1892  0.1904  0.0445
 7082SOL    HW232883   0.777   4.162   7.724 -0.0024  2.4515 -1.1740
 7083SOL     OW32884   4.310   1.598  14.745 -0.2986 -0.1201 -0.4467
 7083SOL    HW132885   4.339   1.680  14.785  0.2041 -1.2431  1.4868
 7083SOL    HW232886   4.312   1.535  14.818  2.6270 -0.9620 -1.2534
 7084SOL     OW32887   2.491   1.765   7.761 -0.1591  0.4177 -0.1724
 7084SOL    HW132888   2.568   1.820   7.748  1.0904 -1.5802 -1.2795
 7084SOL    HW232889   2.477   1.764   7.856  1.1311 -2.0639 -0.0147
 7085SOL     OW32890   1.194   0.452   4.477 -0.3853 -0.2722  0.2597
 7085SOL    HW132891   1.194   0.547   4.489  1.4563 -0.6263  2.8910
 7085SOL    HW232892   1.237   0.416   4.555  0.3316 -0.7453 -0.3475
 7086SOL     OW32893   3.505   3.776   4.624 -0.4422 -0.2859 -0.3631
 7086SOL    HW132894   3.511   3.700   4.566  0.1095 -0.2163 -0.3938
 7086SOL    HW232895   3.571   3.749   4.688 -1.3399  1.0584  1.1549
 7087SOL     OW32896   1.334   0.598   4.861 -0.3655 -0.5663  0.5026
 7087SOL    HW132897   1.279   0.633   4.931  3.2781  2.0336  2.0672
 7087SOL    HW232898   1.406   0.661   4.858  0.4364 -1.4316  1.8214
 7088SOL     OW32899   4.616   2.112   7.254  0.2396  0.5045 -0.4256
 7088SOL    HW132900   4.608   2.066   7.338  2.3633 -0.3690 -0.6993
 7088SOL    HW232901   4.591   2.202   7.271  0.9450  0.8428 -1.1570
 7089SOL     OW32902   3.215   3.883   0.598  0.3255 -0.3974 -0.0688
 7089SOL    HW132903   3.302   3.848   0.615  0.5043  0.8679  1.6115
 7089SOL    HW232904   3.157   3.807   0.607 -2.7882  2.1470  1.4430
 7090SOL     OW32905   0.163   2.186   8.212  0.1916 -0.3431 -0.1808
 7090SOL    HW132906   0.134   2.266   8.168  3.2570  0.5066 -0.6667
 7090SOL    HW232907   0.121   2.190   8.298 -1.1039  0.2425 -0.8443
 7091SOL     OW32908   3.328   3.217  15.153 -0.5387 -0.3265  0.1487
 7091SOL    HW132909   3.302   3.208  15.244  1.6022 -0.4776  0.7433
 7091SOL    HW232910   3.411   3.168  15.145 -0.0159  0.3475  1.4248
 7092SOL     OW32911   1.099   4.605   8.808 -0.1747 -0.1818  0.3337
 7092SOL    HW132912   1.180   4.622   8.760 -0.6535 -2.6307 -1.3457
 7092SOL    HW232913   1.064   4.520   8.782 -1.3328 -0.1256  1.7006
 7093SOL     OW32914   3.714   3.795  16.985  0.4701  0.5168  0.4996
 7093SOL    HW132915   3.677   3.880  16.958  0.2785  0.5346  0.8251
 7093SOL    HW232916   3.666   3.766  17.062 -0.4878  1.4179  0.2500
 7094SOL     OW32917   4.363   4.323  15.110 -0.1528  0.3252 -0.2288
 7094SOL    HW132918   4.452   4.335  15.143 -0.0813  0.1762 -0.3686
 7094SOL    HW232919   4.331   4.258  15.172 -0.0690 -2.7598 -3.4246
 7095SOL     OW32920   0.514   3.749   1.802 -0.4274  0.4353 -0.2792
 7095SOL    HW132921   0.515   3.680   1.867  0.6611 -0.2234 -0.9991
 7095SOL    HW232922   0.603   3.786   1.797 -0.4266  0.2846 -1.4247
 7096SOL     OW32923   2.952   0.522  12.533  0.1987  0.6859 -0.3760
 7096SOL    HW132924   2.945   0.444  12.477  2.1011 -0.4519  0.9698
 7096SOL    HW232925   2.876   0.508  12.589  1.6109 -1.5347  0.9784
 7097SOL     OW32926   2.881   1.203   1.364 -0.1463 -0.3202  0.4530
 7097SOL    HW132927   2.925   1.136   1.416  3.0707 -0.2952 -2.1630
 7097SOL    HW232928   2.925   1.286   1.384 -1.2264  0.1952  0.7174
 7098SOL     OW32929   3.768   3.475   4.508  0.1666  0.1267  0.5202
 7098SOL    HW132930   3.819   3.471   4.428  0.1654  1.5118  0.4372
 7098SOL    HW232931   3.822   3.470   4.587  0.3924 -3.4400  0.1351
 7099SOL     OW32932   2.576   0.555   2.594  0.1677 -0.1788 -0.0273
 7099SOL    HW132933   2.585   0.502   2.673  1.6086 -1.8806 -1.3527
 7099SOL    HW232934   2.538   0.499   2.527 -0.7257  0.9945 -0.5150
 7100SOL     OW32935   3.468   4.028  13.496  0.3795 -0.7452 -0.0246
 7100SOL    HW132936   3.506   4.024  13.408 -2.1190 -1.8384 -1.0718
 7100SOL    HW232937   3.538   4.080  13.535 -0.4010  0.6667 -0.5178
 7101SOL     OW32938   4.013   4.446   9.049  0.3407 -0.4886  0.2801
 7101SOL    HW132939   4.033   4.400   8.967  0.6896 -0.0505  0.1202
 7101SOL    HW232940   3.918   4.454   9.051  0.2593 -1.8153  2.1655
 7102SOL     OW32941   1.545   2.849   8.074 -0.0708 -0.2473 -0.8331
 7102SOL    HW132942   1.551   2.938   8.108  0.8554 -0.8696  0.6268
 7102SOL    HW232943   1.578   2.792   8.144  1.7140 -1.5304 -2.6936
 7103SOL     OW32944   0.471   1.589   2.496 -0.0329 -0.1221  0.4960
 7103SOL    HW132945   0.396   1.579   2.439 -0.3010  1.6903  0.5458
 7103SOL    HW232946   0.542   1.618   2.439 -1.0515 -1.7136 -1.5936
 7104SOL     OW32947   3.657   2.066   9.876 -0.4765 -0.2810  0.0928
 7104SOL    HW132948   3.702   2.135   9.826 -0.8494  1.9673  2.8913
 7104SOL    HW232949   3.650   2.112   9.959 -1.9047 -1.5990  0.6919
 7105SOL     OW32950   0.916   0.751   1.074 -0.5322  0.2047  0.4563
 7105SOL    HW132951   0.824   0.774   1.065 -0.2418  0.4200 -2.0332
 7105SOL    HW232952   0.910   0.683   1.140  1.2598  1.0544  1.4906
 7106SOL     OW32953   4.156   0.772   9.510 -0.0435  0.3547  0.0519
 7106SOL    HW132954   4.146   0.836   9.580 -1.5613  0.3442 -0.1711
 7106SOL    HW232955   4.187   0.827   9.438 -1.1367 -0.3877 -0.9836
 7107SOL     OW32956   0.639   1.200  16.595 -0.2828 -0.9785 -0.4295
 7107SOL    HW132957   0.734   1.194  16.600 -0.1384  1.8876  0.1363
 7107SOL    HW232958   0.624   1.229  16.685 -1.7124 -1.5232 -0.4875
 7108SOL     OW32959   3.490   2.655  12.342  0.3300  0.2981 -0.6190
 7108SOL    HW132960   3.412   2.704  12.367 -0.0914  0.3388 -1.9835
 7108SOL    HW232961   3.565   2.715  12.342  0.3547  0.2736 -1.3299
 7109SOL     OW32962   0.854   3.734   5.741 -0.2569  0.0286  0.3747
 7109SOL    HW132963   0.898   3.819   5.737  0.3064 -0.2885 -0.1379
 7109SOL    HW232964   0.898   3.680   5.675 -1.4932  1.6660 -1.8019
 7110SOL     OW32965   0.859   3.393   7.255 -0.4771  0.1657 -0.1606
 7110SOL    HW132966   0.794   3.337   7.297  0.1597  0.9813  1.9288
 7110SOL    HW232967   0.847   3.475   7.303 -1.3991 -0.2044  0.2492
 7111SOL     OW32968   1.993   3.066   1.733 -0.1067  0.1411  0.0848
 7111SOL    HW132969   2.077   3.020   1.736 -1.1498 -1.7308  0.4535
 7111SOL    HW232970   1.987   3.106   1.646 -0.8329 -0.5415 -0.1802
 7112SOL     OW32971   1.414   3.478   2.077 -0.0909  0.2035 -0.1013
 7112SOL    HW132972   1.456   3.415   2.019 -0.9216 -1.3592  1.0215
 7112SOL    HW232973   1.356   3.520   2.013  0.7296  0.6305 -0.5801
 7113SOL     OW32974   1.558   1.246  13.077  0.3457  0.4974  0.0431
 7113SOL    HW132975   1.539   1.241  13.170 -2.1382 -1.8843 -0.6106
 7113SOL    HW232976   1.648   1.213  13.071  0.5987  1.5161 -2.0632
 7114SOL     OW32977   4.439   4.180  14.521  0.2155 -0.5641 -0.1851
 7114SOL    HW132978   4.434   4.227  14.438 -0.4820 -0.8017 -0.2835
 7114SOL    HW232979   4.371   4.229  14.567  1.5983  1.3746 -0.2545
 7115SOL     OW32980   4.372   1.666   7.301  0.2014  0.2778  0.0348
 7115SOL    HW132981   4.465   1.658   7.281 -0.1234 -0.7511 -1.1122
 7115SOL    HW232982   4.376   1.656   7.396  0.6239  0.7058  0.0628
 7116SOL     OW32983   2.006   2.810   6.343  0.3087 -0.4371  0.2962
 7116SOL    HW132984   1.925   2.789   6.389  0.3926 -1.8510 -0.2124
 7116SOL    HW232985   2.033   2.876   6.407  1.6578 -1.9378  1.2571
 7117SOL     OW32986   4.093   4.444   4.959 -0.1508  0.1811 -0.3823
 7117SOL    HW132987   4.086   4.375   5.024 -2.1986  1.5414  0.8424
 7117SOL    HW232988   4.116   4.520   5.013  2.5386 -0.6327 -0.3670
 7118SOL     OW32989   1.424   4.185   2.741 -0.0468 -0.1240 -0.1320
 7118SOL    HW132990   1.507   4.200   2.695 -0.2188  2.1529  0.2970
 7118SOL    HW232991   1.451   4.147   2.825  0.6541  0.5131 -0.0653
 7119SOL     OW32992   0.730   1.502   8.719  0.3571  0.3780 -0.0544
 7119SOL    HW132993   0.804   1.526   8.775  1.7829  0.4461 -1.9634
 7119SOL    HW232994   0.655   1.499   8.778 -0.2108 -0.1972 -0.8229
 7120SOL     OW32995   1.375   4.593   3.689  0.1900 -0.2952  0.4812
 7120SOL    HW132996   1.384   4.625   3.599  0.6725 -2.1107 -0.1218
 7120SOL    HW232997   1.444   4.641   3.735 -0.3316  1.6729 -0.8044
 7121SOL     OW32998   2.633   0.769  12.694 -0.2090 -0.4063  0.8855
 7121SOL    HW132999   2.622   0.806  12.782 -1.2270  0.0391  0.5603
 7121SOL    HW233000   2.679   0.840  12.651  0.6756 -2.4716 -1.5878
 7122SOL     OW33001   4.566   1.566   4.053 -0.2034  0.0980 -0.3862
 7122SOL    HW133002   4.640   1.515   4.086 -0.0168  0.5887 -0.0431
 7122SOL    HW233003   4.609   1.646   4.022 -0.5937 -0.2041 -1.6828
 7123SOL     OW33004   3.483   3.910   3.189  0.3512 -0.3765  0.1383
 7123SOL    HW133005   3.484   3.853   3.265 -1.2224 -2.2883 -1.2758
 7123SOL    HW233006   3.446   3.850   3.124 -0.2243  0.5855 -0.4189
 7124SOL     OW33007   3.316   1.261   1.895  0.2657  0.0542 -0.4918
 7124SOL    HW133008   3.283   1.342   1.934 -2.1806 -0.1943 -2.0300
 7124SOL    HW233009   3.392   1.239   1.948  0.1947 -0.5549 -0.6487
 7125SOL     OW33010   0.125   3.643  11.681 -0.2973 -0.6004  0.4653
 7125SOL    HW133011   0.159   3.555  11.664 -0.9078 -1.0121  1.3831
 7125SOL    HW233012   0.210   3.679  11.707 -0.4415 -0.2463  0.4452
 7126SOL     OW33013   3.789   2.859   4.427  0.7022 -0.1812  0.1397
 7126SOL    HW133014   3.778   2.805   4.505  1.8259 -0.7273 -0.0649
 7126SOL    HW233015   3.706   2.839   4.384  0.8165 -1.6837  0.6064
 7127SOL     OW33016   0.139   0.017   3.600  0.3016  0.1159 -0.3574
 7127SOL    HW133017   0.135   0.078   3.526  0.2132 -1.2882 -1.4943
 7127SOL    HW233018   0.222   4.711   3.589  0.4796  0.5516 -0.8766
 7128SOL     OW33019   1.656   4.123  10.443 -0.5137 -0.1198 -0.1446
 7128SOL    HW133020   1.751   4.118  10.431 -0.8291 -1.2521 -2.2276
 7128SOL    HW233021   1.643   4.058  10.512 -1.6585 -0.0440 -0.2852
 7129SOL     OW33022   4.473   3.401  15.117  0.1447 -0.1760 -0.2102
 7129SOL    HW133023   4.492   3.392  15.024 -3.4472  0.3413 -1.0076
 7129SOL    HW233024   4.389   3.354  15.113  0.6425 -1.1865  1.0020
 7130SOL     OW33025   1.999   2.629   8.027 -0.3691 -0.1058  0.8661
 7130SOL    HW133026   2.040   2.550   8.062 -0.5109 -1.1771 -1.4318
 7130SOL    HW233027   2.006   2.687   8.104 -0.2950 -0.9437  1.4881
 7131SOL     OW33028   3.655   4.238   4.058  0.3973  0.4970 -0.0036
 7131SOL    HW133029   3.703   4.262   3.979  0.4410  2.5044  0.6328
 7131SOL    HW233030   3.693   4.162   4.101  0.6964  1.2113  0.9768
 7132SOL     OW33031   4.547   2.873   4.471  0.2150 -0.3039 -0.2520
 7132SOL    HW133032   4.552   2.963   4.438  1.0171 -1.0480 -2.1879
 7132SOL    HW233033   4.462   2.835   4.448 -0.7642  1.9639 -0.3496
 7133SOL     OW33034   1.516   4.177  17.328 -0.1231  0.5288 -0.3001
 7133SOL    HW133035   1.461   4.158  17.404 -2.2444 -1.1744 -2.2668
 7133SOL    HW233036   1.603   4.209  17.353 -0.7880  1.6060  0.6398
 7134SOL     OW33037   0.155   3.454  13.299 -0.0747 -0.4989 -0.1162
 7134SOL    HW133038   0.167   3.405  13.381 -0.4414 -1.7111 -0.7774
 7134SOL    HW233039   0.144   3.380  13.239  1.1471  0.1573 -1.1367
 7135SOL     OW33040   4.155   3.192   6.635  0.2796 -0.5173 -0.3135
 7135SOL    HW133041   4.192   3.257   6.575 -1.2282 -0.8249 -1.5754
 7135SOL    HW233042   4.062   3.194   6.611 -0.4269  1.6876  2.6738
 7136SOL     OW33043   1.590   3.962   5.351  0.5609  0.3553 -0.4536
 7136SOL    HW133044   1.561   4.015   5.277 -0.4411 -0.9011 -0.9717
 7136SOL    HW233045   1.525   3.892   5.341  2.0372 -0.9044 -1.2246
 7137SOL     OW33046   1.696   1.382   9.011 -0.1786 -0.1805  0.7552
 7137SOL    HW133047   1.610   1.368   8.973  1.5568 -0.4478 -3.1132
 7137SOL    HW233048   1.688   1.470   9.047  1.2431 -0.4643  1.7766
 7138SOL     OW33049   1.299   1.018   3.930  0.2444 -0.3899 -0.1434
 7138SOL    HW133050   1.345   0.938   3.956  2.3066  1.1481  0.9535
 7138SOL    HW233051   1.306   1.029   3.835 -3.0428 -0.0085 -0.3414
 7139SOL     OW33052   4.494   0.232   6.026 -0.0215  0.0209 -0.6033
 7139SOL    HW133053   4.488   0.318   6.066 -3.8383 -0.2627 -0.5757
 7139SOL    HW233054   4.582   0.245   5.989  0.0418  1.0472 -0.0842
 7140SOL     OW33055   1.877   3.842  12.220  0.0446  0.1624  0.4267
 7140SOL    HW133056   1.863   3.921  12.168 -1.7323  0.3491  1.1923
 7140SOL    HW233057   1.816   3.773  12.192  1.5690 -0.8243 -0.4870
 7141SOL     OW33058   3.688   1.284   5.930  0.2254  0.1506  0.2049
 7141SOL    HW133059   3.771   1.244   5.907 -0.8942 -1.8120 -0.4179
 7141SOL    HW233060   3.704   1.366   5.884  1.9948 -0.3166 -0.0038
 7142SOL     OW33061   3.688   3.482   3.409  0.2404 -0.9239 -0.7285
 7142SOL    HW133062   3.685   3.439   3.495 -0.6910 -2.1897 -1.3977
 7142SOL    HW233063   3.777   3.463   3.381  0.1691  0.9812 -2.1915
 7143SOL     OW33064   0.682   2.212   3.759  0.3498 -0.4943 -0.3871
 7143SOL    HW133065   0.680   2.202   3.664 -0.8948  1.9365 -0.6136
 7143SOL    HW233066   0.597   2.179   3.788 -0.8702  3.2127  0.2101
 7144SOL     OW33067   3.911   1.968  17.215 -0.4793 -0.2012 -0.1561
 7144SOL    HW133068   3.968   1.891  17.217  0.5039  0.5794  1.9512
 7144SOL    HW233069   3.835   1.931  17.170 -0.2422 -0.2276 -0.5287
 7145SOL     OW33070   2.080   4.160  16.273 -0.4055 -0.0124 -0.3085
 7145SOL    HW133071   2.066   4.241  16.223  0.1653  0.7122  0.6966
 7145SOL    HW233072   2.123   4.201  16.348  0.6242  0.9429 -1.4090
 7146SOL     OW33073   3.735   1.946   6.302 -0.1038  0.6497  0.8824
 7146SOL    HW133074   3.705   1.917   6.216  2.5536  0.1342  0.1553
 7146SOL    HW233075   3.710   1.876   6.362  2.4684  0.2282  1.4625
 7147SOL     OW33076   2.580   2.484   6.446 -0.0542  0.3348  0.6166
 7147SOL    HW133077   2.636   2.420   6.402 -0.5588  0.6769 -0.5210
 7147SOL    HW233078   2.621   2.570   6.437 -0.3296  0.6334  2.1063
 7148SOL     OW33079   3.766   4.039  10.499 -0.0416  0.1675 -0.0349
 7148SOL    HW133080   3.801   4.078  10.579 -0.5624  0.0720  0.2371
 7148SOL    HW233081   3.848   4.029  10.450 -1.3717 -0.6437 -2.1101
 7149SOL     OW33082   3.247   3.475   4.054 -0.1664  0.1473  0.2355
 7149SOL    HW133083   3.256   3.460   4.148 -0.6070 -1.1405  0.0712
 7149SOL    HW233084   3.324   3.531   4.041  1.4885 -2.1135  0.3492
 7150SOL     OW33085   2.064   1.353   8.528 -0.7579  0.6088  0.8109
 7150SOL    HW133086   2.154   1.377   8.548 -0.1284  0.4343 -1.8438
 7150SOL    HW233087   2.066   1.264   8.563  0.3706  0.6581  0.8535
 7151SOL     OW33088   0.347   3.928   8.237 -0.1044  0.7779 -0.0558
 7151SOL    HW133089   0.267   3.952   8.190 -1.1758  0.5349  1.6638
 7151SOL    HW233090   0.402   3.981   8.180  2.6284  0.1133  1.9767
 7152SOL     OW33091   1.600   4.514   1.419  0.4261  0.5854 -0.1002
 7152SOL    HW133092   1.568   4.604   1.409  2.3417  1.4931  1.8195
 7152SOL    HW233093   1.622   4.491   1.329 -0.1085 -0.3987  0.0227
 7153SOL     OW33094   4.027   1.966   9.307 -0.1344  0.1678 -0.0358
 7153SOL    HW133095   4.096   2.013   9.354  0.9234 -0.5963 -0.8300
 7153SOL    HW233096   3.985   1.915   9.376  0.9105 -0.8339 -0.1535
 7154SOL     OW33097   4.508   1.203   7.381  0.4253 -0.6030 -0.1074
 7154SOL    HW133098   4.464   1.118   7.388  1.4400 -1.2847 -2.0586
 7154SOL    HW233099   4.466   1.246   7.455  1.7213 -0.8804  0.7997
 7155SOL     OW33100   2.554   4.297  17.019  0.1380 -0.3816 -0.7937
 7155SOL    HW133101   2.542   4.386  17.050  4.0779 -0.0049 -0.2948
 7155SOL    HW233102   2.466   4.264  17.033 -0.0609  1.6037  2.6485
 7156SOL     OW33103   1.802   0.665   4.674  0.1859  0.1088 -0.2340
 7156SOL    HW133104   1.824   0.630   4.761  0.4550  2.3318  0.5908
 7156SOL    HW233105   1.832   0.591   4.621  2.8144  0.6780  0.4688
 7157SOL     OW33106   3.312   3.573   1.803 -0.6745  0.1264 -0.2905
 7157SOL    HW133107   3.309   3.610   1.891 -1.0180 -0.8563  0.1175
 7157SOL    HW233108   3.218   3.557   1.796 -0.9588  1.0885  1.5244
 7158SOL     OW33109   1.062   4.066  10.482  0.1758 -0.1691  0.3112
 7158SOL    HW133110   1.138   4.047  10.537 -0.3179  2.7188  1.9729
 7158SOL    HW233111   1.048   3.977  10.449 -0.3940 -0.8300  2.3425
 7159SOL     OW33112   0.822   2.204  16.319 -0.3301 -0.0314 -0.2651
 7159SOL    HW133113   0.869   2.163  16.246 -0.7226  0.1946 -0.6518
 7159SOL    HW233114   0.775   2.278  16.279 -0.0849 -0.7252 -1.8621
 7160SOL     OW33115   1.730   1.628   9.887  0.6489 -0.1544  0.6374
 7160SOL    HW133116   1.672   1.600   9.957 -0.4652 -1.0456 -0.6371
 7160SOL    HW233117   1.778   1.697   9.931 -0.8900  1.0417  0.4445
 7161SOL     OW33118   4.474   2.010   5.093 -0.3319  0.0777 -0.2675
 7161SOL    HW133119   4.541   2.043   5.153 -0.7406 -1.0786  0.8345
 7161SOL    HW233120   4.481   1.917   5.114 -0.9213 -0.2325 -1.4692
 7162SOL     OW33121   1.148   3.232   4.244 -0.3284  0.0611 -0.2984
 7162SOL    HW133122   1.227   3.265   4.288  1.1915 -3.0752 -0.6758
 7162SOL    HW233123   1.097   3.312   4.255  0.5758  0.7186 -0.9733
 7163SOL     OW33124   2.996   3.215  15.597  0.0805  0.4984  0.2449
 7163SOL    HW133125   2.904   3.230  15.578  0.2898  2.5971  0.8906
 7163SOL    HW233126   3.016   3.294  15.647 -0.9510  1.2692 -0.5795
 7164SOL     OW33127   4.117   0.151   5.805  0.8414 -0.1057  0.0450
 7164SOL    HW133128   4.168   0.070   5.800  0.4298 -0.4580  1.5725
 7164SOL    HW233129   4.180   0.212   5.768 -0.5483  0.5882 -1.1430
 7165SOL     OW33130   0.851   1.180   2.182 -0.4377  0.7574  0.3911
 7165SOL    HW133131   0.793   1.136   2.120  1.3167  2.6371 -2.5661
 7165SOL    HW233132   0.878   1.261   2.139 -0.8908  0.8605  0.3090
 7166SOL     OW33133   3.996   1.791  10.126  0.0085 -0.3409 -0.5772
 7166SOL    HW133134   3.941   1.765  10.052  0.3459 -1.0693 -0.5745
 7166SOL    HW233135   3.919   1.820  10.175  0.1004  1.6374 -1.5766
 7167SOL     OW33136   0.688   3.156   0.361  0.2085 -0.1377  0.2111
 7167SOL    HW133137   0.778   3.145   0.394  0.2992 -0.2603 -0.0798
 7167SOL    HW233138   0.641   3.175   0.442 -0.7572  0.3340 -0.4656
 7168SOL     OW33139   4.499   3.561   0.140 -0.0044 -0.3446  0.2329
 7168SOL    HW133140   4.593   3.575   0.152  0.2784 -1.5309 -0.6146
 7168SOL    HW233141   4.474   3.627   0.074  0.8209 -0.0788  0.1787
 7169SOL     OW33142   3.375   3.606  14.120  0.1728  0.1413  0.4906
 7169SOL    HW133143   3.371   3.652  14.037 -0.3891  0.4831  0.7124
 7169SOL    HW233144   3.440   3.540  14.096  0.7817  0.4569  1.2865
 7170SOL     OW33145   1.737   3.917   2.414 -0.5940 -0.0144  0.2712
 7170SOL    HW133146   1.652   3.909   2.457 -0.2924  0.7414  1.0057
 7170SOL    HW233147   1.727   3.975   2.339  2.5362  0.5084  0.2600
 7171SOL     OW33148   2.301   2.766   4.520  0.4925  0.7313  0.8788
 7171SOL    HW133149   2.207   2.748   4.523  1.0725 -2.2131  0.4487
 7171SOL    HW233150   2.350   2.684   4.522 -0.9770 -0.1451  0.4686
 7172SOL     OW33151   1.117   4.165   9.411 -0.3967 -0.4822  0.0596
 7172SOL    HW133152   1.024   4.185   9.420 -0.4170 -0.8295  0.5755
 7172SOL    HW233153   1.153   4.205   9.331  1.2156  0.8525  1.4432
 7173SOL     OW33154   1.637   0.679   5.134 -0.4265 -0.2675 -0.5785
 7173SOL    HW133155   1.567   0.744   5.139 -0.7228 -0.6207 -0.1681
 7173SOL    HW233156   1.702   0.722   5.190 -1.6185 -0.1405  0.7018
 7174SOL     OW33157   4.527   1.353   1.540 -0.7175 -0.4206  0.6859
 7174SOL    HW133158   4.524   1.436   1.491  1.2158 -0.9583 -0.3358
 7174SOL    HW233159   4.490   1.375   1.625 -0.0426 -1.5450  1.2547
 7175SOL     OW33160   1.176   0.690   6.160 -0.3914  0.3072 -0.0585
 7175SOL    HW133161   1.096   0.639   6.167  1.1633 -2.1222 -0.0026
 7175SOL    HW233162   1.196   0.715   6.251 -0.3092  2.3836 -0.6492
 7176SOL     OW33163   4.285   3.574   1.812  0.1360 -0.0410 -0.0752
 7176SOL    HW133164   4.266   3.546   1.723 -1.3270 -1.1155  0.5786
 7176SOL    HW233165   4.380   3.578   1.804 -0.1074 -0.5772 -3.0919
 7177SOL     OW33166   2.641   2.534   3.068  0.2513 -0.0465 -0.2066
 7177SOL    HW133167   2.649   2.442   3.094 -1.2071  1.0951  4.3270
 7177SOL    HW233168   2.639   2.523   2.973 -0.3910  3.4242 -0.5607
 7178SOL     OW33169   3.447   3.927  12.469  0.2567 -0.5169  0.0215
 7178SOL    HW133170   3.455   3.843  12.515 -4.6921 -0.6394  0.6228
 7178SOL    HW233171   3.532   3.935  12.425 -0.7320 -1.0712 -1.9678
 7179SOL     OW33172   2.813   3.041   2.601 -0.0735  0.1367  0.5796
 7179SOL    HW133173   2.840   3.110   2.662 -0.9306  2.6864 -1.9266
 7179SOL    HW233174   2.738   3.007   2.650  1.0161 -1.1136  1.3715
 7180SOL     OW33175   0.378   3.458  11.209 -0.0874  0.9043  0.4826
 7180SOL    HW133176   0.403   3.502  11.291  0.2986 -1.0118  1.3995
 7180SOL    HW233177   0.420   3.509  11.139 -0.2697 -1.9079 -1.6532
 7181SOL     OW33178   0.035   2.739   3.862  0.1915  0.2119  0.3327
 7181SOL    HW133179   0.099   2.766   3.929  0.2288 -0.3771  0.5324
 7181SOL    HW233180   0.009   2.650   3.885 -1.0072  0.4803  0.0173
 7182SOL     OW33181   4.400   2.828   1.524  0.7362  0.1884 -0.9592
 7182SOL    HW133182   4.460   2.903   1.527  2.5756 -1.4449  2.4099
 7182SOL    HW233183   4.409   2.807   1.431 -2.3873  0.7758 -1.3956
 7183SOL     OW33184   2.626   4.151   6.905  0.2834 -0.2018 -0.2230
 7183SOL    HW133185   2.541   4.165   6.862  0.3934  0.2485 -0.2936
 7183SOL    HW233186   2.644   4.058   6.897 -0.8771 -0.5470  1.0226
 7184SOL     OW33187   3.754   0.157  16.296  0.0963 -0.4168  0.3551
 7184SOL    HW133188   3.848   0.144  16.284 -0.5247 -0.7499 -3.9725
 7184SOL    HW233189   3.751   0.208  16.377  0.1929  0.5214 -0.2272
 7185SOL     OW33190   4.476   1.181   8.484  0.1348  0.2774  0.0358
 7185SOL    HW133191   4.532   1.108   8.512  2.2293  0.7202 -2.9875
 7185SOL    HW233192   4.531   1.231   8.424 -0.8267  1.2708 -0.0223
 7186SOL     OW33193   2.973   1.802   8.522  0.0403  0.0355  0.5110
 7186SOL    HW133194   2.936   1.834   8.604 -3.0930 -1.8766 -0.1656
 7186SOL    HW233195   2.968   1.709   8.540 -1.9023  0.5545  2.6901
 7187SOL     OW33196   0.861   2.940   6.757 -0.3457  0.0388 -0.3269
 7187SOL    HW133197   0.920   3.010   6.728  2.4962 -1.9445  0.7295
 7187SOL    HW233198   0.788   2.992   6.792  0.7337 -0.4732  2.6839
 7188SOL     OW33199   1.555   1.233   0.568 -0.0158 -0.2863  0.2697
 7188SOL    HW133200   1.492   1.189   0.511 -0.3134 -0.3178  0.6193
 7188SOL    HW233201   1.511   1.317   0.576  1.3645  0.2032  2.5914
 7189SOL     OW33202   2.507   2.435   8.977  0.0069  0.3411  0.0006
 7189SOL    HW133203   2.491   2.424   9.070  0.1103 -0.1653 -0.0448
 7189SOL    HW233204   2.595   2.474   8.971 -0.2166  0.7668 -0.5807
 7190SOL     OW33205   2.595   4.177   5.824 -0.6380 -0.3946  0.1840
 7190SOL    HW133206   2.623   4.245   5.762  1.7928 -1.8589 -0.3423
 7190SOL    HW233207   2.661   4.172   5.893  0.4312 -0.1418 -0.8039
 7191SOL     OW33208   3.740   3.590   5.637  0.2241 -0.1615  0.3391
 7191SOL    HW133209   3.785   3.636   5.708  0.8373 -2.1923  1.2808
 7191SOL    HW233210   3.725   3.652   5.566 -2.0343 -0.2744  0.7261
 7192SOL     OW33211   2.504   3.257  17.567  0.0929  0.2101  0.6048
 7192SOL    HW133212   2.437   3.286  17.629 -0.6462  0.0537 -0.1235
 7192SOL    HW233213   2.553   3.338  17.557  0.9558 -0.1468  1.9531
 7193SOL     OW33214   3.230   0.908  12.404  0.2176 -0.6976  0.2346
 7193SOL    HW133215   3.161   0.846  12.430  0.8119 -0.3910  2.5081
 7193SOL    HW233216   3.279   0.925  12.484  0.7342 -0.1192 -0.2105
 7194SOL     OW33217   4.649   0.338   7.955  0.3286 -0.0953 -0.0134
 7194SOL    HW133218   4.674   0.293   8.036  1.0020  0.4786  0.1072
 7194SOL    HW233219   4.670   0.272   7.889  3.3302  0.1988  0.6176
 7195SOL     OW33220   2.064   4.428   4.701 -0.0994 -0.0090  0.2955
 7195SOL    HW133221   2.117   4.448   4.778 -0.8543  0.8209  0.6023
 7195SOL    HW233222   2.019   4.344   4.704  0.2135 -0.2031 -0.5425
 7196SOL     OW33223   2.342   1.554   9.142  0.1595 -0.2427 -0.1602
 7196SOL    HW133224   2.416   1.500   9.171  1.8595  0.6798 -2.8086
 7196SOL    HW233225   2.264   1.500   9.155 -1.5549  2.2072 -0.3185
 7197SOL     OW33226   3.642   0.128   1.736  0.0785 -0.1344  0.1976
 7197SOL    HW133227   3.651   0.212   1.780  0.5475  0.1598 -0.4671
 7197SOL    HW233228   3.683   0.161   1.656 -0.9713  0.8214  0.0532
 7198SOL     OW33229   4.193   0.063   8.494  0.3701  0.0345 -0.1053
 7198SOL    HW133230   4.264   0.108   8.539  0.5168  1.3578 -1.6215
 7198SOL    HW233231   4.156   0.021   8.571 -0.6603  0.5962 -0.2895
 7199SOL     OW33232   0.273   1.245   1.932 -0.1321  0.0963  0.2093
 7199SOL    HW133233   0.210   1.290   1.989  0.1317 -0.1812  0.7241
 7199SOL    HW233234   0.207   1.193   1.886  1.3358 -0.8391 -0.8267
 7200SOL     OW33235   4.399   1.280   4.224  0.3060  0.1571 -0.1200
 7200SOL    HW133236   4.476   1.226   4.240 -0.2761 -1.2709 -2.1695
 7200SOL    HW233237   4.330   1.214   4.236  1.0718 -0.3607  1.4845
 7201SOL     OW33238   0.936   0.891   0.352  0.2341 -0.5655  0.2440
 7201SOL    HW133239   0.911   0.830   0.422  3.4023 -1.9928  0.1181
 7201SOL    HW233240   0.886   0.966   0.385 -2.4918 -2.0232 -0.5448
 7202SOL     OW33241   1.680   3.591   2.125  0.4826 -0.5176  0.4569
 7202SOL    HW133242   1.677   3.670   2.070 -1.5198 -0.1009  1.1559
 7202SOL    HW233243   1.591   3.558   2.115  0.6605 -0.8781  0.0685
 7203SOL     OW33244   1.472   1.706   8.112 -0.2249 -0.5298  0.4532
 7203SOL    HW133245   1.529   1.737   8.041  1.7669 -1.5807  1.5984
 7203SOL    HW233246   1.504   1.751   8.190  0.5316  1.3147 -0.9032
 7204SOL     OW33247   4.051   3.802  11.822 -0.1721 -1.0584  0.1821
 7204SOL    HW133248   3.990   3.759  11.883  0.4918  1.0402  2.3037
 7204SOL    HW233249   4.009   3.783  11.737 -0.1551 -0.3713  0.0256
 7205SOL     OW33250   1.863   2.478  17.111 -0.3070  0.7359  1.1414
 7205SOL    HW133251   1.905   2.445  17.191  1.1920  1.1679  0.5383
 7205SOL    HW233252   1.779   2.435  17.100 -1.2268  2.2631  2.1831
 7206SOL     OW33253   2.524   1.648   7.198 -0.2317  0.1498  0.3179
 7206SOL    HW133254   2.608   1.623   7.237  1.2888  1.6736 -1.9919
 7206SOL    HW233255   2.533   1.628   7.105  0.8952  0.4832  0.3482
 7207SOL     OW33256   0.471   1.732   7.870 -0.2755  0.0243  0.3821
 7207SOL    HW133257   0.503   1.660   7.816 -3.0969 -0.8115 -0.1371
 7207SOL    HW233258   0.546   1.749   7.927 -0.0425  1.7610 -0.4163
 7208SOL     OW33259   0.957   1.416   6.369 -0.8202  0.4535 -0.0388
 7208SOL    HW133260   1.034   1.436   6.316  1.3206 -0.2425  2.7969
 7208SOL    HW233261   0.907   1.368   6.303 -0.1850  0.4377 -0.5090
 7209SOL     OW33262   2.595   4.042  11.441  0.2831 -0.1018 -0.0831
 7209SOL    HW133263   2.657   4.066  11.510  0.3100 -0.6174  0.0687
 7209SOL    HW233264   2.512   4.043  11.487 -1.9416 -1.2884 -4.1048
 7210SOL     OW33265   3.093   3.982   4.556  0.0249  0.2473 -0.0936
 7210SOL    HW133266   3.016   3.930   4.533 -0.2198  0.0655  1.1160
 7210SOL    HW233267   3.082   3.974   4.651  0.5057  0.7741  0.0049
 7211SOL     OW33268   2.014   1.090   0.187  0.7590  0.1509  0.0752
 7211SOL    HW133269   2.059   1.131   0.112  0.3078  0.6467  0.0782
 7211SOL    HW233270   1.935   1.143   0.190 -1.1258 -2.5528 -1.7447
 7212SOL     OW33271   3.111   1.533  17.520  0.2845  0.1989 -0.3477
 7212SOL    HW133272   3.093   1.497  17.433 -0.0245 -1.4020  0.3972
 7212SOL    HW233273   3.119   1.454  17.572 -1.9563  0.2172  0.0548
 7213SOL     OW33274   4.494   1.461  16.406 -0.4106 -0.6819  0.1989
 7213SOL    HW133275   4.448   1.425  16.331 -2.5234  1.1719  0.6070
 7213SOL    HW233276   4.450   1.407  16.472 -1.0517 -0.7296 -0.2679
 7214SOL     OW33277   3.029   3.444   7.103 -0.0914  0.8874 -0.2194
 7214SOL    HW133278   2.966   3.397   7.158  1.3754 -1.9840 -1.0036
 7214SOL    HW233279   3.077   3.371   7.065 -0.9806 -0.2010  0.7271
 7215SOL     OW33280   4.520   1.745  16.687  0.0642 -0.4957  0.0181
 7215SOL    HW133281   4.474   1.768  16.606 -0.6037  1.3148  0.9163
 7215SOL    HW233282   4.493   1.821  16.739 -0.0206 -0.7646  0.3602
 7216SOL     OW33283   4.048   2.859   4.354 -0.5063  0.8254 -0.2440
 7216SOL    HW133284   3.957   2.875   4.376 -1.3615 -1.2655 -2.2356
 7216SOL    HW233285   4.050   2.764   4.339  0.5754  0.5089  1.8417
 7217SOL     OW33286   1.271   4.167   7.852  0.7359 -0.1607 -0.1338
 7217SOL    HW133287   1.300   4.142   7.940 -1.9045 -0.8784  0.5290
 7217SOL    HW233288   1.214   4.096   7.821 -0.9279  0.7245  0.8693
 7218SOL     OW33289   0.858   4.077   1.834 -0.1806 -0.4249  0.2955
 7218SOL    HW133290   0.929   4.138   1.854 -0.4280  0.8357 -2.6554
 7218SOL    HW233291   0.800   4.080   1.910 -1.7792  0.1065 -0.9416
 7219SOL     OW33292   2.018   1.573   8.717 -0.2788  0.3234 -0.6671
 7219SOL    HW133293   2.044   1.545   8.804 -1.1610 -2.3905 -1.2691
 7219SOL    HW233294   2.040   1.499   8.661 -3.2018 -0.2903 -1.0168
 7220SOL     OW33295   1.105   3.560   2.116  0.3132 -0.2319 -0.1951
 7220SOL    HW133296   1.054   3.575   2.036 -0.7027 -0.6475  0.3779
 7220SOL    HW233297   1.146   3.646   2.125  0.3607  0.3239 -5.7143
 7221SOL     OW33298   1.055   3.290  10.247 -0.0601 -0.0209 -0.4750
 7221SOL    HW133299   1.069   3.297  10.153 -3.2468 -0.6525 -0.9883
 7221SOL    HW233300   0.966   3.255  10.257 -0.1394  0.6143  1.0427
 7222SOL     OW33301   1.068   2.379   1.682 -0.5617  0.4095 -0.2988
 7222SOL    HW133302   1.150   2.332   1.668 -0.6659  0.7854 -2.2081
 7222SOL    HW233303   1.061   2.429   1.601  1.9932 -0.0630 -0.7914
 7223SOL     OW33304   1.441   1.525   6.790  0.1303 -0.0379 -0.4526
 7223SOL    HW133305   1.396   1.562   6.714  2.5110  1.2761 -1.2095
 7223SOL    HW233306   1.397   1.442   6.807  0.8205 -0.0679  1.1530
 7224SOL     OW33307   1.362   3.527   4.874 -0.3145  0.2597 -0.5634
 7224SOL    HW133308   1.271   3.498   4.874 -0.4068  0.5482  0.2961
 7224SOL    HW233309   1.379   3.547   4.782  1.2279 -1.6497 -0.7165
 7225SOL     OW33310   4.371   2.033   6.385 -0.0053  0.0280 -0.0619
 7225SOL    HW133311   4.461   2.060   6.397  0.4185 -0.2123 -2.5289
 7225SOL    HW233312   4.357   2.107   6.325 -0.9467  1.0537  1.4276
 7226SOL     OW33313   2.624   2.486   7.970 -0.5375  0.5418  0.2326
 7226SOL    HW133314   2.573   2.443   7.902 -2.9227  0.8358  1.8426
 7226SOL    HW233315   2.561   2.544   8.013  0.8310  1.2044  1.3515
 7227SOL     OW33316   2.545   0.600   3.111 -0.4123 -0.2305  0.7445
 7227SOL    HW133317   2.613   0.568   3.172  0.3168  1.5554  0.8645
 7227SOL    HW233318   2.517   0.515   3.076 -1.3675  0.9398 -1.2939
 7228SOL     OW33319   4.295   0.643   0.465 -0.2798 -0.0892 -0.4510
 7228SOL    HW133320   4.316   0.711   0.402  1.4220  1.9169  2.3098
 7228SOL    HW233321   4.382   0.608   0.485 -0.2256  0.0983 -0.3615
 7229SOL     OW33322   1.193   0.416   4.115 -0.1335 -0.8401 -0.2195
 7229SOL    HW133323   1.210   0.384   4.026  3.4568  2.2898 -0.6765
 7229SOL    HW233324   1.194   0.342   4.176 -0.2535 -0.9183 -0.3131
 7230SOL     OW33325   0.257   4.096   8.956  0.1989  0.2213  0.1283
 7230SOL    HW133326   0.189   4.163   8.944 -0.0493 -0.1368 -0.4507
 7230SOL    HW233327   0.276   4.099   9.050 -1.3123 -0.8163  0.4704
 7231SOL     OW33328   4.556   1.751   7.736 -0.1770 -0.5038 -0.1861
 7231SOL    HW133329   4.614   1.795   7.799 -3.3845  0.4568  2.0752
 7231SOL    HW233330   4.484   1.738   7.797 -1.9171  2.4778 -1.5849
 7232SOL     OW33331   4.695   3.890   9.684  0.1466  0.0507 -0.2356
 7232SOL    HW133332   4.707   3.838   9.604 -0.3659  0.9527 -0.9033
 7232SOL    HW233333   0.045   3.904   9.713 -0.2429  1.2988  0.3199
 7233SOL     OW33334   4.191   4.725  16.041 -0.1378  0.1475  0.4513
 7233SOL    HW133335   4.102   4.738  16.072 -0.9017 -1.8567 -0.9071
 7233SOL    HW233336   4.200   0.061  15.984  3.1098 -0.5049  0.0837
 7234SOL     OW33337   2.846   3.521   8.371 -0.2022  0.2743 -0.0805
 7234SOL    HW133338   2.919   3.539   8.311 -2.8045 -0.3657 -3.3952
 7234SOL    HW233339   2.841   3.426   8.366  0.0875  0.1731  1.7731
 7235SOL     OW33340   2.720   1.877   6.603  0.2578 -0.2224 -0.7504
 7235SOL    HW133341   2.809   1.904   6.580  0.8767 -1.4231  0.3092
 7235SOL    HW233342   2.688   1.951   6.654  1.2402 -0.0334 -0.4281
 7236SOL     OW33343   1.924   1.427   7.749  0.1864 -0.5461  0.1830
 7236SOL    HW133344   2.014   1.396   7.760  0.3909  0.0941  0.3213
 7236SOL    HW233345   1.938   1.520   7.768  1.5039 -0.3834 -1.6272
 7237SOL     OW33346   2.292   2.198   8.411 -0.3327 -0.3520  0.7784
 7237SOL    HW133347   2.317   2.154   8.493  0.6161 -1.9160 -0.3347
 7237SOL    HW233348   2.247   2.125   8.368 -1.1072  1.5012 -1.5541
 7238SOL     OW33349   2.722   3.603  17.363 -0.3010 -0.3619 -0.9414
 7238SOL    HW133350   2.635   3.626  17.396 -0.5692  1.1590 -2.7588
 7238SOL    HW233351   2.757   3.685  17.329 -1.1670 -0.0206 -0.9991
 7239SOL     OW33352   1.395   1.267   2.475  0.7458  0.1255  0.7095
 7239SOL    HW133353   1.436   1.308   2.399  0.6114 -4.0570 -1.6242
 7239SOL    HW233354   1.411   1.175   2.458 -0.4637  0.1567 -0.5994
 7240SOL     OW33355   3.117   2.043  15.799 -0.1750 -0.0670 -0.3402
 7240SOL    HW133356   3.191   2.070  15.745  0.6644 -0.1343  0.7890
 7240SOL    HW233357   3.069   2.120  15.830  0.7910 -0.0045  1.0035
 7241SOL     OW33358   2.459   3.623   5.317 -0.0801 -0.4835 -1.0365
 7241SOL    HW133359   2.378   3.620   5.268 -0.1666  1.0803 -0.9913
 7241SOL    HW233360   2.501   3.539   5.296 -1.4022 -1.6375  0.9514
 7242SOL     OW33361   3.397   0.452   3.109 -0.3030 -0.3834  0.1777
 7242SOL    HW133362   3.428   0.542   3.103 -1.3630  0.0114  0.6467
 7242SOL    HW233363   3.324   0.450   3.047 -2.5136  2.1566  2.6938
 7243SOL     OW33364   3.690   3.015   0.773  0.3528 -0.2432 -0.2706
 7243SOL    HW133365   3.608   3.036   0.730  0.3009  0.0133 -0.0434
 7243SOL    HW233366   3.739   2.979   0.699  0.1105 -1.8799  0.3557
 7244SOL     OW33367   4.506   1.664   8.342  0.2016 -0.1345 -0.6117
 7244SOL    HW133368   4.590   1.685   8.301  0.8077 -1.2313  0.0834
 7244SOL    HW233369   4.538   1.581   8.376  1.1977  0.3183 -0.4546
 7245SOL     OW33370   3.669   4.386   8.364  0.3921 -0.0080  0.0637
 7245SOL    HW133371   3.690   4.442   8.289 -0.2825  1.2617  0.8305
 7245SOL    HW233372   3.737   4.319   8.377 -0.5444 -1.2313 -1.3992
 7246SOL     OW33373   0.488   2.301   1.552 -0.1210 -0.1602 -0.1400
 7246SOL    HW133374   0.486   2.296   1.647 -0.4330  0.4921 -0.1087
 7246SOL    HW233375   0.577   2.275   1.530  0.8450  2.4028  0.7588
 7247SOL     OW33376   1.322   0.676   7.804  0.3755  0.1444 -0.1318
 7247SOL    HW133377   1.249   0.732   7.776  0.9942  1.6408  1.2059
 7247SOL    HW233378   1.363   0.737   7.865 -0.7233  0.5600  0.1789
 7248SOL     OW33379   1.119   0.227   7.696 -0.2724 -0.0172  0.0591
 7248SOL    HW133380   1.135   0.141   7.735  0.7784 -2.0053 -4.7453
 7248SOL    HW233381   1.163   0.282   7.760 -1.4339  0.8449  0.1122
 7249SOL     OW33382   2.678   3.709  11.498  0.2059  0.0295 -0.0951
 7249SOL    HW133383   2.754   3.756  11.466  0.4828  0.5544  1.3731
 7249SOL    HW233384   2.664   3.649  11.424  1.4520 -0.6619  0.2360
 7250SOL     OW33385   4.552   2.674   5.982  0.8169 -0.5208 -0.4565
 7250SOL    HW133386   4.471   2.720   6.006  1.1847 -1.8401  3.2712
 7250SOL    HW233387   4.518   2.585   5.984  1.4780 -0.7989 -1.3209
 7251SOL     OW33388   0.879   1.873   7.771 -0.2821  0.2161 -0.1978
 7251SOL    HW133389   0.811   1.839   7.711 -1.4294  0.1540  1.1365
 7251SOL    HW233390   0.831   1.908   7.846  0.2726  0.9930 -0.2137
 7252SOL     OW33391   1.109   1.264   2.504  0.4721 -0.0331  0.2887
 7252SOL    HW133392   1.203   1.282   2.500  0.5094 -0.6729 -1.8802
 7252SOL    HW233393   1.079   1.347   2.469  0.5264  0.1260  0.6215
 7253SOL     OW33394   1.199   1.397   1.156 -0.5868  0.2100 -0.2044
 7253SOL    HW133395   1.126   1.339   1.133 -0.2407  0.2297 -1.3517
 7253SOL    HW233396   1.161   1.455   1.222 -1.3671 -1.3560  0.7316
 7254SOL     OW33397   2.847   1.852  10.910  0.3100  0.5382 -0.8564
 7254SOL    HW133398   2.752   1.858  10.922  0.2640 -0.0748 -0.9330
 7254SOL    HW233399   2.880   1.934  10.947 -0.5558  0.0676  1.0042
 7255SOL     OW33400   4.218   3.653   5.939 -0.3133  0.8433 -0.5088
 7255SOL    HW133401   4.126   3.634   5.919 -0.6333  1.7793  0.0891
 7255SOL    HW233402   4.256   3.623   5.856  1.4818  0.5332  0.4375
 7256SOL     OW33403   1.870   3.481  17.642 -0.3580  0.5479 -0.4802
 7256SOL    HW133404   1.812   3.409  17.668  0.1052 -0.0569 -1.1320
 7256SOL    HW233405   1.947   3.434  17.611 -0.1111  0.9031 -0.4017
 7257SOL     OW33406   2.471   0.812   3.231 -0.2804 -0.1218 -0.4111
 7257SOL    HW133407   2.465   0.753   3.306 -1.5840 -1.8329 -1.8631
 7257SOL    HW233408   2.509   0.753   3.167 -0.8561 -0.8957 -0.0378
 7258SOL     OW33409   2.544   3.352   1.422  0.1624  0.3721 -0.5221
 7258SOL    HW133410   2.455   3.339   1.456 -0.2363  0.4249 -1.5496
 7258SOL    HW233411   2.563   3.267   1.382  0.9466 -0.0190  0.6875
 7259SOL     OW33412   1.331   3.509  13.187 -0.2495  0.0761 -0.1887
 7259SOL    HW133413   1.283   3.435  13.152 -0.0208 -0.5733  0.8780
 7259SOL    HW233414   1.289   3.529  13.270 -1.0083  2.8300 -1.2308
 7260SOL     OW33415   2.935   1.626   0.829 -0.0735  0.0335  0.0823
 7260SOL    HW133416   3.011   1.638   0.886  2.0598 -0.8669 -2.5484
 7260SOL    HW233417   2.947   1.535   0.803  0.3367  0.4612 -1.2616
 7261SOL     OW33418   3.256   3.325   3.092  0.0595 -0.3388  0.1568
 7261SOL    HW133419   3.301   3.288   3.169 -2.3433  0.0106  1.7217
 7261SOL    HW233420   3.272   3.418   3.109 -2.8184 -0.2512  2.3760
 7262SOL     OW33421   0.381   0.197   6.927  0.4261 -0.2290 -0.6785
 7262SOL    HW133422   0.286   0.183   6.918  0.1157  1.0959  0.7251
 7262SOL    HW233423   0.385   0.287   6.896 -0.8286 -0.8318 -2.6153
 7263SOL     OW33424   0.968   3.181   8.088  0.1608  0.2539  0.8244
 7263SOL    HW133425   1.021   3.217   8.158 -0.3945 -1.8495  2.3408
 7263SOL    HW233426   1.015   3.098   8.079 -0.4284 -0.2377  2.2921
 7264SOL     OW33427   2.105   3.229   1.534 -0.7497 -0.1243  0.1827
 7264SOL    HW133428   2.126   3.322   1.531  3.6042 -1.1321 -0.3397
 7264SOL    HW233429   2.188   3.191   1.564 -2.0394 -3.3911 -0.3560
 7265SOL     OW33430   0.759   3.564   3.377 -0.1484 -0.4110  0.2181
 7265SOL    HW133431   0.717   3.611   3.449  0.0484 -3.1674  2.1215
 7265SOL    HW233432   0.741   3.477   3.413  1.1531 -0.4023  0.8958
 7266SOL     OW33433   3.168   3.594   9.183 -0.4296  0.0280 -0.3997
 7266SOL    HW133434   3.103   3.660   9.159 -0.5221  0.1015  0.0540
 7266SOL    HW233435   3.243   3.648   9.209 -1.0011  0.3568  0.5620
 7267SOL     OW33436   0.459   4.716   2.235 -0.1194  0.2709  0.1034
 7267SOL    HW133437   0.407   4.640   2.262 -0.7956  0.8657  0.4908
 7267SOL    HW233438   0.526   4.711   2.303  0.6249  2.5168 -0.4950
 7268SOL     OW33439   0.772   1.090   6.415 -0.0413  0.7164 -0.1196
 7268SOL    HW133440   0.709   1.044   6.361 -0.2461  1.1756 -0.2688
 7268SOL    HW233441   0.725   1.132   6.486 -0.1029 -3.8708  2.5803
 7269SOL     OW33442   3.378   0.707   7.327 -0.2632  0.0958 -0.3313
 7269SOL    HW133443   3.423   0.681   7.407 -2.4546 -1.9899  0.2022
 7269SOL    HW233444   3.435   0.673   7.258 -0.5207  1.4762 -1.2220
 7270SOL     OW33445   4.569   4.067   2.514 -0.3317  0.4556 -0.1817
 7270SOL    HW133446   4.588   4.150   2.471  3.5926 -0.7658 -0.8529
 7270SOL    HW233447   4.573   4.004   2.442 -1.8745 -1.5601  1.4919
 7271SOL     OW33448   1.952   1.900  14.446 -0.3808  0.1409  0.0179
 7271SOL    HW133449   2.044   1.906  14.472 -0.3294  3.8656 -1.0137
 7271SOL    HW233450   1.958   1.869  14.355  3.3979  0.5700  0.1355
 7272SOL     OW33451   4.382   1.665  10.453 -0.2828  0.1086  0.0063
 7272SOL    HW133452   4.419   1.753  10.447  2.2257 -0.8617  1.2582
 7272SOL    HW233453   4.298   1.676  10.409 -0.4659 -1.0712  0.0701
 7273SOL     OW33454   2.629   1.321   7.044 -0.1721  0.1789 -0.4277
 7273SOL    HW133455   2.626   1.383   6.971  1.2458  0.4361 -0.2642
 7273SOL    HW233456   2.709   1.360   7.079 -0.5937  0.5946  0.0751
 7274SOL     OW33457   1.593   1.931   2.060 -0.1228 -0.2149  0.3414
 7274SOL    HW133458   1.683   1.962   2.054  0.2919 -1.2667  1.0004
 7274SOL    HW233459   1.564   2.009   2.107 -3.0912 -1.1081 -0.0109
 7275SOL     OW33460   0.295   3.248   5.047 -0.3199  0.1509 -0.0789
 7275SOL    HW133461   0.385   3.217   5.059  0.0643  1.5556  0.5983
 7275SOL    HW233462   0.300   3.275   4.955 -0.4600 -1.0373 -0.4380
 7276SOL     OW33463   1.745   3.581   8.622  0.0752  0.4745 -0.0875
 7276SOL    HW133464   1.837   3.557   8.607 -0.4865 -0.7239 -1.6206
 7276SOL    HW233465   1.749   3.675   8.606  0.7609  0.2616 -1.1467
 7277SOL     OW33466   4.214   3.450   3.065  0.2682  0.3080  0.0693
 7277SOL    HW133467   4.255   3.397   2.998  1.3651  2.0445 -0.6407
 7277SOL    HW233468   4.193   3.530   3.016 -3.3572 -1.7632 -1.7272
 7278SOL     OW33469   2.392   3.603  12.126 -0.2862  0.1111  0.4760
 7278SOL    HW133470   2.382   3.695  12.103 -2.1637 -0.4758 -0.9919
 7278SOL    HW233471   2.308   3.566  12.099  0.4426 -1.2893  0.1125
 7279SOL     OW33472   1.760   2.281  17.585 -0.6724  0.4579  0.2909
 7279SOL    HW133473   1.854   2.272  17.565 -0.2705  3.2756  0.8934
 7279SOL    HW233474   1.738   2.340  17.512  1.7930 -0.7794 -1.4544
 7280SOL     OW33475   2.230   1.267   3.385  0.0076 -0.0587 -0.5088
 7280SOL    HW133476   2.257   1.248   3.296 -0.0427 -0.2987 -0.4752
 7280SOL    HW233477   2.290   1.204   3.426 -0.0006 -0.8487 -1.7174
 7281SOL     OW33478   0.513   0.602   0.567 -0.2908 -0.3095 -0.6232
 7281SOL    HW133479   0.514   0.693   0.596  1.1001 -0.7835  0.7998
 7281SOL    HW233480   0.530   0.602   0.473 -0.9984 -1.5619 -0.7433
 7282SOL     OW33481   1.931   0.203  16.324 -0.1339 -0.0374  0.0097
 7282SOL    HW133482   1.960   0.143  16.393 -3.7026  1.6048  2.9246
 7282SOL    HW233483   1.853   0.161  16.288  1.0918 -3.5268  1.3906
 7283SOL     OW33484   4.188   0.687   0.189 -0.0628 -0.0487 -0.7826
 7283SOL    HW133485   4.278   0.718   0.186 -0.1456 -0.0344 -3.4873
 7283SOL    HW233486   4.197   0.594   0.166  1.2206  0.2403 -1.4082
 7284SOL     OW33487   4.709   0.084   8.697 -0.2416  0.1554  0.3233
 7284SOL    HW133488   4.647   0.067   8.768 -0.3126  1.2325  0.5223
 7284SOL    HW233489   4.706   0.180   8.701 -2.6947  0.1852 -2.5334
 7285SOL     OW33490   2.734   0.503  12.677  0.0967 -0.0646  0.2650
 7285SOL    HW133491   2.668   0.460  12.623  0.1315 -1.6732  1.5233
 7285SOL    HW233492   2.691   0.585  12.703  2.1704  0.5441  1.7553
 7286SOL     OW33493   2.460   3.662  17.436  0.3162  0.1074  0.4973
 7286SOL    HW133494   2.435   3.736  17.380  0.5846 -1.3658 -1.5967
 7286SOL    HW233495   2.482   3.698  17.521 -2.6477  0.8979  0.9287
 7287SOL     OW33496   3.447   4.222   5.970  0.0042 -0.3078  0.2753
 7287SOL    HW133497   3.498   4.141   5.964 -2.1125 -1.5885 -0.4550
 7287SOL    HW233498   3.386   4.225   5.896 -0.9231 -1.4873  0.9707
 7288SOL     OW33499   1.890   0.983   6.167 -0.9421 -0.5242  0.1380
 7288SOL    HW133500   1.875   0.906   6.111 -2.9486 -0.5941  0.7656
 7288SOL    HW233501   1.966   0.952   6.215  0.3548  3.0838  0.3990
 7289SOL     OW33502   3.484   2.358  15.228 -0.1097  0.5848  0.0300
 7289SOL    HW133503   3.478   2.400  15.313 -2.4796 -3.4042  1.8610
 7289SOL    HW233504   3.573   2.385  15.204 -0.0681 -0.5637 -1.1300
 7290SOL     OW33505   3.669   1.670   5.414  0.0859  0.3912  0.1264
 7290SOL    HW133506   3.632   1.758   5.414  2.2041  1.2836  0.6954
 7290SOL    HW233507   3.718   1.667   5.496 -0.7417  1.4277  0.6562
 7291SOL     OW33508   2.024   3.426   8.102  0.5056  0.2120  0.5191
 7291SOL    HW133509   2.095   3.488   8.085 -0.2227  0.9930  0.3042
 7291SOL    HW233510   1.987   3.449   8.187 -0.3519 -1.5739  0.6293
 7292SOL     OW33511   3.595   4.483   6.446 -0.2211  0.3793  0.5337
 7292SOL    HW133512   3.533   4.450   6.511 -0.1909 -0.5906  0.0701
 7292SOL    HW233513   3.550   4.469   6.362 -1.9866 -2.2932  1.9276
 7293SOL     OW33514   0.006   1.776   2.649  0.6970  0.1924  0.1765
 7293SOL    HW133515   0.046   1.771   2.562  0.4112 -0.2973  0.0736
 7293SOL    HW233516   4.694   1.696   2.656 -0.1586  0.7349 -0.1651
 7294SOL     OW33517   2.246   4.390  13.406  0.5439 -0.2660  0.0117
 7294SOL    HW133518   2.338   4.387  13.381  0.3019 -1.5355 -0.7137
 7294SOL    HW233519   2.213   4.314  13.359  0.9953 -1.0048  0.8810
 7295SOL     OW33520   3.844   2.747   1.695 -0.5376  0.5117 -0.3411
 7295SOL    HW133521   3.937   2.756   1.673 -0.2467  2.1109  1.5239
 7295SOL    HW233522   3.837   2.653   1.709  0.4649  0.6354  1.0361
 7296SOL     OW33523   0.358   1.027   0.852 -0.3554 -0.0420 -0.4159
 7296SOL    HW133524   0.370   1.103   0.794 -0.1949  0.3168  0.0887
 7296SOL    HW233525   0.272   1.000   0.819 -1.1015  0.2629  1.2487
 7297SOL     OW33526   4.209   0.211   1.814  0.2537 -0.0394 -0.0063
 7297SOL    HW133527   4.223   0.246   1.902  0.1753 -1.0036  0.3887
 7297SOL    HW233528   4.273   0.263   1.767  0.3650  0.2041  0.4115
 7298SOL     OW33529   0.467   0.970   8.592 -0.6332  0.2392  0.0054
 7298SOL    HW133530   0.397   0.930   8.541  2.0734 -2.7189 -1.4553
 7298SOL    HW233531   0.536   0.906   8.571 -0.1973  0.2506  1.3822
 7299SOL     OW33532   4.108   4.709   3.063 -0.0217 -0.4431  0.1136
 7299SOL    HW133533   4.152   4.731   2.981 -0.2972 -0.3446 -0.0072
 7299SOL    HW233534   4.023   0.006   3.041  0.2182  0.0607  0.0570
 7300SOL     OW33535   2.432   3.873   2.171  0.5612 -0.0516 -0.1280
 7300SOL    HW133536   2.446   3.921   2.089  0.0385 -0.7014 -0.5999
 7300SOL    HW233537   2.352   3.835   2.135  0.3307 -0.6372  1.0159
 7301SOL     OW33538   1.310   2.983  14.302 -0.2852 -0.5688  0.1553
 7301SOL    HW133539   1.393   2.958  14.260 -0.4555 -1.3922  0.3144
 7301SOL    HW233540   1.253   2.928  14.250 -0.5729  0.5450 -0.7120
 7302SOL     OW33541   1.017   3.950   5.364  0.2910  0.3976 -0.0564
 7302SOL    HW133542   1.028   4.040   5.396  0.4898  0.5620 -0.5811
 7302SOL    HW233543   1.064   3.904   5.434  2.0278  1.1634 -0.7116
 7303SOL     OW33544   2.547   1.915   1.998  0.3212  0.1688  0.3114
 7303SOL    HW133545   2.552   1.925   1.903  0.7848  0.8150  0.4006
 7303SOL    HW233546   2.619   1.852   2.006  0.9265  0.8351  0.0738
 7304SOL     OW33547   3.972   2.318   3.894  0.3427  0.2625 -0.5059
 7304SOL    HW133548   3.954   2.412   3.903  0.0059  0.3004 -1.5969
 7304SOL    HW233549   4.014   2.315   3.808  2.3947 -0.2754  0.5113
 7305SOL     OW33550   3.560   0.647  12.950 -0.5844 -0.5763  0.1506
 7305SOL    HW133551   3.501   0.699  13.005  0.2822 -1.1755  1.6446
 7305SOL    HW233552   3.634   0.629  13.009  0.8109  1.6046 -0.9119
 7306SOL     OW33553   1.302   2.794  10.170  0.1517 -0.9822  0.4112
 7306SOL    HW133554   1.365   2.824  10.235  1.6513  1.4417 -2.1356
 7306SOL    HW233555   1.325   2.701  10.166  0.7147 -0.8481  0.4878
 7307SOL     OW33556   3.477   2.734   2.387  0.0877 -0.2421  0.2565
 7307SOL    HW133557   3.479   2.775   2.474 -1.6930 -1.5358  0.9360
 7307SOL    HW233558   3.546   2.668   2.384  0.8843  0.6444 -0.7680
 7308SOL     OW33559   4.172   1.556   2.548  0.2051 -0.4290  0.1698
 7308SOL    HW133560   4.091   1.597   2.578  0.4663  0.2852 -0.1032
 7308SOL    HW233561   4.196   1.601   2.467  0.9373 -0.5474  0.3198
 7309SOL     OW33562   1.743   3.739  10.606 -0.4929  0.0117 -0.1564
 7309SOL    HW133563   1.766   3.827  10.635 -1.7876 -0.3218  1.8671
 7309SOL    HW233564   1.808   3.685  10.652 -1.6928 -2.7719 -1.7240
 7310SOL     OW33565   3.568   0.504   5.633  0.0665 -0.8079 -0.0688
 7310SOL    HW133566   3.514   0.511   5.712  0.4545 -0.1868  0.1453
 7310SOL    HW233567   3.647   0.461   5.666  1.7656  0.4528 -2.5054
 7311SOL     OW33568   2.020   4.239   4.252 -0.0200 -0.2319  0.4276
 7311SOL    HW133569   2.013   4.148   4.225  0.5481 -0.4635  1.0642
 7311SOL    HW233570   1.927   4.258   4.240 -0.5612 -1.8947  2.0366
 7312SOL     OW33571   2.934   1.036  12.343  0.6911  0.0555  0.6905
 7312SOL    HW133572   3.028   1.048  12.330  0.6300  0.6555  0.7875
 7312SOL    HW233573   2.889   1.085  12.274  0.7640 -2.0431 -0.8611
 7313SOL     OW33574   3.761   3.473   6.442 -0.3551  0.3310  0.5404
 7313SOL    HW133575   3.692   3.539   6.445 -1.3416 -0.6091 -1.2125
 7313SOL    HW233576   3.770   3.458   6.348 -2.6733  4.2768 -0.3241
 7314SOL     OW33577   4.056   4.216  13.029 -0.0286 -0.2099  0.1010
 7314SOL    HW133578   4.091   4.130  13.006  0.7330  0.5141 -1.4111
 7314SOL    HW233579   4.115   4.257  13.093  0.6878 -1.2819  0.1169
 7315SOL     OW33580   3.150   0.315   5.908  0.3681  0.0766  0.0681
 7315SOL    HW133581   3.165   0.399   5.865  0.5509  0.1782  0.3314
 7315SOL    HW233582   3.173   0.339   5.997 -0.8414  2.7811 -0.3564
 7316SOL     OW33583   0.400   2.135   9.289 -0.0791 -0.2140  0.3237
 7316SOL    HW133584   0.383   2.189   9.212 -0.1124 -2.0584 -0.9471
 7316SOL    HW233585   0.403   2.195   9.364 -0.3276  0.4201 -0.1801
 7317SOL     OW33586   3.773   3.990   4.604  0.2712 -0.3728  0.5277
 7317SOL    HW133587   3.758   3.924   4.672 -2.3338  0.5771  0.8723
 7317SOL    HW233588   3.775   4.070   4.658 -2.3546 -0.7247  1.1499
 7318SOL     OW33589   0.919   1.969   1.121  0.0138 -0.3067 -0.0230
 7318SOL    HW133590   0.899   2.040   1.183 -1.7487  1.0901 -2.1875
 7318SOL    HW233591   0.859   1.899   1.147 -1.4087  1.4556  1.4303
 7319SOL     OW33592   2.038   0.370   1.768  0.5579 -0.3565 -0.4143
 7319SOL    HW133593   2.076   0.457   1.754 -2.7372  1.0764 -0.3377
 7319SOL    HW233594   2.120   0.320   1.764  0.4869 -0.5778  1.0629
 7320SOL     OW33595   1.147   3.867   3.412  0.0215  0.0224  0.2974
 7320SOL    HW133596   1.118   3.777   3.425  0.7596 -0.1238  0.9049
 7320SOL    HW233597   1.142   3.895   3.504 -0.1152  0.3221  0.1999
 7321SOL     OW33598   3.149   0.402   9.617  0.0587 -0.5556  0.2127
 7321SOL    HW133599   3.096   0.358   9.684  1.8993 -0.8097  1.5083
 7321SOL    HW233600   3.235   0.377   9.650  1.8539  2.7513 -1.9498
 7322SOL     OW33601   2.483   4.052   7.315 -0.1793  0.3521  0.0500
 7322SOL    HW133602   2.415   4.083   7.255  0.3235  1.1247 -0.1233
 7322SOL    HW233603   2.429   4.031   7.390  1.3356  0.4131  1.1681
 7323SOL     OW33604   2.689   4.349   9.442  0.2838  0.0974  0.5991
 7323SOL    HW133605   2.748   4.298   9.497 -1.5695 -1.8981  0.7695
 7323SOL    HW233606   2.682   4.296   9.362 -0.0113  4.4437 -2.2518
 7324SOL     OW33607   4.291   0.657   9.052  0.2301 -0.1138  0.2941
 7324SOL    HW133608   4.368   0.689   9.005  0.6783 -2.1990 -0.3985
 7324SOL    HW233609   4.224   0.721   9.030  0.6039 -1.0218 -3.4404
 7325SOL     OW33610   3.524   0.910   6.941  0.6719  0.2535  0.0629
 7325SOL    HW133611   3.582   0.857   6.996 -1.6767 -1.1228  1.1941
 7325SOL    HW233612   3.445   0.858   6.925  0.7746 -0.1721  0.9424
 7326SOL     OW33613   1.408   0.237   2.328 -0.2161  0.1774 -0.0584
 7326SOL    HW133614   1.316   0.232   2.300 -0.0795 -0.0465 -0.4612
 7326SOL    HW233615   1.415   0.149   2.364 -1.9699 -0.2573 -0.7417
 7327SOL     OW33616   2.454   2.752   7.838  0.0720 -0.1444  0.2199
 7327SOL    HW133617   2.372   2.737   7.792 -0.3124 -0.6060  1.0716
 7327SOL    HW233618   2.448   2.696   7.915  0.9541 -2.8646 -1.6763
 7328SOL     OW33619   0.603   1.975   3.420 -0.4362  0.4079  0.5923
 7328SOL    HW133620   0.650   1.950   3.500 -2.0760 -0.7868  1.1823
 7328SOL    HW233621   0.674   2.018   3.373 -2.0979  1.9208 -0.5284
 7329SOL     OW33622   4.062   3.479   4.591 -0.4622  0.2493  0.3189
 7329SOL    HW133623   4.105   3.415   4.534 -0.9822 -0.9635  1.2760
 7329SOL    HW233624   4.122   3.553   4.585  0.1444 -0.2775 -0.1230
 7330SOL     OW33625   3.333   1.632  15.648  0.1498 -0.0712 -0.0717
 7330SOL    HW133626   3.309   1.578  15.573  1.8834 -2.3283  0.9931
 7330SOL    HW233627   3.255   1.683  15.669  1.0186  0.6763  1.3339
 7331SOL     OW33628   2.276   3.322  11.313  0.0202  0.2527  0.3853
 7331SOL    HW133629   2.263   3.271  11.233 -1.4790 -2.5046  2.3758
 7331SOL    HW233630   2.353   3.286  11.356  0.1506  1.5037  1.2009
 7332SOL     OW33631   3.117   1.356   6.970  0.6844  0.2119 -0.1786
 7332SOL    HW133632   3.126   1.266   6.999  0.9552 -0.1189 -1.3124
 7332SOL    HW233633   3.209   1.378   6.954  1.3954 -1.6967  1.3770
 7333SOL     OW33634   2.834   1.969  10.060  0.0943  0.6840  0.0959
 7333SOL    HW133635   2.799   1.898  10.007 -0.9009  0.5100  0.9708
 7333SOL    HW233636   2.759   1.981  10.118 -1.3739  1.6559 -2.0070
 7334SOL     OW33637   2.612   0.278   2.697  0.0188 -0.4206 -0.4875
 7334SOL    HW133638   2.559   0.212   2.742  1.4570  0.2773  2.2169
 7334SOL    HW233639   2.626   0.238   2.611  0.2073 -0.4207 -0.4566
 7335SOL     OW33640   2.219   1.214   7.349 -0.3829 -0.3759  0.7640
 7335SOL    HW133641   2.126   1.217   7.370 -0.1169 -0.8812  2.0023
 7335SOL    HW233642   2.225   1.292   7.293 -1.1182 -3.0203 -3.0043
 7336SOL     OW33643   1.361   2.264   4.607 -0.0541 -0.1122 -0.3650
 7336SOL    HW133644   1.362   2.234   4.516 -0.2266 -0.2959 -0.3071
 7336SOL    HW233645   1.379   2.181   4.650  0.4058  0.0715 -0.2053
 7337SOL     OW33646   4.129   0.483   9.885 -0.6214  0.2663  0.0102
 7337SOL    HW133647   4.097   0.463   9.973 -0.6308  0.4321  0.0438
 7337SOL    HW233648   4.075   0.555   9.854  0.0282  1.1694  0.9653
 7338SOL     OW33649   3.474   2.569   4.954  0.1594  0.4851  0.0803
 7338SOL    HW133650   3.480   2.512   5.030 -0.3778 -0.7144 -0.7736
 7338SOL    HW233651   3.544   2.629   4.979  0.5258 -0.5516  1.5521
 7339SOL     OW33652   4.706   1.201   4.485 -0.1280  0.7089 -0.3855
 7339SOL    HW133653   0.030   1.268   4.504 -0.7201  0.7246  1.6282
 7339SOL    HW233654   4.708   1.146   4.563  0.4050  0.3816 -0.6333
 7340SOL     OW33655   2.844   0.154  15.934 -0.2413  0.5156 -0.2496
 7340SOL    HW133656   2.867   0.246  15.943  2.3095 -0.2497  1.1388
 7340SOL    HW233657   2.766   0.171  15.880 -0.1439  2.3656  0.2126
 7341SOL     OW33658   0.443   4.035   2.336 -0.4483 -0.0157 -0.0599
 7341SOL    HW133659   0.519   3.991   2.297  0.5314 -0.8735  2.8211
 7341SOL    HW233660   0.488   4.104   2.385 -0.1348  0.4650 -1.0413
 7342SOL     OW33661   1.471   4.532  16.578 -0.4093 -0.1121  0.2222
 7342SOL    HW133662   1.437   4.461  16.632  1.2481 -2.1354 -1.3902
 7342SOL    HW233663   1.550   4.490  16.543  0.2143  0.9803  0.3182
 7343SOL     OW33664   3.774   1.207   0.118  0.6493 -0.5304 -0.2305
 7343SOL    HW133665   3.853   1.156   0.101  1.0905  0.1538 -0.2011
 7343SOL    HW233666   3.722   1.152   0.177 -0.1102 -1.5400 -1.8456
 7344SOL     OW33667   2.094   4.140  17.718  0.3574 -0.0100  0.4890
 7344SOL    HW133668   2.163   4.094   0.008  1.3956  0.4937 -0.5240
 7344SOL    HW233669   2.019   4.082  17.731  1.0669 -1.3646 -1.5675
 7345SOL     OW33670   0.787   1.900   4.916 -0.1522 -0.1829 -0.0268
 7345SOL    HW133671   0.802   1.991   4.890 -1.2900  0.7679  2.7482
 7345SOL    HW233672   0.850   1.852   4.862 -0.0706 -0.5023  0.3494
 7346SOL     OW33673   3.810   1.610   1.837  0.1074  0.1396  0.2536
 7346SOL    HW133674   3.738   1.554   1.863  1.6533 -2.5612 -1.2855
 7346SOL    HW233675   3.805   1.641   1.746  1.5915  0.7967  0.3940
 7347SOL     OW33676   2.923   3.266   5.570  0.5677 -0.5169  0.5685
 7347SOL    HW133677   3.012   3.231   5.571  0.5649 -0.5251  0.4908
 7347SOL    HW233678   2.935   3.328   5.642  1.2027 -1.5500  1.3447
 7348SOL     OW33679   2.656   2.665   4.790 -0.0993  0.3959  0.4578
 7348SOL    HW133680   2.667   2.704   4.877  0.9466 -0.8162  0.8627
 7348SOL    HW233681   2.716   2.701   4.725  0.5543  1.4797  1.6735
 7349SOL     OW33682   1.542   2.537   2.433  0.1465  0.3778  0.0305
 7349SOL    HW133683   1.500   2.623   2.444  0.0688  0.1658  1.4346
 7349SOL    HW233684   1.519   2.518   2.342 -0.0519 -0.6950  0.3064
 7350SOL     OW33685   3.620   3.155   9.448  0.2839 -0.1220 -0.3026
 7350SOL    HW133686   3.566   3.087   9.406 -1.5503  0.7434  0.6621
 7350SOL    HW233687   3.686   3.106   9.496 -0.1565  0.7722  1.1942
 7351SOL     OW33688   3.634   3.271  17.699  0.5475 -0.0211  0.0578
 7351SOL    HW133689   3.717   3.283  17.746  1.1552 -0.0798 -1.0138
 7351SOL    HW233690   3.633   3.349  17.644 -0.2055  0.4806  0.7767
 7352SOL     OW33691   4.199   3.161   0.779  0.5543  0.1023 -0.1127
 7352SOL    HW133692   4.135   3.146   0.709  0.5123 -0.9875  0.1731
 7352SOL    HW233693   4.278   3.157   0.724  1.1011  1.5129  0.5588
 7353SOL     OW33694   0.240   3.553  10.867  0.5275 -0.3080  0.4395
 7353SOL    HW133695   0.327   3.561  10.905  0.0812  1.9325  1.0062
 7353SOL    HW233696   0.184   3.602  10.927 -1.7383 -0.1033 -1.8075
 7354SOL     OW33697   2.856   0.675   5.102  0.6413 -0.2737  0.3801
 7354SOL    HW133698   2.858   0.771   5.104 -0.0957 -0.2619  0.2501
 7354SOL    HW233699   2.793   0.666   5.173  0.7594 -1.2927  0.3498
 7355SOL     OW33700   2.559   0.392   9.234 -0.4305  0.0327 -0.4426
 7355SOL    HW133701   2.499   0.466   9.231 -0.0658  0.2775 -2.0432
 7355SOL    HW233702   2.511   0.344   9.301 -0.6528 -1.8742 -1.9640
 7356SOL     OW33703   3.788   4.260   6.852 -0.1427 -0.2955  0.0238
 7356SOL    HW133704   3.810   4.275   6.759  0.4111  1.0000  0.3536
 7356SOL    HW233705   3.728   4.334   6.863 -0.6809 -0.6272 -0.6832
 7357SOL     OW33706   2.672   3.164   5.607 -0.5647 -0.0177 -0.2252
 7357SOL    HW133707   2.694   3.071   5.603 -2.6265 -0.5173 -0.0978
 7357SOL    HW233708   2.755   3.210   5.594 -2.1469  2.9224  0.1745
 7358SOL     OW33709   3.834   4.601   5.222  0.3579 -0.1628  0.7895
 7358SOL    HW133710   3.844   4.664   5.294 -2.8600  0.0595  1.0389
 7358SOL    HW233711   3.917   4.554   5.217 -0.2923 -1.3980  1.5161
 7359SOL     OW33712   0.491   4.647   1.619  0.2732  0.0433  0.4914
 7359SOL    HW133713   0.562   4.688   1.570  1.2119  1.1883  2.7935
 7359SOL    HW233714   0.514   4.555   1.614  1.5867  0.4576 -1.1194
 7360SOL     OW33715   3.676   3.902   7.207 -0.0426  0.0423  0.1655
 7360SOL    HW133716   3.721   3.960   7.146 -0.9823 -1.7871 -2.2637
 7360SOL    HW233717   3.589   3.940   7.196 -0.3391 -0.6211  0.2190
 7361SOL     OW33718   1.123   2.024   3.227  0.0065 -0.1820 -0.3853
 7361SOL    HW133719   1.197   2.082   3.211  0.6566 -0.8338  0.3049
 7361SOL    HW233720   1.101   1.970   3.150  0.7591 -0.8892 -0.1057
 7362SOL     OW33721   2.799   3.663  15.052 -0.3058  0.4483 -0.0854
 7362SOL    HW133722   2.762   3.726  15.114  0.9563  2.5757 -1.5016
 7362SOL    HW233723   2.741   3.589  15.072  1.1302 -0.7224 -0.1699
 7363SOL     OW33724   4.102   4.689  11.531 -0.3674 -0.4794  1.0384
 7363SOL    HW133725   4.128   4.705  11.621 -0.0127 -3.0409  1.4043
 7363SOL    HW233726   4.052   0.029  11.515 -0.9895 -0.6812  1.9905
 7364SOL     OW33727   0.195   3.014   9.331 -0.0368 -0.2662  0.3481
 7364SOL    HW133728   0.283   2.998   9.364  0.2605  2.4650  0.8826
 7364SOL    HW233729   0.219   3.075   9.261 -3.3801  1.3244  0.5858
 7365SOL     OW33730   4.581   3.026   5.358  0.7020  0.0448 -0.3045
 7365SOL    HW133731   4.592   3.076   5.277  0.6241 -0.8306 -0.8632
 7365SOL    HW233732   4.650   2.960   5.350  0.4247 -0.0655 -1.8327
 7366SOL     OW33733   2.259   3.090   5.518 -0.0165 -0.1476 -0.2217
 7366SOL    HW133734   2.192   3.130   5.574 -1.0320  0.6531 -2.0002
 7366SOL    HW233735   2.315   3.058   5.589  1.5491  1.6050 -0.6657
 7367SOL     OW33736   3.359   0.749   4.587  0.2400 -0.1235  0.5747
 7367SOL    HW133737   3.403   0.829   4.558  1.8290 -1.9213 -1.9544
 7367SOL    HW233738   3.276   0.788   4.615 -0.3889 -1.4942  0.6297
 7368SOL     OW33739   1.932   1.122   8.270 -0.4426 -0.2671 -0.1616
 7368SOL    HW133740   1.891   1.036   8.268 -0.0610 -0.4298 -1.0345
 7368SOL    HW233741   2.010   1.089   8.315  0.5105  1.6571 -0.4012
 7369SOL     OW33742   3.752   2.725  11.159 -0.4280  0.0703  0.1507
 7369SOL    HW133743   3.733   2.782  11.084  0.8000 -0.4371 -0.5380
 7369SOL    HW233744   3.815   2.668  11.115 -0.1010 -2.2105  3.6280
 7370SOL     OW33745   2.589   4.232   3.572  0.4302 -0.0981  0.0166
 7370SOL    HW133746   2.497   4.229   3.545  0.2101 -1.4427  0.9360
 7370SOL    HW233747   2.587   4.217   3.667 -3.1439  0.7960  0.0907
 7371SOL     OW33748   1.250   3.869   8.433 -0.2983 -0.4063  0.5316
 7371SOL    HW133749   1.317   3.808   8.463 -1.0833 -0.8377  1.3971
 7371SOL    HW233750   1.266   3.883   8.339 -1.6454  0.0636  0.3761
 7372SOL     OW33751   3.678   2.404  15.026  0.6983 -0.1064  0.3150
 7372SOL    HW133752   3.599   2.453  15.001  2.0370  1.1038 -1.5071
 7372SOL    HW233753   3.644   2.317  15.004  0.9106 -0.7029  2.3337
 7373SOL     OW33754   3.482   4.511  13.777 -0.4703 -0.3910  0.6243
 7373SOL    HW133755   3.434   4.458  13.713  1.4255  0.7485 -1.7069
 7373SOL    HW233756   3.418   4.564  13.826 -0.1181 -0.0066  0.6651
 7374SOL     OW33757   2.943   4.434   4.878 -0.4030  0.2189 -0.0004
 7374SOL    HW133758   2.961   4.342   4.856 -1.2163 -0.5719  2.6443
 7374SOL    HW233759   2.987   4.487   4.812  2.7156  0.2769  2.1438
 7375SOL     OW33760   0.125   1.789   3.818  0.1517  0.5702 -0.2074
 7375SOL    HW133761   0.172   1.706   3.828 -0.5799  0.2436  0.4761
 7375SOL    HW233762   0.036   1.770   3.790  0.6222  0.5670 -1.7100
 7376SOL     OW33763   0.130   2.013   3.278  0.2029 -0.1619  0.2042
 7376SOL    HW133764   0.203   1.956   3.254 -1.2039 -1.0550 -1.9177
 7376SOL    HW233765   0.078   1.947   3.325 -0.8088 -0.2541 -1.0443
 7377SOL     OW33766   2.213   4.378   1.444 -0.6239  0.7181  0.5406
 7377SOL    HW133767   2.135   4.323   1.434  0.8299 -1.4025  0.9293
 7377SOL    HW233768   2.204   4.432   1.365  0.3946  1.3431  0.8598
 7378SOL     OW33769   3.371   4.131   8.146 -0.3706  0.0478  0.2745
 7378SOL    HW133770   3.327   4.173   8.219  0.1584 -0.5752  0.9573
 7378SOL    HW233771   3.461   4.117   8.175 -0.1701 -1.7118 -1.1308
 7379SOL     OW33772   0.026   1.760   8.734 -0.6008 -0.2879  0.1687
 7379SOL    HW133773   0.110   1.766   8.779 -1.3510  0.1762  1.4921
 7379SOL    HW233774   0.035   1.681   8.680  0.7890  1.9042 -2.8207
 7380SOL     OW33775   0.013   3.330  10.441  0.3045 -0.0099  0.2150
 7380SOL    HW133776   0.054   3.402  10.392 -1.0138  0.5376 -0.0647
 7380SOL    HW233777   0.018   3.361  10.532 -0.8174 -1.2693  0.6976
 7381SOL     OW33778   3.036   1.155   7.540 -0.0539 -0.2725  0.0571
 7381SOL    HW133779   3.031   1.157   7.445  0.0156  1.3743  0.0965
 7381SOL    HW233780   3.131   1.166   7.547 -0.4056  2.7971 -0.3022
 7382SOL     OW33781   4.354   3.889  13.946 -0.2543 -0.1468  0.4190
 7382SOL    HW133782   4.339   3.924  13.858  0.8591  1.2676  0.7904
 7382SOL    HW233783   4.399   3.957  13.996  3.7207 -3.2579  1.0947
 7383SOL     OW33784   4.669   1.572   9.099  0.4402 -0.0910 -0.2223
 7383SOL    HW133785   4.593   1.591   9.044  1.9058  4.3220 -0.7103
 7383SOL    HW233786   4.729   1.550   9.028  1.9523 -0.0433  1.0457
 7384SOL     OW33787   1.874   3.720  10.057  0.0253  0.1073 -0.0618
 7384SOL    HW133788   1.808   3.659  10.091  2.6238 -1.9162  1.3448
 7384SOL    HW233789   1.935   3.657  10.019  1.7255  0.3708  2.2461
 7385SOL     OW33790   1.075   0.788   3.391 -0.3762  0.1545  0.7077
 7385SOL    HW133791   0.989   0.754   3.418  0.2066 -1.5806  0.2998
 7385SOL    HW233792   1.120   0.807   3.474 -2.9221 -1.8176  2.5573
 7386SOL     OW33793   2.789   2.918   6.408  0.3061 -0.0887 -0.1417
 7386SOL    HW133794   2.746   2.847   6.359 -0.9030  1.9382 -2.0203
 7386SOL    HW233795   2.852   2.875   6.466 -0.4968 -0.1898  0.6592
 7387SOL     OW33796   2.497   0.797   9.032 -0.1237  0.0626 -0.0655
 7387SOL    HW133797   2.458   0.843   8.958  1.6530  0.8274 -0.5205
 7387SOL    HW233798   2.564   0.856   9.066 -0.6039  1.1552 -1.0080
 7388SOL     OW33799   1.985   3.797  12.738 -0.3164 -0.1160 -0.0191
 7388SOL    HW133800   1.951   3.837  12.658 -2.0264 -0.2756  0.6117
 7388SOL    HW233801   1.925   3.722  12.739  2.1451 -2.0624  0.9540
 7389SOL     OW33802   0.526   0.093   8.440 -0.5584  0.6136  0.2071
 7389SOL    HW133803   0.582   0.145   8.382  3.0545 -2.4862  0.8882
 7389SOL    HW233804   0.487   0.031   8.379  2.3901 -1.8265  0.7845
 7390SOL     OW33805   1.476   2.330   9.222  0.4743  0.5776  0.2777
 7390SOL    HW133806   1.497   2.342   9.130  1.9954  3.0592  0.9162
 7390SOL    HW233807   1.425   2.409   9.241 -0.1337  0.4013 -0.6456
 7391SOL     OW33808   2.718   1.761   9.934 -0.4787 -0.2064  1.0542
 7391SOL    HW133809   2.776   1.686   9.953  0.6695  0.7095  1.1944
 7391SOL    HW233810   2.668   1.732   9.858 -0.0435 -0.1618  0.7502
 7392SOL     OW33811   2.245   2.363   6.601  0.2475  0.3380  0.0709
 7392SOL    HW133812   2.284   2.380   6.687 -0.3567  0.3027  0.3520
 7392SOL    HW233813   2.172   2.305   6.623  1.2917 -0.4290  1.5408
 7393SOL     OW33814   3.083   3.933   4.812 -0.1417  0.4622 -0.3034
 7393SOL    HW133815   3.087   3.943   4.908  1.1489 -1.0962 -0.1943
 7393SOL    HW233816   3.127   3.850   4.793  1.3260  0.6001  2.4839
 7394SOL     OW33817   3.443   2.047   9.522 -0.1414 -0.5058 -0.1401
 7394SOL    HW133818   3.536   2.043   9.503 -0.0344  0.0449  0.2901
 7394SOL    HW233819   3.439   2.139   9.547 -0.9288 -0.4405 -0.4786
 7395SOL     OW33820   3.406   1.649   8.991  0.6262  0.0495  0.0346
 7395SOL    HW133821   3.390   1.715   8.923 -1.1701 -1.1597 -0.7383
 7395SOL    HW233822   3.318   1.616   9.008 -0.2826  1.6102 -1.5329
 7396SOL     OW33823   1.219   3.741   4.243  0.4704  0.2293  0.1970
 7396SOL    HW133824   1.240   3.682   4.315  3.2390  0.0331 -0.7920
 7396SOL    HW233825   1.282   3.720   4.174  1.2246  0.9677  0.6652
 7397SOL     OW33826   4.543   1.495   2.601  0.5317 -0.3619 -0.1288
 7397SOL    HW133827   4.525   1.581   2.563 -2.4518 -1.5916 -1.4555
 7397SOL    HW233828   4.466   1.485   2.657 -0.6216  0.1509 -1.6382
 7398SOL     OW33829   3.413   0.483   2.777  0.5311  0.5578  0.3338
 7398SOL    HW133830   3.334   0.450   2.821  0.2115  1.2961  0.3174
 7398SOL    HW233831   3.384   0.477   2.686 -1.7306 -1.2503  1.1657
 7399SOL     OW33832   3.297   0.733  17.478 -0.1203 -0.0081  0.0473
 7399SOL    HW133833   3.364   0.686  17.427 -2.6090 -1.6470 -1.7275
 7399SOL    HW233834   3.330   0.708  17.564 -1.3085  2.4143  1.1861
 7400SOL     OW33835   3.729   3.297   5.346  0.7332  0.1870  0.5793
 7400SOL    HW133836   3.765   3.235   5.283 -0.5492 -0.0826  0.1109
 7400SOL    HW233837   3.805   3.326   5.398  0.0534 -0.2931  1.8309
 7401SOL     OW33838   0.723   2.843  10.075 -0.5553 -0.0542 -0.3164
 7401SOL    HW133839   0.802   2.802  10.110 -0.9976 -2.2734 -1.8831
 7401SOL    HW233840   0.705   2.899  10.150 -1.3006  2.8062 -2.5942
 7402SOL     OW33841   2.583   3.745   1.177  0.2942 -0.7076  0.2344
 7402SOL    HW133842   2.604   3.657   1.145  2.7266 -0.9036  2.4279
 7402SOL    HW233843   2.631   3.742   1.259  1.4158  0.0499 -0.3995
 7403SOL     OW33844   2.331   1.207   9.435 -0.1270 -0.2218 -0.7428
 7403SOL    HW133845   2.270   1.148   9.391  1.7377 -2.2266 -0.6396
 7403SOL    HW233846   2.271   1.276   9.465  1.2646  0.7119 -0.1072
 7404SOL     OW33847   0.496   4.526   4.774 -0.5946  0.2732 -0.3112
 7404SOL    HW133848   0.534   4.536   4.687 -2.8734  1.0339 -1.2102
 7404SOL    HW233849   0.404   4.532   4.748 -0.1189  2.1435 -1.5545
 7405SOL     OW33850   2.018   4.474   2.749 -0.0450  0.0974  0.4624
 7405SOL    HW133851   2.012   4.387   2.708  0.6127  0.1342  0.2870
 7405SOL    HW233852   2.100   4.504   2.710  0.3690 -0.0432  1.2395
 7406SOL     OW33853   1.452   2.671   4.917 -0.3521 -0.4534 -0.0931
 7406SOL    HW133854   1.437   2.611   4.844  1.7072 -0.4249 -0.5349
 7406SOL    HW233855   1.531   2.713   4.882  0.4642 -1.6497  0.3150
 7407SOL     OW33856   2.783   0.016   1.007 -0.4620  0.2040  0.3052
 7407SOL    HW133857   2.689   0.024   0.990 -0.4950  3.3258  1.9539
 7407SOL    HW233858   2.799   0.096   1.057 -2.7104  0.8448  0.0095
 7408SOL     OW33859   4.400   0.504  17.740  0.1393  0.5933 -0.1692
 7408SOL    HW133860   4.406   0.570  17.672  2.2571 -0.7477 -1.2975
 7408SOL    HW233861   4.480   0.453  17.725 -1.0227 -0.5952 -2.4147
 7409SOL     OW33862   0.355   2.034   4.923 -0.2171 -0.4138 -0.3147
 7409SOL    HW133863   0.261   2.046   4.933 -0.4921 -1.7734 -1.3773
 7409SOL    HW233864   0.382   2.123   4.947  0.6842 -0.7674 -0.0003
 7410SOL     OW33865   4.492   0.700   5.882 -0.1203  0.0668 -0.0832
 7410SOL    HW133866   4.497   0.748   5.965 -0.8426 -1.0713  0.6085
 7410SOL    HW233867   4.575   0.652   5.882 -0.9102 -1.2701  0.7049
 7411SOL     OW33868   3.382   0.090   1.070 -0.7723 -0.4124  0.1799
 7411SOL    HW133869   3.394   4.738   1.047  0.0630  0.1682 -1.6899
 7411SOL    HW233870   3.473   0.116   1.055  0.0472 -2.7531  1.2064
 7412SOL     OW33871   2.928   0.471   2.967 -0.2135 -0.0493  0.2990
 7412SOL    HW133872   2.874   0.403   3.007  1.1270 -1.2169  0.1226
 7412SOL    HW233873   2.892   0.476   2.878  0.5510  1.3103  0.0643
 7413SOL     OW33874   1.804   4.528  13.555 -0.0328 -0.0686  0.1913
 7413SOL    HW133875   1.843   4.613  13.537  2.5983 -1.3374 -0.0242
 7413SOL    HW233876   1.711   4.549  13.564 -0.2188 -0.3057 -1.1622
 7414SOL     OW33877   3.107   1.811   5.565 -0.6596  0.0508  0.1602
 7414SOL    HW133878   3.024   1.822   5.520 -0.5160  0.9753  0.1192
 7414SOL    HW233879   3.153   1.748   5.509 -0.6247 -0.7855  1.1228
 7415SOL     OW33880   4.032   3.115   3.331  0.2641 -0.4878  0.2548
 7415SOL    HW133881   4.077   3.199   3.321  2.1751 -1.5050  0.1815
 7415SOL    HW233882   4.037   3.109   3.426 -0.6909 -0.5441  0.2965
 7416SOL     OW33883   3.290   0.790   4.968  0.1225  0.3706 -0.0268
 7416SOL    HW133884   3.312   0.703   4.936  0.5358  0.3327  0.3557
 7416SOL    HW233885   3.369   0.815   5.015 -0.2776 -0.2024  0.9606
 7417SOL     OW33886   2.155   4.276   5.205 -0.4384 -0.1048 -0.5516
 7417SOL    HW133887   2.243   4.263   5.241 -0.8735  0.0266  0.5819
 7417SOL    HW233888   2.132   4.366   5.229  0.0263  0.0063 -0.5167
 7418SOL     OW33889   0.357   2.994  15.952 -0.5282 -0.3649 -0.5034
 7418SOL    HW133890   0.290   2.955  15.896  0.7544  0.5227 -2.6843
 7418SOL    HW233891   0.378   2.927  16.017 -1.1868  1.0902  1.2099
 7419SOL     OW33892   0.615   0.119   6.768  0.5122 -0.0628 -0.3650
 7419SOL    HW133893   0.536   0.070   6.791  0.5638 -0.4940 -1.1224
 7419SOL    HW233894   0.577   0.206   6.752  1.2151  0.3369  0.1267
 7420SOL     OW33895   4.238   1.908  12.002 -0.5541  0.1276  0.3923
 7420SOL    HW133896   4.222   1.958  12.082 -2.0133  1.0529 -0.4844
 7420SOL    HW233897   4.152   1.868  11.988  0.3804 -1.7011 -0.0858
 7421SOL     OW33898   3.688   4.535   2.698  0.0555  0.1854 -0.3313
 7421SOL    HW133899   3.720   4.517   2.786 -1.1225 -0.0619  0.0371
 7421SOL    HW233900   3.767   4.509   2.650 -0.4468 -2.4395  0.2910
 7422SOL     OW33901   1.652   1.057   7.499  0.1892  0.5157 -0.2021
 7422SOL    HW133902   1.683   1.034   7.586 -0.2183  0.4880 -0.0674
 7422SOL    HW233903   1.641   1.152   7.509  0.9039  0.5514  0.2092
 7423SOL     OW33904   3.326   1.312   5.383 -0.0199 -0.2520  0.3862
 7423SOL    HW133905   3.381   1.238   5.358 -1.1036 -1.4833  1.6019
 7423SOL    HW233906   3.389   1.380   5.406  0.3088  0.5758 -2.8883
 7424SOL     OW33907   1.373   0.352  13.804 -0.1522 -0.1000 -0.3916
 7424SOL    HW133908   1.319   0.316  13.875  0.6410  0.4370  0.4860
 7424SOL    HW233909   1.309   0.412  13.766 -1.8674 -1.8678 -0.2600
 7425SOL     OW33910   0.728   2.319   0.846 -0.4321  0.0224  0.1288
 7425SOL    HW133911   0.707   2.411   0.831 -1.7943 -0.5036 -1.1356
 7425SOL    HW233912   0.754   2.294   0.757 -3.7982 -3.4663  0.1517
 7426SOL     OW33913   4.343   2.999   4.140 -0.3344 -0.2064  0.1368
 7426SOL    HW133914   4.255   3.021   4.108 -1.1395 -2.2005  0.9954
 7426SOL    HW233915   4.386   3.060   4.080  0.4810 -0.2639  0.6651
 7427SOL     OW33916   3.498   0.834   5.135  0.1222  0.5555  0.0291
 7427SOL    HW133917   3.578   0.783   5.138 -0.9214 -1.0156  0.9667
 7427SOL    HW233918   3.456   0.800   5.214  0.1861  1.9364  0.6721
 7428SOL     OW33919   3.109   0.571   5.823  0.1975  0.4192  0.0699
 7428SOL    HW133920   3.026   0.604   5.789  1.3265  2.0541 -1.1022
 7428SOL    HW233921   3.109   0.626   5.901  1.5407  0.8156 -0.2150
 7429SOL     OW33922   0.322   3.627   7.008 -0.0986  0.0546 -0.4280
 7429SOL    HW133923   0.317   3.561   6.939 -2.8429 -0.4716  0.2746
 7429SOL    HW233924   0.397   3.599   7.060 -0.4445 -0.5013 -0.2340
 7430SOL     OW33925   1.455   1.889  11.311  0.1469 -0.4386  0.2382
 7430SOL    HW133926   1.530   1.837  11.283 -1.4340 -2.8122  0.4361
 7430SOL    HW233927   1.451   1.884  11.407 -1.6867 -0.0439  0.1803
 7431SOL     OW33928   4.485   4.615  17.371  0.1948 -0.2238 -0.4051
 7431SOL    HW133929   4.396   4.582  17.362 -1.1178  3.1792  0.0439
 7431SOL    HW233930   4.470   4.710  17.374 -1.9879 -0.5221 -1.7813
 7432SOL     OW33931   0.236   1.914   9.574  0.2707 -0.0857 -0.2514
 7432SOL    HW133932   0.208   1.850   9.639 -1.6407 -0.6353 -1.6042
 7432SOL    HW233933   0.226   1.997   9.621  2.2315  0.2718 -0.4447
 7433SOL     OW33934   1.452   1.246  12.670  0.0369 -0.2858  0.2630
 7433SOL    HW133935   1.387   1.236  12.601  1.8351 -1.8303 -1.1837
 7433SOL    HW233936   1.490   1.330  12.645 -0.1436 -0.5524 -0.8846
 7434SOL     OW33937   3.568   2.991   2.875  0.1682 -0.1130 -0.5549
 7434SOL    HW133938   3.661   2.994   2.856  1.0571 -1.6137  3.4933
 7434SOL    HW233939   3.567   3.031   2.962  1.5306 -2.5604  0.5674
 7435SOL     OW33940   0.188   3.035   2.906 -0.0619 -0.2896 -0.0927
 7435SOL    HW133941   0.152   3.106   2.959 -0.1497 -1.1468  0.9935
 7435SOL    HW233942   0.110   2.987   2.878 -1.0084 -0.4182  2.7632
 7436SOL     OW33943   3.607   4.561   3.247  1.2650 -0.8339  0.2309
 7436SOL    HW133944   3.570   4.645   3.273  2.0466 -0.5673  0.4745
 7436SOL    HW233945   3.570   4.498   3.309  1.8884  0.0059  1.4438
 7437SOL     OW33946   1.918   0.759   2.747  0.4874 -0.0265 -0.5815
 7437SOL    HW133947   1.965   0.727   2.824 -1.6168 -1.0751  0.2754
 7437SOL    HW233948   1.889   0.842   2.785 -0.7430 -0.9748  0.5249
 7438SOL     OW33949   4.041   1.183   9.598  0.3828 -0.0256  0.0620
 7438SOL    HW133950   4.071   1.229   9.677  0.6307  0.6342 -0.4090
 7438SOL    HW233951   3.972   1.241   9.567  0.7498  1.0992  1.3361
 7439SOL     OW33952   4.594   1.787   3.805  0.1912  0.2273 -0.4781
 7439SOL    HW133953   4.524   1.829   3.756 -2.1075 -1.6740  1.1753
 7439SOL    HW233954   4.588   1.830   3.890  0.1444  1.3721 -1.0707
 7440SOL     OW33955   4.272   3.674  11.767  0.6579  0.0717  0.6911
 7440SOL    HW133956   4.189   3.721  11.770  0.7234  0.1403  1.3309
 7440SOL    HW233957   4.319   3.728  11.704 -2.1706  0.6649 -0.9056
 7441SOL     OW33958   1.271   3.964  12.660  0.0376  0.8518  0.1514
 7441SOL    HW133959   1.365   3.971  12.680  0.2562  1.0345 -0.9360
 7441SOL    HW233960   1.272   3.921  12.575 -0.3524  0.1734  0.4913
 7442SOL     OW33961   1.918   3.914   3.801  0.1233  0.0765 -0.4608
 7442SOL    HW133962   1.887   4.004   3.799  1.0342  0.4605  2.7774
 7442SOL    HW233963   2.013   3.920   3.800  0.2125 -0.0928  4.3416
 7443SOL     OW33964   0.550   1.593   1.822 -0.2081  0.1044  0.1107
 7443SOL    HW133965   0.576   1.502   1.837  1.0355  0.1358 -1.8747
 7443SOL    HW233966   0.469   1.606   1.871 -0.1874 -1.8710  0.6655
 7444SOL     OW33967   0.844   3.281   2.065 -0.2534 -1.0602  0.1150
 7444SOL    HW133968   0.897   3.316   1.994  0.5943  0.7647  1.6483
 7444SOL    HW233969   0.865   3.328   2.146 -2.0602 -0.6117  0.3220
 7445SOL     OW33970   3.621   1.358   1.651 -0.0657  0.1208 -0.0736
 7445SOL    HW133971   3.618   1.445   1.613  0.5804 -0.0768 -0.5928
 7445SOL    HW233972   3.548   1.315   1.607  0.5174 -0.4900 -0.4509
 7446SOL     OW33973   1.845   1.576   2.867 -0.1585  0.0281  0.3681
 7446SOL    HW133974   1.864   1.665   2.896 -2.0492  0.8366 -0.8732
 7446SOL    HW233975   1.897   1.567   2.787 -1.9755  0.0450 -0.8082
 7447SOL     OW33976   3.851   3.126  10.133  0.3908  0.3603  0.1463
 7447SOL    HW133977   3.910   3.174  10.191 -0.6577  0.2992  1.2504
 7447SOL    HW233978   3.816   3.195  10.076  1.6304  0.6112 -0.3144
 7448SOL     OW33979   3.208   2.833   2.548  0.6153  0.2739  0.1346
 7448SOL    HW133980   3.300   2.835   2.521  0.5155 -0.4338 -0.2609
 7448SOL    HW233981   3.210   2.919   2.588 -2.2757  1.0613 -1.4062
 7449SOL     OW33982   1.947   1.738   7.359  0.0590  0.6729  0.2633
 7449SOL    HW133983   2.021   1.775   7.406 -0.1187  1.6891 -0.2584
 7449SOL    HW233984   1.968   1.800   7.289 -1.1738 -0.2603 -0.9521
 7450SOL     OW33985   2.583   1.828   6.360  0.1443  0.3125  0.0216
 7450SOL    HW133986   2.491   1.848   6.380  0.5433  1.4090  0.7227
 7450SOL    HW233987   2.620   1.831   6.448 -2.1762 -0.3149  1.0237
 7451SOL     OW33988   4.028   0.785   4.913 -0.0982  0.2824 -0.3142
 7451SOL    HW133989   3.990   0.719   4.854  1.0859 -0.2736 -0.4558
 7451SOL    HW233990   4.061   0.729   4.983 -0.7891  1.2062  0.7429
 7452SOL     OW33991   1.924   1.613  10.114  0.3714 -0.3112  0.2408
 7452SOL    HW133992   1.952   1.640  10.202  1.0750 -2.9563  0.8438
 7452SOL    HW233993   1.872   1.534  10.131 -2.8125  1.5627 -0.7801
 7453SOL     OW33994   1.207   1.286  12.027 -0.3992 -0.2428 -0.0859
 7453SOL    HW133995   1.213   1.380  12.014  0.7670 -0.0315  1.8234
 7453SOL    HW233996   1.284   1.269  12.083  0.1231  1.2642 -0.3683
 7454SOL     OW33997   1.513   3.087   3.949 -0.4076  0.0150  0.1944
 7454SOL    HW133998   1.441   3.024   3.947  0.0924 -0.4760 -1.5990
 7454SOL    HW233999   1.507   3.113   3.858  0.3210 -0.3152  0.0525
 7455SOL     OW34000   3.000   2.585   5.903 -0.5591 -0.6568  0.0160
 7455SOL    HW134001   3.015   2.567   5.810  1.1398 -2.5956  0.6790
 7455SOL    HW234002   2.916   2.630   5.893 -0.7025 -1.0734 -0.6412
 7456SOL     OW34003   2.270   1.176  16.941  0.5332  0.0457  0.0978
 7456SOL    HW134004   2.356   1.197  16.903  0.2210  1.2387  0.0565
 7456SOL    HW234005   2.236   1.265  16.935  0.3152  0.0386  1.2363
 7457SOL     OW34006   0.119   3.402   1.897  0.8239 -0.1730  0.5470
 7457SOL    HW134007   0.173   3.365   1.827  3.6405  0.2395  2.4901
 7457SOL    HW234008   0.033   3.362   1.887 -0.0940  1.8019  0.6328
 7458SOL     OW34009   2.267   1.295   6.382  0.2147  0.1782 -0.0058
 7458SOL    HW134010   2.225   1.277   6.298  0.5870 -0.2576 -0.1002
 7458SOL    HW234011   2.238   1.227   6.442  1.4223 -0.0602  0.3138
 7459SOL     OW34012   3.040   1.736   8.254 -0.3306 -0.1857  0.3700
 7459SOL    HW134013   2.982   1.800   8.296  1.0943  2.2491 -1.3194
 7459SOL    HW234014   3.010   1.655   8.295  0.3391 -0.7585 -0.2792
 7460SOL     OW34015   4.637   3.372  13.713  0.2772 -0.0822  0.0813
 7460SOL    HW134016   4.557   3.361  13.764 -0.3128  0.7864 -0.6544
 7460SOL    HW234017   4.637   3.468  13.708  1.1415 -0.1405 -1.0076
 7461SOL     OW34018   3.766   3.396   4.974 -0.2626 -0.0212 -0.2190
 7461SOL    HW134019   3.760   3.344   4.894  2.3121 -0.2462 -0.2694
 7461SOL    HW234020   3.829   3.463   4.947 -0.7302 -0.0664 -1.3921
 7462SOL     OW34021   1.727   1.650  10.432 -0.4464  0.2818 -0.3024
 7462SOL    HW134022   1.676   1.729  10.414 -0.0631  0.6880  0.3746
 7462SOL    HW234023   1.812   1.671  10.393 -0.7710  1.2348 -0.4866
 7463SOL     OW34024   3.747   1.241   3.760 -0.1330 -0.3462 -0.5288
 7463SOL    HW134025   3.698   1.274   3.835  0.8601 -1.4713  0.6079
 7463SOL    HW234026   3.692   1.273   3.689 -0.6493 -1.2713 -0.5442
 7464SOL     OW34027   1.945   0.102   9.368  0.5174 -0.4273  0.2493
 7464SOL    HW134028   1.947   0.121   9.462  1.4737 -1.2053  0.3906
 7464SOL    HW234029   1.890   0.171   9.332  1.4808  1.6435  2.7376
 7465SOL     OW34030   1.106   3.594   6.388 -0.1144 -0.4956  0.6020
 7465SOL    HW134031   1.088   3.547   6.307 -0.1076 -0.6179  0.6704
 7465SOL    HW234032   1.197   3.574   6.408  0.4077 -1.0509 -2.4045
 7466SOL     OW34033   0.681   3.703   8.908  0.0409 -0.2052  0.2719
 7466SOL    HW134034   0.605   3.648   8.890  0.0639 -0.9876  2.5266
 7466SOL    HW234035   0.655   3.793   8.887 -0.1771 -0.1676  0.7079
 7467SOL     OW34036   1.102   4.189   0.928  0.1295 -0.4987  0.3729
 7467SOL    HW134037   1.102   4.204   0.833 -2.3669 -1.6833  0.1835
 7467SOL    HW234038   1.163   4.115   0.932  0.5310 -0.1442  0.8039
 7468SOL     OW34039   3.268   4.023   1.973 -0.5698 -0.1951  0.2995
 7468SOL    HW134040   3.329   4.095   1.955 -0.7289  0.5749  2.8519
 7468SOL    HW234041   3.327   3.984   2.038 -0.4523  0.5755  0.6599
 7469SOL     OW34042   0.684   4.178   1.608  0.1860 -0.3382  0.4065
 7469SOL    HW134043   0.747   4.169   1.679  2.3635 -1.0954 -1.6254
 7469SOL    HW234044   0.619   4.108   1.615  0.0717 -0.2542  0.1964
 7470SOL     OW34045   1.602   1.101   1.206  0.1487 -0.2855 -0.1035
 7470SOL    HW134046   1.551   1.180   1.187  1.2037  0.3033 -0.5325
 7470SOL    HW234047   1.530   1.041   1.223 -0.3148  0.0402 -0.9519
 7471SOL     OW34048   4.447   1.562   3.085 -0.3738 -0.0156 -0.1203
 7471SOL    HW134049   4.510   1.512   3.034 -1.4548 -0.8809 -0.6092
 7471SOL    HW234050   4.507   1.624   3.126  0.7311 -2.2784  1.6496
 7472SOL     OW34051   0.316   0.846  17.723  0.2568  0.4201 -0.3061
 7472SOL    HW134052   0.302   0.918   0.026  1.5416  0.9459 -0.6299
 7472SOL    HW234053   0.408   0.825  17.740  0.0346 -0.6051 -0.3664
 7473SOL     OW34054   1.840   4.018  16.274 -0.0272  0.5505 -0.6145
 7473SOL    HW134055   1.893   4.061  16.206 -0.3057  1.1994 -0.4207
 7473SOL    HW234056   1.904   3.990  16.339 -1.7623 -0.9347  0.4189
 7474SOL     OW34057   0.876   1.582   1.685  0.2214 -0.0963 -0.5837
 7474SOL    HW134058   0.857   1.522   1.612  3.4493 -1.7987  0.0001
 7474SOL    HW234059   0.869   1.518   1.756  0.3206  1.1477  0.5547
 7475SOL     OW34060   0.156   4.276   8.165  0.6551  0.6625  0.0319
 7475SOL    HW134061   0.132   4.262   8.257  1.3865 -1.2542 -0.0541
 7475SOL    HW234062   0.139   4.186   8.135 -1.3886  1.0867 -0.0704
 7476SOL     OW34063   0.328   0.241   5.405 -0.2174  0.1037  0.0167
 7476SOL    HW134064   0.237   0.246   5.435 -0.4140  2.8658 -1.0104
 7476SOL    HW234065   0.354   0.155   5.437 -0.2783  0.6836  1.6312
 7477SOL     OW34066   1.532   1.271   8.534  0.1145  0.2131 -0.1748
 7477SOL    HW134067   1.492   1.324   8.466 -0.7075  0.9235  0.8615
 7477SOL    HW234068   1.616   1.316   8.543 -0.3783  1.5942 -2.4986
 7478SOL     OW34069   0.317   4.265  13.585  0.2956  0.5215  0.1947
 7478SOL    HW134070   0.293   4.333  13.523 -3.3547  1.2076  2.3061
 7478SOL    HW234071   0.410   4.284  13.596 -0.0232 -0.5764  4.8997
 7479SOL     OW34072   1.203   3.858   5.537  0.0092  0.0713 -0.2998
 7479SOL    HW134073   1.233   3.830   5.451  0.6583 -2.5093  0.7645
 7479SOL    HW234074   1.267   3.829   5.602 -1.1003  2.2381  1.7875
 7480SOL     OW34075   1.704   4.316  12.330 -0.4471 -0.0369 -0.4020
 7480SOL    HW134076   1.736   4.368  12.404 -4.0285  1.4443  0.0846
 7480SOL    HW234077   1.710   4.228  12.367 -0.2088  0.2998  0.3565
 7481SOL     OW34078   3.251   4.623   8.255 -0.0636 -0.6402  0.1379
 7481SOL    HW134079   3.162   4.608   8.223  0.1421 -2.9560  0.6898
 7481SOL    HW234080   3.263   4.545   8.309  0.0032 -1.7536 -1.4895
 7482SOL     OW34081   4.048   4.169   0.158  0.3275 -0.2203  0.1223
 7482SOL    HW134082   4.138   4.143   0.138  0.1391  0.7620 -2.0624
 7482SOL    HW234083   4.019   4.231   0.091 -2.5400  1.6196  3.1016
 7483SOL     OW34084   1.968   0.126   1.278 -0.1430 -0.1144  0.0482
 7483SOL    HW134085   1.925   0.134   1.364 -2.0386 -0.6076 -0.8545
 7483SOL    HW234086   1.925   0.195   1.228  1.4424  1.0143  0.2473
 7484SOL     OW34087   1.127   0.113  12.298 -0.1152 -0.0022  0.4818
 7484SOL    HW134088   1.220   0.093  12.307  0.3217  0.8819 -2.0732
 7484SOL    HW234089   1.090   0.049  12.237 -0.9458 -1.3481  2.4068
 7485SOL     OW34090   0.883   0.347   3.383  0.0036  0.1169  0.4107
 7485SOL    HW134091   0.805   0.315   3.428  1.4520 -1.4480  1.8107
 7485SOL    HW234092   0.932   0.268   3.359 -1.2790 -1.1537  1.9909
 7486SOL     OW34093   3.333   1.384  15.126 -0.1932  0.0093 -0.0142
 7486SOL    HW134094   3.414   1.406  15.172 -1.1699  0.7118  1.4194
 7486SOL    HW234095   3.336   1.443  15.051  1.7831 -3.3071 -2.5586
 7487SOL     OW34096   4.374   3.995   7.040  0.0222 -0.0818  0.1503
 7487SOL    HW134097   4.323   4.011   6.960 -0.2366 -0.3690  0.2597
 7487SOL    HW234098   4.434   3.923   7.020  0.9240  0.4934  0.7869
 7488SOL     OW34099   3.093   0.420   1.553 -0.9850  0.3116  0.3228
 7488SOL    HW134100   3.039   0.353   1.510  0.1254 -0.2590 -0.1710
 7488SOL    HW234101   3.171   0.370   1.576 -1.0844  0.5179  1.1342
 7489SOL     OW34102   2.899   3.051   7.030 -0.2736  0.4170 -0.0521
 7489SOL    HW134103   2.957   3.125   7.011  0.0249  0.0936 -0.3974
 7489SOL    HW234104   2.826   3.100   7.068  1.2181  0.9305  2.1906
 7490SOL     OW34105   3.060   4.499   9.266 -0.4456  0.3379 -0.1724
 7490SOL    HW134106   3.092   4.452   9.343 -0.9525 -0.1319 -0.2448
 7490SOL    HW234107   3.105   4.450   9.198 -2.1966 -1.5671  0.0558
 7491SOL     OW34108   1.481   2.486   4.411  0.3556 -0.3439 -0.1169
 7491SOL    HW134109   1.488   2.501   4.506  0.7252 -2.3433  0.1753
 7491SOL    HW234110   1.389   2.463   4.403 -0.0049  0.5766  1.3554
 7492SOL     OW34111   2.462   4.496   6.340 -0.7082 -0.5052 -0.0431
 7492SOL    HW134112   2.491   4.564   6.402  1.9405 -0.7954 -0.9500
 7492SOL    HW234113   2.372   4.470   6.361 -0.8172  0.2397  0.4247
 7493SOL     OW34114   1.530   4.234   9.382  0.1046 -0.8390 -0.4551
 7493SOL    HW134115   1.511   4.141   9.371 -0.1902 -1.0981  2.2122
 7493SOL    HW234116   1.452   4.267   9.428  1.2118 -0.7487  1.3410
 7494SOL     OW34117   0.988   1.089   7.807  0.0798  0.2276 -0.0428
 7494SOL    HW134118   1.023   1.087   7.718  0.3032 -4.6647  0.1284
 7494SOL    HW234119   1.070   1.108   7.853  0.8872  0.3168 -1.5336
 7495SOL     OW34120   2.942   2.588  14.560 -0.4013  0.6668  0.5087
 7495SOL    HW134121   2.977   2.582  14.471  1.4429 -2.3349  1.4393
 7495SOL    HW234122   2.900   2.502  14.567  0.5544  0.0119 -1.5672
 7496SOL     OW34123   2.127   3.058   0.322 -0.3478  0.3768 -0.0594
 7496SOL    HW134124   2.059   3.063   0.389  0.4248  1.0039  0.6691
 7496SOL    HW234125   2.190   3.102   0.379  0.5202 -2.9329  1.4895
 7497SOL     OW34126   2.034   0.389  13.532  0.1155 -0.2340  0.4336
 7497SOL    HW134127   1.948   0.421  13.560 -0.2271 -0.8243  0.0754
 7497SOL    HW234128   2.042   0.328  13.605  0.3638 -1.1104 -0.3252
 7498SOL     OW34129   3.329   3.921   1.389 -0.0484  0.6012 -0.2801
 7498SOL    HW134130   3.363   3.832   1.387  1.5164  1.2183 -0.5196
 7498SOL    HW234131   3.410   3.970   1.396 -0.6120  1.1438  2.1914
 7499SOL     OW34132   0.488   2.719  13.308  0.7268 -0.5545  0.2074
 7499SOL    HW134133   0.525   2.804  13.283 -1.0558  0.3275  0.5907
 7499SOL    HW234134   0.450   2.683  13.229 -0.8182 -3.3401  2.2278
 7500SOL     OW34135   0.313   2.007   8.044 -0.0020  0.1791  0.3278
 7500SOL    HW134136   0.370   2.073   8.004  0.0803 -0.6857 -0.9947
 7500SOL    HW234137   0.258   2.059   8.102 -0.1115  2.5304 -1.8656
 7501SOL     OW34138   4.315   0.618   8.229 -0.3952  0.4819 -0.4230
 7501SOL    HW134139   4.390   0.676   8.238 -1.6111  2.1862 -1.3248
 7501SOL    HW234140   4.356   0.535   8.255  2.0490  1.6963 -0.4438
 7502SOL     OW34141   1.001   1.049  13.055 -0.5298 -0.0217 -0.1883
 7502SOL    HW134142   0.913   1.060  13.092 -0.9782  0.1620 -1.3241
 7502SOL    HW234143   1.058   1.098  13.115 -1.2785  3.1837 -2.0663
 7503SOL     OW34144   0.025   0.832  14.888 -0.1131 -0.4330 -0.3352
 7503SOL    HW134145   4.740   0.870  14.972 -0.3009  0.5233 -0.8219
 7503SOL    HW234146   4.677   0.809  14.859 -0.1904  3.8593 -3.4107
 7504SOL     OW34147   2.838   0.243   2.060  0.1594 -0.0909  0.5102
 7504SOL    HW134148   2.842   0.338   2.064 -1.5235  0.0576 -1.3390
 7504SOL    HW234149   2.868   0.215   1.973 -1.4167  0.7398 -0.2966
 7505SOL     OW34150   3.250   2.091  17.751  0.0048  0.7733  0.2318
 7505SOL    HW134151   3.329   2.046  17.720 -0.0352 -0.1740  1.5333
 7505SOL    HW234152   3.209   2.009   0.020 -1.0901  0.4990 -2.1787
 7506SOL     OW34153   1.553   2.436   1.694  0.1054  0.7748  1.0485
 7506SOL    HW134154   1.604   2.373   1.643 -2.4064 -0.6356  0.2549
 7506SOL    HW234155   1.464   2.412   1.669  1.2286  0.2181 -2.4065
 7507SOL     OW34156   3.821   0.827   8.086  0.6745 -0.2955  0.0602
 7507SOL    HW134157   3.830   0.734   8.068 -1.9431 -0.4533 -0.3626
 7507SOL    HW234158   3.912   0.856   8.080  0.8917 -1.5223 -2.3412
 7508SOL     OW34159   4.442   1.994   2.423 -0.5502 -0.3774  0.3021
 7508SOL    HW134160   4.387   1.996   2.345 -1.3244 -0.5375  0.8446
 7508SOL    HW234161   4.529   1.987   2.384 -0.0101  0.3753  1.3722
 7509SOL     OW34162   3.399   2.291   4.722  0.1059 -0.2762  0.5798
 7509SOL    HW134163   3.489   2.323   4.723  0.2707 -0.6304 -1.1738
 7509SOL    HW234164   3.369   2.336   4.643  0.0398  0.5565  1.0914
 7510SOL     OW34165   0.123   1.157   2.745  0.4537 -0.3208  0.1677
 7510SOL    HW134166   0.176   1.217   2.797 -2.3584  2.5623 -0.3206
 7510SOL    HW234167   0.030   1.181   2.745  0.7030  0.6262  0.4888
 7511SOL     OW34168   4.386   3.532   4.153 -0.2076 -0.3208  0.3775
 7511SOL    HW134169   4.468   3.523   4.202 -0.0513  2.1732  0.5461
 7511SOL    HW234170   4.414   3.589   4.081 -2.0565  0.9976  0.6999
 7512SOL     OW34171   3.373   4.393  12.049  0.2401  0.0593 -0.3849
 7512SOL    HW134172   3.440   4.350  11.996 -0.6315  0.3713 -1.7397
 7512SOL    HW234173   3.293   4.341  12.048 -1.9112  3.3734 -1.2907
 7513SOL     OW34174   3.109   4.409   2.379  0.0227  0.0345  0.2729
 7513SOL    HW134175   3.013   4.405   2.374  0.0928  0.5594 -1.4223
 7513SOL    HW234176   3.140   4.334   2.328 -0.3026 -0.3263  0.6007
 7514SOL     OW34177   3.855   1.389  14.140  0.0063  0.1983 -0.3252
 7514SOL    HW134178   3.950   1.396  14.133  0.0045 -0.1465 -0.7478
 7514SOL    HW234179   3.832   1.452  14.208 -2.7300  0.0255 -1.0965
 7515SOL     OW34180   2.870   0.440   5.381 -0.0012 -0.0312 -0.6051
 7515SOL    HW134181   2.832   0.374   5.322  1.8203 -0.1008 -1.7024
 7515SOL    HW234182   2.784   0.477   5.405  0.4402 -0.4954  1.6639
 7516SOL     OW34183   1.685   4.468   3.939 -0.0700 -0.7998  0.2015
 7516SOL    HW134184   1.691   4.561   3.916  1.1682 -1.1789 -1.0232
 7516SOL    HW234185   1.600   4.455   3.897 -0.7794 -1.3955  1.8151
 7517SOL     OW34186   0.053   0.932  17.645  0.1029  0.2324  0.2454
 7517SOL    HW134187   0.142   0.897  17.643  1.2183  3.0720  0.5916
 7517SOL    HW234188   0.002   0.868  17.595 -1.1136  1.6787 -0.3635
 7518SOL     OW34189   2.478   3.288   7.713 -0.0348  0.4012  0.5665
 7518SOL    HW134190   2.427   3.223   7.761  2.0179 -0.4058  1.6652
 7518SOL    HW234191   2.409   3.353   7.707  0.4318  0.6880 -1.7216
 7519SOL     OW34192   2.358   2.356   8.775 -0.2600 -0.4978  0.1534
 7519SOL    HW134193   2.300   2.429   8.753  1.1510 -0.1148 -2.3231
 7519SOL    HW234194   2.405   2.386   8.853 -0.8714 -0.6450  0.5799
 7520SOL     OW34195   4.016   1.724   2.983 -0.1933  0.3314 -0.0843
 7520SOL    HW134196   3.972   1.721   3.068  0.1703  0.4897  0.1080
 7520SOL    HW234197   3.943   1.751   2.927  1.4746  1.6240 -1.6302
 7521SOL     OW34198   2.533   0.932   3.811  0.1398  0.0631 -0.0957
 7521SOL    HW134199   2.576   0.996   3.867  0.4137 -1.3057  1.2462
 7521SOL    HW234200   2.499   0.879   3.883  1.9492 -0.7860  0.1482
 7522SOL     OW34201   0.849   2.296  14.986 -0.0041  0.4380  0.6025
 7522SOL    HW134202   0.766   2.323  15.026  0.2950  1.2420  0.6704
 7522SOL    HW234203   0.830   2.202  14.981 -3.0239  1.1385 -1.6366
 7523SOL     OW34204   4.020   2.810   7.183 -0.2962 -0.2687 -0.0169
 7523SOL    HW134205   4.005   2.841   7.093 -0.8783  2.1608  0.9248
 7523SOL    HW234206   4.011   2.715   7.172 -3.0804  0.0240 -0.2929
 7524SOL     OW34207   0.682   4.533   7.963 -0.1499 -0.2473  0.4962
 7524SOL    HW134208   0.594   4.563   7.942 -0.1033  1.1913  2.4384
 7524SOL    HW234209   0.684   4.548   8.057  1.0424 -2.9369  0.8951
 7525SOL     OW34210   0.090   0.340   4.110 -0.3734 -0.1687 -0.6706
 7525SOL    HW134211   0.118   0.426   4.078  1.1713 -0.6902 -0.7174
 7525SOL    HW234212   0.061   0.361   4.199  0.7729  2.3933 -0.9298
 7526SOL     OW34213   0.768   3.032  15.388  0.0167  0.2563  0.6058
 7526SOL    HW134214   0.687   3.082  15.391  1.3873  2.5709 -0.7061
 7526SOL    HW234215   0.832   3.088  15.433  0.0096 -0.3806  1.4184
 7527SOL     OW34216   4.704   3.854   4.871 -0.2377  0.1057  0.5970
 7527SOL    HW134217   4.614   3.882   4.884 -0.7681 -1.3650  0.0805
 7527SOL    HW234218   0.005   3.933   4.906 -0.1810 -0.9139  2.8169
 7528SOL     OW34219   2.248   1.825   2.335 -0.1999  0.2352 -0.0526
 7528SOL    HW134220   2.203   1.818   2.251 -2.4161 -2.5877  1.3899
 7528SOL    HW234221   2.199   1.762   2.387  2.0150 -1.0813  0.4212
 7529SOL     OW34222   1.701   4.262   6.326 -0.4417  0.2747  1.0632
 7529SOL    HW134223   1.773   4.225   6.378  2.1353  1.3864 -1.6969
 7529SOL    HW234224   1.633   4.201   6.356  1.0304 -2.0070 -0.1659
 7530SOL     OW34225   4.190   0.243  15.893  0.8372  0.0258  0.3051
 7530SOL    HW134226   4.173   0.279  15.806  1.4219 -0.4433 -0.0054
 7530SOL    HW234227   4.215   0.327  15.931  2.2557  0.4256 -1.4922
 7531SOL     OW34228   1.066   2.518  10.733  0.7279 -0.4287 -0.5946
 7531SOL    HW134229   1.072   2.449  10.667 -1.3459 -1.0722 -0.0821
 7531SOL    HW234230   1.055   2.586  10.666 -0.3089  0.8959  0.9144
 7532SOL     OW34231   2.206   3.932  16.362 -0.5719  0.5736  0.5368
 7532SOL    HW134232   2.137   3.959  16.302 -0.2791  0.4406  0.1433
 7532SOL    HW234233   2.152   3.889  16.429  0.9142  0.3881  1.6130
 7533SOL     OW34234   2.274   4.417   9.327  0.1184  0.2987  0.1729
 7533SOL    HW134235   2.284   4.506   9.293  2.3969  0.2185  0.6109
 7533SOL    HW234236   2.190   4.388   9.291 -0.0397 -1.1756  1.7533
 7534SOL     OW34237   2.356   0.988   3.445  0.0266  0.1346  0.4053
 7534SOL    HW134238   2.308   0.967   3.365  2.4304 -0.8053 -0.8050
 7534SOL    HW234239   2.445   1.002   3.412  0.2102  0.3199  0.9755
 7535SOL     OW34240   0.591   3.075  15.772 -0.0375 -0.2107 -0.2033
 7535SOL    HW134241   0.564   2.996  15.725 -0.6728 -0.7608  1.0729
 7535SOL    HW234242   0.528   3.082  15.844  1.0294 -3.3715  1.0536
 7536SOL     OW34243   1.216   4.011   4.156  0.1288 -0.1466 -0.6705
 7536SOL    HW134244   1.219   3.932   4.210 -0.1968  0.4864  0.2803
 7536SOL    HW234245   1.281   4.063   4.204 -1.2983  1.0607 -0.0475
 7537SOL     OW34246   3.330   2.371   7.424 -0.7292  0.4101 -0.1369
 7537SOL    HW134247   3.295   2.318   7.352  0.7577  0.5005 -0.9330
 7537SOL    HW234248   3.326   2.308   7.496 -0.6504 -0.1402 -0.6075
 7538SOL     OW34249   1.491   0.719   5.492  0.3015  0.4932 -0.2289
 7538SOL    HW134250   1.489   0.783   5.421  0.2215  0.9361  0.1670
 7538SOL    HW234251   1.538   0.777   5.552  0.8030  0.1260 -0.2686
 7539SOL     OW34252   0.301   0.173  12.478 -0.9659 -0.4418  0.5203
 7539SOL    HW134253   0.326   0.089  12.439  0.7387  0.9708 -1.4303
 7539SOL    HW234254   0.381   0.225  12.477 -1.1350 -0.1692  1.5250
 7540SOL     OW34255   1.659   3.350  17.751  0.5736 -0.2324 -0.3703
 7540SOL    HW134256   1.601   3.279  17.723  0.3264 -0.6336  1.1627
 7540SOL    HW234257   1.718   3.299   0.048 -0.7912 -1.0086  0.3607
 7541SOL     OW34258   1.727   2.198   2.908  0.1775 -0.6193  0.6770
 7541SOL    HW134259   1.820   2.214   2.924  0.2502  1.7149 -2.1013
 7541SOL    HW234260   1.745   2.153   2.826  1.1267  0.5904  0.2099
 7542SOL     OW34261   1.207   3.395   5.748 -0.2461 -0.6305  0.1338
 7542SOL    HW134262   1.132   3.339   5.732 -0.9005  0.3846 -0.3531
 7542SOL    HW234263   1.278   3.332   5.739  0.5646  0.0876  1.5347
 7543SOL     OW34264   2.621   4.342   7.446 -0.3685  0.1346 -0.0124
 7543SOL    HW134265   2.701   4.360   7.496  0.7214 -2.9997 -0.6501
 7543SOL    HW234266   2.615   4.250   7.471 -2.4153  0.7258  1.7329
 7544SOL     OW34267   3.184   2.009   7.610  0.4630  0.0843 -0.3376
 7544SOL    HW134268   3.180   1.917   7.583 -1.9352  0.4287 -1.2090
 7544SOL    HW234269   3.266   2.045   7.576  0.2185  1.8905  0.9875
 7545SOL     OW34270   4.685   2.607   2.067 -0.3108  0.3853  0.0854
 7545SOL    HW134271   4.624   2.672   2.033 -2.1148 -1.1558  0.3428
 7545SOL    HW234272   0.023   2.658   2.050 -0.4607  0.1926 -1.1744
 7546SOL     OW34273   0.181   4.071  12.845 -0.5800 -0.0007 -0.1316
 7546SOL    HW134274   0.164   4.159  12.880 -0.5114  0.0962 -0.3397
 7546SOL    HW234275   0.219   4.021  12.917  0.2045  0.2282 -0.3853
 7547SOL     OW34276   3.036   0.415  13.639 -0.2054 -0.2954 -0.4099
 7547SOL    HW134277   3.028   0.483  13.573  0.3176  0.0701 -0.1055
 7547SOL    HW234278   2.948   0.409  13.676  0.0758  1.3703  0.5156
 7548SOL     OW34279   3.910   3.465   1.705  0.5807  0.0455  0.0700
 7548SOL    HW134280   3.862   3.442   1.626  0.3563  0.2192  0.1540
 7548SOL    HW234281   3.953   3.545   1.679 -0.9709  1.6986  2.5908
 7549SOL     OW34282   3.153   0.054   9.718 -0.5418  0.3626  0.4415
 7549SOL    HW134283   3.112   0.080   9.635  0.8203  0.8289 -0.0887
 7549SOL    HW234284   3.161   0.129   9.776 -2.3456  2.2515 -1.7378
 7550SOL     OW34285   2.243   3.606   6.535 -0.1748  0.4635  0.0317
 7550SOL    HW134286   2.200   3.661   6.601 -1.6632  0.8967 -1.2923
 7550SOL    HW234287   2.244   3.521   6.579  0.4661  1.1940  1.4283
 7551SOL     OW34288   1.960   0.180  13.354  0.1908 -0.1159  0.2873
 7551SOL    HW134289   2.013   0.256  13.376  0.5800 -0.2517 -0.1685
 7551SOL    HW234290   1.948   0.194  13.260  2.7852 -1.3712 -0.2415
 7552SOL     OW34291   2.518   0.823   4.096 -0.1560 -0.3481  0.5587
 7552SOL    HW134292   2.427   0.798   4.114 -0.1658 -0.4346  0.3870
 7552SOL    HW234293   2.555   0.825   4.185  1.0074 -2.0685  0.1073
 7553SOL     OW34294   3.200   2.753   7.112 -0.3428  0.4752  0.1447
 7553SOL    HW134295   3.211   2.705   7.194  0.7371  0.2347 -0.1314
 7553SOL    HW234296   3.121   2.804   7.128 -0.3146  0.7950 -0.7058
 7554SOL     OW34297   3.598   2.804   0.948 -0.0667 -0.2755 -0.1707
 7554SOL    HW134298   3.676   2.767   0.987 -0.1188  0.5467  0.7243
 7554SOL    HW234299   3.629   2.884   0.905 -2.4034  1.3840  1.2457
 7555SOL     OW34300   2.806   2.092  14.671  0.0777  0.0220 -0.5826
 7555SOL    HW134301   2.876   2.028  14.685 -0.0700  0.6887  3.1824
 7555SOL    HW234302   2.728   2.037  14.671  0.4717 -0.5606  0.9639
 7556SOL     OW34303   2.370   1.048   7.895 -0.1434 -0.0643  0.5417
 7556SOL    HW134304   2.349   1.008   7.810 -0.0098  0.0407  0.4584
 7556SOL    HW234305   2.400   1.134   7.866 -0.6971 -0.2760 -0.6558
 7557SOL     OW34306   0.856   2.144   1.590  0.1157  0.8005  1.1861
 7557SOL    HW134307   0.928   2.133   1.651  1.4604 -0.2996 -0.6167
 7557SOL    HW234308   0.875   2.229   1.550  0.9701 -0.6888 -1.5604
 7558SOL     OW34309   1.003   3.841   6.048  0.2730 -0.3548  0.0233
 7558SOL    HW134310   1.094   3.863   6.069  0.3450 -0.5641 -0.0678
 7558SOL    HW234311   1.015   3.765   5.992  0.0288  0.1271 -0.6884
 7559SOL     OW34312   4.012   4.383   5.484  0.1235  0.2646  0.1443
 7559SOL    HW134313   4.097   4.407   5.446  0.2325  0.6693  0.6439
 7559SOL    HW234314   3.972   4.464   5.517 -0.7049 -0.0982  0.0106
 7560SOL     OW34315   2.758   1.035   0.176  0.2274 -0.5513  0.0420
 7560SOL    HW134316   2.749   0.991   0.260  0.2470 -1.9260 -0.6808
 7560SOL    HW234317   2.799   0.960   0.132  1.6410 -0.2845  0.9167
 7561SOL     OW34318   1.779   3.549   1.759 -0.1370 -0.4917  0.4315
 7561SOL    HW134319   1.779   3.643   1.777  1.1382 -0.5291  0.6403
 7561SOL    HW234320   1.797   3.523   1.849 -0.9455 -1.0760  0.4262
 7562SOL     OW34321   1.724   2.446   8.512 -0.8497 -0.4568 -0.0813
 7562SOL    HW134322   1.661   2.430   8.442 -1.2383  0.2184  0.1179
 7562SOL    HW234323   1.666   2.468   8.584 -0.3464  2.0995 -0.4684
 7563SOL     OW34324   3.774   4.704   6.026 -0.1247 -0.6594  0.2721
 7563SOL    HW134325   3.755   4.634   5.963 -1.1471 -0.4189  0.3186
 7563SOL    HW234326   3.803   0.036   5.971 -1.8744  0.7989  1.2697
 7564SOL     OW34327   0.039   3.224  10.914 -0.1114 -0.2127 -0.1649
 7564SOL    HW134328   0.076   3.292  10.858  2.1808 -0.9389  0.4286
 7564SOL    HW234329   4.691   3.253  10.937 -0.0724 -0.5082  0.3674
 7565SOL     OW34330   3.528   3.551   1.626  0.4555 -0.7208 -0.1680
 7565SOL    HW134331   3.466   3.595   1.684  1.1891 -0.0167  0.0890
 7565SOL    HW234332   3.550   3.475   1.681  0.3104 -0.1486  0.6841
 7566SOL     OW34333   1.773   4.033  12.033  0.2373 -0.5417  0.2299
 7566SOL    HW134334   1.786   4.109  11.976 -0.0680 -1.7110 -1.4069
 7566SOL    HW234335   1.733   3.971  11.971 -0.2943 -1.4407  1.4600
 7567SOL     OW34336   1.690   1.504   3.684  0.0113  0.5977 -0.4195
 7567SOL    HW134337   1.650   1.431   3.732  1.3084 -1.4317 -2.4174
 7567SOL    HW234338   1.659   1.578   3.737  0.6797 -0.4142  1.4065
 7568SOL     OW34339   2.996   0.660  16.089  0.5736 -0.2952 -0.2600
 7568SOL    HW134340   3.059   0.657  16.017 -0.0687 -2.4219 -0.7011
 7568SOL    HW234341   3.029   0.739  16.132 -1.7982  0.0612  0.9074
 7569SOL     OW34342   1.690   3.470  12.275  0.4993  0.1877  0.1897
 7569SOL    HW134343   1.681   3.541  12.211 -2.6108 -1.7512 -1.5144
 7569SOL    HW234344   1.746   3.497  12.348  0.9720  2.4453 -0.9986
 7570SOL     OW34345   0.396   3.596   5.602  0.2798 -0.0355 -0.0843
 7570SOL    HW134346   0.427   3.671   5.653  0.1908 -0.5259  0.6872
 7570SOL    HW234347   0.460   3.599   5.531 -1.8689 -1.4434 -2.0858
 7571SOL     OW34348   2.854   1.068   2.055  0.2641  0.0070 -0.3863
 7571SOL    HW134349   2.798   0.993   2.071  2.2168 -0.8490  2.4376
 7571SOL    HW234350   2.858   1.117   2.137  2.2651  0.2073 -0.5950
 7572SOL     OW34351   3.009   2.903   2.753 -0.0796 -0.2595  0.1020
 7572SOL    HW134352   3.071   2.975   2.765 -0.6377  0.1655  0.4470
 7572SOL    HW234353   2.935   2.944   2.709 -0.4259  1.9282  2.7485
 7573SOL     OW34354   1.829   2.415   6.023 -0.2685  0.1569 -0.6979
 7573SOL    HW134355   1.767   2.349   5.993 -2.1360  1.2800  0.6301
 7573SOL    HW234356   1.852   2.461   5.943  1.6233 -3.2332 -2.0897
 7574SOL     OW34357   0.778   3.941   8.636  0.1062  0.8863  0.1691
 7574SOL    HW134358   0.769   3.974   8.547 -1.9499  2.9936  1.1667
 7574SOL    HW234359   0.873   3.939   8.644  0.3269  0.6714 -2.5463
 7575SOL     OW34360   0.030   2.726  15.187  0.0237  0.2939 -0.2423
 7575SOL    HW134361   0.030   2.737  15.282 -2.6424 -1.8105 -0.0077
 7575SOL    HW234362   4.724   2.643  15.179  0.4579 -0.1571  1.9232
 7576SOL     OW34363   1.231   4.274   3.110 -0.6958  0.0813  0.2311
 7576SOL    HW134364   1.253   4.367   3.106  1.1623 -0.3133  1.2660
 7576SOL    HW234365   1.144   4.275   3.148 -1.4346 -1.4861 -1.3974
 7577SOL     OW34366   4.154   3.641  12.344  0.2373  0.1125  0.8334
 7577SOL    HW134367   4.126   3.594  12.422  1.0855 -0.9941  0.4729
 7577SOL    HW234368   4.243   3.608  12.330  0.7118  0.6381  2.6242
 7578SOL     OW34369   2.298   2.373   2.791 -0.4899  0.7118  0.3021
 7578SOL    HW134370   2.250   2.340   2.716  0.8499 -2.0510  0.6583
 7578SOL    HW234371   2.338   2.450   2.749 -0.5016 -0.0649 -1.0979
 7579SOL     OW34372   0.780   3.508   5.210 -0.3538 -0.1536 -0.3168
 7579SOL    HW134373   0.831   3.506   5.290  2.5641  0.2358 -2.1608
 7579SOL    HW234374   0.747   3.418   5.213 -1.2160  0.1727 -0.1108
 7580SOL     OW34375   1.443   4.544   8.288 -0.1096 -0.9140 -0.0693
 7580SOL    HW134376   1.494   4.609   8.240 -0.7651 -0.9458 -0.8029
 7580SOL    HW234377   1.449   4.473   8.225  0.7420 -0.1902 -0.7964
 7581SOL     OW34378   0.245   3.973   1.940 -0.2237  0.0921  0.5243
 7581SOL    HW134379   0.161   4.016   1.953 -0.1380  0.7274 -1.0683
 7581SOL    HW234380   0.212   3.887   1.913 -1.0041  0.8675 -1.0212
 7582SOL     OW34381   4.100   2.213   6.390 -0.1327  0.2210  0.4174
 7582SOL    HW134382   4.069   2.122   6.383 -0.9636  0.6664 -1.7178
 7582SOL    HW234383   4.127   2.229   6.300 -0.8175  1.1291  0.3718
 7583SOL     OW34384   3.810   3.767   5.864  0.4521  0.3312  0.8092
 7583SOL    HW134385   3.854   3.848   5.885  1.2947  0.1012 -0.0581
 7583SOL    HW234386   3.866   3.705   5.911 -0.4983 -0.6530  0.6734
 7584SOL     OW34387   3.022   4.194   7.863 -0.6468  0.7586 -0.0941
 7584SOL    HW134388   2.941   4.159   7.899 -1.1349  0.4053 -1.5539
 7584SOL    HW234389   3.088   4.132   7.896 -2.3073 -1.5625 -1.1757
 7585SOL     OW34390   2.284   0.183   1.611  0.1492  0.3291 -0.3738
 7585SOL    HW134391   2.321   0.230   1.685 -1.4705 -0.1253  0.7369
 7585SOL    HW234392   2.261   0.258   1.555  0.1706 -0.4005 -1.3670
 7586SOL     OW34393   2.025   2.576  10.428 -0.3551  0.3876  0.3327
 7586SOL    HW134394   1.981   2.493  10.407 -0.9881  0.8080  0.0080
 7586SOL    HW234395   2.040   2.575  10.523 -3.1289 -0.3521  0.7760
 7587SOL     OW34396   1.879   4.163   9.548  0.3583 -0.9013 -0.1828
 7587SOL    HW134397   1.962   4.206   9.568  0.3508 -1.7544  1.6272
 7587SOL    HW234398   1.829   4.231   9.503  2.2753  0.6787  0.0469
 7588SOL     OW34399   0.140   0.580   1.485  0.5641  0.4818  0.1349
 7588SOL    HW134400   0.088   0.648   1.442 -0.5218  0.0095  0.7183
 7588SOL    HW234401   0.204   0.562   1.416  1.4565 -0.1734  1.1233
 7589SOL     OW34402   1.994   2.286  14.423  0.1880  0.0219  0.3799
 7589SOL    HW134403   2.074   2.324  14.387 -1.0428  0.9131 -1.4083
 7589SOL    HW234404   1.996   2.198  14.385  2.5773  1.4740 -2.9297
 7590SOL     OW34405   0.032   0.682  17.127 -0.2909 -0.0143  0.3238
 7590SOL    HW134406   0.075   0.657  17.209 -0.2071  0.6633  0.4894
 7590SOL    HW234407   0.052   0.603  17.077  1.6124  0.5562  0.1863
 7591SOL     OW34408   0.591   1.257   5.696 -0.3532  0.3748  0.0530
 7591SOL    HW134409   0.623   1.301   5.617  0.1758 -0.3754 -0.1536
 7591SOL    HW234410   0.502   1.292   5.698 -0.7825 -0.6579 -0.6744
 7592SOL     OW34411   0.783   2.483  11.138 -0.1909  0.0507  0.2183
 7592SOL    HW134412   0.809   2.572  11.162  1.8019 -0.2348 -0.8951
 7592SOL    HW234413   0.800   2.487  11.044 -0.4677  0.6585  0.1953
 7593SOL     OW34414   0.764   4.272   6.988 -0.4566 -0.2729 -1.1024
 7593SOL    HW134415   0.745   4.193   7.038  0.0082  0.0494 -0.4147
 7593SOL    HW234416   0.857   4.286   7.008 -0.8767 -0.7035  1.1303
 7594SOL     OW34417   1.202   4.555   1.546 -0.0963  0.1197  0.2480
 7594SOL    HW134418   1.121   4.532   1.591 -0.5209  1.7018  0.2585
 7594SOL    HW234419   1.254   4.481   1.578  1.7391  0.5224 -1.7262
 7595SOL     OW34420   1.893   1.843   3.793  0.0098 -0.3212  0.3626
 7595SOL    HW134421   1.820   1.851   3.733 -0.0705 -1.3239  0.3277
 7595SOL    HW234422   1.842   1.822   3.871  0.2570 -0.0427  0.5985
 7596SOL     OW34423   3.177   3.198   4.461 -0.2035 -0.0863 -0.6009
 7596SOL    HW134424   3.252   3.139   4.453 -0.7897 -0.6557 -1.8793
 7596SOL    HW234425   3.115   3.141   4.414  1.3298 -0.7521 -1.8080
 7597SOL     OW34426   0.709   4.575   7.378 -0.4824  0.5890  0.4048
 7597SOL    HW134427   0.676   4.555   7.290  0.2948  0.0187  0.2461
 7597SOL    HW234428   0.761   4.651   7.351 -1.5118  0.3737 -2.2384
 7598SOL     OW34429   3.099   0.624   1.979  0.2641 -0.3935 -0.0662
 7598SOL    HW134430   3.012   0.602   2.012 -0.1632 -0.4611 -1.2031
 7598SOL    HW234431   3.145   0.577   2.048  0.2753  0.6295  0.6171
 7599SOL     OW34432   3.446   0.387  12.874  0.6130 -0.0536  0.4954
 7599SOL    HW134433   3.490   0.464  12.911 -1.8100  1.2275  0.7649
 7599SOL    HW234434   3.371   0.382  12.933  2.1816 -0.5044  2.4595
 7600SOL     OW34435   4.052   0.834   2.141  0.4444  0.0857  0.1608
 7600SOL    HW134436   3.994   0.761   2.118 -1.0537 -0.2085  4.9013
 7600SOL    HW234437   3.994   0.906   2.165  0.0924  0.5163 -1.9542
 7601SOL     OW34438   3.820   2.506  14.793 -0.6474  0.5995  0.4488
 7601SOL    HW134439   3.803   2.462  14.876  1.3267 -2.0979 -0.5755
 7601SOL    HW234440   3.839   2.594  14.825  0.1471 -0.5730  3.2612
 7602SOL     OW34441   0.496   2.207   6.865  0.2078 -0.2409  0.1985
 7602SOL    HW134442   0.481   2.301   6.857 -0.2510 -0.0901  2.7571
 7602SOL    HW234443   0.461   2.185   6.951 -0.6190  1.2023  0.2326
 7603SOL     OW34444   3.423   1.748   5.116  0.2849  0.0811  0.1561
 7603SOL    HW134445   3.500   1.774   5.066  1.0751  2.3727  2.6194
 7603SOL    HW234446   3.398   1.832   5.153  1.0311 -0.1653  1.2058
 7604SOL     OW34447   2.942   2.725  16.498 -0.1434  0.0195  0.3287
 7604SOL    HW134448   2.887   2.684  16.432 -1.8100 -0.2733  1.8987
 7604SOL    HW234449   3.017   2.759  16.449 -0.4193 -1.5023 -1.1287
 7605SOL     OW34450   0.277   1.899   1.672  0.0482  0.3595  0.1283
 7605SOL    HW134451   0.281   1.994   1.660  0.4446  0.0992 -1.8742
 7605SOL    HW234452   0.350   1.886   1.732  0.3032 -1.6016 -0.6043
 7606SOL     OW34453   2.895   3.636   3.838 -0.1592  0.1556  0.9937
 7606SOL    HW134454   2.913   3.596   3.923 -0.1101 -0.3353  0.7533
 7606SOL    HW234455   2.897   3.727   3.869  0.6671 -0.3746  2.4996
 7607SOL     OW34456   0.009   3.652  14.728 -0.6345  0.9535 -0.1588
 7607SOL    HW134457   0.088   3.670  14.778 -0.2695  0.8600 -0.7054
 7607SOL    HW234458   4.683   3.702  14.776  0.2612  0.5138  1.5543
 7608SOL     OW34459   1.733   0.246   5.720 -0.0657 -0.7225  0.1351
 7608SOL    HW134460   1.644   0.273   5.744  1.1637  0.5244  3.3135
 7608SOL    HW234461   1.719   0.211   5.632 -0.9327  0.5832 -0.2519
 7609SOL     OW34462   0.562   3.950  15.355 -0.1291  0.4709 -0.0590
 7609SOL    HW134463   0.646   3.944  15.401  0.6373  3.6317 -1.0645
 7609SOL    HW234464   0.594   3.969  15.267  2.1657 -1.7055  0.3143
 7610SOL     OW34465   2.794   1.639   9.579 -0.7430 -0.1840  0.0091
 7610SOL    HW134466   2.831   1.554   9.599  0.6816  0.4687  0.1584
 7610SOL    HW234467   2.859   1.700   9.615 -2.2082  0.9157  0.8329
 7611SOL     OW34468   2.731   3.632  11.873  0.0175 -0.0298 -0.4364
 7611SOL    HW134469   2.775   3.595  11.950  0.5920  1.9968  0.1963
 7611SOL    HW234470   2.670   3.559  11.862  1.8871 -1.6622 -0.0124
 7612SOL     OW34471   2.577   4.581   0.686  0.3247  0.3866 -0.6272
 7612SOL    HW134472   2.531   4.498   0.692  0.8156  0.0415 -1.6564
 7612SOL    HW234473   2.665   4.559   0.715 -1.1179 -2.1761  1.7072
 7613SOL     OW34474   0.820   0.501   1.196 -0.2784  0.0388 -0.1335
 7613SOL    HW134475   0.795   0.489   1.288 -0.7399  1.5932 -0.0589
 7613SOL    HW234476   0.909   0.467   1.190 -0.6952 -1.2702  1.1180
 7614SOL     OW34477   2.932   2.568   8.561  0.2071 -0.0194 -0.0266
 7614SOL    HW134478   2.925   2.486   8.610 -0.6266 -0.4805 -0.9068
 7614SOL    HW234479   2.927   2.546   8.468 -1.1798  2.1866 -0.4828
 7615SOL     OW34480   2.759   1.471  11.846  0.1118  0.2046 -0.4273
 7615SOL    HW134481   2.790   1.393  11.800 -1.4533  0.0143 -1.1517
 7615SOL    HW234482   2.842   1.518  11.860 -0.0089  0.1029  0.6594
 7616SOL     OW34483   2.610   3.784   3.646  0.3084  0.3042 -0.0014
 7616SOL    HW134484   2.631   3.693   3.627 -0.7028 -0.1244  0.8881
 7616SOL    HW234485   2.619   3.824   3.559  1.1546  0.0028 -0.0507
 7617SOL     OW34486   0.150   2.549   4.891  0.3979  0.2168  0.3278
 7617SOL    HW134487   0.226   2.608   4.890  1.2804 -0.8912  1.8211
 7617SOL    HW234488   0.200   2.469   4.875  1.1937  0.6287  0.7571
 7618SOL     OW34489   4.549   0.648   6.617  0.2957 -0.0064  0.0619
 7618SOL    HW134490   4.519   0.599   6.693 -0.9175  2.1741  0.9847
 7618SOL    HW234491   4.620   0.704   6.651  0.7402 -0.2927 -0.4039
 7619SOL     OW34492   2.634   4.323   5.293  0.4908  0.2086 -0.3079
 7619SOL    HW134493   2.584   4.405   5.295  0.5661  0.2771 -1.3993
 7619SOL    HW234494   2.725   4.350   5.296  0.3252  0.3199  3.4891
 7620SOL     OW34495   4.375   3.399   1.355  0.5052  0.1475  0.1135
 7620SOL    HW134496   4.470   3.403   1.365  0.8277 -1.1794 -2.3733
 7620SOL    HW234497   4.352   3.465   1.420  0.9948  0.6241 -0.1956
 7621SOL     OW34498   0.816   4.531   4.817 -0.0901  0.6165  0.5049
 7621SOL    HW134499   0.903   4.503   4.789  0.0134  0.3148  1.1497
 7621SOL    HW234500   0.766   4.524   4.735 -0.3059 -2.2711  0.8839
 7622SOL     OW34501   0.913   4.028  10.918  0.0501  0.1054 -0.0600
 7622SOL    HW134502   0.968   3.996  10.989  0.5803 -1.3554 -1.1278
 7622SOL    HW234503   0.851   4.078  10.971  0.3756 -0.5131  0.9051
 7623SOL     OW34504   3.465   2.637   5.466 -0.3790  0.0304  0.2781
 7623SOL    HW134505   3.512   2.555   5.451 -0.7722 -0.0756 -0.3775
 7623SOL    HW234506   3.435   2.666   5.380 -1.4185  2.3701  1.4514
 7624SOL     OW34507   1.235   1.601   1.004  0.2647 -0.0303  0.4455
 7624SOL    HW134508   1.214   1.514   1.037  1.4876 -0.1509  0.9225
 7624SOL    HW234509   1.166   1.618   0.940  1.4117 -0.6021 -0.9440
 7625SOL     OW34510   2.824   0.215   7.878 -0.1634 -0.1281  0.7774
 7625SOL    HW134511   2.861   0.182   7.796 -0.2508 -1.7774  1.3944
 7625SOL    HW234512   2.802   0.126   7.904  1.3055 -0.4586  0.9071
 7626SOL     OW34513   2.629   4.049   7.548  0.3307  0.0852  0.2785
 7626SOL    HW134514   2.653   3.962   7.579  0.3536  0.6893  1.9738
 7626SOL    HW234515   2.584   4.037   7.465  2.7736  0.0591 -1.0655
 7627SOL     OW34516   1.306   0.254   3.628 -0.2611 -0.4441  0.5938
 7627SOL    HW134517   1.385   0.222   3.671 -0.2393  0.3516  1.1495
 7627SOL    HW234518   1.331   0.330   3.574 -2.3839 -0.6734 -0.7104
 7628SOL     OW34519   3.043   1.723  11.091  0.5909 -0.1975  0.1930
 7628SOL    HW134520   3.000   1.764  11.166  2.0053  0.2550  0.7536
 7628SOL    HW234521   2.984   1.744  11.018  0.6228  1.6072  0.6722
 7629SOL     OW34522   1.781   0.269   2.964  0.8336  0.1221  0.2453
 7629SOL    HW134523   1.784   0.198   2.900  4.0460  0.0753  0.4183
 7629SOL    HW234524   1.874   0.294   2.961  0.4679  1.4955  0.9452
 7630SOL     OW34525   0.729   1.469   3.074  0.4689  0.1906 -0.4672
 7630SOL    HW134526   0.719   1.469   3.169 -3.2051 -1.0880 -0.8321
 7630SOL    HW234527   0.637   1.457   3.050  0.0301  1.4759  0.5765
 7631SOL     OW34528   2.757   1.790   3.952  0.0278  1.0134  0.0376
 7631SOL    HW134529   2.687   1.801   4.015 -0.9064  1.5376 -1.0944
 7631SOL    HW234530   2.807   1.867   3.979  1.0414  0.7359 -1.0383
 7632SOL     OW34531   3.421   0.549   4.814 -0.0817 -0.4002 -0.1147
 7632SOL    HW134532   3.410   0.582   4.725 -1.1772 -0.5596 -0.0423
 7632SOL    HW234533   3.496   0.606   4.831 -1.6483  1.4238  0.7073
 7633SOL     OW34534   0.566   2.495  14.853  0.7679 -0.2286  0.1623
 7633SOL    HW134535   0.618   2.566  14.892 -1.0967  1.4645 -0.4253
 7633SOL    HW234536   0.585   2.426  14.917  2.1388 -1.1656 -1.2674
 7634SOL     OW34537   4.682   3.403   5.112 -0.7593 -0.0205  0.1939
 7634SOL    HW134538   0.031   3.430   5.132 -0.8135  1.4628 -1.5942
 7634SOL    HW234539   4.625   3.470   5.148 -0.0397  0.4071  0.5371
 7635SOL     OW34540   2.856   3.730   5.947 -0.1631 -0.4367 -0.5443
 7635SOL    HW134541   2.779   3.780   5.920  0.0196 -0.3260 -0.8525
 7635SOL    HW234542   2.923   3.797   5.935  0.3211 -0.5891  1.2648
 7636SOL     OW34543   0.672   1.691   4.034 -0.5891 -0.3098  0.5411
 7636SOL    HW134544   0.645   1.783   4.041  0.8214  0.0056  1.8071
 7636SOL    HW234545   0.652   1.655   4.120 -0.5846 -2.2061 -0.2618
 7637SOL     OW34546   2.136   3.337   0.204 -0.0326 -0.3573  0.1382
 7637SOL    HW134547   2.173   3.264   0.253  2.5227  1.2205  0.5399
 7637SOL    HW234548   2.072   3.362   0.271 -0.6873 -0.7336 -0.3391
 7638SOL     OW34549   0.012   1.978   2.853 -0.1534 -0.0609 -0.2681
 7638SOL    HW134550   0.001   2.066   2.819  0.2064 -0.4240 -1.3083
 7638SOL    HW234551   0.005   1.929   2.771  4.7772  0.5210 -0.9865
 7639SOL     OW34552   2.760   4.598   8.435  0.6641  0.7764 -0.4495
 7639SOL    HW134553   2.705   4.663   8.390 -1.2777 -0.8991 -0.5161
 7639SOL    HW234554   2.785   4.647   8.514  0.1929  0.0729  0.1393
 7640SOL     OW34555   1.787   4.007  10.709 -0.1039  0.1443  0.0919
 7640SOL    HW134556   1.715   4.019  10.771 -0.2755 -1.9804  0.2970
 7640SOL    HW234557   1.865   4.054  10.739 -0.9408  2.5020 -1.3715
 7641SOL     OW34558   4.164   0.742   5.211  0.1058 -0.2618  0.5278
 7641SOL    HW134559   4.156   0.671   5.148  0.2734 -1.0062  1.3418
 7641SOL    HW234560   4.173   0.697   5.295  0.1913  1.4971  1.4481
 7642SOL     OW34561   0.761   0.987   9.074  0.5255 -0.2000 -0.2254
 7642SOL    HW134562   0.808   0.968   9.155 -0.3675 -0.7856  0.1598
 7642SOL    HW234563   0.673   0.984   9.111  0.7656  2.7731  0.5815
 7643SOL     OW34564   2.869   4.178   3.811  0.0068  0.7741  0.8682
 7643SOL    HW134565   2.874   4.171   3.715  1.9277 -1.2988  1.1260
 7643SOL    HW234566   2.944   4.234   3.828 -0.0596  0.9870  0.4623
 7644SOL     OW34567   0.469   3.622   6.311 -0.0341  0.1378  0.0653
 7644SOL    HW134568   0.554   3.578   6.316 -0.2625 -0.3161 -0.1398
 7644SOL    HW234569   0.499   3.701   6.266 -1.5322  1.2525  0.9992
 7645SOL     OW34570   0.471   3.041  14.575 -0.2374 -0.2358  0.0650
 7645SOL    HW134571   0.542   3.023  14.637  0.0508  0.9993  0.1026
 7645SOL    HW234572   0.504   3.130  14.559 -3.0430  0.9914  1.2063
 7646SOL     OW34573   2.149   2.642   6.013  0.7414  0.1604 -0.2188
 7646SOL    HW134574   2.195   2.668   6.093  2.3736  1.4817 -1.5826
 7646SOL    HW234575   2.117   2.556   6.040 -0.4744  1.1371  1.4877
 7647SOL     OW34576   1.478   4.587   4.441  0.2433 -0.1488  0.5508
 7647SOL    HW134577   1.454   4.563   4.352 -1.5023 -1.5185  1.3831
 7647SOL    HW234578   1.477   4.505   4.490  0.6092 -0.4431  0.0569
 7648SOL     OW34579   4.555   0.443   3.170 -0.1776 -0.2594 -0.5586
 7648SOL    HW134580   4.527   0.504   3.239  2.1501 -0.9813  0.9988
 7648SOL    HW234581   4.566   0.507   3.100 -2.2337  0.7615  0.0306
 7649SOL     OW34582   0.579   1.007   9.297  0.6405 -0.0267  0.1102
 7649SOL    HW134583   0.623   0.997   9.381  1.0969  0.8486 -0.0253
 7649SOL    HW234584   0.564   0.917   9.270 -0.6417  0.0643  0.5386
 7650SOL     OW34585   0.794   2.188  16.585  0.7396  0.1014  0.1437
 7650SOL    HW134586   0.752   2.103  16.569 -0.6579  0.2524  3.0882
 7650SOL    HW234587   0.814   2.212  16.495  0.2252 -1.2141 -0.3214
 7651SOL     OW34588   3.083   3.918   1.535  0.5934  0.1539 -0.4006
 7651SOL    HW134589   3.170   3.915   1.494  1.6318  0.8743  1.7853
 7651SOL    HW234590   3.059   3.826   1.547  0.9873 -0.0024 -0.7928
 7652SOL     OW34591   2.125   2.866   3.781 -0.0336  0.5261 -0.7416
 7652SOL    HW134592   2.217   2.888   3.793  0.4133 -2.0595  0.4443
 7652SOL    HW234593   2.077   2.942   3.814 -2.0700 -0.6471 -0.9758
 7653SOL     OW34594   2.011   3.512   9.961  0.3996  0.0531  0.2515
 7653SOL    HW134595   2.087   3.519   9.903 -1.5231 -0.0635 -2.2401
 7653SOL    HW234596   2.051   3.476  10.041 -0.7326 -1.3699  0.1810
 7654SOL     OW34597   3.261   0.329   6.168 -0.1669  0.5603 -0.0645
 7654SOL    HW134598   3.265   0.313   6.262  1.1432  0.6075 -0.1177
 7654SOL    HW234599   3.341   0.381   6.174 -0.3009  0.6054  1.4415
 7655SOL     OW34600   3.017   2.520  13.659  0.4208 -0.0285  0.1640
 7655SOL    HW134601   3.038   2.466  13.583 -1.5810  1.4058 -1.3906
 7655SOL    HW234602   3.099   2.521  13.709  0.4237 -1.7204  0.1872
 7656SOL     OW34603   3.263   0.001   4.890  0.0473  0.9285 -0.0003
 7656SOL    HW134604   3.298   0.085   4.917  2.0606 -0.0731  0.4957
 7656SOL    HW234605   3.202   0.021   4.818  0.3869  1.2537 -0.1920
 7657SOL     OW34606   4.332   2.709   5.776  0.4221  0.4327 -1.1291
 7657SOL    HW134607   4.355   2.622   5.808 -0.6564  0.6666  0.2611
 7657SOL    HW234608   4.298   2.690   5.688  0.2872  1.3967 -1.2889
 7658SOL     OW34609   4.699   2.619   1.174 -0.2746 -0.2968  0.2104
 7658SOL    HW134610   4.728   2.702   1.136 -1.3882  0.0330  0.1077
 7658SOL    HW234611   4.664   2.565   1.103 -0.2415 -0.3464  0.2314
 7659SOL     OW34612   0.572   0.745   8.924  0.0656  0.1248  0.2850
 7659SOL    HW134613   0.521   0.825   8.912  0.6074  0.5476  0.8116
 7659SOL    HW234614   0.626   0.745   8.845  0.0141 -1.1616  0.2426
 7660SOL     OW34615   0.475   4.053   8.496 -0.7432 -0.2154 -0.1175
 7660SOL    HW134616   0.462   4.037   8.589  0.9396  0.7608  0.2847
 7660SOL    HW234617   0.446   3.968   8.461 -0.2946 -0.9374  1.2445
 7661SOL     OW34618   4.122   2.082   3.923  0.2493 -0.7483  0.2357
 7661SOL    HW134619   4.171   2.089   3.842 -1.2873  1.0096 -0.5389
 7661SOL    HW234620   4.057   2.152   3.913  0.4388 -0.6700 -0.4063
 7662SOL     OW34621   4.636   2.388  15.747  0.1964  0.7480  0.0106
 7662SOL    HW134622   4.694   2.374  15.822  1.2960  2.9153 -0.4517
 7662SOL    HW234623   4.692   2.417  15.675  0.7616  1.7109  0.8524
 7663SOL     OW34624   4.510   4.529  10.546 -0.1574 -0.6060 -0.0960
 7663SOL    HW134625   4.465   4.578  10.478  1.0186 -0.1604 -0.5513
 7663SOL    HW234626   4.578   4.484  10.496  0.9581  1.4873 -0.4565
 7664SOL     OW34627   2.627   1.207   5.504  0.2754  0.4978  0.7990
 7664SOL    HW134628   2.651   1.274   5.568 -1.4367 -1.0655  3.0635
 7664SOL    HW234629   2.591   1.141   5.563  0.9205  0.7166  1.4413
 7665SOL     OW34630   3.146   1.632  15.147 -0.3052 -0.0234 -0.5760
 7665SOL    HW134631   3.075   1.585  15.190  0.4972 -1.5154 -0.8607
 7665SOL    HW234632   3.099   1.677  15.077 -1.6020  1.0608  0.9956
 7666SOL     OW34633   2.547   4.577   9.179 -0.1794  0.5051 -0.5343
 7666SOL    HW134634   2.622   4.573   9.238 -1.1956 -2.1307  0.6108
 7666SOL    HW234635   2.509   4.663   9.195 -0.8375  0.0308  0.5176
 7667SOL     OW34636   4.155   3.950  16.937  0.2472 -0.1216 -0.9179
 7667SOL    HW134637   4.168   3.858  16.959 -2.6719 -0.8965 -2.3736
 7667SOL    HW234638   4.247   3.975  16.922  0.0082  2.8398  2.5045
 7668SOL     OW34639   3.405   3.685   2.999  0.3022 -0.0066 -0.5532
 7668SOL    HW134640   3.355   3.617   2.954  1.2548 -0.6701 -0.6256
 7668SOL    HW234641   3.482   3.638   3.033  0.0081 -0.1581 -0.0907
 7669SOL     OW34642   3.726   1.432   2.912 -0.5250 -0.6032  0.0105
 7669SOL    HW134643   3.744   1.338   2.904  0.1955 -0.5556  1.1275
 7669SOL    HW234644   3.782   1.470   2.845 -0.0242 -0.4683  0.5100
 7670SOL     OW34645   4.321   0.299  10.081 -0.2628 -0.8898 -0.2753
 7670SOL    HW134646   4.335   0.385  10.122 -0.0791 -1.3534  0.6513
 7670SOL    HW234647   4.390   0.253  10.131  0.6809  0.7524 -0.0708
 7671SOL     OW34648   0.178   3.474   5.169 -0.2701 -0.5252 -0.6645
 7671SOL    HW134649   0.240   3.414   5.128  1.9233  0.9598  0.4661
 7671SOL    HW234650   0.216   3.508   5.250 -3.5305  0.0615  0.6279
 7672SOL     OW34651   3.760   1.165   4.656 -0.0527 -0.1889  0.1737
 7672SOL    HW134652   3.820   1.139   4.726 -0.7316  0.9523  1.1777
 7672SOL    HW234653   3.707   1.227   4.706 -1.8678 -0.5146 -1.3545
 7673SOL     OW34654   0.577   4.523   0.965  0.4394 -0.3103  0.2753
 7673SOL    HW134655   0.508   4.585   0.940  1.4451  0.8786  0.4273
 7673SOL    HW234656   0.658   4.563   0.932 -0.1150 -0.5039 -1.3180
 7674SOL     OW34657   0.214   1.128   6.558  0.1269 -0.2754 -0.4064
 7674SOL    HW134658   0.252   1.133   6.470 -1.0667 -0.1317 -0.9102
 7674SOL    HW234659   0.252   1.046   6.588 -0.3978 -0.8532 -1.3423
 7675SOL     OW34660   3.542   4.307  11.038 -0.5954 -0.0704  0.0086
 7675SOL    HW134661   3.514   4.391  10.999 -1.8597 -0.6916 -0.4319
 7675SOL    HW234662   3.480   4.246  10.998  2.2311 -1.5643 -2.0842
 7676SOL     OW34663   3.916   3.213   6.508  0.1175 -0.2580 -0.1294
 7676SOL    HW134664   3.967   3.291   6.485  1.0581 -1.2277 -1.3311
 7676SOL    HW234665   3.923   3.160   6.428 -0.4281 -1.6463  0.7428
 7677SOL     OW34666   3.053   2.193   6.395  0.1465  0.0464 -0.0387
 7677SOL    HW134667   3.123   2.132   6.422  1.4948  2.4243  1.8807
 7677SOL    HW234668   2.996   2.127   6.356 -1.6069  1.8113 -0.4243
 7678SOL     OW34669   0.489   1.685   7.490  0.3314  0.0674  0.2789
 7678SOL    HW134670   0.410   1.725   7.526  0.0833  2.1358 -2.6056
 7678SOL    HW234671   0.487   1.703   7.396  0.8138  0.9716  0.4404
 7679SOL     OW34672   1.144   1.266   3.959  0.7057 -0.0687  0.1883
 7679SOL    HW134673   1.199   1.329   3.912  1.3529 -1.7017 -1.2470
 7679SOL    HW234674   1.198   1.187   3.951 -1.3927 -1.2713 -1.9960
 7680SOL     OW34675   1.986   3.503   2.396  0.5989  0.0143 -0.2547
 7680SOL    HW134676   1.943   3.482   2.479  1.2297 -1.5409 -0.3197
 7680SOL    HW234677   1.996   3.598   2.397 -0.9851  0.1627  1.0637
 7681SOL     OW34678   4.158   3.107   6.938 -0.3981  0.2738  0.2865
 7681SOL    HW134679   4.102   3.033   6.915 -1.4859  1.0229  0.5038
 7681SOL    HW234680   4.179   3.136   6.850 -0.3563  1.7887  0.8062
 7682SOL     OW34681   1.239   4.650  17.032 -0.5580  0.1130  0.3835
 7682SOL    HW134682   1.188   4.575  17.002  1.5296 -1.2454  0.2087
 7682SOL    HW234683   1.331   4.623  17.034 -0.7764 -0.5937  0.8619
 7683SOL     OW34684   3.906   4.216   9.670 -0.3599 -0.0914  0.0706
 7683SOL    HW134685   3.868   4.132   9.645 -1.5304  0.0179  1.4569
 7683SOL    HW234686   3.891   4.260   9.587 -0.5334  0.6674  0.4994
 7684SOL     OW34687   0.336   3.075   0.476 -0.6017 -0.4134 -0.2510
 7684SOL    HW134688   0.283   3.017   0.531  2.6202 -1.4117  1.7933
 7684SOL    HW234689   0.392   3.133   0.527 -0.2737  0.0646 -1.1382
 7685SOL     OW34690   0.172   2.447   1.252 -0.4292  0.4023  0.2726
 7685SOL    HW134691   0.123   2.374   1.290 -0.1178 -0.6972 -1.4192
 7685SOL    HW234692   0.110   2.520   1.251  1.1325  1.7341  1.2237
 7686SOL     OW34693   1.358   0.274  17.239 -0.2221  0.2645 -0.2014
 7686SOL    HW134694   1.432   0.329  17.215 -0.0181  0.2007  0.2957
 7686SOL    HW234695   1.400   0.223  17.308  0.7130  1.3283  0.0123
 7687SOL     OW34696   1.678   0.929   2.267  0.1311  0.0917  0.3140
 7687SOL    HW134697   1.674   0.959   2.358 -0.7256 -0.6157  0.5092
 7687SOL    HW234698   1.737   0.855   2.278  2.7810  2.3294  1.2413
 7688SOL     OW34699   4.038   3.951   7.014 -0.1457  0.3194  0.4132
 7688SOL    HW134700   4.060   3.869   6.971 -1.2997  0.2773 -0.0874
 7688SOL    HW234701   3.942   3.952   7.014 -0.1505 -1.1064  0.9379
 7689SOL     OW34702   0.722   0.193   5.579  0.6351  0.5477 -0.6834
 7689SOL    HW134703   0.706   0.119   5.638 -0.5032  2.7498  1.7898
 7689SOL    HW234704   0.734   0.138   5.502  0.3926 -0.4521 -0.0075
 7690SOL     OW34705   1.481   0.728   8.660  0.2282  0.6448 -0.1148
 7690SOL    HW134706   1.514   0.711   8.572  1.2859  1.0334  0.2059
 7690SOL    HW234707   1.524   0.659   8.712  0.4832  0.5586 -0.4406
 7691SOL     OW34708   2.239   0.211   7.547 -0.2073  0.2349 -0.3454
 7691SOL    HW134709   2.224   0.306   7.551  1.1745  0.4964 -1.4982
 7691SOL    HW234710   2.198   0.191   7.631  0.5489  2.3726  0.5205
 7692SOL     OW34711   2.200   4.580   6.076  0.1605  0.5705 -0.3869
 7692SOL    HW134712   2.113   4.619   6.085  0.8260  2.2626 -1.3439
 7692SOL    HW234713   2.188   4.485   6.073 -0.9158  0.7304 -1.5881
 7693SOL     OW34714   3.413   2.481   2.129 -0.7755 -0.3467 -0.2870
 7693SOL    HW134715   3.369   2.512   2.208  2.0096 -0.2559  1.2327
 7693SOL    HW234716   3.362   2.503   2.051  3.9472  0.5953 -3.1057
 7694SOL     OW34717   3.437   0.711   3.165  0.3832  0.6924  0.6964
 7694SOL    HW134718   3.388   0.792   3.177  0.0550  0.5634  0.2046
 7694SOL    HW234719   3.525   0.750   3.172  0.7588 -0.3297  1.6452
 7695SOL     OW34720   2.721   0.645   3.868  0.6368 -0.1096 -0.2553
 7695SOL    HW134721   2.751   0.728   3.906 -2.4079  1.0273 -0.2836
 7695SOL    HW234722   2.677   0.691   3.796 -0.6491  0.0052  0.5864
 7696SOL     OW34723   1.602   1.039   6.823 -0.0251 -0.2156  0.1694
 7696SOL    HW134724   1.650   0.961   6.851 -0.2197  0.2879  1.8998
 7696SOL    HW234725   1.515   1.010   6.849 -0.5602 -0.9532 -2.4329
 7697SOL     OW34726   2.901   0.160  12.192  0.5984 -0.0787  0.4541
 7697SOL    HW134727   2.972   0.183  12.132  1.0599 -0.4479  0.8534
 7697SOL    HW234728   2.825   0.199  12.149  0.3829  2.3035  2.9476
 7698SOL     OW34729   1.815   4.536  10.245 -0.4229 -0.1140 -0.0991
 7698SOL    HW134730   1.879   4.545  10.315  0.2400  1.4499 -0.9255
 7698SOL    HW234731   1.855   4.472  10.186  1.1865  1.5120 -0.7490
 7699SOL     OW34732   0.314   2.697   7.303 -0.1455  0.2393 -0.2074
 7699SOL    HW134733   0.352   2.756   7.368  0.6482  1.5667 -1.8967
 7699SOL    HW234734   0.261   2.641   7.361  0.7020 -0.6939 -0.3461
 7700SOL     OW34735   0.513   4.121   3.871 -0.6392 -0.1792  0.3876
 7700SOL    HW134736   0.516   4.216   3.859  0.7969 -0.3976 -0.9836
 7700SOL    HW234737   0.497   4.108   3.965 -2.3108 -2.3391 -0.1848
 7701SOL     OW34738   2.148   0.964  12.798 -0.7553  0.4433  0.0421
 7701SOL    HW134739   2.161   0.977  12.704 -0.9131  3.1080  0.3705
 7701SOL    HW234740   2.206   1.029  12.838  1.2614 -1.6452  0.5184
 7702SOL     OW34741   2.817   2.954   3.704  0.1351 -0.3570  0.1853
 7702SOL    HW134742   2.732   2.929   3.741  0.5013  2.1665  2.7201
 7702SOL    HW234743   2.879   2.884   3.723  0.3901  0.2221  1.4710
 7703SOL     OW34744   0.829   3.759  17.758 -0.1615  0.3324 -0.1808
 7703SOL    HW134745   0.761   3.785   0.062  0.8458  0.1029  1.0304
 7703SOL    HW234746   0.870   3.691   0.053 -0.1362 -0.1983 -0.8786
 7704SOL     OW34747   3.423   4.368   3.615  0.1892 -0.0550 -0.2574
 7704SOL    HW134748   3.429   4.435   3.682 -0.9580  2.0591 -2.2679
 7704SOL    HW234749   3.457   4.290   3.659 -0.4108 -0.1967 -0.0364
 7705SOL     OW34750   1.988   1.183   4.988  0.8489  0.2210 -0.2759
 7705SOL    HW134751   2.063   1.124   4.999 -0.8751 -1.5838  1.5904
 7705SOL    HW234752   1.982   1.176   4.892  0.0383  1.2124 -0.2896
 7706SOL     OW34753   0.870   1.968   6.587 -0.4039 -0.1977  0.2845
 7706SOL    HW134754   0.813   2.008   6.653 -0.4699 -1.2697  0.8770
 7706SOL    HW234755   0.930   2.040   6.571  1.5136 -1.8109  0.2622
 7707SOL     OW34756   3.390   2.106   4.352  0.2659 -0.1266 -0.5331
 7707SOL    HW134757   3.417   2.077   4.439 -0.0947  1.5589  0.1447
 7707SOL    HW234758   3.470   2.112   4.299 -1.4241 -0.5812 -3.1606
 7708SOL     OW34759   3.263   3.725   2.040  0.4106  0.0185  0.6669
 7708SOL    HW134760   3.190   3.781   2.067  0.4856 -0.1974  1.3274
 7708SOL    HW234761   3.333   3.761   2.095  1.9963 -1.1686 -0.5771
 7709SOL     OW34762   4.033   1.456   1.545 -0.0681  0.5963  0.0154
 7709SOL    HW134763   4.073   1.393   1.484 -0.7576 -1.3658  1.5968
 7709SOL    HW234764   4.048   1.539   1.501  5.8948 -0.7608 -0.5776
 7710SOL     OW34765   2.411   2.609   8.059  0.2196  0.4488 -0.0309
 7710SOL    HW134766   2.365   2.538   8.105  0.5875  1.0092  1.2236
 7710SOL    HW234767   2.360   2.677   8.102  0.1098 -0.7046  1.6976
 7711SOL     OW34768   2.761   2.254   1.941  0.3036 -0.4503  0.4020
 7711SOL    HW134769   2.713   2.217   1.867  1.1683  0.4303 -0.6001
 7711SOL    HW234770   2.741   2.347   1.935 -0.6992 -0.6899  0.0777
 7712SOL     OW34771   4.482   3.661  15.056 -0.3349 -0.0048 -0.0199
 7712SOL    HW134772   4.471   3.707  15.139  2.1079  1.5425 -0.5358
 7712SOL    HW234773   4.493   3.570  15.087 -2.3584  0.0437  0.7971
 7713SOL     OW34774   1.127   1.065   6.430  0.6213 -0.0821 -0.0897
 7713SOL    HW134775   1.148   1.136   6.491  2.1187 -2.0745  1.7123
 7713SOL    HW234776   1.079   1.102   6.356 -1.9250 -0.3917  1.3981
 7714SOL     OW34777   1.964   2.564   1.332  0.4369 -0.6042  0.8175
 7714SOL    HW134778   1.894   2.608   1.284  0.0322 -0.7704  1.2565
 7714SOL    HW234779   1.928   2.555   1.420 -0.0561 -0.1285  0.6648
 7715SOL     OW34780   2.247   4.231   8.101  0.7496  0.1177 -0.9060
 7715SOL    HW134781   2.194   4.212   8.023 -1.4626  1.8779  0.1636
 7715SOL    HW234782   2.230   4.323   8.120 -1.4769 -0.6538  0.8344
 7716SOL     OW34783   1.875   1.224  13.952 -0.2700 -0.9683  0.0055
 7716SOL    HW134784   1.828   1.298  13.913 -1.3969 -1.6138  0.1627
 7716SOL    HW234785   1.870   1.160  13.881 -2.1384 -1.7562  0.8856
 7717SOL     OW34786   1.174   4.563   7.429  0.2022  0.2337 -0.1177
 7717SOL    HW134787   1.262   4.531   7.409  0.7520 -0.5910  3.6466
 7717SOL    HW234788   1.183   4.612   7.510  0.2407 -1.3231  0.8168
 7718SOL     OW34789   1.246   3.265  10.922  0.2799 -0.1052 -0.0543
 7718SOL    HW134790   1.285   3.201  10.981  1.8621  2.2464  1.4927
 7718SOL    HW234791   1.209   3.215  10.850  0.1606  1.1416 -0.8576
 7719SOL     OW34792   2.667   3.509   7.582 -0.3071 -0.1222  0.1230
 7719SOL    HW134793   2.615   3.584   7.554 -1.6333 -0.7249  0.9812
 7719SOL    HW234794   2.646   3.444   7.514  2.9523  0.2625 -1.2473
 7720SOL     OW34795   3.396   2.189   4.036 -0.0505 -0.3352  0.5478
 7720SOL    HW134796   3.484   2.214   4.065  0.0544  0.1129 -0.1678
 7720SOL    HW234797   3.349   2.267   4.065 -1.1177 -0.1822 -1.6139
 7721SOL     OW34798   4.165   1.028   0.562  0.0173 -0.1065 -0.0394
 7721SOL    HW134799   4.165   1.061   0.472 -1.4460  1.2984  0.4732
 7721SOL    HW234800   4.071   1.019   0.577  0.5984 -1.8852  2.5014
 7722SOL     OW34801   4.439   1.215  14.902 -0.3748 -0.2309 -0.3106
 7722SOL    HW134802   4.516   1.236  14.850  0.5783  1.8775  1.8945
 7722SOL    HW234803   4.473   1.227  14.991 -1.2156 -1.4866  0.1861
 7723SOL     OW34804   3.053   3.652   1.511  0.8791 -0.3961 -0.2717
 7723SOL    HW134805   3.025   3.629   1.599 -0.5448  0.0510 -0.6022
 7723SOL    HW234806   3.111   3.582   1.480  0.2539 -1.0451  0.0142
 7724SOL     OW34807   1.676   2.483   6.247 -0.4055  0.1905 -0.6145
 7724SOL    HW134808   1.698   2.576   6.247 -0.1746  0.1408  0.6989
 7724SOL    HW234809   1.725   2.445   6.174 -2.0234  0.2292 -1.7118
 7725SOL     OW34810   1.387   1.479  12.297  0.3750  0.0169  0.1748
 7725SOL    HW134811   1.404   1.390  12.267 -0.6485 -0.9489  2.4214
 7725SOL    HW234812   1.405   1.538  12.224  0.9769  0.5943  0.7874
 7726SOL     OW34813   0.669   3.874   2.244  0.2680  0.4815 -0.2632
 7726SOL    HW134814   0.698   3.928   2.170  1.2640  2.5096  1.5870
 7726SOL    HW234815   0.600   3.818   2.209 -1.2043  1.2909  1.3119
 7727SOL     OW34816   3.572   3.084   7.730 -0.1727  0.4570  0.0553
 7727SOL    HW134817   3.623   3.004   7.739 -0.7155  0.0889 -0.0855
 7727SOL    HW234818   3.573   3.117   7.819  1.4613 -2.1232  1.0006
 7728SOL     OW34819   4.221   4.324   1.508  0.3194 -0.4189  0.2363
 7728SOL    HW134820   4.295   4.378   1.481  0.1162 -0.3001 -0.0941
 7728SOL    HW234821   4.203   4.353   1.597  0.5559 -0.2328  0.2245
 7729SOL     OW34822   2.025   0.431   5.515 -0.4368  0.2116  0.0942
 7729SOL    HW134823   2.008   0.363   5.579  5.0140 -1.7166 -0.5028
 7729SOL    HW234824   1.955   0.492   5.538 -1.9346 -2.1161  1.6307
 7730SOL     OW34825   4.396   0.812   7.942  0.1206 -0.4298  0.0820
 7730SOL    HW134826   4.478   0.774   7.973  0.3592  0.2042  0.2402
 7730SOL    HW234827   4.436   0.899   7.934 -2.0613  0.6545  0.9846
 7731SOL     OW34828   0.898   4.105   3.759 -0.1976 -0.2107 -0.2862
 7731SOL    HW134829   0.831   4.171   3.740 -0.3499 -0.6580 -1.3258
 7731SOL    HW234830   0.921   4.128   3.849  0.6353 -3.3255  0.3084
 7732SOL     OW34831   1.736   0.511   7.552  0.0111 -0.3512 -0.1610
 7732SOL    HW134832   1.790   0.533   7.628  0.1969 -1.8811  0.1485
 7732SOL    HW234833   1.766   0.560   7.475 -3.0060  1.6027 -0.1144
 7733SOL     OW34834   3.586   2.392   8.251  0.0140  0.5578 -0.4703
 7733SOL    HW134835   3.538   2.338   8.313 -0.2236  0.5270 -0.6778
 7733SOL    HW234836   3.564   2.338   8.174 -0.7102  0.3066 -0.0862
 7734SOL     OW34837   1.373   1.807   4.424 -0.3503 -0.2485  0.3190
 7734SOL    HW134838   1.447   1.749   4.442 -0.4437  0.1342  1.9402
 7734SOL    HW234839   1.328   1.755   4.357  0.2632 -0.5217  0.1140
 7735SOL     OW34840   3.885   0.153   2.999  0.4490  0.0194 -0.0534
 7735SOL    HW134841   3.793   0.167   3.020  0.6752  1.1456  0.1773
 7735SOL    HW234842   3.907   0.239   2.964 -0.0789 -0.4770 -1.6237
 7736SOL     OW34843   3.141   3.855   6.933 -0.1323  0.6906  0.6249
 7736SOL    HW134844   3.062   3.896   6.970 -0.6145 -0.6996  1.1330
 7736SOL    HW234845   3.113   3.764   6.928  1.8880  0.3030 -3.4125
 7737SOL     OW34846   1.699   1.368   7.589  0.0109  0.0122 -0.0680
 7737SOL    HW134847   1.623   1.423   7.570 -0.5174 -0.9804 -0.8243
 7737SOL    HW234848   1.741   1.413   7.662 -1.6115  2.3278 -0.5309
 7738SOL     OW34849   4.249   0.752   2.858  0.0207 -0.5036 -0.0810
 7738SOL    HW134850   4.155   0.747   2.874  0.4151  0.2482  2.5657
 7738SOL    HW234851   4.267   0.838   2.896  2.4348 -0.5854 -1.0625
 7739SOL     OW34852   0.259   1.159   1.271 -0.0535 -0.9342  0.0283
 7739SOL    HW134853   0.334   1.170   1.329 -0.4732  1.5121  0.1123
 7739SOL    HW234854   0.299   1.161   1.184  1.1532  2.3127  0.6529
 7740SOL     OW34855   0.400   1.213   8.540 -0.4034  0.2330 -0.3305
 7740SOL    HW134856   0.464   1.226   8.471 -0.1813 -0.1779 -0.2056
 7740SOL    HW234857   0.423   1.122   8.558  1.7778  0.6123 -1.3014
 7741SOL     OW34858   0.086   4.278   2.239 -0.0058 -0.4119 -0.1629
 7741SOL    HW134859   0.011   4.294   2.297  0.0187 -0.2518 -0.1741
 7741SOL    HW234860   0.104   4.192   2.278 -0.4991 -0.9035 -1.0350
 7742SOL     OW34861   0.593   4.071   5.031 -0.3410 -0.2942 -0.1772
 7742SOL    HW134862   0.580   4.138   4.964 -0.9943 -0.2718 -0.0302
 7742SOL    HW234863   0.600   4.115   5.116  0.1857 -0.2323 -0.2502
 7743SOL     OW34864   3.565   3.274   7.937  0.2098  0.2573 -0.2871
 7743SOL    HW134865   3.547   3.364   7.964  0.7529  0.3583 -0.2563
 7743SOL    HW234866   3.661   3.280   7.933  0.1540  2.5236  1.8376
 7744SOL     OW34867   0.499   4.113   7.408  0.1765 -0.0818 -0.4978
 7744SOL    HW134868   0.474   4.204   7.390 -1.2909 -0.2400  0.6975
 7744SOL    HW234869   0.577   4.122   7.353  0.5798  0.7137  0.2002
 7745SOL     OW34870   2.378   1.505   5.618  0.1796 -0.1690 -0.1162
 7745SOL    HW134871   2.461   1.551   5.615 -0.1461  0.4362  0.2566
 7745SOL    HW234872   2.345   1.504   5.708 -0.3911  0.5659 -0.3186
 7746SOL     OW34873   3.927   4.050  13.775 -0.3071 -0.5934  0.4100
 7746SOL    HW134874   3.924   4.131  13.825 -3.0531 -0.2575 -0.2701
 7746SOL    HW234875   3.978   4.001  13.839 -0.2152  0.3372  1.0377
 7747SOL     OW34876   1.808   3.912   9.560  0.5815  0.1407  0.1906
 7747SOL    HW134877   1.841   3.894   9.648 -0.8148  0.4833  0.7822
 7747SOL    HW234878   1.834   4.004   9.549  0.7805 -0.0024 -0.5429
 7748SOL     OW34879   3.731   2.057   4.534 -0.0099  0.4144 -0.1125
 7748SOL    HW134880   3.797   2.023   4.594  1.4853  0.0716 -1.9385
 7748SOL    HW234881   3.786   2.044   4.456  1.2487  1.3520  0.6133
 7749SOL     OW34882   1.968   3.377   4.543 -0.4613 -0.4138 -0.0571
 7749SOL    HW134883   1.975   3.284   4.561  0.0476 -0.4448 -0.4088
 7749SOL    HW234884   1.962   3.377   4.447 -0.2743 -2.1163 -0.0656
 7750SOL     OW34885   3.908   4.525   4.763  0.5836 -0.6135 -0.2025
 7750SOL    HW134886   3.839   4.459   4.763  0.8365 -0.8662 -1.5879
 7750SOL    HW234887   3.972   4.484   4.822  1.3916 -0.2202 -0.7957
 7751SOL     OW34888   1.205   2.756   1.879  0.4261 -0.1830  0.1414
 7751SOL    HW134889   1.163   2.767   1.964  0.8717 -2.0205  0.6095
 7751SOL    HW234890   1.233   2.846   1.866 -1.8357  0.5128 -0.0051
 7752SOL     OW34891   3.675   0.776   7.145  0.2392 -0.1160 -0.4745
 7752SOL    HW134892   3.669   0.710   7.215 -1.4044  1.3680  0.7997
 7752SOL    HW234893   3.724   0.728   7.079 -0.7482 -1.4930 -0.2265
 7753SOL     OW34894   4.724   4.121   1.658  0.3068 -0.5393  0.1029
 7753SOL    HW134895   4.673   4.131   1.577  0.5902  2.3416  0.2668
 7753SOL    HW234896   0.026   4.036   1.645 -0.3248 -1.0020  1.1635
 7754SOL     OW34897   1.401   4.230  13.342  0.6050 -0.1980  0.3215
 7754SOL    HW134898   1.470   4.241  13.407 -1.1942  0.9822  2.0460
 7754SOL    HW234899   1.448   4.227  13.259  1.6744 -2.2634  1.0036
 7755SOL     OW34900   1.005   4.718   6.521  0.0051  0.0031 -0.2761
 7755SOL    HW134901   1.057   0.051   6.555 -0.1463 -0.4031  0.8340
 7755SOL    HW234902   0.921   0.023   6.536  0.0501 -0.1628  0.4968
 7756SOL     OW34903   4.235   0.965   9.343  0.2582  0.0025  0.2779
 7756SOL    HW134904   4.151   1.003   9.317  2.0034  0.5821 -4.4529
 7756SOL    HW234905   4.306   1.003   9.292  0.2262 -0.9151 -0.4646
 7757SOL     OW34906   1.751   3.694   4.526 -0.2069 -0.5312  0.1566
 7757SOL    HW134907   1.734   3.606   4.492  0.4725 -1.3989  2.0527
 7757SOL    HW234908   1.836   3.714   4.487 -0.6230 -1.8546 -1.4086
 7758SOL     OW34909   3.938   0.197   6.159 -0.0340 -0.0983  0.2188
 7758SOL    HW134910   3.895   0.276   6.190  1.2052  0.5075  0.3761
 7758SOL    HW234911   3.954   0.220   6.067 -2.5841  0.9931  0.0521
 7759SOL     OW34912   1.746   0.170   2.557 -0.3721  0.1932  0.4195
 7759SOL    HW134913   1.764   0.081   2.589  2.8311  0.6789  0.0154
 7759SOL    HW234914   1.801   0.182   2.479 -1.2080 -1.4340 -0.4381
 7760SOL     OW34915   0.654   2.103   5.160 -0.4077  0.4442  0.0450
 7760SOL    HW134916   0.729   2.138   5.208  0.4428 -2.6367  0.9266
 7760SOL    HW234917   0.694   2.074   5.078 -1.5264 -0.9702 -0.0078
 7761SOL     OW34918   3.819   3.384   7.521  0.7125 -0.4055  0.0917
 7761SOL    HW134919   3.853   3.393   7.610  1.0249  2.4087 -0.3147
 7761SOL    HW234920   3.726   3.381   7.546  1.0679 -1.9747  1.1827
 7762SOL     OW34921   4.175   2.786   8.459 -0.6212  0.2924 -0.5594
 7762SOL    HW134922   4.129   2.870   8.451  0.1863  0.5447 -2.3341
 7762SOL    HW234923   4.125   2.739   8.527 -0.7004  1.4708  0.1905
 7763SOL     OW34924   1.807   0.976   7.231  0.3085  0.4731 -0.5945
 7763SOL    HW134925   1.852   1.039   7.176  0.6658 -0.5463 -1.4837
 7763SOL    HW234926   1.762   1.024   7.300  0.1426 -0.3278 -0.1360
 7764SOL     OW34927   1.438   1.462   8.342  0.6344 -0.3585  0.4897
 7764SOL    HW134928   1.413   1.390   8.283  0.8199 -0.5998  0.7074
 7764SOL    HW234929   1.373   1.532   8.334  1.0603  0.0723  0.8381
 7765SOL     OW34930   1.200   4.644   2.561  0.3043 -0.1079  0.0959
 7765SOL    HW134931   1.155   4.623   2.642 -1.1450 -1.0803 -0.9625
 7765SOL    HW234932   1.269   4.695   2.603 -1.5936  0.9916  1.8367
 7766SOL     OW34933   2.431   1.090  12.091 -0.1802 -0.6425  0.4871
 7766SOL    HW134934   2.470   1.027  12.152  0.4116  0.1989  0.9909
 7766SOL    HW234935   2.347   1.044  12.090 -1.5759  1.9657 -1.3469
 7767SOL     OW34936   1.544   3.612   5.047  0.0264 -0.2315 -0.1193
 7767SOL    HW134937   1.496   3.554   5.106 -0.4468 -3.3295 -3.4997
 7767SOL    HW234938   1.502   3.590   4.964 -1.3274  0.4687  0.3863
 7768SOL     OW34939   3.787   0.974   7.284  0.1724 -0.1124  0.9276
 7768SOL    HW134940   3.732   0.909   7.240  1.4603 -0.2437 -0.4742
 7768SOL    HW234941   3.841   0.995   7.208  0.1032  0.7055  1.1040
 7769SOL     OW34942   0.647   4.056   6.700  0.0693  0.1103  0.0034
 7769SOL    HW134943   0.564   4.078   6.657 -0.0081  0.2559  0.2269
 7769SOL    HW234944   0.667   4.134   6.753 -0.0725 -1.4961  2.4347
 7770SOL     OW34945   2.216   0.991  16.722 -0.4209 -0.3496  0.0505
 7770SOL    HW134946   2.148   0.996  16.789 -1.6033  1.9120 -1.2978
 7770SOL    HW234947   2.295   1.007  16.775 -0.2114 -0.6513 -0.1724
 7771SOL     OW34948   4.270   3.916   9.178  0.4702 -0.1472  0.2617
 7771SOL    HW134949   4.185   3.929   9.136  0.6542 -0.7320 -0.3002
 7771SOL    HW234950   4.249   3.858   9.252 -1.4763  1.4761  0.9769
 7772SOL     OW34951   4.691   1.653   3.575 -0.1976  0.3900 -0.8201
 7772SOL    HW134952   4.650   1.707   3.644 -0.0607 -3.2755  2.1023
 7772SOL    HW234953   4.614   1.615   3.533 -2.0835  0.5350  2.4422
 7773SOL     OW34954   4.430   4.609   2.142  0.1571  0.1629 -0.1367
 7773SOL    HW134955   4.518   4.574   2.129  0.4809  1.5357 -1.7012
 7773SOL    HW234956   4.413   4.670   2.070 -0.2689  1.1221  0.7655
 7774SOL     OW34957   0.108   0.594   2.154 -0.4022  0.3502  0.2294
 7774SOL    HW134958   0.176   0.656   2.126  0.9680 -1.8208 -1.3203
 7774SOL    HW234959   0.032   0.640   2.117 -1.9471 -1.3265  1.3417
 7775SOL     OW34960   4.152   2.178   8.201  0.3966 -0.5623  0.1917
 7775SOL    HW134961   4.079   2.239   8.190  0.0272 -1.4817 -2.3305
 7775SOL    HW234962   4.122   2.099   8.156  0.5246 -1.0909  1.0261
 7776SOL     OW34963   2.603   4.042   4.836  0.4802 -0.1183  0.8048
 7776SOL    HW134964   2.528   4.089   4.798  0.8099 -0.3995 -0.1900
 7776SOL    HW234965   2.609   4.080   4.924  2.5962 -1.3949  1.2046
 7777SOL     OW34966   2.719   3.228  12.181 -0.0842  0.2023  0.2125
 7777SOL    HW134967   2.747   3.275  12.260 -0.8127 -0.8822  1.1082
 7777SOL    HW234968   2.701   3.145  12.224  2.9288 -0.7050 -0.2504
 7778SOL     OW34969   1.250   2.888  11.548  0.2431 -0.0093 -0.2347
 7778SOL    HW134970   1.283   2.827  11.483  1.0350  0.0069  0.1631
 7778SOL    HW234971   1.169   2.919  11.507 -1.0615 -3.0233  0.0513
 7779SOL     OW34972   4.637   3.303   7.823 -0.6023  0.1292 -0.3059
 7779SOL    HW134973   4.544   3.289   7.807 -1.0990  1.3606  1.4979
 7779SOL    HW234974   4.639   3.289   7.918  1.0022 -1.0939 -0.5211
 7780SOL     OW34975   2.391   2.838   2.168  0.2040  0.3716 -0.9270
 7780SOL    HW134976   2.342   2.917   2.145 -3.2909 -1.5296 -0.0431
 7780SOL    HW234977   2.420   2.865   2.255 -0.1278  0.4050 -0.8267
 7781SOL     OW34978   4.449   4.739   5.819  0.2288 -0.3319  0.2136
 7781SOL    HW134979   4.497   4.701   5.893  1.8896 -0.5777 -1.0200
 7781SOL    HW234980   4.444   0.093   5.835  0.2324 -0.1907 -0.6332
 7782SOL     OW34981   1.457   3.712   5.353 -0.1887 -0.0871  0.1310
 7782SOL    HW134982   1.455   3.682   5.262 -2.2921  0.3915  0.0165
 7782SOL    HW234983   1.497   3.635   5.392 -1.0740 -0.2085  0.8134
 7783SOL     OW34984   1.163   4.296   6.183  0.5906 -0.2542 -0.4814
 7783SOL    HW134985   1.199   4.207   6.173 -0.1657 -0.4226 -1.7374
 7783SOL    HW234986   1.210   4.336   6.256  3.6065 -0.9389 -2.0670
 7784SOL     OW34987   3.478   1.412  15.783 -0.1543 -0.0177 -0.3977
 7784SOL    HW134988   3.396   1.460  15.773 -0.9625 -1.5899 -1.3218
 7784SOL    HW234989   3.462   1.346  15.716 -2.6445 -0.5058  0.6812
 7785SOL     OW34990   3.950   1.801   1.220  0.6751 -0.8457  0.3271
 7785SOL    HW134991   3.940   1.709   1.244 -0.5765 -0.6785  0.4512
 7785SOL    HW234992   3.865   1.845   1.225  0.8742 -0.4525  0.2215
 7786SOL     OW34993   2.523   2.288  12.514 -0.3418 -0.2679  0.0263
 7786SOL    HW134994   2.439   2.246  12.534  0.9705 -1.7700  2.4293
 7786SOL    HW234995   2.492   2.360  12.459  1.3611  1.7474  1.6824
 7787SOL     OW34996   3.876   2.383   4.344  0.0972  0.0798 -0.1864
 7787SOL    HW134997   3.885   2.330   4.264  4.2575 -0.3669  0.5659
 7787SOL    HW234998   3.961   2.358   4.379 -1.7310 -2.2057  2.6661
 7788SOL     OW34999   4.513   1.601   6.196 -0.6178  0.2651 -0.0095
 7788SOL    HW135000   4.437   1.629   6.247 -0.9295  1.6201 -1.2197
 7788SOL    HW235001   4.521   1.510   6.226 -0.9861  0.1781 -0.1660
 7789SOL     OW35002   4.113   4.463  10.627  0.4076  0.4394  0.2361
 7789SOL    HW135003   4.100   4.433  10.717  1.8621  1.1300  0.6786
 7789SOL    HW235004   4.122   4.555  10.649 -0.9266  0.1057  2.1751
 7790SOL     OW35005   4.384   2.226   4.962  0.5920  0.2939  0.1893
 7790SOL    HW135006   4.383   2.281   5.040  2.1111 -1.8462  1.7132
 7790SOL    HW235007   4.414   2.146   5.004  1.5571  1.0466  0.9213
 7791SOL     OW35008   2.366   1.320   7.571 -0.0290 -0.2549 -0.1842
 7791SOL    HW135009   2.394   1.406   7.541 -0.3737  0.9159  2.8014
 7791SOL    HW235010   2.302   1.285   7.509  0.1448  1.7384 -1.4990
 7792SOL     OW35011   3.544   0.584  17.401 -0.0566 -0.1039 -0.0002
 7792SOL    HW135012   3.585   0.503  17.432  2.5833  0.7271 -1.2769
 7792SOL    HW235013   3.509   0.581  17.312  1.4852  2.0783 -0.6834
 7793SOL     OW35014   2.493   2.517   2.489 -0.0220  0.0300  0.1699
 7793SOL    HW135015   2.502   2.572   2.411 -1.8058  0.8967  0.5904
 7793SOL    HW235016   2.529   2.435   2.456  1.0455  0.2253  0.8093
 7794SOL     OW35017   0.933   3.412   2.297 -0.7381  0.2467 -0.2778
 7794SOL    HW135018   0.998   3.456   2.243  0.1367 -0.6241  0.0509
 7794SOL    HW235019   0.958   3.435   2.387 -3.6479 -1.1325  0.8858
 7795SOL     OW35020   2.519   3.323   5.769  0.4048  0.3766 -1.0741
 7795SOL    HW135021   2.502   3.387   5.700  0.8176  0.6835 -0.8898
 7795SOL    HW235022   2.558   3.257   5.712 -0.1104 -1.6327  0.9157
 7796SOL     OW35023   0.726   2.438  12.414 -0.2470  0.1149 -0.3885
 7796SOL    HW135024   0.673   2.392  12.479  0.4980  1.0597  0.8856
 7796SOL    HW235025   0.808   2.459  12.459 -0.7357 -0.1806  0.6477
 7797SOL     OW35026   3.570   2.879  10.986  0.5346  0.5440 -0.1353
 7797SOL    HW135027   3.593   2.966  11.018 -0.8727  0.1726  1.9254
 7797SOL    HW235028   3.478   2.893  10.962  0.4830 -1.1945 -0.9516
 7798SOL     OW35029   0.779   1.068   1.495 -0.3326  0.1028  0.1911
 7798SOL    HW135030   0.861   1.043   1.537  0.5064  0.1939 -1.3613
 7798SOL    HW235031   0.710   1.046   1.557 -0.9320  0.2414 -0.4250
 7799SOL     OW35032   0.286   2.958   5.539  0.0559  0.2823  0.0832
 7799SOL    HW135033   0.289   2.993   5.628  0.6756 -0.7824  0.4882
 7799SOL    HW235034   0.193   2.970   5.522 -0.0274  1.5009  1.4723
 7800SOL     OW35035   3.847   2.800   9.016 -0.4964 -0.0786 -0.6063
 7800SOL    HW135036   3.773   2.848   9.051 -0.7624  1.1841 -2.8760
 7800SOL    HW235037   3.796   2.742   8.959  0.5154 -1.2331 -0.3456
 7801SOL     OW35038   1.833   2.754   0.331 -0.5504 -0.5875  0.3837
 7801SOL    HW135039   1.823   2.746   0.426 -0.3655  2.9325  0.7229
 7801SOL    HW235040   1.837   2.660   0.315  0.7969 -0.4104 -0.3473
 7802SOL     OW35041   0.765   3.815   6.943  0.0948  0.1625 -0.3758
 7802SOL    HW135042   0.765   3.899   6.897 -2.3745 -0.5167 -1.5681
 7802SOL    HW235043   0.672   3.810   6.963  0.0984  0.1272 -0.3681
 7803SOL     OW35044   3.743   2.449   9.221 -0.4750  0.2471 -0.1044
 7803SOL    HW135045   3.768   2.530   9.264  0.0518  0.1993 -0.3212
 7803SOL    HW235046   3.824   2.421   9.178 -0.6641 -0.7519  0.1863
 7804SOL     OW35047   2.000   1.330   5.753  0.5605  0.3250 -0.1411
 7804SOL    HW135048   2.012   1.355   5.661 -1.2630 -2.6328 -1.2259
 7804SOL    HW235049   2.073   1.380   5.788 -0.0528  2.2238 -1.5651
 7805SOL     OW35050   2.228   4.595   2.605 -0.3947 -0.1049  0.1397
 7805SOL    HW135051   2.239   4.689   2.619  0.2828 -0.1617 -0.0214
 7805SOL    HW235052   2.317   4.566   2.626 -0.7295 -0.6868  0.7500
 7806SOL     OW35053   0.054   1.674  16.624 -0.0598 -0.3501 -0.3779
 7806SOL    HW135054   0.085   1.596  16.670  0.1745 -0.8671 -1.4248
 7806SOL    HW235055   4.700   1.671  16.643 -0.1876  1.4508 -0.7414
 7807SOL     OW35056   1.175   3.844   4.634  0.1894  0.2869  0.0359
 7807SOL    HW135057   1.215   3.902   4.569 -0.6429  0.1013 -0.6335
 7807SOL    HW235058   1.175   3.760   4.588  1.3278  1.2667 -1.7436
 7808SOL     OW35059   1.538   3.173  13.492 -0.1436 -0.0299 -0.2355
 7808SOL    HW135060   1.558   3.265  13.512  0.6338 -0.0020 -1.1369
 7808SOL    HW235061   1.447   3.158  13.467 -0.2595 -0.5537  0.4969
 7809SOL     OW35062   1.511   1.518   3.470 -0.4924 -0.5893 -0.7098
 7809SOL    HW135063   1.575   1.519   3.542 -1.9798  0.5343  0.5969
 7809SOL    HW235064   1.502   1.426   3.448 -0.1220 -0.4185 -1.5937
 7810SOL     OW35065   2.597   1.491   1.178  0.1623  0.0226  0.1587
 7810SOL    HW135066   2.664   1.533   1.231  1.3274 -1.4210 -0.1622
 7810SOL    HW235067   2.644   1.408   1.167 -1.6633 -1.2809  1.9871
 7811SOL     OW35068   4.425   2.870   7.761  0.1137  0.7633  0.4691
 7811SOL    HW135069   4.404   2.805   7.694 -1.8589  1.1540  0.7225
 7811SOL    HW235070   4.337   2.899   7.784 -0.4739  0.9635 -2.0248
 7812SOL     OW35071   4.194   3.681   3.952  0.3327 -0.7790  0.0877
 7812SOL    HW135072   4.234   3.764   3.926  0.4157 -0.4466  1.2954
 7812SOL    HW235073   4.123   3.668   3.888  2.4229 -2.6506 -1.8377
 7813SOL     OW35074   1.051   0.264   2.049 -0.3960 -0.0338  0.3649
 7813SOL    HW135075   0.996   0.310   1.987  1.3415 -1.5845 -2.3361
 7813SOL    HW235076   0.994   0.205   2.097  0.3051 -0.0138  1.2309
 7814SOL     OW35077   4.423   2.250  16.285 -0.0713 -0.4652 -0.4334
 7814SOL    HW135078   4.432   2.200  16.204 -0.7833  2.5425 -2.3849
 7814SOL    HW235079   4.351   2.208  16.333  0.8660 -1.6446 -0.0861
 7815SOL     OW35080   3.813   1.942   8.929 -0.6755  0.2376 -0.5423
 7815SOL    HW135081   3.776   1.856   8.951 -0.7001  0.4410  0.1942
 7815SOL    HW235082   3.778   2.003   8.994  2.4175  3.3111 -1.7776
 7816SOL     OW35083   2.514   2.807   1.593 -0.2475 -0.2391  0.1478
 7816SOL    HW135084   2.605   2.777   1.595 -0.0382  0.4235  0.6849
 7816SOL    HW235085   2.496   2.840   1.681 -2.4036 -0.4888 -0.2064
 7817SOL     OW35086   2.764   0.999  11.965 -0.0444  0.0827 -0.4766
 7817SOL    HW135087   2.700   0.953  12.019  2.1247  0.2901  2.2745
 7817SOL    HW235088   2.826   0.928  11.948 -0.9827 -1.1838  1.3795
 7818SOL     OW35089   4.549   2.366   1.537 -0.0442 -0.6613  0.3774
 7818SOL    HW135090   4.508   2.287   1.571  0.4711 -0.0375  2.4776
 7818SOL    HW235091   4.628   2.367   1.592  0.5126  0.2749 -0.4135
 7819SOL     OW35092   4.042   0.772   6.241 -0.2037 -0.1758  0.0668
 7819SOL    HW135093   4.043   0.676   6.246  0.9844 -0.1403  0.5223
 7819SOL    HW235094   4.072   0.789   6.331  1.1591 -0.6925 -0.2927
 7820SOL     OW35095   0.973   3.612   6.904 -0.3077  0.3896 -0.1030
 7820SOL    HW135096   0.893   3.661   6.922  1.3658  3.2598 -0.6540
 7820SOL    HW235097   0.956   3.601   6.811  1.2565 -0.5253 -0.2891
 7821SOL     OW35098   3.049   1.222   4.381  0.1287 -0.1337 -0.1853
 7821SOL    HW135099   2.992   1.240   4.456  1.0965 -0.2265  0.5867
 7821SOL    HW235100   3.099   1.146   4.411  1.3422 -0.5164 -3.2375
 7822SOL     OW35101   1.449   4.737   2.118  0.0965  0.0141  0.4726
 7822SOL    HW135102   1.376   4.682   2.090  0.7528  0.0491 -1.3279
 7822SOL    HW235103   1.446   4.726   2.213  1.9398 -1.8465  0.3260
 7823SOL     OW35104   2.238   4.246   5.849  0.0957 -0.2449 -1.0702
 7823SOL    HW135105   2.300   4.188   5.893 -0.6381  2.2748  3.2798
 7823SOL    HW235106   2.275   4.334   5.855 -1.4566  0.1798  2.1225
 7824SOL     OW35107   4.644   1.392   6.384 -0.5226  0.8551 -0.4641
 7824SOL    HW135108   4.637   1.308   6.428 -0.7340  1.4150  0.5763
 7824SOL    HW235109   4.568   1.437   6.420 -0.5581  0.0926  0.4122
 7825SOL     OW35110   0.777   2.270   5.322 -0.4553  0.0568  0.3210
 7825SOL    HW135111   0.737   2.300   5.403  2.1278  0.4870  1.4356
 7825SOL    HW235112   0.864   2.242   5.351 -0.7984 -1.0460  0.2893
 7826SOL     OW35113   3.826   1.115   4.412 -0.3008 -0.0010 -0.3031
 7826SOL    HW135114   3.785   1.155   4.489  0.0675 -2.0785  0.9560
 7826SOL    HW235115   3.759   1.132   4.345 -0.3500  1.0966  0.0099
 7827SOL     OW35116   3.391   3.766   2.467  0.2454 -0.3692  0.1842
 7827SOL    HW135117   3.315   3.824   2.466  0.5709  0.0310 -0.8181
 7827SOL    HW235118   3.409   3.771   2.561  1.4899  0.7966 -0.1156
 7828SOL     OW35119   0.490   0.364   6.673  0.5499  0.4556 -0.7129
 7828SOL    HW135120   0.564   0.413   6.638  0.6199  0.4105 -0.6309
 7828SOL    HW235121   0.436   0.440   6.693  0.2509 -0.2421  1.1521
 7829SOL     OW35122   0.800   3.576   4.927 -0.3502  0.3402 -0.2167
 7829SOL    HW135123   0.820   3.667   4.950 -0.0329  0.7731 -2.2041
 7829SOL    HW235124   0.785   3.538   5.013  1.1251 -1.8492 -0.9220
 7830SOL     OW35125   0.617   4.434   6.210 -0.6771  0.1690 -0.2064
 7830SOL    HW135126   0.649   4.455   6.298 -1.0361  2.3101 -0.5965
 7830SOL    HW235127   0.694   4.461   6.161  0.5065  0.0067  1.5478
 7831SOL     OW35128   1.825   4.296   5.065  0.1921  0.5275 -0.2160
 7831SOL    HW135129   1.774   4.317   5.142 -0.4230 -1.0364 -0.2006
 7831SOL    HW235130   1.779   4.222   5.025  2.2433 -0.7173 -0.2697
 7832SOL     OW35131   1.582   2.450   5.801  0.7335 -0.1363  0.3995
 7832SOL    HW135132   1.547   2.490   5.721  0.6523 -2.8623 -0.9447
 7832SOL    HW235133   1.602   2.522   5.860 -1.1110  0.9502 -0.2855
 7833SOL     OW35134   0.311   4.475   2.547 -0.2270  0.1447  0.9207
 7833SOL    HW135135   0.249   4.413   2.585  0.1615 -0.7337  0.1264
 7833SOL    HW235136   0.383   4.482   2.610 -1.1725 -1.5369  2.1745
 7834SOL     OW35137   2.408   1.164   4.754 -0.0725  0.3863 -0.3357
 7834SOL    HW135138   2.490   1.183   4.800 -0.5299 -1.5703  1.2976
 7834SOL    HW235139   2.445   1.137   4.670 -0.7789  0.9720 -0.8387
 7835SOL     OW35140   3.823   3.505  13.649 -0.2023 -0.1280  0.4394
 7835SOL    HW135141   3.747   3.447  13.655 -0.3759  0.0021 -0.5212
 7835SOL    HW235142   3.872   3.453  13.585 -0.7509 -1.0472  0.7710
 7836SOL     OW35143   1.071   2.575   4.227 -0.2154 -0.1490 -0.0180
 7836SOL    HW135144   1.083   2.637   4.156  0.8271 -1.1342 -0.7196
 7836SOL    HW235145   1.087   2.634   4.300 -0.4267 -0.6204  0.4076
 7837SOL     OW35146   2.453   2.103   8.657  0.0502  0.1363 -0.1096
 7837SOL    HW135147   2.544   2.108   8.685  0.7007 -1.3109 -1.9663
 7837SOL    HW235148   2.410   2.173   8.705 -0.3431 -0.8954  1.0446
 7838SOL     OW35149   3.482   4.075  10.532 -0.2493  0.3139 -0.4361
 7838SOL    HW135150   3.572   4.044  10.528 -0.3649 -0.3142  1.7882
 7838SOL    HW235151   3.502   4.165  10.509  1.2688 -0.4261 -1.9988
 7839SOL     OW35152   3.721   2.805  12.266 -0.1573 -0.8098  0.2721
 7839SOL    HW135153   3.804   2.812  12.219  1.0081 -0.8623  2.3270
 7839SOL    HW235154   3.685   2.735  12.211 -0.2155 -0.1332 -0.5332
 7840SOL     OW35155   2.598   2.078   5.781  0.0089 -0.1480 -0.0194
 7840SOL    HW135156   2.507   2.072   5.752  0.4541  0.7593 -1.6547
 7840SOL    HW235157   2.630   1.992   5.807  0.0251 -0.1547 -0.0600
 7841SOL     OW35158   3.791   2.090   5.759  0.0336  0.9232  0.4093
 7841SOL    HW135159   3.701   2.120   5.753 -0.0353  0.3669 -1.5313
 7841SOL    HW235160   3.786   1.998   5.785 -1.7437  0.6864 -0.7378
 7842SOL     OW35161   1.763   2.444   2.568 -0.1696 -0.2726  0.4181
 7842SOL    HW135162   1.707   2.498   2.512  1.1619  1.0541  0.3723
 7842SOL    HW235163   1.723   2.444   2.655 -0.0918 -0.5585  0.4545
 7843SOL     OW35164   0.238   2.679   8.053 -0.4230  0.5256  0.5412
 7843SOL    HW135165   0.234   2.591   8.016 -1.6121  1.5773 -1.8452
 7843SOL    HW235166   0.328   2.711   8.044 -0.1716  0.0226  1.2380
 7844SOL     OW35167   1.029   2.004   8.577  0.5370 -0.0159 -0.5292
 7844SOL    HW135168   0.961   1.978   8.515  3.0630 -0.4284 -3.1482
 7844SOL    HW235169   1.037   2.096   8.554 -0.8427  0.3308  0.4234
 7845SOL     OW35170   2.770   1.997   4.777  0.0674  0.2414 -0.8816
 7845SOL    HW135171   2.817   2.074   4.810  0.0554  0.9701 -2.5555
 7845SOL    HW235172   2.844   1.946   4.745 -1.5416 -2.4610 -0.2361
 7846SOL     OW35173   1.973   2.190   2.344 -0.2195  0.4257 -0.2286
 7846SOL    HW135174   2.002   2.205   2.254 -0.7415  1.2713 -0.2563
 7846SOL    HW235175   1.893   2.242   2.336 -1.2764 -1.0578  0.6398
 7847SOL     OW35176   4.198   0.000  11.212  0.5800  0.0152 -0.1396
 7847SOL    HW135177   4.157   0.063  11.272  1.9940  1.1056 -0.3373
 7847SOL    HW235178   4.261   0.062  11.175 -0.3286  0.9946 -0.0556
 7848SOL     OW35179   0.727   2.186   2.149  0.1775  0.9133  0.3372
 7848SOL    HW135180   0.666   2.124   2.187  0.1149  0.5738 -0.3186
 7848SOL    HW235181   0.735   2.240   2.227 -1.7303 -0.3431  1.3884
 7849SOL     OW35182   4.427   3.062   3.184 -0.0841  0.0827 -0.2432
 7849SOL    HW135183   4.502   3.003   3.173  0.7457  1.0044  0.3470
 7849SOL    HW235184   4.457   3.127   3.249 -0.9695  0.6020 -0.3644
 7850SOL     OW35185   3.131   1.779  15.748 -0.0802  0.1721 -0.0653
 7850SOL    HW135186   3.122   1.874  15.750  2.5204  0.4302 -1.1740
 7850SOL    HW235187   3.078   1.750  15.822  0.8327 -1.3349 -0.0005
 7851SOL     OW35188   3.096   4.183   8.300  0.1357  0.0907 -0.1964
 7851SOL    HW135189   3.080   4.096   8.264  3.7738 -1.3777  1.6577
 7851SOL    HW235190   3.008   4.215   8.279 -1.1464 -3.3047  0.0421
 7852SOL     OW35191   4.352   0.334   0.190 -0.0106  0.2083  0.1911
 7852SOL    HW135192   4.435   0.299   0.219 -1.1969 -2.4904  0.3343
 7852SOL    HW235193   4.386   0.407   0.137  1.4588 -0.5580  0.0974
 7853SOL     OW35194   2.119   1.502   4.569 -0.1469  0.3208 -0.2306
 7853SOL    HW135195   2.053   1.532   4.507  1.3674  0.4146 -1.8059
 7853SOL    HW235196   2.199   1.518   4.519  0.2729 -0.8069  0.0964
 7854SOL     OW35197   4.624   3.686   3.318 -0.7567 -0.1713  0.5034
 7854SOL    HW135198   4.576   3.605   3.299 -1.0764 -0.5623  3.0142
 7854SOL    HW235199   4.692   3.683   3.251 -1.5377  0.5185 -0.3212
 7855SOL     OW35200   0.810   3.784   3.868  0.1280  0.2762 -0.0948
 7855SOL    HW135201   0.788   3.824   3.784  4.3877 -1.0648 -1.8488
 7855SOL    HW235202   0.898   3.815   3.888  0.9460 -1.9612 -0.1662
 7856SOL     OW35203   3.640   3.371   2.393  0.3156 -0.6215 -0.0184
 7856SOL    HW135204   3.628   3.383   2.299 -0.6104 -0.2411  0.1465
 7856SOL    HW235205   3.592   3.290   2.410  0.1605 -0.6228 -0.4819
 7857SOL     OW35206   2.923   3.319   1.759 -1.1670 -0.2228 -0.0564
 7857SOL    HW135207   2.928   3.227   1.783  2.6675  0.1364  0.5522
 7857SOL    HW235208   2.830   3.340   1.757 -0.6767  1.9619 -0.4897
 7858SOL     OW35209   2.669   2.834  14.233  0.2452 -0.2264 -0.4250
 7858SOL    HW135210   2.681   2.923  14.266 -0.2585 -0.4780  0.4127
 7858SOL    HW235211   2.737   2.787  14.281  0.2604  0.3000  0.0707
 7859SOL     OW35212   0.390   2.717   9.088 -0.3303 -0.0667 -0.2439
 7859SOL    HW135213   0.455   2.665   9.042  0.8407  0.3871  0.8697
 7859SOL    HW235214   0.313   2.662   9.074 -0.6921  0.8934 -2.0361
 7860SOL     OW35215   4.696   0.982   4.665 -0.3958 -0.3917  0.1148
 7860SOL    HW135216   4.612   0.945   4.689  0.2052 -0.8676  1.4649
 7860SOL    HW235217   0.012   0.908   4.686  0.1586  0.2970  1.0684
 7861SOL     OW35218   2.717   1.346   3.997  0.1606  0.8416  0.2179
 7861SOL    HW135219   2.639   1.402   3.990 -2.7932 -3.2082  1.0364
 7861SOL    HW235220   2.778   1.410   4.033  0.3731  0.4694  0.5067
 7862SOL     OW35221   3.017   3.653   7.517 -0.4168  0.1029 -0.1629
 7862SOL    HW135222   3.090   3.595   7.537 -0.5523 -0.1447 -0.3922
 7862SOL    HW235223   3.043   3.720   7.581  0.5690 -1.3570  0.9733
 7863SOL     OW35224   3.937   0.121   1.880 -0.0688  0.0928 -0.7412
 7863SOL    HW135225   4.002   0.138   1.811  1.3031 -2.7093 -0.1272
 7863SOL    HW235226   3.943   0.207   1.923 -0.2759  0.2385 -1.0019
 7864SOL     OW35227   0.869   3.712  12.784 -0.1454 -0.2673  0.0112
 7864SOL    HW135228   0.858   3.781  12.850  1.2640  0.3940 -0.4433
 7864SOL    HW235229   0.956   3.737  12.753  0.1351 -0.6120  0.5171
 7865SOL     OW35230   0.192   3.259  13.494 -0.0069  1.0448  0.1735
 7865SOL    HW135231   0.184   3.294  13.583 -1.6124 -0.1477  0.4995
 7865SOL    HW235232   0.286   3.243  13.484 -0.3666 -1.8360  1.3616
 7866SOL     OW35233   0.315   3.852   2.978 -0.1352  0.0758 -0.1638
 7866SOL    HW135234   0.270   3.907   3.042  2.2364  1.3195  0.4488
 7866SOL    HW235235   0.308   3.893   2.892  1.2761 -0.6514 -0.6255
 7867SOL     OW35236   0.716   0.642   6.073 -0.0512  0.1977 -0.4212
 7867SOL    HW135237   0.641   0.631   6.132 -0.0705  0.9834 -0.3007
 7867SOL    HW235238   0.686   0.714   6.017  2.6785  0.7797 -1.0897
 7868SOL     OW35239   4.595   2.972  12.363 -0.6329  0.1634 -0.6910
 7868SOL    HW135240   4.537   3.016  12.425 -0.7322  1.3155 -1.6057
 7868SOL    HW235241   4.578   3.024  12.284 -1.1969  3.1160  1.3846
 7869SOL     OW35242   3.081   2.440   6.266  0.4424  0.4820  0.2028
 7869SOL    HW135243   3.153   2.415   6.207 -0.7450 -1.5357 -0.4190
 7869SOL    HW235244   3.100   2.383   6.341 -4.0041  0.8104  1.5249
 7870SOL     OW35245   0.460   1.250   1.462  0.8724 -0.2320 -0.1602
 7870SOL    HW135246   0.444   1.295   1.545 -2.0460  0.0915 -0.8790
 7870SOL    HW235247   0.509   1.316   1.413  0.8272 -0.5441 -0.6271
 7871SOL     OW35248   2.193   0.085   2.378 -0.0824 -0.1778  0.6870
 7871SOL    HW135249   2.114   0.035   2.360  0.9552 -1.1371 -1.1577
 7871SOL    HW235250   2.176   0.175   2.352  1.7289  0.3701  1.3826
 7872SOL     OW35251   4.041   4.608   3.833  0.2547  0.2135  0.5277
 7872SOL    HW135252   4.009   4.692   3.803 -0.8133 -0.3749  0.0292
 7872SOL    HW235253   4.118   4.633   3.884 -0.6352  0.0519  1.9557
 7873SOL     OW35254   1.708   1.290  12.803  0.0150  0.4682 -0.3485
 7873SOL    HW135255   1.716   1.238  12.883  1.8059  0.4088 -0.5690
 7873SOL    HW235256   1.648   1.240  12.747 -0.3724  1.8281 -1.1439
 7874SOL     OW35257   2.776   2.357  12.336  0.5509 -0.1009  0.1516
 7874SOL    HW135258   2.871   2.366  12.336  0.7298 -2.0455 -0.4553
 7874SOL    HW235259   2.780   2.286  12.272  0.2697  1.1943 -1.2904
 7875SOL     OW35260   0.827   0.393   9.081  0.3155  0.4737 -0.6212
 7875SOL    HW135261   0.812   0.380   9.175  0.4273  3.8190 -0.1362
 7875SOL    HW235262   0.845   0.487   9.080 -1.5415  0.8463  0.9843
 7876SOL     OW35263   4.230   4.210   4.828 -0.5645  0.1007 -0.5108
 7876SOL    HW135264   4.251   4.213   4.922 -0.1429 -1.6276 -0.5455
 7876SOL    HW235265   4.315   4.194   4.789  0.3005  0.8159  1.0731
 7877SOL     OW35266   1.535   0.619   8.399 -0.0958 -0.0291 -0.2882
 7877SOL    HW135267   1.485   0.606   8.318  0.6947 -0.1464 -0.7500
 7877SOL    HW235268   1.528   0.533   8.439 -0.0477 -0.4907 -1.2729
 7878SOL     OW35269   3.789   4.101   2.269 -0.1270 -0.0011  0.5073
 7878SOL    HW135270   3.776   4.025   2.326 -1.8882  0.3946  0.6537
 7878SOL    HW235271   3.868   4.135   2.311  0.2492 -1.7076  1.1673
 7879SOL     OW35272   3.859   1.532   3.491  0.2598 -0.8733 -0.3361
 7879SOL    HW135273   3.948   1.499   3.502  0.2530 -1.0440 -0.7863
 7879SOL    HW235274   3.814   1.509   3.572 -1.4624 -0.4628 -1.1764
 7880SOL     OW35275   2.314   4.162   7.121 -0.1874 -0.1455  0.4449
 7880SOL    HW135276   2.278   4.249   7.139 -2.2101 -0.6632 -1.2434
 7880SOL    HW235277   2.369   4.182   7.045 -0.6814 -0.2764  0.0596
 7881SOL     OW35278   1.343   4.655   8.624 -0.4471  0.4404 -0.0040
 7881SOL    HW135279   1.435   4.638   8.643 -0.8350  0.2456  1.7431
 7881SOL    HW235280   1.336   0.009   8.609 -0.0371  0.1909 -1.7724
 7882SOL     OW35281   0.079   0.346   7.421 -0.0263  0.2032  0.0867
 7882SOL    HW135282   0.136   0.269   7.416 -1.4763 -0.8962  0.3445
 7882SOL    HW235283   0.122   0.410   7.478 -1.9646  0.1408  1.6444
 7883SOL     OW35284   1.341   2.841   5.813  0.0649 -0.4731 -0.0913
 7883SOL    HW135285   1.254   2.846   5.853 -0.2586 -2.8460 -0.5365
 7883SOL    HW235286   1.381   2.903   5.874 -0.7132  0.4560 -0.5071
 7884SOL     OW35287   0.144   2.861  16.266  0.3650 -0.0892 -0.4269
 7884SOL    HW135288   0.221   2.890  16.217  0.0936  0.4173 -0.5476
 7884SOL    HW235289   0.183   2.830  16.348 -1.2598 -1.7355 -0.2736
 7885SOL     OW35290   4.602   4.090   3.997 -0.4951 -0.4696 -0.3112
 7885SOL    HW135291   4.635   4.009   4.036 -2.5543 -0.6760  0.9886
 7885SOL    HW235292   4.637   4.076   3.909  0.1434 -0.9831  0.0215
 7886SOL     OW35293   3.102   4.226   4.421 -0.2467  0.0475  0.0152
 7886SOL    HW135294   3.101   4.134   4.449 -1.8533 -0.1383 -0.6561
 7886SOL    HW235295   3.195   4.244   4.440 -0.1586  0.4739 -0.8535
 7887SOL     OW35296   0.350   3.753   7.593 -0.3543  0.4108 -0.4530
 7887SOL    HW135297   0.290   3.827   7.591  0.8133  1.2959 -2.4127
 7887SOL    HW235298   0.377   3.759   7.685 -0.5788 -3.0773 -0.1655
 7888SOL     OW35299   0.725   4.471   1.460  0.5057  0.0259 -0.3676
 7888SOL    HW135300   0.662   4.400   1.475  0.6112 -0.7535 -3.5113
 7888SOL    HW235301   0.795   4.428   1.410  0.0183  1.2607 -2.1116
 7889SOL     OW35302   1.397   0.578   2.266 -0.2178  0.2110  0.6147
 7889SOL    HW135303   1.320   0.521   2.261 -1.0451  1.5444 -2.1516
 7889SOL    HW235304   1.354   0.663   2.272 -1.5773 -0.6115  2.5057
 7890SOL     OW35305   2.749   2.531   4.418  0.5010  0.2289  0.3870
 7890SOL    HW135306   2.713   2.479   4.345  3.3080 -0.5401 -0.4430
 7890SOL    HW235307   2.721   2.619   4.391  1.0826  0.4185  0.4097
 7891SOL     OW35308   0.127   2.457  11.619 -0.1058  0.1438 -0.1058
 7891SOL    HW135309   0.101   2.365  11.629 -0.9261  0.4848  0.8772
 7891SOL    HW235310   0.141   2.476  11.712 -1.8466 -0.6282  0.3106
 7892SOL     OW35311   2.290   0.750   0.538 -0.2504  0.0569  0.4451
 7892SOL    HW135312   2.211   0.794   0.570 -0.3086  0.2734 -0.0127
 7892SOL    HW235313   2.334   0.720   0.618  0.4197 -1.1756 -0.3835
 7893SOL     OW35314   1.231   3.939   9.496  0.4122 -0.1743 -0.5302
 7893SOL    HW135315   1.150   3.938   9.547 -0.1158 -0.5415 -1.3709
 7893SOL    HW235316   1.203   4.003   9.431  0.3213  1.2114  0.8941
 7894SOL     OW35317   2.028   2.441   8.644 -0.0944  0.3916 -0.0017
 7894SOL    HW135318   2.092   2.496   8.689  0.9045 -0.7937  0.0227
 7894SOL    HW235319   2.036   2.362   8.698  0.9391  2.0041  2.2098
 7895SOL     OW35320   3.516   3.141   5.404  0.1608  0.6733  0.5019
 7895SOL    HW135321   3.503   3.162   5.497  0.2427 -1.2588  0.9634
 7895SOL    HW235322   3.586   3.202   5.382 -0.3868  0.7433 -1.0145
 7896SOL     OW35323   4.342   2.399  10.376 -0.3388 -0.7765 -0.2101
 7896SOL    HW135324   4.419   2.413  10.321 -1.0762 -1.0843 -1.3090
 7896SOL    HW235325   4.278   2.454  10.332  1.4568  1.2768 -0.2955
 7897SOL     OW35326   0.074   3.110   5.996 -0.0301  0.3129 -0.4331
 7897SOL    HW135327   0.030   3.147   6.072 -1.1443  0.8743 -1.3612
 7897SOL    HW235328   0.005   3.110   5.930  0.5058  0.0795 -1.0045
 7898SOL     OW35329   1.333   4.378   9.535  0.2131  0.3921  0.0664
 7898SOL    HW135330   1.245   4.341   9.543  0.7494 -1.2849 -1.5871
 7898SOL    HW235331   1.311   4.452   9.479  0.4411 -1.1275 -2.0754
 7899SOL     OW35332   2.189   0.533  13.383  0.3259 -0.3041 -0.6585
 7899SOL    HW135333   2.149   0.455  13.422  0.3366 -0.0633 -0.1695
 7899SOL    HW235334   2.137   0.602  13.425  0.4446 -2.0102  2.2720
 7900SOL     OW35335   2.847   3.047   1.501  0.0772  0.5051  0.4998
 7900SOL    HW135336   2.834   3.044   1.595  1.2485  2.4896  0.7112
 7900SOL    HW235337   2.935   3.013   1.490 -0.5175 -0.7502 -0.4300
 7901SOL     OW35338   1.408   4.621   9.840  0.3300 -0.2975  0.4429
 7901SOL    HW135339   1.468   4.570   9.785 -1.5824 -1.0436 -0.9238
 7901SOL    HW235340   1.320   4.594   9.817  0.7211  0.1449 -1.5801
 7902SOL     OW35341   2.176   0.956   9.335 -0.0788  0.0062  0.4198
 7902SOL    HW135342   2.120   0.915   9.401  0.1040  1.6300  1.5768
 7902SOL    HW235343   2.188   0.877   9.281 -0.8346  1.0709 -1.3057
 7903SOL     OW35344   0.309   0.905   7.603 -0.1366 -0.6318 -0.6722
 7903SOL    HW135345   0.319   0.819   7.644 -0.8610 -0.1986  0.4093
 7903SOL    HW235346   0.269   0.894   7.517  1.0452 -0.1982 -1.2783
 7904SOL     OW35347   2.636   3.083   0.770  0.0901  0.1146  0.1071
 7904SOL    HW135348   2.651   3.147   0.701 -2.0093 -0.1294 -0.5860
 7904SOL    HW235349   2.723   3.042   0.774  1.1855  2.3855 -0.8849
 7905SOL     OW35350   3.596   3.923   5.930  0.4871 -0.2124 -0.4117
 7905SOL    HW135351   3.611   3.904   6.022  1.2162  0.2439 -0.4320
 7905SOL    HW235352   3.674   3.875   5.902 -0.2934 -1.1908 -0.8940
 7906SOL     OW35353   4.002   3.447  11.003  0.0195  0.0743 -0.4894
 7906SOL    HW135354   3.988   3.374  10.944 -1.3079  0.9468 -1.2368
 7906SOL    HW235355   4.041   3.508  10.940 -0.6529 -0.8670 -1.8077
 7907SOL     OW35356   1.721   0.938  16.965 -0.8782 -0.4926 -0.0519
 7907SOL    HW135357   1.806   0.961  17.002 -0.4064 -1.2911 -0.6360
 7907SOL    HW235358   1.673   1.016  16.992 -0.6255 -0.4390  0.2429
 7908SOL     OW35359   1.915   4.574   8.978  0.6398 -0.3515  0.8394
 7908SOL    HW135360   1.967   4.537   8.907  0.8974 -0.3708  1.0423
 7908SOL    HW235361   1.971   4.632   9.029  0.8025 -0.4860  0.8117
 7909SOL     OW35362   1.652   2.244   5.649  0.0496  0.2672  0.0913
 7909SOL    HW135363   1.710   2.281   5.582 -0.5059 -0.3124 -0.7059
 7909SOL    HW235364   1.642   2.324   5.701  0.2028 -0.7088  1.6163
 7910SOL     OW35365   3.881   1.108   7.488 -0.2614 -0.4617 -0.3285
 7910SOL    HW135366   3.813   1.066   7.540 -0.8221 -0.1019 -0.7647
 7910SOL    HW235367   3.870   1.067   7.403 -1.0324 -2.5245  0.7858
 7911SOL     OW35368   2.462   0.122   9.133 -0.0566  0.0777  0.1636
 7911SOL    HW135369   2.534   0.184   9.134  1.0980 -1.3341  2.9523
 7911SOL    HW235370   2.432   0.129   9.042  1.1663 -2.7161 -0.4592
 7912SOL     OW35371   3.964   1.039   0.034 -0.1679 -0.4948 -0.0709
 7912SOL    HW135372   3.942   0.947   0.020 -1.5399 -0.2822  0.6609
 7912SOL    HW235373   4.005   1.050  17.706 -0.6907 -0.6056 -0.3376
 7913SOL     OW35374   1.996   1.462   3.089 -0.3082 -0.2768 -0.1367
 7913SOL    HW135375   2.085   1.495   3.072 -0.7818  1.6136  0.9946
 7913SOL    HW235376   1.942   1.508   3.025  1.4093  1.8373 -0.0988
 7914SOL     OW35377   2.914   2.042   6.209  0.3788  0.4079  0.0763
 7914SOL    HW135378   2.943   2.121   6.164  0.3311 -0.2012 -1.0320
 7914SOL    HW235379   2.843   2.012   6.152 -0.7387 -0.9091  2.1874
 7915SOL     OW35380   4.398   1.584   6.866  0.5255 -0.3510 -0.3944
 7915SOL    HW135381   4.422   1.624   6.782 -0.4842  0.3297 -0.3578
 7915SOL    HW235382   4.485   1.592   6.904  1.5855 -0.8222 -2.7093
 7916SOL     OW35383   2.603   1.734   4.150 -0.3476 -0.1700 -0.3129
 7916SOL    HW135384   2.669   1.709   4.215  1.1168  2.1754 -0.8903
 7916SOL    HW235385   2.537   1.775   4.205  0.3238 -0.5946  0.8105
 7917SOL     OW35386   2.756   1.323   2.914 -0.0533 -0.6296 -0.0232
 7917SOL    HW135387   2.766   1.298   3.006 -2.1977  1.9655  0.9194
 7917SOL    HW235388   2.776   1.417   2.919 -0.6475 -0.4243 -1.6567
 7918SOL     OW35389   4.043   1.435  14.783  0.0390  0.6985 -0.1546
 7918SOL    HW135390   4.122   1.407  14.828  0.4465  0.5905 -0.9378
 7918SOL    HW235391   4.088   1.493  14.721  1.2738 -0.5717 -0.4314
 7919SOL     OW35392   4.652   2.424   5.297 -0.0022  0.0647 -0.2228
 7919SOL    HW135393   4.648   2.406   5.204  1.7598 -0.3860 -0.1978
 7919SOL    HW235394   4.579   2.485   5.310  0.5548  0.2807  2.0153
 7920SOL     OW35395   4.334   1.127   1.673  0.3740 -0.2987  0.1391
 7920SOL    HW135396   4.248   1.086   1.669  0.6562 -0.7659 -1.1686
 7920SOL    HW235397   4.401   1.065   1.702  0.8876  0.1274 -0.1420
 7921SOL     OW35398   1.036   1.787   6.220  0.0170 -0.3487 -0.1073
 7921SOL    HW135399   0.959   1.824   6.177 -1.3445 -1.1095  1.6733
 7921SOL    HW235400   1.006   1.697   6.206  1.9683 -0.8470 -1.0983
 7922SOL     OW35401   2.635   0.911  11.168  0.1377  0.0458  0.3554
 7922SOL    HW135402   2.544   0.918  11.197  0.1265  0.2570  0.2662
 7922SOL    HW235403   2.684   0.888  11.247 -1.2750  0.0625  1.2335
 7923SOL     OW35404   0.736   2.620  10.443  0.3826 -0.0272  0.2332
 7923SOL    HW135405   0.710   2.697  10.495  2.8598  0.1212  1.2622
 7923SOL    HW235406   0.698   2.549  10.495  1.3529 -1.1962 -0.6562
 7924SOL     OW35407   3.597   2.941   1.598 -0.1996  0.1712  0.0271
 7924SOL    HW135408   3.630   3.013   1.652  0.3776 -0.1123  0.0411
 7924SOL    HW235409   3.655   2.872   1.629 -0.1905  0.9802  1.8659
 7925SOL     OW35410   1.951   3.211  15.737  0.2890  0.1302 -0.4113
 7925SOL    HW135411   2.006   3.227  15.661  0.1886  0.3527 -0.4363
 7925SOL    HW235412   1.919   3.124  15.714  1.9685 -1.0155  1.6331
 7926SOL     OW35413   2.595   0.883   3.570 -0.1404 -0.2911  0.1519
 7926SOL    HW135414   2.582   0.792   3.546  0.2035 -0.9624  2.5196
 7926SOL    HW235415   2.549   0.882   3.654  1.9334 -0.4412  1.2943
 7927SOL     OW35416   4.261   0.242   5.188 -1.3098 -0.0039  0.6174
 7927SOL    HW135417   4.342   0.199   5.218 -1.3976 -0.8356 -0.3376
 7927SOL    HW235418   4.265   0.228   5.093  0.2541  3.5277  0.1743
 7928SOL     OW35419   0.305   3.313   7.449  0.0429 -0.7451  0.3041
 7928SOL    HW135420   0.244   3.385   7.466 -0.6929 -0.9495 -1.4956
 7928SOL    HW235421   0.253   3.233   7.443 -0.5457 -0.2661 -0.9599
 7929SOL     OW35422   2.695   3.800  14.258  0.2827  0.0813  0.1460
 7929SOL    HW135423   2.691   3.726  14.196  1.3817 -0.2887  0.5186
 7929SOL    HW235424   2.660   3.747  14.329 -1.9203 -1.1950 -1.8876
 7930SOL     OW35425   1.342   4.628  16.299  0.4153 -0.2345 -0.6947
 7930SOL    HW135426   1.395   4.679  16.360  0.1107 -0.1009 -0.5460
 7930SOL    HW235427   1.406   4.588  16.240  1.2066  1.8326 -1.2259
 7931SOL     OW35428   3.450   3.372  14.223 -0.1228 -0.2667 -0.4015
 7931SOL    HW135429   3.480   3.423  14.298 -1.1141 -0.4841  0.1473
 7931SOL    HW235430   3.392   3.437  14.184 -0.9092 -1.4062 -1.1243
 7932SOL     OW35431   1.300   4.305  12.191 -0.5109 -0.0838 -0.0793
 7932SOL    HW135432   1.249   4.311  12.110  1.7211  0.2150 -1.4572
 7932SOL    HW235433   1.387   4.298  12.154 -1.2938 -0.3231 -1.8802
 7933SOL     OW35434   1.932   1.128   1.764  0.5376 -1.0051 -0.3622
 7933SOL    HW135435   1.870   1.155   1.832  1.2442 -1.0733  0.3043
 7933SOL    HW235436   1.996   1.090   1.824 -0.0764 -0.5977  0.5424
 7934SOL     OW35437   0.016   2.697   5.388 -0.4102 -0.3641 -0.2073
 7934SOL    HW135438   0.037   2.606   5.366  0.3775 -0.9231  2.7685
 7934SOL    HW235439   0.009   2.679   5.482 -1.6509  0.9475 -0.0582
 7935SOL     OW35440   3.028   2.261   6.689 -0.1730 -0.8302  0.7958
 7935SOL    HW135441   3.086   2.277   6.615  1.4497  1.1234  2.4855
 7935SOL    HW235442   2.941   2.241   6.653 -0.6430  0.3492  1.2765
 7936SOL     OW35443   4.378   3.388  13.768  0.1029 -0.2408  0.1558
 7936SOL    HW135444   4.365   3.468  13.819  0.7330  1.0251 -1.6649
 7936SOL    HW235445   4.344   3.411  13.681  1.6959  1.8461  0.0697
 7937SOL     OW35446   0.831   3.175   2.944 -0.2843  0.7773 -0.4555
 7937SOL    HW135447   0.743   3.142   2.959  0.1676  0.1964  0.9616
 7937SOL    HW235448   0.831   3.176   2.848 -2.3509 -1.3340 -0.4612
 7938SOL     OW35449   3.967   3.723  12.645  0.4022 -0.2287  0.1509
 7938SOL    HW135450   3.911   3.776  12.702  0.4358  0.1618 -0.1764
 7938SOL    HW235451   4.034   3.785  12.615  1.1251 -0.3389  1.5396
 7939SOL     OW35452   0.371   3.153   8.753  0.4703 -0.6577  0.0968
 7939SOL    HW135453   0.383   3.108   8.669 -0.0321 -1.0314  0.2232
 7939SOL    HW235454   0.383   3.084   8.818  0.2397 -1.2012 -0.4378
 7940SOL     OW35455   0.059   1.396   3.650  0.0195 -0.2120  0.0520
 7940SOL    HW135456   0.023   1.474   3.608  1.9506  0.6176 -0.0709
 7940SOL    HW235457   4.727   1.377   3.710 -0.2098  0.8700  0.1331
 7941SOL     OW35458   1.830   4.326   1.182  0.1341  0.1908  0.6732
 7941SOL    HW135459   1.885   4.398   1.150  0.8821 -1.0907 -0.9678
 7941SOL    HW235460   1.745   4.351   1.146 -0.6020 -2.4072  0.5369
 7942SOL     OW35461   4.005   4.305   3.424  0.4952 -0.3249  0.2143
 7942SOL    HW135462   4.025   4.367   3.354 -0.8013 -0.4568 -0.2643
 7942SOL    HW235463   4.038   4.365   3.491  2.1394 -1.5419  0.5044
 7943SOL     OW35464   0.043   2.444   4.603 -0.1028  0.0902  0.1524
 7943SOL    HW135465   4.713   2.489   4.651  0.4588  1.3326 -0.1770
 7943SOL    HW235466   0.093   2.522   4.578  0.5579 -0.9508 -1.7544
 7944SOL     OW35467   1.259   1.901   8.440  0.5317 -0.0180 -0.3242
 7944SOL    HW135468   1.240   1.960   8.367  1.5391  0.4699 -0.1997
 7944SOL    HW235469   1.202   1.927   8.512  2.4655  0.9334  0.8608
 7945SOL     OW35470   1.878   2.636   7.772 -0.2032  0.6194  0.1166
 7945SOL    HW135471   1.934   2.650   7.848  0.6492 -1.6918 -0.0868
 7945SOL    HW235472   1.790   2.631   7.810 -1.1386 -0.8865 -2.2105
 7946SOL     OW35473   2.525   2.199   3.995  0.1220  0.2852  0.3971
 7946SOL    HW135474   2.452   2.175   4.052  0.8221 -1.4685  0.5546
 7946SOL    HW235475   2.507   2.293   3.984 -0.7140 -0.0495 -1.1285
 7947SOL     OW35476   0.143   3.935   8.441  0.1419 -0.1614 -1.0076
 7947SOL    HW135477   0.224   3.944   8.391 -0.6163  0.3058 -2.1443
 7947SOL    HW235478   0.083   3.974   8.378 -0.1178 -1.8026 -1.7724
 7948SOL     OW35479   1.334   0.110   7.415 -0.3956 -0.1462 -0.4739
 7948SOL    HW135480   1.340   0.082   7.323  0.7087 -1.9824  0.1670
 7948SOL    HW235481   1.252   0.160   7.416  0.3890  1.1248  0.0740
 7949SOL     OW35482   4.475   1.194   0.920  0.4444  0.2782  0.2226
 7949SOL    HW135483   4.435   1.172   0.836 -0.6957  0.4468  0.7165
 7949SOL    HW235484   4.403   1.203   0.983 -0.6297 -0.8406 -0.8598
 7950SOL     OW35485   1.319   0.222   9.319 -0.3282  0.0800  0.1205
 7950SOL    HW135486   1.238   0.193   9.277  0.6962 -2.4361 -0.1167
 7950SOL    HW235487   1.336   0.152   9.383 -3.6994 -0.5321  0.3686
 7951SOL     OW35488   1.252   4.018   2.583  0.2971 -0.2659  0.0826
 7951SOL    HW135489   1.318   4.065   2.635  0.8161 -0.8413 -0.0537
 7951SOL    HW235490   1.171   4.068   2.575  1.3588  1.7089  1.6056
 7952SOL     OW35491   1.565   3.651   0.383 -0.3004 -0.0596 -0.2110
 7952SOL    HW135492   1.618   3.580   0.416  1.2662  1.6277  0.8882
 7952SOL    HW235493   1.493   3.638   0.444  1.2223 -0.5374  1.4633
 7953SOL     OW35494   3.807   2.498   4.762  0.7479  0.0438  0.0621
 7953SOL    HW135495   3.865   2.446   4.706  0.3452  0.3494 -0.6295
 7953SOL    HW235496   3.804   2.438   4.837  0.5666  0.7345  0.6125
 7954SOL     OW35497   3.231   2.281   9.175  0.3632  0.0984 -0.0379
 7954SOL    HW135498   3.319   2.265   9.208 -0.4197 -1.5783  1.2639
 7954SOL    HW235499   3.177   2.245   9.246  1.3768 -2.1746 -0.4132
 7955SOL     OW35500   2.516   3.936   4.434 -0.5645 -0.5497  0.1420
 7955SOL    HW135501   2.583   4.004   4.430  0.8636 -1.8578  1.7809
 7955SOL    HW235502   2.558   3.879   4.500  1.2744 -1.4388 -1.8021
 7956SOL     OW35503   2.063   2.471  14.203 -0.1041  0.0105 -0.4674
 7956SOL    HW135504   1.989   2.451  14.261 -0.0452  0.2969 -0.2972
 7956SOL    HW235505   2.028   2.538  14.144 -1.8025 -1.2135 -0.8553
 7957SOL     OW35506   1.143   1.645   4.284 -0.0175  0.6384  0.0784
 7957SOL    HW135507   1.113   1.619   4.197 -1.3371  0.0283  0.7071
 7957SOL    HW235508   1.060   1.670   4.325  0.9078  1.3314  1.5436
 7958SOL     OW35509   2.725   2.679   1.218 -0.3223 -0.8696 -0.1372
 7958SOL    HW135510   2.791   2.735   1.177  1.6545 -1.9559  1.5364
 7958SOL    HW235511   2.776   2.629   1.282  3.0710  0.3233 -1.8737
 7959SOL     OW35512   4.161   0.798   7.776  0.7340 -0.0619  0.5214
 7959SOL    HW135513   4.152   0.708   7.745  2.7776 -0.6719  1.6790
 7959SOL    HW235514   4.243   0.795   7.826  0.6698  2.4169  0.7750
 7960SOL     OW35515   4.054   1.485  11.461 -0.2645  0.0835 -0.1985
 7960SOL    HW135516   4.015   1.397  11.462  0.1385 -0.1139 -2.2082
 7960SOL    HW235517   4.003   1.544  11.405 -1.2249 -1.4538 -0.9444
 7961SOL     OW35518   1.600   3.456   8.252 -0.0901  0.5369  0.4760
 7961SOL    HW135519   1.531   3.465   8.318 -1.5160 -0.9505 -0.8190
 7961SOL    HW235520   1.576   3.533   8.200  2.0528  0.4144 -0.6912
 7962SOL     OW35521   0.179   4.094   4.430  0.2550  0.2193 -0.1125
 7962SOL    HW135522   0.220   4.065   4.348  1.4788  0.1389  0.5244
 7962SOL    HW235523   0.170   4.189   4.422  2.9535  0.4525 -0.3689
 7963SOL     OW35524   3.515   2.285   1.962 -0.1940 -0.4741  0.1521
 7963SOL    HW135525   3.458   2.281   1.886  1.2510 -1.1592 -0.8903
 7963SOL    HW235526   3.477   2.348   2.024 -1.7050 -2.5603  1.3434
 7964SOL     OW35527   1.009   1.469   7.072 -0.4558  0.0685 -0.3082
 7964SOL    HW135528   0.981   1.524   6.998 -0.1733  0.9780  0.2584
 7964SOL    HW235529   1.008   1.543   7.133 -1.0697 -0.2108  0.0174
 7965SOL     OW35530   3.180   3.431   7.581  0.2160  0.9069 -0.8855
 7965SOL    HW135531   3.258   3.450   7.529  0.8080 -0.7087 -0.5814
 7965SOL    HW235532   3.209   3.461   7.667  0.4728  1.4880 -1.1698
 7966SOL     OW35533   4.292   0.141  14.531  0.7603 -0.7771  0.6977
 7966SOL    HW135534   4.287   0.237  14.534  0.3192 -0.8834  2.7097
 7966SOL    HW235535   4.199   0.122  14.518  0.7698 -1.8748  2.2276
 7967SOL     OW35536   0.327   2.851   1.819  0.3077 -0.1652  0.0901
 7967SOL    HW135537   0.307   2.798   1.742 -0.8364  0.1388  0.1887
 7967SOL    HW235538   0.301   2.940   1.796 -1.0117 -0.5474  0.1335
 7968SOL     OW35539   3.495   2.880   2.630  0.3612 -0.5307  0.3618
 7968SOL    HW135540   3.507   2.929   2.712  0.7408  1.8925 -1.1501
 7968SOL    HW235541   3.561   2.812   2.648 -1.0571 -2.0046 -0.0192
 7969SOL     OW35542   4.106   1.933   7.596  0.1287  0.1624 -0.3802
 7969SOL    HW135543   4.192   1.975   7.582  1.1335 -1.8787 -0.2960
 7969SOL    HW235544   4.114   1.851   7.549  1.0319 -0.4433  0.8197
 7970SOL     OW35545   1.607   3.760   3.462  0.4117  0.4899  0.5416
 7970SOL    HW135546   1.537   3.711   3.504  0.4702 -1.1713 -1.3220
 7970SOL    HW235547   1.680   3.711   3.501  0.4826  0.0311 -0.1709
 7971SOL     OW35548   1.454   3.894   9.624 -0.5377 -0.3579  0.1092
 7971SOL    HW135549   1.472   3.970   9.679  2.4282 -1.1325  0.2193
 7971SOL    HW235550   1.370   3.922   9.588  1.3942  3.9365 -1.0701
 7972SOL     OW35551   3.822   3.888   3.079  0.0004  0.1375  0.3095
 7972SOL    HW135552   3.780   3.803   3.082  0.0755  0.1062  0.4490
 7972SOL    HW235553   3.773   3.954   3.129 -1.5391  0.9127 -2.2161
 7973SOL     OW35554   4.019   2.541   7.168 -0.1566  0.0138  0.3623
 7973SOL    HW135555   3.980   2.491   7.096  0.0871  0.2057  0.0996
 7973SOL    HW235556   4.097   2.486   7.175 -0.6697 -0.6136  1.1512
 7974SOL     OW35557   2.840   4.612   0.787 -0.4213  0.5004 -0.1290
 7974SOL    HW135558   2.934   4.628   0.787 -0.3159 -0.1545  1.6147
 7974SOL    HW235559   2.807   4.662   0.862  1.4845  0.4457  0.7350
 7975SOL     OW35560   0.617   1.485   7.905  0.1263  0.0651  0.0185
 7975SOL    HW135561   0.705   1.450   7.892 -0.2503 -0.5035 -0.9877
 7975SOL    HW235562   0.586   1.487   7.814  2.0370  1.8765 -0.5951
 7976SOL     OW35563   2.677   1.570   8.194  0.2866  0.4172  0.1030
 7976SOL    HW135564   2.707   1.479   8.194  1.0824  0.6877  2.3483
 7976SOL    HW235565   2.705   1.598   8.108  1.0844  1.3153  0.6579
 7977SOL     OW35566   1.895   3.170   2.598 -0.1607  0.1699  0.7731
 7977SOL    HW135567   1.834   3.225   2.647  1.9222  0.4966  2.9744
 7977SOL    HW235568   1.984   3.200   2.617 -0.2972  2.3975 -2.0808
 7978SOL     OW35569   1.415   1.255   1.123 -0.1592  0.1103 -0.4751
 7978SOL    HW135570   1.379   1.175   1.084  2.5044 -1.8843  1.1396
 7978SOL    HW235571   1.347   1.322   1.121 -0.8851 -0.6345 -1.5044
 7979SOL     OW35572   0.911   1.234  15.256  0.4408  0.1896  0.1514
 7979SOL    HW135573   0.866   1.281  15.327 -1.1544  0.5064 -1.0668
 7979SOL    HW235574   0.911   1.145  15.292 -2.0599 -0.5513 -1.7250
 7980SOL     OW35575   2.770   3.616   8.046 -0.6004  0.4261 -0.0703
 7980SOL    HW135576   2.742   3.567   7.969 -2.3313  1.4416 -0.0800
 7980SOL    HW235577   2.845   3.563   8.073 -0.8930 -1.2774 -2.6549
 7981SOL     OW35578   0.971   3.798  11.587 -0.0374 -0.3279 -0.3260
 7981SOL    HW135579   1.052   3.767  11.628 -1.0108 -2.9193 -0.3400
 7981SOL    HW235580   0.901   3.800  11.652 -0.1045  1.2878 -0.4565
 7982SOL     OW35581   2.840   4.258   8.182  0.2089  0.0541 -0.0807
 7982SOL    HW135582   2.772   4.325   8.189  0.5412  0.3660  0.1434
 7982SOL    HW235583   2.794   4.195   8.126 -1.9194  1.9288 -0.4259
 7983SOL     OW35584   1.367   2.502   7.898  0.4147  0.3327  0.5181
 7983SOL    HW135585   1.379   2.432   7.962  2.1252  0.5224  0.4098
 7983SOL    HW235586   1.377   2.455   7.816 -1.7383  1.8642 -0.6307
 7984SOL     OW35587   2.418   0.253  17.020  0.0452 -0.3498  0.4833
 7984SOL    HW135588   2.353   0.268  17.089 -2.1866  0.6908 -1.8184
 7984SOL    HW235589   2.431   0.339  16.979  0.5141 -0.1560  1.0371
 7985SOL     OW35590   4.591   3.853   1.139  0.4599 -0.1524 -0.8131
 7985SOL    HW135591   4.595   3.764   1.105  0.8922 -0.4059 -0.1067
 7985SOL    HW235592   4.536   3.906   1.081  1.4205  2.1768  0.4105
 7986SOL     OW35593   3.965   0.865   3.694 -0.1621  0.6227 -0.4194
 7986SOL    HW135594   3.891   0.908   3.737 -1.2497 -0.3126 -1.3698
 7986SOL    HW235595   4.015   0.837   3.771  1.5430  1.5268 -1.1957
 7987SOL     OW35596   2.168   2.424   2.024  0.2517  0.3106 -0.0508
 7987SOL    HW135597   2.261   2.433   2.047  0.5196  1.5097 -1.5640
 7987SOL    HW235598   2.133   2.480   2.093 -0.3139  1.1717 -1.0387
 7988SOL     OW35599   1.002   2.170   7.280  1.1121  0.0916 -0.0231
 7988SOL    HW135600   0.938   2.226   7.325  1.2825 -0.0905  0.4525
 7988SOL    HW235601   1.023   2.113   7.354 -1.4996 -1.4784 -0.4973
 7989SOL     OW35602   2.181   4.428   1.863 -0.3012 -0.2956  0.0875
 7989SOL    HW135603   2.193   4.382   1.946 -3.5592  1.0808  1.3164
 7989SOL    HW235604   2.110   4.487   1.887 -0.4452 -0.1122 -0.7792
 7990SOL     OW35605   2.309   0.122   7.308  0.3131 -0.3047 -0.1752
 7990SOL    HW135606   2.390   0.171   7.323 -0.5383  0.9367  0.3574
 7990SOL    HW235607   2.255   0.163   7.376  2.1129  1.3636  0.2458
 7991SOL     OW35608   3.811   2.869   8.301 -0.2013  0.3264  0.1359
 7991SOL    HW135609   3.730   2.842   8.343 -0.8693  0.5416 -1.0051
 7991SOL    HW235610   3.842   2.782   8.273 -1.3854 -0.0479 -0.0255
 7992SOL     OW35611   2.227   2.002   6.844  0.1796 -0.0364  0.0536
 7992SOL    HW135612   2.317   1.970   6.846  0.0591 -0.2453  2.1831
 7992SOL    HW235613   2.248   2.096   6.841  0.3791 -0.1088 -0.6074
 7993SOL     OW35614   3.333   2.302  13.376 -0.0262 -0.2070 -0.2984
 7993SOL    HW135615   3.403   2.365  13.389  0.1775 -0.9736  2.3064
 7993SOL    HW235616   3.377   2.224  13.410 -1.8348 -0.7787  0.7389
 7994SOL     OW35617   0.194   4.407   7.261  0.3651 -0.1430  0.7119
 7994SOL    HW135618   0.188   4.491   7.307  0.6114 -0.6864  1.7373
 7994SOL    HW235619   0.136   4.420   7.186 -0.3172  0.1329  1.2892
 7995SOL     OW35620   2.686   0.881   1.636  0.4509 -0.1293  0.1531
 7995SOL    HW135621   2.772   0.916   1.613 -0.5384  0.9863 -1.9114
 7995SOL    HW235622   2.704   0.790   1.613 -0.1376 -0.3716  0.6531
 7996SOL     OW35623   2.285   0.126   0.198 -0.3322 -0.5090 -0.7581
 7996SOL    HW135624   2.332   0.077   0.130 -0.6488 -0.6016 -0.9109
 7996SOL    HW235625   2.220   0.176   0.149  0.2777 -0.0660 -1.1312
 7997SOL     OW35626   3.625   3.346   3.617 -0.8691  0.2796 -0.5456
 7997SOL    HW135627   3.684   3.280   3.654 -0.8949 -0.0019 -1.0047
 7997SOL    HW235628   3.548   3.295   3.591 -0.6176 -0.7678  0.7576
 7998SOL     OW35629   0.632   2.666   4.883 -0.3289 -0.3347  0.4449
 7998SOL    HW135630   0.656   2.756   4.860 -4.1196 -0.0283 -2.2686
 7998SOL    HW235631   0.724   2.643   4.874  0.2116  1.8906  0.2517
 7999SOL     OW35632   2.578   0.313   8.871 -0.2330  0.0381 -0.6172
 7999SOL    HW135633   2.529   0.381   8.916 -1.9387 -0.6722 -1.4156
 7999SOL    HW235634   2.667   0.339   8.896 -0.0382 -0.0867 -1.1930
 8000SOL     OW35635   0.168   3.740  11.314 -0.3841 -0.3767 -0.6615
 8000SOL    HW135636   0.154   3.834  11.326 -0.6609 -0.3478 -1.1724
 8000SOL    HW235637   0.090   3.697  11.349 -0.6421  0.3897 -0.2956
 8001SOL     OW35638   4.272   0.993   5.302  0.1787  0.5440 -0.7148
 8001SOL    HW135639   4.229   0.914   5.268 -0.9962  0.9137 -0.0909
 8001SOL    HW235640   4.337   1.013   5.235 -0.1710  0.4558 -1.0849
 8002SOL     OW35641   2.159   3.649   3.132 -0.3583 -0.1242 -0.2995
 8002SOL    HW135642   2.253   3.661   3.147 -0.4151  1.9900 -1.6675
 8002SOL    HW235643   2.143   3.555   3.146  1.4840 -0.1975  1.3281
 8003SOL     OW35644   1.354   3.905   3.877  0.3533  0.0131  0.7151
 8003SOL    HW135645   1.443   3.915   3.842  0.8290  0.0865  1.9707
 8003SOL    HW235646   1.364   3.837   3.943 -0.5724 -2.1235 -1.3386
 8004SOL     OW35647   0.349   4.122  16.245  0.3525  0.2958 -0.2460
 8004SOL    HW135648   0.373   4.098  16.334  2.0428 -1.1180 -1.0938
 8004SOL    HW235649   0.279   4.060  16.227 -0.6702  0.8620  1.8110
 8005SOL     OW35650   3.311   1.479   3.913 -0.1831 -0.0498 -0.0532
 8005SOL    HW135651   3.221   1.455   3.892  0.3374 -1.0639 -1.1579
 8005SOL    HW235652   3.346   1.506   3.828 -0.4244 -0.1876 -0.1963
 8006SOL     OW35653   0.814   4.302   5.945  0.4479 -0.1220 -0.3964
 8006SOL    HW135654   0.869   4.238   5.989 -1.8850  0.0645  2.7969
 8006SOL    HW235655   0.842   4.380   5.994  1.5744 -0.3458 -0.6816
 8007SOL     OW35656   1.312   4.203  10.053 -0.3506  0.0002 -0.4546
 8007SOL    HW135657   1.246   4.232  10.115 -0.8503  0.1207 -1.0448
 8007SOL    HW235658   1.393   4.189  10.103 -0.7979  0.6564  0.4543
 8008SOL     OW35659   0.354   0.799   6.975 -0.6417 -0.1643 -0.0034
 8008SOL    HW135660   0.386   0.865   7.037  1.4417 -0.2455 -0.9914
 8008SOL    HW235661   0.425   0.783   6.913 -0.4589  0.8724 -0.0605
 8009SOL     OW35662   1.179   3.735   2.861  0.2118  0.1187 -0.2368
 8009SOL    HW135663   1.145   3.682   2.933  2.6098  0.1042  0.8728
 8009SOL    HW235664   1.132   3.685   2.794  1.1571 -0.7664 -0.2450
 8010SOL     OW35665   1.799   1.086  15.838 -0.2184 -0.3210 -0.7951
 8010SOL    HW135666   1.708   1.099  15.813 -0.7263  0.6391  1.5964
 8010SOL    HW235667   1.801   1.009  15.895 -0.8842 -0.5712 -1.1147
 8011SOL     OW35668   2.577   3.802   4.682 -0.5545 -0.0521 -0.1038
 8011SOL    HW135669   2.591   3.887   4.725 -0.6620  0.9326 -1.9967
 8011SOL    HW235670   2.483   3.786   4.686 -0.3141 -1.4113  0.1572
 8012SOL     OW35671   1.155   3.720   7.253  0.1654 -0.4083 -0.1365
 8012SOL    HW135672   1.240   3.730   7.211 -0.0385 -0.9120 -0.6680
 8012SOL    HW235673   1.135   3.639   7.205 -2.9531  1.6037 -2.2385
 8013SOL     OW35674   3.535   4.360   4.669 -0.5170 -0.1449 -0.1054
 8013SOL    HW135675   3.460   4.336   4.614  0.2186 -0.2029 -1.0850
 8013SOL    HW235676   3.523   4.454   4.654  0.2345 -0.0130  0.1386
 8014SOL     OW35677   2.963   2.839   7.206  0.6855 -0.1620  0.0900
 8014SOL    HW135678   3.007   2.858   7.289  2.9536  1.3877 -1.4537
 8014SOL    HW235679   2.942   2.925   7.170  2.0423 -0.0927 -0.5512
 8015SOL     OW35680   2.019   0.787   7.043  0.0314  0.1543 -0.4542
 8015SOL    HW135681   2.109   0.780   7.072  1.2401  1.3186 -3.8336
 8015SOL    HW235682   2.017   0.869   6.993 -0.0308  0.3021 -0.2120
 8016SOL     OW35683   1.857   2.446   5.002 -0.8014  0.4712 -0.4808
 8016SOL    HW135684   1.898   2.491   5.076 -2.0741  1.6640 -0.5023
 8016SOL    HW235685   1.899   2.362   5.021  1.5769  1.4544 -1.3538
 8017SOL     OW35686   3.067   1.878   3.856  0.5602  0.1565 -0.1069
 8017SOL    HW135687   3.160   1.898   3.844  1.0254 -0.5849  2.2713
 8017SOL    HW235688   3.025   1.961   3.833  0.2231 -0.0905 -0.3617
 8018SOL     OW35689   2.161   2.432   7.647  0.2600  0.1046  0.0404
 8018SOL    HW135690   2.105   2.399   7.718 -0.5810 -0.1451 -0.7415
 8018SOL    HW235691   2.113   2.394   7.574 -0.8137 -0.7959  1.2030
 8019SOL     OW35692   0.439   3.002   3.453  0.5810 -0.2717  0.2427
 8019SOL    HW135693   0.470   3.088   3.424  0.7917 -1.4210 -2.9103
 8019SOL    HW235694   0.350   2.992   3.419  0.6766 -0.0503 -0.0715
 8020SOL     OW35695   2.524   0.727  14.911 -0.0952 -0.1151 -0.1166
 8020SOL    HW135696   2.439   0.756  14.944 -0.1327  0.7525 -0.9708
 8020SOL    HW235697   2.549   0.674  14.986  1.4607 -0.8742 -1.1574
 8021SOL     OW35698   1.314   3.595  14.262 -0.2355 -0.2837 -0.5475
 8021SOL    HW135699   1.220   3.603  14.245 -0.0441  1.9247 -0.6033
 8021SOL    HW235700   1.331   3.506  14.231 -0.8186 -0.8161  0.6502
 8022SOL     OW35701   1.272   3.784  14.960  0.3870 -0.4111 -0.3109
 8022SOL    HW135702   1.328   3.826  14.894 -1.0775 -0.0176 -1.3109
 8022SOL    HW235703   1.283   3.832  15.042  2.1131 -1.4548  0.0557
 8023SOL     OW35704   2.041   1.350  15.575 -0.1144 -0.3272 -0.4509
 8023SOL    HW135705   2.105   1.418  15.594 -0.8851  1.0947 -2.9496
 8023SOL    HW235706   2.035   1.362  15.480  0.1205 -0.2738 -0.4583
 8024SOL     OW35707   0.530   1.318  13.364 -0.2984 -0.6172  0.8753
 8024SOL    HW135708   0.455   1.311  13.305 -0.2712 -2.3803  1.0474
 8024SOL    HW235709   0.542   1.225  13.381  0.9071 -0.4406  0.9444
 8025SOL     OW35710   1.455   0.396   8.545  0.1554 -0.0707  0.3275
 8025SOL    HW135711   1.490   0.363   8.628  1.8983  0.7049 -0.0918
 8025SOL    HW235712   1.402   0.319   8.528  1.1709 -0.8819  0.8509
 8026SOL     OW35713   1.218   4.385   1.082  0.1762  0.8051 -0.0233
 8026SOL    HW135714   1.206   4.321   1.153 -0.0930 -2.5829 -3.1425
 8026SOL    HW235715   1.180   4.337   1.009  1.6260 -1.7774  0.9180
 8027SOL     OW35716   0.624   2.765   5.153 -0.2265  0.0081 -0.0126
 8027SOL    HW135717   0.636   2.722   5.068 -2.3350  1.9888 -1.3268
 8027SOL    HW235718   0.542   2.812   5.139  0.0541  0.3742 -0.4479
 8028SOL     OW35719   2.965   4.485   7.886  0.3894 -0.0827 -0.0429
 8028SOL    HW135720   2.965   4.391   7.904  0.1164 -0.0681  0.0317
 8028SOL    HW235721   3.003   4.498   7.800  1.4789 -0.0413  0.4466
 8029SOL     OW35722   3.982   2.187  10.397  0.2225  0.4094  0.0088
 8029SOL    HW135723   3.949   2.116  10.452 -0.9876  0.3094 -0.8647
 8029SOL    HW235724   3.923   2.256  10.426 -1.2506 -0.0168 -2.0033
 8030SOL     OW35725   1.126   3.668   1.372 -0.5482 -0.1220  0.1477
 8030SOL    HW135726   1.065   3.599   1.345 -0.5863  0.4857 -1.3245
 8030SOL    HW235727   1.210   3.624   1.362  0.0134  1.1800 -0.8388
 8031SOL     OW35728   3.901   4.281   6.319 -0.3003 -0.5797  0.5269
 8031SOL    HW135729   3.952   4.201   6.333 -0.3280 -1.0490 -1.9982
 8031SOL    HW235730   3.876   4.308   6.407 -1.1595  3.5077 -0.9927
 8032SOL     OW35731   3.624   4.511   5.028 -0.1360 -0.5302 -0.3492
 8032SOL    HW135732   3.690   4.523   5.096 -3.8885  2.5408  2.7277
 8032SOL    HW235733   3.609   4.603   5.008 -0.9863 -0.5164  0.3616
 8033SOL     OW35734   3.693   0.328   6.030 -0.3409  0.4121  0.0081
 8033SOL    HW135735   3.727   0.257   5.975 -0.7589  0.4767 -0.3260
 8033SOL    HW235736   3.634   0.272   6.080 -1.4455  0.0969 -1.6735
 8034SOL     OW35737   0.497   0.065   0.712 -0.0230  0.1525  0.0869
 8034SOL    HW135738   0.535   4.729   0.668 -0.9898  0.3671 -1.1390
 8034SOL    HW235739   0.567   0.087   0.774  2.4148  0.3971 -2.7407
 8035SOL     OW35740   3.953   3.132  13.368  0.0747  0.2015 -0.5214
 8035SOL    HW135741   3.915   3.086  13.293 -0.9651 -2.1107  1.4097
 8035SOL    HW235742   4.044   3.145  13.341  0.4293  1.8632  1.4531
 8036SOL     OW35743   3.945   3.859  11.573  0.1465  0.5078  0.5937
 8036SOL    HW135744   3.856   3.824  11.580  0.8585 -1.0552  1.6584
 8036SOL    HW235745   3.925   3.946  11.538 -0.6775 -1.0016 -2.7344
 8037SOL     OW35746   0.070   0.134   4.776  0.0329  0.0733 -0.2372
 8037SOL    HW135747   0.024   0.158   4.856  1.4065  1.3028  0.1901
 8037SOL    HW235748   0.085   0.222   4.741  2.2972 -0.8806 -1.7164
 8038SOL     OW35749   3.664   3.510  11.858 -0.4582  0.3677  0.7338
 8038SOL    HW135750   3.569   3.497  11.855 -0.1512 -1.9864  1.6239
 8038SOL    HW235751   3.681   3.494  11.950 -1.1645  0.0273  0.8009
 8039SOL     OW35752   4.714   1.661   6.997 -0.2304  0.1587 -0.0127
 8039SOL    HW135753   4.664   1.740   7.016 -0.5423  0.1416 -0.7404
 8039SOL    HW235754   4.691   1.593   7.060  1.9004  0.0616  0.6399
 8040SOL     OW35755   4.382   3.329   8.321  0.0613  0.6541  0.0075
 8040SOL    HW135756   4.312   3.388   8.348 -2.2080 -1.2267 -1.7943
 8040SOL    HW235757   4.449   3.394   8.300 -0.0055  0.8984  0.5616
 8041SOL     OW35758   2.922   3.609  12.318 -0.5021  0.2548 -0.8343
 8041SOL    HW135759   2.989   3.582  12.381 -1.4833  0.5719  0.3433
 8041SOL    HW235760   2.851   3.631  12.378 -0.1939  0.0035 -0.3835
 8042SOL     OW35761   1.113   2.936  17.620 -0.4606  0.0111 -0.1651
 8042SOL    HW135762   1.124   3.022  17.661 -0.9855 -0.4944  1.0614
 8042SOL    HW235763   1.160   2.957  17.540 -1.2071  0.5740 -0.4600
 8043SOL     OW35764   2.572   1.098   4.202 -0.1373  0.3700 -0.0816
 8043SOL    HW135765   2.560   1.048   4.122 -0.0588  0.8203 -0.3779
 8043SOL    HW235766   2.668   1.095   4.203 -0.1937 -1.3400 -0.8811
 8044SOL     OW35767   1.853   0.732   1.568  0.1354  0.0143 -0.2425
 8044SOL    HW135768   1.942   0.760   1.546 -0.7999  2.1277 -1.3063
 8044SOL    HW235769   1.813   0.819   1.572  0.2451  0.0980 -0.8534
 8045SOL     OW35770   1.226   0.164   1.234  0.4865 -0.3763  0.2079
 8045SOL    HW135771   1.218   0.069   1.227  1.5939 -0.4587  0.0819
 8045SOL    HW235772   1.280   0.178   1.312 -0.3845 -0.2180  0.7834
 8046SOL     OW35773   3.285   4.458   4.052  0.1299  0.3905  0.3143
 8046SOL    HW135774   3.316   4.430   4.138  2.6666 -0.8156 -0.9874
 8046SOL    HW235775   3.369   4.478   4.012  0.2413 -0.2112  0.2418
 8047SOL     OW35776   2.985   1.831   7.405  0.6969  0.2993 -0.3280
 8047SOL    HW135777   3.048   1.776   7.452  2.6820  2.3355 -0.6200
 8047SOL    HW235778   2.922   1.763   7.381  2.3917 -1.0252 -1.0146
 8048SOL     OW35779   0.399   0.820   6.326 -0.6353  0.0118  0.1721
 8048SOL    HW135780   0.370   0.741   6.280  0.2503 -0.5638  0.6238
 8048SOL    HW235781   0.323   0.877   6.311 -0.7696  0.2493  1.7857
 8049SOL     OW35782   2.763   1.609   7.366 -0.6399  0.3836 -0.6215
 8049SOL    HW135783   2.704   1.603   7.441  1.2545 -1.7287  0.7202
 8049SOL    HW235784   2.797   1.519   7.368  1.9553  1.4123  1.3711
 8050SOL     OW35785   2.714   0.666   8.793  0.2051 -0.9064 -0.2400
 8050SOL    HW135786   2.742   0.662   8.885 -1.0319  1.7313  0.2665
 8050SOL    HW235787   2.800   0.647   8.755  0.9263 -1.7584  1.8041
 8051SOL     OW35788   3.844   4.544   5.625 -0.0404  0.6147 -0.5145
 8051SOL    HW135789   3.768   4.540   5.684  0.0949 -1.6275 -0.4842
 8051SOL    HW235790   3.912   4.518   5.687 -1.3022  1.1888  1.1098
 8052SOL     OW35791   0.886   1.264  13.833  0.2165  0.1322 -0.0721
 8052SOL    HW135792   0.878   1.174  13.863  1.0423 -0.1658 -0.7530
 8052SOL    HW235793   0.939   1.255  13.753  0.0824 -0.7255 -0.0647
 8053SOL     OW35794   3.786   3.156   4.481 -0.1609  0.5073  0.1424
 8053SOL    HW135795   3.794   3.065   4.451 -0.2977  0.2131  1.0108
 8053SOL    HW235796   3.860   3.187   4.429 -0.1000 -0.9830 -0.6502
 8054SOL     OW35797   1.025   0.971   8.629 -0.0290 -0.3169  0.0159
 8054SOL    HW135798   1.048   1.033   8.698  2.1524 -1.1303  0.0128
 8054SOL    HW235799   0.929   0.973   8.633  0.0078  3.4999 -0.5637
 8055SOL     OW35800   1.419   2.937  10.381 -0.3370  0.0348 -0.1274
 8055SOL    HW135801   1.330   2.974  10.385  0.3430  1.8416 -1.6561
 8055SOL    HW235802   1.469   3.000  10.329 -0.7806 -0.4916 -1.1948
 8056SOL     OW35803   0.776   3.531  12.416  0.8988 -0.0813  0.4582
 8056SOL    HW135804   0.734   3.574  12.490  1.5923  0.0518  0.7763
 8056SOL    HW235805   0.734   3.588  12.352 -2.2598 -1.9581  0.8406
 8057SOL     OW35806   2.153   0.208  16.189  0.5825 -0.2928 -0.2547
 8057SOL    HW135807   2.062   0.209  16.217  0.1937 -0.1667 -1.5405
 8057SOL    HW235808   2.192   0.213  16.277  0.0823  1.2119 -0.1234
 8058SOL     OW35809   0.642   1.533   4.258 -0.4787  0.2742  0.6877
 8058SOL    HW135810   0.708   1.475   4.296 -0.7392 -0.8331 -0.5438
 8058SOL    HW235811   0.608   1.476   4.188  1.9771  0.1986 -0.4333
 8059SOL     OW35812   3.795   1.690  13.457 -0.0523  0.8813  0.1653
 8059SOL    HW135813   3.783   1.768  13.511 -0.3885  0.7787  0.2381
 8059SOL    HW235814   3.836   1.624  13.512 -1.3253 -1.4421 -1.6745
 8060SOL     OW35815   1.989   3.636   7.505  0.2880  0.4757  0.3085
 8060SOL    HW135816   2.032   3.697   7.565 -0.2573  0.9679  0.1966
 8060SOL    HW235817   1.903   3.627   7.546 -1.3439  2.9744 -2.5665
 8061SOL     OW35818   2.536   4.522   8.633  0.3809  0.1136  0.0592
 8061SOL    HW135819   2.556   4.488   8.546  0.6368  0.5643 -0.0598
 8061SOL    HW235820   2.621   4.510   8.676  0.4248  0.4096  0.0538
 8062SOL     OW35821   0.695   1.525   5.830  0.2445  0.7492  0.2783
 8062SOL    HW135822   0.607   1.551   5.857 -1.0307 -1.5755 -1.6398
 8062SOL    HW235823   0.719   1.591   5.764  2.1825 -0.2726 -0.0518
 8063SOL     OW35824   4.106   2.541   6.349  0.2825  0.0840  0.5509
 8063SOL    HW135825   4.065   2.488   6.417 -1.9962  0.0112 -0.8842
 8063SOL    HW235826   4.046   2.516   6.279  0.4142 -0.1354  0.5154
 8064SOL     OW35827   2.643   4.431   2.057 -0.4620  0.0598  0.6132
 8064SOL    HW135828   2.573   4.390   2.007  1.9356 -1.1285 -1.8215
 8064SOL    HW235829   2.694   4.464   1.983  0.1461 -1.5064  0.3373
 8065SOL     OW35830   0.931   0.480   5.620 -0.3724 -0.1480 -0.1962
 8065SOL    HW135831   0.879   0.505   5.697 -0.8427 -0.6093 -0.3646
 8065SOL    HW235832   0.927   0.385   5.630 -1.3463  0.1636  2.5116
 8066SOL     OW35833   3.781   3.069   3.659 -0.8762  0.4027  0.2078
 8066SOL    HW135834   3.876   3.080   3.666 -1.0093  1.5779  0.1652
 8066SOL    HW235835   3.775   3.003   3.589 -0.4598  0.1850  0.3784
 8067SOL     OW35836   3.237   3.554   8.523  0.2326 -0.4928  0.8025
 8067SOL    HW135837   3.246   3.490   8.594 -0.3258 -1.1028  0.3221
 8067SOL    HW235838   3.221   3.490   8.454 -0.1516 -1.4527  1.7572
 8068SOL     OW35839   0.121   3.244   3.048 -0.2286  0.8085  0.1578
 8068SOL    HW135840   0.120   3.325   2.997 -0.3487  1.7976  1.7300
 8068SOL    HW235841   0.063   3.270   3.119 -1.8725  1.9817 -1.5817
 8069SOL     OW35842   0.206   4.429  15.200 -0.2912 -0.0114  0.2478
 8069SOL    HW135843   0.268   4.376  15.150 -0.7522 -0.7589  0.4564
 8069SOL    HW235844   0.129   4.374  15.184  1.1738 -1.9059 -0.3269
 8070SOL     OW35845   1.615   4.688  13.301 -0.0087  0.2307 -0.4334
 8070SOL    HW135846   1.581   4.603  13.327 -1.5277  0.2764 -2.2061
 8070SOL    HW235847   1.585   4.737  13.378  1.5666  0.2478  0.1593
 8071SOL     OW35848   3.986   1.380   1.819  0.4506 -0.1392 -0.0122
 8071SOL    HW135849   4.014   1.413   1.733 -0.4012  2.4544  0.7157
 8071SOL    HW235850   3.936   1.450   1.861 -0.5724 -0.6653 -0.3262
 8072SOL     OW35851   2.127   1.451  12.645  1.3088 -0.3353 -0.2686
 8072SOL    HW135852   2.187   1.449  12.720 -0.7380 -3.0318  1.3045
 8072SOL    HW235853   2.138   1.364  12.608  0.1850  0.3466 -2.1596
 8073SOL     OW35854   3.557   1.238  16.894 -0.1237 -0.1839 -0.2171
 8073SOL    HW135855   3.495   1.222  16.966 -0.5353 -0.3798 -0.6184
 8073SOL    HW235856   3.502   1.281  16.829  0.2907  1.7878  0.7209
 8074SOL     OW35857   1.701   3.648   6.523  0.0210 -0.2222 -0.4941
 8074SOL    HW135858   1.697   3.716   6.456  0.2813 -0.3462 -0.6358
 8074SOL    HW235859   1.665   3.568   6.487  0.5609 -0.8175  0.2810
 8075SOL     OW35860   3.110   2.718   7.913 -0.0751  0.5215 -0.4308
 8075SOL    HW135861   3.053   2.721   7.990 -0.7398 -0.0595 -0.8957
 8075SOL    HW235862   3.055   2.684   7.843  0.9202 -1.2432 -0.3700
 8076SOL     OW35863   2.688   1.382   5.038 -0.3793  0.4912  0.3518
 8076SOL    HW135864   2.691   1.468   5.080 -1.3716  0.7022 -0.0003
 8076SOL    HW235865   2.707   1.315   5.104  0.3662 -0.6028 -0.9644
 8077SOL     OW35866   0.623   0.033  13.061 -0.0899 -0.5301 -0.3267
 8077SOL    HW135867   0.590   0.049  12.972 -0.0114  0.4361 -0.1826
 8077SOL    HW235868   0.703   4.723  13.047 -0.0004 -0.0463 -1.5373
 8078SOL     OW35869   4.400   1.472   9.277  0.6708 -0.4532  0.0812
 8078SOL    HW135870   4.384   1.566   9.284 -3.8938 -1.1925 -0.4018
 8078SOL    HW235871   4.358   1.444   9.359  0.0584 -0.3568 -0.2017
 8079SOL     OW35872   2.731   4.648   1.866 -0.2265  0.7955  0.2236
 8079SOL    HW135873   2.636   4.649   1.854 -0.1956 -0.5049 -0.1567
 8079SOL    HW235874   2.759   4.684   1.783  1.4983  0.6203  0.7391
 8080SOL     OW35875   1.929   1.054   2.529 -0.0572  0.4864  0.6358
 8080SOL    HW135876   1.886   1.137   2.508  1.8276  0.4264 -3.5660
 8080SOL    HW235877   1.856   0.993   2.536 -0.5611  0.9233 -0.7516
 8081SOL     OW35878   0.518   4.383   3.131  0.3525 -0.0228  0.7306
 8081SOL    HW135879   0.466   4.445   3.080 -0.7049 -0.2143  1.5870
 8081SOL    HW235880   0.464   4.305   3.136  0.7298 -0.5714 -3.8743
 8082SOL     OW35881   1.269   3.432   1.605  1.0376 -0.6414 -0.0591
 8082SOL    HW135882   1.361   3.460   1.606  0.3919  1.5822 -2.4074
 8082SOL    HW235883   1.237   3.475   1.684 -0.8795 -2.3159  0.0501
 8083SOL     OW35884   2.239   4.653  17.236  0.2495  0.3171 -0.0458
 8083SOL    HW135885   2.239   4.578  17.296 -0.8821 -1.2023 -1.9327
 8083SOL    HW235886   2.325   4.631  17.200 -0.1852  2.3102 -2.3054
 8084SOL     OW35887   3.486   3.112  11.539 -0.2650 -0.0382  0.2005
 8084SOL    HW135888   3.555   3.082  11.599 -0.7568  1.7383  1.6852
 8084SOL    HW235889   3.444   3.180  11.592 -1.5844  0.6767 -1.7669
 8085SOL     OW35890   0.490   3.418  16.218  0.6225  0.0832 -0.1515
 8085SOL    HW135891   0.419   3.481  16.227  2.1122  1.7970 -0.4427
 8085SOL    HW235892   0.554   3.455  16.280  0.7165  2.2009 -1.5103
 8086SOL     OW35893   0.793   1.119   3.614 -0.1024 -0.2485 -0.1873
 8086SOL    HW135894   0.802   1.037   3.662  3.4449  0.7856  0.8564
 8086SOL    HW235895   0.767   1.182   3.681 -2.3160 -0.6509 -0.6457
 8087SOL     OW35896   1.035   4.716   3.090 -0.0757 -0.2173 -0.1865
 8087SOL    HW135897   1.028   4.622   3.069 -1.3643  0.6793 -3.7655
 8087SOL    HW235898   1.130   4.708   3.099 -0.2551  0.5027  2.2467
 8088SOL     OW35899   4.392   4.285   1.100 -0.3733  0.1938 -0.0681
 8088SOL    HW135900   4.299   4.280   1.122 -1.0420  1.8761 -2.4809
 8088SOL    HW235901   4.402   4.380   1.094  0.9848  0.0999  0.5221
 8089SOL     OW35902   0.464   3.396  15.933  0.4276 -0.5896  0.5195
 8089SOL    HW135903   0.497   3.416  16.020  1.2805  0.9354 -0.1451
 8089SOL    HW235904   0.372   3.383  15.954  0.4049 -2.3945 -0.7096
 8090SOL     OW35905   3.536   3.616  11.040 -0.5198  0.8961  0.0497
 8090SOL    HW135906   3.548   3.566  11.121  2.0461  0.3072 -0.6716
 8090SOL    HW235907   3.539   3.704  11.076  2.6858  0.3482  1.1629
 8091SOL     OW35908   0.511   3.821   7.065  0.1717  0.4381  1.2063
 8091SOL    HW135909   0.507   3.744   7.122  1.3123 -0.3736  0.1829
 8091SOL    HW235910   0.438   3.793   7.010  0.5036  1.1402  0.4165
 8092SOL     OW35911   2.643   1.434  15.790 -0.1637  0.1788  0.1513
 8092SOL    HW135912   2.680   1.493  15.857 -1.4189  0.0887  0.9194
 8092SOL    HW235913   2.633   1.487  15.711 -0.9009  0.3774  0.3786
 8093SOL     OW35914   0.189   3.161   3.675  0.0895  0.0428 -0.0605
 8093SOL    HW135915   0.127   3.229   3.651 -0.2587  0.6779  2.6165
 8093SOL    HW235916   0.156   3.081   3.634  0.4215  0.4706 -1.1621
 8094SOL     OW35917   0.599   4.529  10.087  0.3484  0.3741  0.3771
 8094SOL    HW135918   0.522   4.560  10.135  1.1068 -0.8645  2.3828
 8094SOL    HW235919   0.675   4.539  10.144 -1.1843  2.4297  2.0355
 8095SOL     OW35920   1.162   3.236   3.120  0.0746 -0.2001  0.0536
 8095SOL    HW135921   1.224   3.307   3.138  1.1520 -0.7254 -1.6521
 8095SOL    HW235922   1.187   3.165   3.179  1.9576  1.0861  0.7942
 8096SOL     OW35923   2.719   3.658   2.206 -0.5773 -0.1436 -0.0160
 8096SOL    HW135924   2.655   3.617   2.264 -1.5704  2.4577  0.7542
 8096SOL    HW235925   2.719   3.753   2.219  1.0156 -0.1739  0.1878
 8097SOL     OW35926   2.023   1.483   4.978 -0.2029  0.0460 -0.1493
 8097SOL    HW135927   2.058   1.400   4.947 -0.9731  0.4508 -2.1377
 8097SOL    HW235928   2.094   1.546   4.968  2.0935 -2.6089 -0.5784
 8098SOL     OW35929   1.711   4.106  12.502 -0.3762  0.0660  0.6070
 8098SOL    HW135930   1.617   4.126  12.500 -0.3359 -0.0477 -1.6040
 8098SOL    HW235931   1.740   4.177  12.560 -1.5342  1.1530 -0.1388
 8099SOL     OW35932   4.069   1.740   4.805  0.0754  0.4449 -0.4606
 8099SOL    HW135933   4.010   1.754   4.879  0.5356 -0.8111  0.1639
 8099SOL    HW235934   4.152   1.778   4.835  0.4742 -0.6121 -0.2080
 8100SOL     OW35935   2.127   0.068   2.931  0.7896  0.6333  0.7656
 8100SOL    HW135936   2.170   0.006   2.991  2.4064 -1.1691 -2.2193
 8100SOL    HW235937   2.171   0.050   2.848  0.6722 -1.3251  1.1248
 8101SOL     OW35938   1.150   1.949   5.101  0.1370 -0.1541 -0.4976
 8101SOL    HW135939   1.235   1.989   5.119  0.2142 -0.8423  0.6928
 8101SOL    HW235940   1.170   1.919   5.013 -1.4492  0.7472 -1.1644
 8102SOL     OW35941   3.262   3.203   2.290  0.4840 -0.3260 -0.4047
 8102SOL    HW135942   3.262   3.299   2.296 -1.7163 -0.4083  1.2063
 8102SOL    HW235943   3.345   3.180   2.332  0.3168  0.4461  0.3355
 8103SOL     OW35944   4.584   2.667   9.114  0.6467  0.2772 -0.1991
 8103SOL    HW135945   4.623   2.611   9.047  1.1515  1.2524 -0.7188
 8103SOL    HW235946   4.660   2.709   9.154  1.4523 -1.6170  0.2685
 8104SOL     OW35947   1.971   3.877   6.483 -0.2043  0.1483 -0.5044
 8104SOL    HW135948   1.988   3.828   6.563  0.9059 -0.9173 -1.3916
 8104SOL    HW235949   1.904   3.829   6.435 -1.0192  2.8202 -2.0380
 8105SOL     OW35950   3.764   1.443  16.474  0.2694  0.1417  0.3582
 8105SOL    HW135951   3.695   1.445  16.407  1.8903  1.7488 -1.2482
 8105SOL    HW235952   3.749   1.361  16.522 -0.9625  1.8715  2.9145
 8106SOL     OW35953   3.313   0.659   6.413  0.2669  0.0330 -0.1738
 8106SOL    HW135954   3.264   0.737   6.441  0.3524  0.4293 -1.1304
 8106SOL    HW235955   3.248   0.590   6.405 -2.6721  2.7171  0.5159
 8107SOL     OW35956   0.027   1.984   6.646  0.0200 -0.3193  0.3412
 8107SOL    HW135957   0.115   2.021   6.650  1.1743 -2.9363 -0.8493
 8107SOL    HW235958   0.047   1.891   6.648  3.0643  0.3801  1.9586
 8108SOL     OW35959   0.428   0.300   0.145 -0.3877 -0.0266 -0.6760
 8108SOL    HW135960   0.416   0.251   0.226  3.8092 -0.6256 -0.4442
 8108SOL    HW235961   0.523   0.309   0.147 -0.4616  1.0554 -1.7537
 8109SOL     OW35962   4.542   1.898   4.078  0.0120  0.1990  0.2843
 8109SOL    HW135963   4.479   1.962   4.112  1.6485  0.7738  2.2275
 8109SOL    HW235964   4.600   1.899   4.154 -0.0521  1.4854  0.3277
 8110SOL     OW35965   3.192   0.994   6.777  0.2846  0.0106  0.3887
 8110SOL    HW135966   3.256   1.062   6.754  1.0243 -0.5715  0.7204
 8110SOL    HW235967   3.172   1.036   6.861 -0.0558 -0.1942  0.4068
 8111SOL     OW35968   0.625   1.457  12.677  0.4045 -0.1164 -0.0106
 8111SOL    HW135969   0.545   1.479  12.629  0.2863 -1.8596 -0.6329
 8111SOL    HW235970   0.649   1.380  12.626 -0.9625 -1.2977  1.1282
 8112SOL     OW35971   0.834   2.226   7.847 -0.5263  0.2202  0.0677
 8112SOL    HW135972   0.920   2.187   7.865  0.1465  1.6076 -0.0985
 8112SOL    HW235973   0.810   2.275   7.925  0.6185 -1.2319  1.3302
 8113SOL     OW35974   1.129   2.325   2.712 -0.0950  0.6547  0.3276
 8113SOL    HW135975   1.218   2.360   2.704  0.2648 -0.3339  0.0575
 8113SOL    HW235976   1.091   2.399   2.664  0.6683  0.2829 -0.8503
 8114SOL     OW35977   1.111   2.852   4.343 -0.6527  0.0190  0.3876
 8114SOL    HW135978   1.020   2.883   4.346 -0.9453 -0.8319  0.1012
 8114SOL    HW235979   1.162   2.902   4.280 -0.0892 -1.8835 -0.6344
 8115SOL     OW35980   3.287   1.349   1.311  0.3205  0.2706  0.1973
 8115SOL    HW135981   3.369   1.309   1.284  0.7180  1.2373 -0.0162
 8115SOL    HW235982   3.259   1.371   1.222  0.7428  1.7216  0.4296
 8116SOL     OW35983   0.996   4.661   7.226  0.2263 -0.1975 -0.2431
 8116SOL    HW135984   0.938   4.719   7.276 -1.5745 -3.0638  0.9685
 8116SOL    HW235985   1.052   4.647   7.303  0.6177 -0.7617 -0.6357
 8117SOL     OW35986   3.790   0.307   2.208 -0.2048  0.0774 -0.4785
 8117SOL    HW135987   3.859   0.343   2.151  1.0060 -0.3481  0.7237
 8117SOL    HW235988   3.832   0.248   2.270 -0.3831  0.3885 -0.0631
 8118SOL     OW35989   4.541   2.189   6.013 -0.7101 -0.0349  0.3030
 8118SOL    HW135990   4.542   2.099   5.980  2.6246 -0.1741  0.7168
 8118SOL    HW235991   4.632   2.208   5.990 -1.8824  5.1810 -0.0390
 8119SOL     OW35992   3.029   1.641   8.918  0.2241 -0.5578 -0.4722
 8119SOL    HW135993   3.009   1.691   8.997  0.4463  0.1619 -0.8755
 8119SOL    HW235994   3.098   1.589   8.960 -0.0236 -0.4576  0.0596
 8120SOL     OW35995   3.231   0.660  10.705 -0.1440  0.6617 -0.0787
 8120SOL    HW135996   3.163   0.699  10.651  0.2516  2.2887  0.6044
 8120SOL    HW235997   3.233   0.721  10.779  1.3089  2.4129 -1.5592
 8121SOL     OW35998   1.010   1.388  13.382  0.7179 -0.2206  0.4051
 8121SOL    HW135999   0.925   1.372  13.342 -0.5219  1.6302  2.2908
 8121SOL    HW236000   1.013   1.484  13.384 -0.8087 -0.1891  0.9479
 8122SOL     OW36001   1.154   3.951   3.672 -0.3701  0.0414 -0.2078
 8122SOL    HW136002   1.210   3.981   3.744 -1.9994  0.7774  0.7481
 8122SOL    HW236003   1.071   3.997   3.685 -0.4563  0.6153 -2.8661
 8123SOL     OW36004   0.862   0.526  17.725  0.0198 -0.2093 -0.0972
 8123SOL    HW136005   0.890   0.616  17.743  1.7114 -0.8634  0.5306
 8123SOL    HW236006   0.776   0.546  17.689 -0.6417  1.0746  2.2099
 8124SOL     OW36007   3.049   2.103  10.172 -0.5667 -0.4185 -0.0954
 8124SOL    HW136008   2.974   2.045  10.156  0.2727 -1.3274 -0.6625
 8124SOL    HW236009   3.093   2.087  10.089  0.2555  0.1747  0.2261
 8125SOL     OW36010   2.661   0.507   7.673  0.4579 -0.5156 -0.2965
 8125SOL    HW136011   2.745   0.507   7.628 -0.6999  0.7517 -2.4416
 8125SOL    HW236012   2.626   0.587   7.635 -0.8713 -0.9153  0.0988
 8126SOL     OW36013   3.537   0.497   3.917  0.0674  0.1307  0.2582
 8126SOL    HW136014   3.602   0.541   3.863 -0.5872 -0.6608 -1.1852
 8126SOL    HW236015   3.556   0.409   3.886 -1.1703 -0.6410  1.6706
 8127SOL     OW36016   2.797   4.600   3.909  0.2187 -0.3552  0.3113
 8127SOL    HW136017   2.825   4.518   3.950  1.6821  1.1531  2.2922
 8127SOL    HW236018   2.740   4.562   3.841  0.7095 -0.7706  0.1296
 8128SOL     OW36019   0.614   0.511   7.803  0.0648 -0.3182  0.5257
 8128SOL    HW136020   0.642   0.470   7.885 -0.0154  0.6345  1.0287
 8128SOL    HW236021   0.698   0.549   7.775  0.3970 -0.1692  1.7200
 8129SOL     OW36022   1.913   0.251   8.608  0.4682 -0.5633 -0.1190
 8129SOL    HW136023   2.005   0.241   8.630  0.6234  2.8719  0.7850
 8129SOL    HW236024   1.882   0.160   8.607 -0.4272 -0.2552 -0.5877
 8130SOL     OW36025   3.384   0.273   4.957  0.6809 -0.1673  0.2206
 8130SOL    HW136026   3.312   0.329   4.984 -0.2251 -0.2413 -2.0659
 8130SOL    HW236027   3.453   0.336   4.976  1.0421 -0.1954 -1.0345
 8131SOL     OW36028   1.747   2.483   6.875  0.1278 -0.1301  0.0167
 8131SOL    HW136029   1.715   2.426   6.805 -0.7044  0.2179  0.1126
 8131SOL    HW236030   1.666   2.523   6.908  0.2454  0.2750 -0.1852
 8132SOL     OW36031   0.936   3.816  15.080 -0.0153  0.1423 -0.8595
 8132SOL    HW136032   0.968   3.761  15.151  0.6570  0.1265 -1.1723
 8132SOL    HW236033   0.942   3.901  15.123 -0.6249 -0.6062  0.7035
 8133SOL     OW36034   2.626   3.256   7.450 -0.2763  0.1304  0.2251
 8133SOL    HW136035   2.590   3.259   7.539  0.4471  1.3768  0.4680
 8133SOL    HW236036   2.599   3.167   7.426  1.1932  0.3272 -2.1081
 8134SOL     OW36037   4.431   2.889  12.801  0.1856  0.3815  0.1522
 8134SOL    HW136038   4.345   2.889  12.760 -0.1634 -3.4727  0.9311
 8134SOL    HW236039   4.477   2.970  12.778  1.5733  0.0413  1.7069
 8135SOL     OW36040   1.954   4.232   2.631 -0.4108 -0.6262 -0.1819
 8135SOL    HW136041   1.995   4.201   2.551 -1.0416 -2.1166  0.0630
 8135SOL    HW236042   1.914   4.151   2.663  3.0579 -2.2005  0.1817
 8136SOL     OW36043   4.475   4.023   4.509 -0.3871 -0.6206 -0.2288
 8136SOL    HW136044   4.471   3.966   4.432 -3.1212  0.6902 -1.0621
 8136SOL    HW236045   4.390   3.999   4.548 -1.0544  0.3197 -1.1106
 8137SOL     OW36046   3.403   1.183   3.169 -0.0390  0.2308 -0.3986
 8137SOL    HW136047   3.483   1.227   3.196 -0.3228  0.0325  0.7483
 8137SOL    HW236048   3.419   1.149   3.081  0.6687 -0.1415 -0.1244
 8138SOL     OW36049   2.793   3.590   4.307 -0.0557 -0.5284  0.4912
 8138SOL    HW136050   2.752   3.591   4.221 -2.6712  0.6645  1.7283
 8138SOL    HW236051   2.759   3.511   4.350 -0.8582 -0.6689 -0.4089
 8139SOL     OW36052   3.994   1.904   1.494  0.4282 -0.6494 -0.9373
 8139SOL    HW136053   3.942   1.932   1.418 -2.0968 -1.6032  0.4625
 8139SOL    HW236054   4.034   1.821   1.467  0.6928 -1.3200  1.5474
 8140SOL     OW36055   0.001   1.345   7.357  0.9123 -0.3076  0.3889
 8140SOL    HW136056   0.022   1.356   7.450  0.9037  1.2205  0.2059
 8140SOL    HW236057   4.676   1.276   7.364  0.7307 -0.1939 -0.2257
 8141SOL     OW36058   1.562   0.697  14.242  0.3707  0.4754  0.3435
 8141SOL    HW136059   1.534   0.645  14.167 -1.3819  0.2215  1.1821
 8141SOL    HW236060   1.625   0.634  14.278  0.1471 -0.7427 -1.4426
 8142SOL     OW36061   3.643   2.786   5.029  0.0456 -0.0861  0.6151
 8142SOL    HW136062   3.596   2.857   4.984  1.7571 -1.4788 -3.3848
 8142SOL    HW236063   3.621   2.809   5.119  2.9765 -0.0032  1.2954
 8143SOL     OW36064   0.274   0.442   9.042 -0.0134 -0.0044  0.3038
 8143SOL    HW136065   0.286   0.477   8.954 -0.5290  0.1283  0.2832
 8143SOL    HW236066   0.258   0.351   9.015 -0.9459  0.1139  0.4681
 8144SOL     OW36067   3.183   0.567   8.504 -0.1220  0.1440 -0.5270
 8144SOL    HW136068   3.246   0.497   8.490 -1.6584 -0.9431 -2.0221
 8144SOL    HW236069   3.194   0.619   8.424  1.1798  0.8942  0.1336
 8145SOL     OW36070   2.220   3.584  16.343  0.2694  0.2208  0.5919
 8145SOL    HW136071   2.315   3.587  16.335  0.2714 -1.1671  0.1054
 8145SOL    HW236072   2.208   3.542  16.258  0.5857  2.1227 -0.4023
 8146SOL     OW36073   3.822   3.273   8.565 -0.7427  0.3879  0.2009
 8146SOL    HW136074   3.734   3.239   8.548  0.6794 -2.8585 -0.7486
 8146SOL    HW236075   3.876   3.210   8.517  1.5777  2.7890 -0.3351
 8147SOL     OW36076   0.218   0.410   8.003 -0.0610 -0.2363  0.4198
 8147SOL    HW136077   0.214   0.333   7.946 -1.2893 -0.3152  0.6237
 8147SOL    HW236078   0.158   0.378   8.070 -1.1616  0.7835 -0.0804
 8148SOL     OW36079   2.306   0.010  12.393 -0.7193 -0.2523  0.8513
 8148SOL    HW136080   2.301   0.089  12.340  0.6786 -0.1668  0.8403
 8148SOL    HW236081   2.249   4.691  12.345 -0.5486  2.1820 -2.3805
 8149SOL     OW36082   4.046   4.644   2.056  0.5921  0.0811  0.5142
 8149SOL    HW136083   3.966   4.695   2.044  0.3505 -1.0860 -2.7508
 8149SOL    HW236084   4.081   4.659   1.968 -0.8230 -0.6451 -0.1609
 8150SOL     OW36085   3.832   0.286  13.095  0.2855 -0.0610  0.5354
 8150SOL    HW136086   3.836   0.204  13.145 -2.4413 -2.3032 -2.8566
 8150SOL    HW236087   3.900   0.336  13.139  1.5718 -1.0081 -0.3907
 8151SOL     OW36088   4.039   3.234   2.797  0.1175 -0.3433 -0.7453
 8151SOL    HW136089   4.014   3.321   2.829 -0.6589 -0.3518 -1.3438
 8151SOL    HW236090   4.127   3.236   2.835  0.1346 -3.2212 -0.6343
 8152SOL     OW36091   2.967   3.164  12.046 -0.5960  0.8153  0.0276
 8152SOL    HW136092   2.900   3.188  12.110 -0.4626 -2.0576  1.1914
 8152SOL    HW236093   2.924   3.095  11.996 -3.7144  0.4297  3.2888
 8153SOL     OW36094   1.254   4.535   2.103  0.1677 -0.7154  0.2941
 8153SOL    HW136095   1.186   4.576   2.049  0.6296 -0.7505 -0.3099
 8153SOL    HW236096   1.220   4.560   2.189 -1.3607 -1.3336 -0.1281
 8154SOL     OW36097   3.447   2.916   8.858  0.3501 -0.1851 -0.2335
 8154SOL    HW136098   3.390   2.987   8.830 -0.1459 -0.3071  0.4712
 8154SOL    HW236099   3.397   2.839   8.828 -2.4145  1.7744 -0.6305
 8155SOL     OW36100   4.544   4.635   9.146  0.0470 -0.2856  0.1459
 8155SOL    HW136101   4.470   4.658   9.090  0.0425  1.4815  0.8897
 8155SOL    HW236102   4.508   4.575   9.212  0.1175 -2.6559 -1.9858
 8156SOL     OW36103   1.592   2.603  11.351 -0.2701  0.0430 -0.2834
 8156SOL    HW136104   1.575   2.508  11.350  2.4244 -0.4119 -2.3572
 8156SOL    HW236105   1.684   2.602  11.379 -0.6318 -0.3585  0.9047
 8157SOL     OW36106   1.430   2.667   8.443  0.0497  0.0470 -0.0898
 8157SOL    HW136107   1.473   2.690   8.525  1.6781 -0.5941 -0.7510
 8157SOL    HW236108   1.346   2.656   8.487 -0.2943 -0.9250 -0.9940
 8158SOL     OW36109   0.804   1.527  13.894  0.0694 -0.5271 -0.4726
 8158SOL    HW136110   0.832   1.436  13.893  2.0510  0.0812  0.7264
 8158SOL    HW236111   0.832   1.547  13.804  1.1115  0.5801  0.1081
 8159SOL     OW36112   1.751   3.279   7.584 -0.6987  0.1047 -1.0947
 8159SOL    HW136113   1.756   3.341   7.512 -1.3887  0.9904 -0.3627
 8159SOL    HW236114   1.686   3.329   7.631  0.0496 -1.1376  1.2635
 8160SOL     OW36115   0.219   4.182   7.763  0.6450 -0.0025  0.1958
 8160SOL    HW136116   0.194   4.110   7.704 -0.0686  0.5918 -0.2178
 8160SOL    HW236117   0.306   4.144   7.777  0.2386 -0.9450  0.1775
 8161SOL     OW36118   1.416   0.640   6.721  0.0845 -0.1002  0.2483
 8161SOL    HW136119   1.356   0.715   6.715  0.5654  0.4227  2.2386
 8161SOL    HW236120   1.385   0.611   6.807  1.0285 -1.2593  0.1938
 8162SOL     OW36121   1.700   1.029   8.777 -0.6568 -0.1159  0.8485
 8162SOL    HW136122   1.734   1.117   8.758  0.4888 -0.7397  0.0202
 8162SOL    HW236123   1.617   1.046   8.822 -2.0911 -2.8320 -0.7277
 8163SOL     OW36124   3.425   0.678  17.162  0.3187 -0.1804  0.0667
 8163SOL    HW136125   3.436   0.763  17.120  0.6619  1.0065  2.5630
 8163SOL    HW236126   3.397   0.621  17.090  0.9558  0.4911 -0.7059
 8164SOL     OW36127   1.721   1.468  13.069 -0.8161 -0.0770 -0.1484
 8164SOL    HW136128   1.716   1.406  13.141 -1.1621 -1.3847 -1.3110
 8164SOL    HW236129   1.643   1.438  13.022  0.1546 -0.4727 -1.5025
 8165SOL     OW36130   3.125   3.339   4.701 -0.4719  0.5918  0.0127
 8165SOL    HW136131   3.062   3.410   4.687 -1.0525  0.1927  0.5780
 8165SOL    HW236132   3.134   3.294   4.617 -2.0308  1.0226 -0.3971
 8166SOL     OW36133   2.899   4.159   4.813 -0.3388 -0.4377  0.1146
 8166SOL    HW136134   2.816   4.128   4.776 -1.1353  2.2532 -0.3484
 8166SOL    HW236135   2.949   4.082   4.786 -0.0905  0.5338 -2.1464
 8167SOL     OW36136   4.544   4.378  11.466  0.0575 -0.6707 -0.1669
 8167SOL    HW136137   4.612   4.362  11.400  0.1287  1.7742 -0.6957
 8167SOL    HW236138   4.502   4.453  11.424  0.6964 -0.2177  0.0079
 8168SOL     OW36139   1.069   0.769   7.220  0.2826  0.0597  0.0733
 8168SOL    HW136140   1.012   0.692   7.229  0.8261 -0.2719  0.6672
 8168SOL    HW236141   1.125   0.756   7.296 -1.7840 -1.3282  1.3907
 8169SOL     OW36142   0.256   0.232   0.763 -0.2137  0.0460  0.2698
 8169SOL    HW136143   0.251   0.291   0.687  0.1486 -1.4399 -0.9144
 8169SOL    HW236144   0.341   0.195   0.740 -0.2224 -0.6186  1.3448
 8170SOL     OW36145   1.522   1.007   8.224 -0.2648 -0.1436 -0.0514
 8170SOL    HW136146   1.583   0.935   8.239  0.8988  0.8417 -0.0074
 8170SOL    HW236147   1.495   1.034   8.312 -2.2873  1.1906 -1.0749
 8171SOL     OW36148   4.027   1.795   5.536  0.3096  0.3291  0.0859
 8171SOL    HW136149   4.055   1.787   5.445  0.2920  0.3453  0.0791
 8171SOL    HW236150   3.992   1.708   5.558  2.8298 -0.2090  1.9715
 8172SOL     OW36151   4.710   1.024   5.033 -0.0334  0.5091  0.4490
 8172SOL    HW136152   0.053   1.007   4.988  0.6360  0.3354  1.7607
 8172SOL    HW236153   4.676   1.087   4.968 -1.2141 -1.4362 -0.8141
 8173SOL     OW36154   4.351   1.418   3.971  0.4117 -0.0681 -0.1626
 8173SOL    HW136155   4.408   1.490   3.998  0.1348  0.7572 -1.8087
 8173SOL    HW236156   4.353   1.372   4.055  2.0934 -1.7136 -1.1260
 8174SOL     OW36157   1.627   2.237   0.904 -0.1782 -0.4305 -0.2444
 8174SOL    HW136158   1.698   2.301   0.909 -0.8353  0.4501 -2.1726
 8174SOL    HW236159   1.667   2.177   0.840  1.8156  0.1590  0.4478
 8175SOL     OW36160   4.224   1.786   6.919 -0.1958  0.0080  0.2666
 8175SOL    HW136161   4.256   1.695   6.917 -0.3849 -0.0406 -0.4197
 8175SOL    HW236162   4.278   1.825   6.851  1.0275 -0.8214  0.7662
 8176SOL     OW36163   4.680   4.072  14.589  0.2674 -0.4451 -0.0613
 8176SOL    HW136164   4.673   3.997  14.648 -0.0734  0.2574  0.7996
 8176SOL    HW236165   4.586   4.092  14.580  0.5563  1.3838  0.9201
 8177SOL     OW36166   2.065   4.330   8.406  0.3469  0.4279  0.4961
 8177SOL    HW136167   2.146   4.361   8.447 -0.0214 -0.2134  1.7123
 8177SOL    HW236168   2.001   4.391   8.443 -0.0453 -0.8345  1.8659
 8178SOL     OW36169   2.038   0.548   3.206 -0.0080  0.3008 -0.2559
 8178SOL    HW136170   2.109   0.562   3.268 -0.8601  1.7399  0.3684
 8178SOL    HW236171   1.957   0.549   3.257 -0.6152  1.2611 -1.2500
 8179SOL     OW36172   1.584   3.459   5.446  0.3864  0.4136 -0.5988
 8179SOL    HW136173   1.544   3.494   5.526 -0.5884 -1.2611 -0.3626
 8179SOL    HW236174   1.671   3.496   5.463  0.8137 -0.1335 -1.6102
 8180SOL     OW36175   1.836   2.327   5.462  0.1144  0.4361 -0.0926
 8180SOL    HW136176   1.908   2.341   5.400  0.3316 -0.9318 -0.1363
 8180SOL    HW236177   1.780   2.403   5.444  0.1296  0.0452 -1.7830
 8181SOL     OW36178   1.684   0.400   6.143  0.1786 -0.1757  0.0996
 8181SOL    HW136179   1.604   0.352   6.123 -0.7289  1.3219  0.1419
 8181SOL    HW236180   1.702   0.381   6.235 -1.1305  0.3261  0.4660
 8182SOL     OW36181   0.190   2.725   8.737 -0.9541  0.2699 -0.5755
 8182SOL    HW136182   0.157   2.640   8.767 -1.5059  0.6697 -0.0500
 8182SOL    HW236183   0.157   2.771   8.815 -1.1236  2.2029 -1.7993
 8183SOL     OW36184   2.651   1.346   4.769  0.0223 -0.0672 -0.1390
 8183SOL    HW136185   2.670   1.438   4.754 -0.6770  0.8117  4.5025
 8183SOL    HW236186   2.663   1.334   4.863 -1.7738  1.2301  0.2596
 8184SOL     OW36187   4.180   2.412   3.390  0.1420  0.1878 -0.3516
 8184SOL    HW136188   4.143   2.329   3.361 -0.0938 -0.1758  0.9812
 8184SOL    HW236189   4.271   2.382   3.382  0.7725  1.6868  1.1287
 8185SOL     OW36190   0.245   1.337  14.910 -0.7825 -0.6256  0.1774
 8185SOL    HW136191   0.302   1.411  14.890  0.8952 -1.6313  1.2773
 8185SOL    HW236192   0.287   1.298  14.986  2.5222  2.3844 -0.1376
 8186SOL     OW36193   0.919   2.518   8.234  0.2169  0.4763 -0.1011
 8186SOL    HW136194   0.924   2.521   8.138  1.1052 -0.9123 -0.0947
 8186SOL    HW236195   0.824   2.526   8.243  0.4139  5.2700 -2.0606
 8187SOL     OW36196   0.066   3.144   4.335  0.3045 -0.8969 -0.2206
 8187SOL    HW136197   0.066   3.082   4.408 -1.5754 -2.6886 -1.7559
 8187SOL    HW236198   0.066   3.229   4.379 -1.4733 -0.3087 -1.3570
 8188SOL     OW36199   3.967   4.606   7.451 -0.0790  0.2447  0.7557
 8188SOL    HW136200   3.965   4.514   7.478  0.1013 -0.3788 -1.3586
 8188SOL    HW236201   3.908   4.648   7.514  0.0906  2.1152 -0.3350
 8189SOL     OW36202   4.146   2.543  12.834 -0.1264  0.0357 -0.2025
 8189SOL    HW136203   4.186   2.478  12.776  0.9934  1.4203 -0.9859
 8189SOL    HW236204   4.201   2.527  12.911 -0.0928 -0.7475 -0.3886
 8190SOL     OW36205   0.757   3.260  11.555  0.0054  0.7743  0.8786
 8190SOL    HW136206   0.756   3.165  11.549  1.3941  0.6691  2.1795
 8190SOL    HW236207   0.749   3.284  11.463  1.1428  1.3527  0.9264
 8191SOL     OW36208   1.640   4.435   5.754  0.2587 -0.0421  0.2278
 8191SOL    HW136209   1.632   4.509   5.692 -1.3449  1.5003  2.2491
 8191SOL    HW236210   1.734   4.422   5.752  0.1850 -0.4908 -0.5994
 8192SOL     OW36211   1.885   0.442  12.700  0.1395 -0.4671  0.1650
 8192SOL    HW136212   1.839   0.376  12.752 -0.3904  0.7833  1.2839
 8192SOL    HW236213   1.966   0.460  12.748 -0.0027 -1.2115  0.6796
 8193SOL     OW36214   2.633   3.368  15.314 -0.3109 -0.0765  0.3652
 8193SOL    HW136215   2.660   3.390  15.224  1.3720  0.8282  1.1011
 8193SOL    HW236216   2.538   3.377  15.318 -0.2946  0.9128 -1.3471
 8194SOL     OW36217   0.631   0.694  12.309  0.3691 -0.4010 -0.0381
 8194SOL    HW136218   0.719   0.667  12.283  0.6752 -1.9351  2.6258
 8194SOL    HW236219   0.599   0.738  12.230 -0.6395 -1.0312  0.0222
 8195SOL     OW36220   2.049   1.268  11.317  1.0385 -0.3040 -0.1749
 8195SOL    HW136221   2.125   1.300  11.269  0.5287 -0.2183 -0.9339
 8195SOL    HW236222   2.043   1.179  11.283 -0.4352 -0.6404  0.9265
 8196SOL     OW36223   4.576   0.700   4.515 -0.4096 -0.0436  0.2603
 8196SOL    HW136224   4.581   0.669   4.606  0.5824 -2.8248 -0.7379
 8196SOL    HW236225   4.489   0.738   4.499  0.0134  1.2059  0.9126
 8197SOL     OW36226   1.742   2.113   5.004 -0.2380 -0.4530 -0.2828
 8197SOL    HW136227   1.696   2.107   5.088  1.0298 -1.1621  0.3732
 8197SOL    HW236228   1.834   2.113   5.030 -0.3430 -0.8999  0.0959
 8198SOL     OW36229   0.461   3.508   0.444 -0.0349  0.0706  0.1226
 8198SOL    HW136230   0.379   3.468   0.473  0.0638 -2.2767 -2.8114
 8198SOL    HW236231   0.498   3.452   0.376 -0.6592  0.1535 -0.2892
 8199SOL     OW36232   0.285   4.539   3.322 -0.2606 -0.3909 -0.3595
 8199SOL    HW136233   0.208   4.530   3.377 -0.6761 -3.0096 -1.3608
 8199SOL    HW236234   0.245   4.561   3.237  0.5171  0.9284 -0.3809
 8200SOL     OW36235   4.690   0.181   1.764  1.4778 -0.2179 -0.0308
 8200SOL    HW136236   4.718   0.210   1.851  1.8993 -1.0873  0.1256
 8200SOL    HW236237   4.612   0.234   1.748  0.6316 -1.0309  1.3046
 8201SOL     OW36238   4.328   0.609   4.794  0.5164  0.1977 -0.4545
 8201SOL    HW136239   4.244   0.612   4.839  1.2615  0.7273  0.8809
 8201SOL    HW236240   4.302   0.597   4.702  0.2309 -0.9165 -0.2239
 8202SOL     OW36241   2.622   0.115  16.541 -0.3553  0.5120 -0.1608
 8202SOL    HW136242   2.609   0.096  16.448  1.3340  3.3796 -0.9683
 8202SOL    HW236243   2.603   0.028  16.576 -0.5710 -0.6390 -3.0609
 8203SOL     OW36244   1.865   2.002   9.319 -0.1529 -0.5140 -0.3111
 8203SOL    HW136245   1.837   1.973   9.232  1.1275  3.5596 -2.1141
 8203SOL    HW236246   1.799   1.956   9.371  0.4258  1.2241  1.9401
 8204SOL     OW36247   3.178   3.687   9.948  0.5847 -0.0390 -0.3937
 8204SOL    HW136248   3.200   3.761  10.005 -1.5815 -0.3071  0.7907
 8204SOL    HW236249   3.257   3.673   9.896  0.3852 -1.4059 -0.3094
 8205SOL     OW36250   3.982   2.773   6.720 -0.4895  0.2759  0.1126
 8205SOL    HW136251   4.064   2.802   6.681 -1.0820  2.4618  0.4596
 8205SOL    HW236252   3.948   2.722   6.647 -0.5888 -1.1463  1.1579
 8206SOL     OW36253   3.899   0.006  13.171 -0.1209 -0.2358  0.3212
 8206SOL    HW136254   3.974   4.707  13.215 -0.6073 -0.9657  0.4979
 8206SOL    HW236255   3.919   4.733  13.079  0.3659 -0.3378  0.4458
 8207SOL     OW36256   4.543   3.167   7.219 -0.3330 -0.0424  0.1949
 8207SOL    HW136257   4.464   3.183   7.168  0.2129 -1.1214 -0.9829
 8207SOL    HW236258   4.505   3.144   7.304  2.4840  2.4129  2.1533
 8208SOL     OW36259   2.272   3.160   6.511 -0.6475 -0.0344 -0.1697
 8208SOL    HW136260   2.298   3.076   6.474  0.0637 -0.2022  0.6998
 8208SOL    HW236261   2.345   3.214   6.480 -0.2660 -1.2026 -1.3090
 8209SOL     OW36262   0.892   2.694   3.804 -0.3664 -0.2395 -0.6448
 8209SOL    HW136263   0.936   2.724   3.724  3.3668  0.9407  1.8021
 8209SOL    HW236264   0.834   2.622   3.781 -0.7278 -0.9303  2.4254
 8210SOL     OW36265   2.870   1.547  10.280 -0.1386  0.3437  0.0884
 8210SOL    HW136266   2.885   1.474  10.339  2.1603 -0.6369 -1.6778
 8210SOL    HW236267   2.880   1.508  10.193  0.3010  1.7712 -0.5157
 8211SOL     OW36268   4.547   2.814   9.990 -0.1960  0.1853  0.1321
 8211SOL    HW136269   4.537   2.845  10.080 -0.7242 -0.2291  0.2142
 8211SOL    HW236270   4.642   2.802   9.995 -0.3848 -1.4964 -0.2913
 8212SOL     OW36271   3.700   4.726   3.863  0.4969 -0.3285 -0.0318
 8212SOL    HW136272   3.727   4.655   3.921 -0.2953 -0.5453  0.0664
 8212SOL    HW236273   3.784   0.031   3.859 -0.7505  2.0487  0.4890
 8213SOL     OW36274   3.236   4.214   7.668  0.0724 -0.1191 -0.6176
 8213SOL    HW136275   3.151   4.241   7.703  1.1389  0.0149  1.9057
 8213SOL    HW236276   3.211   4.215   7.576 -0.7722  0.1501 -0.3887
 8214SOL     OW36277   0.919   2.584   3.216  0.5781  0.3306 -0.3544
 8214SOL    HW136278   0.930   2.529   3.293  0.4606 -1.2463 -1.4642
 8214SOL    HW236279   1.009   2.571   3.184  0.7659  1.8320 -0.4606
 8215SOL     OW36280   1.400   2.421   6.722  0.3772  0.2917 -0.0085
 8215SOL    HW136281   1.441   2.456   6.642 -0.0047  4.1071  1.4860
 8215SOL    HW236282   1.366   2.338   6.688  2.2071  1.0230 -3.6244
 8216SOL     OW36283   2.698   0.608  16.309  0.1397 -0.0615 -0.6552
 8216SOL    HW136284   2.700   0.664  16.387 -0.0600 -1.5721  0.4505
 8216SOL    HW236285   2.604   0.591  16.307 -0.0067  0.3474  1.9245
 8217SOL     OW36286   1.391   2.114   6.069  0.1688 -0.0822  0.3319
 8217SOL    HW136287   1.479   2.139   6.043  0.5862 -2.6807 -0.6935
 8217SOL    HW236288   1.353   2.099   5.983  1.5240 -0.3568 -0.2110
 8218SOL     OW36289   3.325   1.434   4.473 -0.5517 -0.0411  0.1134
 8218SOL    HW136290   3.420   1.423   4.481 -0.8631 -1.7735  1.3101
 8218SOL    HW236291   3.328   1.477   4.387  0.5707 -0.2966  0.0290
 8219SOL     OW36292   3.724   4.211   1.621 -0.6305  0.0658  0.1119
 8219SOL    HW136293   3.781   4.287   1.628 -0.1667 -0.2651 -0.1638
 8219SOL    HW236294   3.764   4.142   1.675 -2.3111 -0.5910  0.5467
 8220SOL     OW36295   4.662   3.304   2.687 -0.1546 -0.2463  0.3257
 8220SOL    HW136296   4.599   3.258   2.743  0.6595 -1.2894  0.3866
 8220SOL    HW236297   4.621   3.390   2.696  0.8276  0.2788 -0.1801
 8221SOL     OW36298   2.971   0.023  16.136 -0.3194 -0.4700  0.1135
 8221SOL    HW136299   3.038   0.080  16.172 -1.2453  1.0054 -0.5160
 8221SOL    HW236300   2.961   0.064  16.051  2.1969 -2.0593 -0.9574
 8222SOL     OW36301   2.334   4.110   4.327 -0.0290 -0.2657 -0.1891
 8222SOL    HW136302   2.322   4.186   4.383 -0.9012 -0.9080  0.4851
 8222SOL    HW236303   2.402   4.059   4.373 -1.1823  0.7602  2.6314
 8223SOL     OW36304   1.531   2.432  17.014  0.7927 -0.8371 -0.0449
 8223SOL    HW136305   1.437   2.442  17.027  0.7338 -0.3573 -0.8774
 8223SOL    HW236306   1.523   2.367  16.945  2.2588 -0.2359 -0.7639
 8224SOL     OW36307   3.273   0.793   2.539 -0.2626  0.2854 -0.3900
 8224SOL    HW136308   3.212   0.850   2.585 -0.1462  1.8449 -2.1937
 8224SOL    HW236309   3.217   0.772   2.465 -1.1208 -1.1950  0.6644
 8225SOL     OW36310   3.701   3.555   1.218 -0.0231 -0.0168  0.3209
 8225SOL    HW136311   3.628   3.617   1.217 -0.4981 -0.5769  0.4846
 8225SOL    HW236312   3.757   3.600   1.154 -1.0830 -1.3611 -1.5527
 8226SOL     OW36313   2.394   2.470   4.054 -0.1341 -0.6746  0.3477
 8226SOL    HW136314   2.348   2.488   3.972 -0.8429 -2.0724  0.4409
 8226SOL    HW236315   2.350   2.535   4.108 -1.4563 -0.2317 -1.2678
 8227SOL     OW36316   2.237   2.213   7.838  0.3976 -0.2829  0.1873
 8227SOL    HW136317   2.149   2.250   7.826 -0.7647 -2.6260  1.5088
 8227SOL    HW236318   2.230   2.187   7.929  1.0383  1.9042  0.8559
 8228SOL     OW36319   1.165   3.431   2.900 -0.5413 -0.1699  0.0720
 8228SOL    HW136320   1.141   3.349   2.943  0.6718  0.4790  2.0087
 8228SOL    HW236321   1.199   3.407   2.814 -0.0305  0.5192  0.0808
 8229SOL     OW36322   1.320   3.407   7.939  0.2106  0.2307 -0.1627
 8229SOL    HW136323   1.247   3.360   7.979  1.3262  0.5682  2.2534
 8229SOL    HW236324   1.293   3.413   7.847  2.0621  2.4085 -0.5794
 8230SOL     OW36325   3.019   0.669   1.463  0.3074 -0.1426 -0.4760
 8230SOL    HW136326   3.094   0.714   1.423 -0.4739  0.3877 -1.3362
 8230SOL    HW236327   3.051   0.586   1.499  1.3837  0.1150 -0.8318
 8231SOL     OW36328   0.336   0.539   3.075 -0.2330 -0.5744  0.2408
 8231SOL    HW136329   0.292   0.562   3.157 -0.9347 -3.7132  0.7304
 8231SOL    HW236330   0.372   0.622   3.044 -0.1568 -0.9472 -0.6746
 8232SOL     OW36331   1.446   3.504  10.808  0.1783 -0.0685 -0.3403
 8232SOL    HW136332   1.365   3.527  10.852  1.7052  1.4365  1.6949
 8232SOL    HW236333   1.516   3.511  10.873  0.3161  1.1311 -0.6042
 8233SOL     OW36334   0.717   3.560   7.642 -0.2969 -0.2358  0.1835
 8233SOL    HW136335   0.695   3.649   7.613 -1.9704 -0.3222  1.2026
 8233SOL    HW236336   0.641   3.511   7.613 -0.5342 -0.2777  0.8776
 8234SOL     OW36337   4.042   0.454   8.230 -0.5664 -0.1869 -0.4393
 8234SOL    HW136338   4.066   0.389   8.165  0.9735  0.4986 -0.5563
 8234SOL    HW236339   4.035   0.398   8.307 -1.5358 -0.6429 -0.8591
 8235SOL     OW36340   4.294   4.328   9.000  0.1609 -0.9209 -0.0466
 8235SOL    HW136341   4.383   4.302   8.975  0.1314  0.0738 -1.1972
 8235SOL    HW236342   4.261   4.258   9.055  0.9043 -1.0865  0.1933
 8236SOL     OW36343   2.278   1.344  11.209  0.2546 -0.4404  0.1371
 8236SOL    HW136344   2.274   1.359  11.115  0.1928 -0.7555  0.0886
 8236SOL    HW236345   2.345   1.276  11.198  0.7450  0.3806 -1.8455
 8237SOL     OW36346   2.900   0.076  15.591  0.8738 -0.1925 -0.4460
 8237SOL    HW136347   2.827   0.060  15.532 -1.5990  0.2834  2.4837
 8237SOL    HW236348   2.957   0.005  15.563 -0.6497 -1.6766  0.1905
 8238SOL     OW36349   0.672   2.438   3.494  0.4970 -0.0894  0.0876
 8238SOL    HW136350   0.579   2.461   3.480  0.3761 -1.2436 -1.0334
 8238SOL    HW236351   0.694   2.482   3.576  1.2087 -0.9612  0.3497
 8239SOL     OW36352   1.650   2.687   2.007  0.4899 -0.7437  0.1713
 8239SOL    HW136353   1.566   2.708   2.048  0.8739 -1.3188  1.2349
 8239SOL    HW236354   1.689   2.647   2.084 -0.3025  2.4725  2.2382
 8240SOL     OW36355   3.405   1.894  13.468  0.1186 -0.0499  0.4648
 8240SOL    HW136356   3.319   1.937  13.461  0.8690  1.5770  1.4191
 8240SOL    HW236357   3.383   1.807  13.435  0.3251  0.1459 -0.2015
 8241SOL     OW36358   3.474   3.826   2.746  0.7365  0.5810  0.0023
 8241SOL    HW136359   3.429   3.797   2.826  0.4837  1.3311  0.1304
 8241SOL    HW236360   3.493   3.919   2.753 -1.2185  1.1033 -1.4537
 8242SOL     OW36361   1.105   1.365   8.768  0.0621  0.5252 -0.1035
 8242SOL    HW136362   1.159   1.438   8.737 -1.2306  0.5302 -2.3091
 8242SOL    HW236363   1.043   1.417   8.820  1.2731 -0.2221  2.0843
 8243SOL     OW36364   0.028   2.285   6.276  0.2155  0.8542  0.3059
 8243SOL    HW136365   4.724   2.364   6.247 -0.1783  0.3604 -0.4407
 8243SOL    HW236366   4.689   2.246   6.312  0.0572  0.7245 -0.1829
 8244SOL     OW36367   0.562   2.338  12.614  0.1489 -0.2824  0.2655
 8244SOL    HW136368   0.544   2.246  12.632 -0.8988 -0.2528 -0.5854
 8244SOL    HW236369   0.480   2.382  12.638 -0.5747 -2.0276  0.9927
 8245SOL     OW36370   4.399   0.022   5.075  0.0586 -0.1193  0.0629
 8245SOL    HW136371   4.466   4.718   5.128 -1.0927  0.4542  1.9699
 8245SOL    HW236372   4.433   4.732   4.991 -0.1757 -1.2967  0.3910
 8246SOL     OW36373   1.075   0.163   9.113 -0.0149 -0.1032  0.9426
 8246SOL    HW136374   1.054   0.158   9.019  1.9359 -0.9522  0.5541
 8246SOL    HW236375   0.991   0.139   9.151 -0.6951  0.1783 -0.3507
 8247SOL     OW36376   2.857   3.353   6.547  0.2355  0.0595  0.6785
 8247SOL    HW136377   2.892   3.402   6.472  1.6787 -0.7376  0.8193
 8247SOL    HW236378   2.898   3.266   6.542 -1.3790 -0.6405 -0.6990
 8248SOL     OW36379   2.716   4.073   0.129  0.0211  0.0347 -0.4359
 8248SOL    HW136380   2.627   4.093   0.158  0.5958  0.4140  1.0370
 8248SOL    HW236381   2.740   3.997   0.183  0.2018 -1.2610 -2.3258
 8249SOL     OW36382   3.575   1.864  13.675  0.4889 -0.4320 -0.0747
 8249SOL    HW136383   3.523   1.877  13.596 -1.5917 -4.4354  0.6198
 8249SOL    HW236384   3.515   1.904  13.738  0.6178  0.7608 -0.7045
 8250SOL     OW36385   1.325   0.860   9.954  1.0721  0.5361  0.1638
 8250SOL    HW136386   1.232   0.880   9.945  1.0878  1.7932  2.6640
 8250SOL    HW236387   1.327   0.767   9.977 -0.6699  0.4620 -0.0206
 8251SOL     OW36388   3.622   4.160  12.619 -0.1826 -0.3629 -0.2849
 8251SOL    HW136389   3.611   4.254  12.604  2.1289 -0.5132 -2.7559
 8251SOL    HW236390   3.531   4.133  12.635 -0.1411  0.1680  0.8418
 8252SOL     OW36391   1.499   4.334   1.186 -0.4514 -0.2949 -0.3060
 8252SOL    HW136392   1.416   4.343   1.140 -1.8591 -0.5005  2.1714
 8252SOL    HW236393   1.541   4.263   1.139 -0.9383 -0.4021 -0.5809
 8253SOL     OW36394   4.080   1.024  16.718 -0.1088 -1.1681  0.2956
 8253SOL    HW136395   4.034   1.087  16.774  2.2541 -1.0161  2.0402
 8253SOL    HW236396   4.167   1.047  16.750  0.1117 -0.7475 -0.6088
 8254SOL     OW36397   2.404   3.132   8.163  0.2767 -0.1322 -0.4704
 8254SOL    HW136398   2.315   3.161   8.147 -0.4912 -1.6468  1.0766
 8254SOL    HW236399   2.450   3.202   8.116  0.5905  0.1007  0.1847
 8255SOL     OW36400   2.729   1.003  14.321 -0.6226 -0.4489 -0.0493
 8255SOL    HW136401   2.699   1.078  14.270 -2.4822 -1.4660 -0.4245
 8255SOL    HW236402   2.824   1.019  14.323 -0.9786  1.5274  1.0507
 8256SOL     OW36403   0.143   2.735   3.204  0.3173  0.1437 -0.2351
 8256SOL    HW136404   0.150   2.698   3.117 -1.9497  2.4236 -1.3934
 8256SOL    HW236405   0.233   2.757   3.226  0.8767 -0.9271 -1.5222
 8257SOL     OW36406   4.540   0.726   8.980 -0.4215  0.0393  0.3401
 8257SOL    HW136407   4.578   0.803   9.021  1.5599 -1.2724  1.0153
 8257SOL    HW236408   4.614   0.665   8.989 -1.0679 -0.9930 -1.3474
 8258SOL     OW36409   1.535   0.563   0.950  0.2216 -0.3391 -0.1985
 8258SOL    HW136410   1.593   0.574   1.025  0.3450  1.0384 -0.5021
 8258SOL    HW236411   1.486   0.644   0.958 -0.2262 -0.4940 -1.3893
 8259SOL     OW36412   1.935   0.690   6.288 -0.2599 -0.3929  0.4534
 8259SOL    HW136413   1.895   0.621   6.342 -0.9533 -1.2192 -1.1041
 8259SOL    HW236414   1.866   0.741   6.247 -1.0078 -2.5445 -1.0011
 8260SOL     OW36415   3.016   1.551   6.787  0.4885 -0.0514  0.4671
 8260SOL    HW136416   3.065   1.492   6.844 -0.0584 -2.0750 -1.1317
 8260SOL    HW236417   2.989   1.485   6.722 -1.2658 -0.2983  1.4630
 8261SOL     OW36418   1.710   0.101   5.318 -0.1258  0.5393 -0.3383
 8261SOL    HW136419   1.731   0.193   5.335  0.3337  0.1169  1.3652
 8261SOL    HW236420   1.633   0.104   5.374 -1.0194  1.7624 -1.6292
 8262SOL     OW36421   1.376   1.807   8.731 -0.6852  0.3016 -0.0376
 8262SOL    HW136422   1.410   1.869   8.667 -2.1354  1.3566  0.2189
 8262SOL    HW236423   1.364   1.868   8.804  2.3088 -0.2276  0.8842
 8263SOL     OW36424   3.201   2.665   6.381 -0.6601  0.3435 -0.0876
 8263SOL    HW136425   3.169   2.653   6.471  1.9981  0.4667  0.8659
 8263SOL    HW236426   3.140   2.602   6.343 -0.3646  0.9642 -1.5823
 8264SOL     OW36427   1.599   3.137  10.821 -0.0008  0.5037 -0.2771
 8264SOL    HW136428   1.528   3.201  10.825 -1.9528 -1.5612 -1.7981
 8264SOL    HW236429   1.643   3.154  10.738  1.1452  1.9490  0.6223
 8265SOL     OW36430   0.337   3.388   4.515 -0.1316 -0.6382  0.4851
 8265SOL    HW136431   0.259   3.419   4.561 -0.2211  0.2234 -0.2490
 8265SOL    HW236432   0.355   3.458   4.452  2.8192 -0.2099  1.8522
 8266SOL     OW36433   1.936   1.462   3.562 -0.1840  0.5262 -0.2379
 8266SOL    HW136434   1.858   1.429   3.607  0.3987 -1.4852 -0.6957
 8266SOL    HW236435   1.901   1.507   3.486 -0.1091 -1.3919 -1.4149
 8267SOL     OW36436   3.404   3.643   1.396 -0.5431  0.7894 -0.4037
 8267SOL    HW136437   3.327   3.587   1.385 -1.3123  1.3216  2.1777
 8267SOL    HW236438   3.446   3.619   1.479  0.7195 -0.2374 -1.3397
 8268SOL     OW36439   2.276   2.367   3.076 -0.0975 -0.0172  0.0117
 8268SOL    HW136440   2.299   2.348   2.985 -0.0937  1.8871 -0.3697
 8268SOL    HW236441   2.219   2.291   3.089  0.9671 -0.3106  2.9230
 8269SOL     OW36442   1.102   1.525   8.098  0.3619  0.3020 -0.1670
 8269SOL    HW136443   1.046   1.599   8.121  0.7939  0.1289  1.4520
 8269SOL    HW236444   1.044   1.452   8.080  1.5428 -0.6646 -0.0563
 8270SOL     OW36445   4.280   2.541  10.125 -0.6083 -0.1276 -0.2763
 8270SOL    HW136446   4.261   2.625  10.084  3.0290  0.1705 -1.3744
 8270SOL    HW236447   4.223   2.554  10.201  0.9368  1.3258  0.6347
 8271SOL     OW36448   3.251   1.493   7.658  0.1787  0.0991  0.4927
 8271SOL    HW136449   3.274   1.501   7.751 -2.5478 -0.0561  1.1786
 8271SOL    HW236450   3.305   1.419   7.631  0.9403  1.1255 -0.7446
 8272SOL     OW36451   3.202   3.610   5.925  0.3201  0.6824 -0.5082
 8272SOL    HW136452   3.177   3.676   5.860  1.1750  0.8769 -0.6476
 8272SOL    HW236453   3.296   3.630   5.925  0.6565 -0.9443  0.1716
 8273SOL     OW36454   3.478   1.419  16.716  0.2253 -0.5781  0.5763
 8273SOL    HW136455   3.406   1.479  16.736  0.0016  0.2692 -2.7849
 8273SOL    HW236456   3.475   1.420  16.620 -0.0902 -0.5890  0.5857
 8274SOL     OW36457   4.281   4.595   3.411  0.0142 -0.5461 -0.0220
 8274SOL    HW136458   4.206   4.552   3.452 -0.1812  0.3597  0.5772
 8274SOL    HW236459   4.241   4.671   3.369  1.3459 -0.1747 -0.5961
 8275SOL     OW36460   3.847   1.798   7.496  0.2863 -0.3333 -0.3710
 8275SOL    HW136461   3.869   1.888   7.521  0.7234  0.0419 -2.0810
 8275SOL    HW236462   3.929   1.749   7.490 -0.6411 -1.9344  0.2363
 8276SOL     OW36463   2.890   3.533  12.058 -0.7106 -0.0399 -0.1056
 8276SOL    HW136464   2.901   3.538  12.153 -0.1549 -1.5438 -0.1030
 8276SOL    HW236465   2.964   3.584  12.025  0.0390  1.2072  3.5759
 8277SOL     OW36466   2.456   0.339  16.644 -0.4605  0.3611 -0.4183
 8277SOL    HW136467   2.505   0.258  16.628  0.1787  0.6412  0.1153
 8277SOL    HW236468   2.529   0.395  16.673 -0.7404  0.6983 -0.3626
 8278SOL     OW36469   3.030   2.232   9.799 -0.1916  0.5554 -0.4428
 8278SOL    HW136470   3.062   2.314   9.835  2.9071 -0.6222 -0.5560
 8278SOL    HW236471   3.078   2.166   9.849 -1.9812  0.2019  0.8285
 8279SOL     OW36472   0.693   4.298   7.828 -0.5428  0.1524  0.2545
 8279SOL    HW136473   0.639   4.330   7.756 -1.8178 -0.7738  0.8101
 8279SOL    HW236474   0.707   4.373   7.885 -1.9764  1.1793 -0.7490
 8280SOL     OW36475   2.791   1.259   5.283 -0.0225  0.6662 -0.0707
 8280SOL    HW136476   2.846   1.195   5.328  0.7844  0.5765 -1.1740
 8280SOL    HW236477   2.714   1.256   5.339  1.0801  1.5286  1.5114
 8281SOL     OW36478   2.352   1.300   3.131 -0.3366 -0.7037 -0.8359
 8281SOL    HW136479   2.294   1.227   3.107 -0.2999 -0.6622 -1.0469
 8281SOL    HW236480   2.332   1.360   3.060 -0.5120  1.2845  0.9029
 8282SOL     OW36481   4.449   3.161  11.864  0.0261  0.2904 -0.0708
 8282SOL    HW136482   4.429   3.254  11.875 -1.7026 -0.3093  1.8162
 8282SOL    HW236483   4.502   3.175  11.785  0.9342 -1.6047  0.2015
 8283SOL     OW36484   2.295   1.573   3.268 -1.1883  0.8378 -0.2466
 8283SOL    HW136485   2.345   1.510   3.215 -0.3135  1.3052  0.0256
 8283SOL    HW236486   2.223   1.526   3.309  0.4738  1.0550  2.9119
 8284SOL     OW36487   0.980   1.443   5.987  0.6518  0.1141  0.5852
 8284SOL    HW136488   0.944   1.447   5.898 -0.7978 -1.5062  1.0970
 8284SOL    HW236489   0.926   1.378   6.031  1.3939 -0.9694 -0.1028
 8285SOL     OW36490   3.921   1.365  13.855  0.5282  0.3312 -0.2150
 8285SOL    HW136491   3.977   1.288  13.862 -1.4316 -1.0962 -0.2253
 8285SOL    HW236492   3.909   1.372  13.950 -0.1559 -0.5994 -0.2283
 8286SOL     OW36493   0.142   2.689  10.834 -0.0213 -0.3173 -0.3123
 8286SOL    HW136494   0.224   2.722  10.796  0.8176 -2.2064 -0.1670
 8286SOL    HW236495   0.146   2.597  10.807 -3.0128 -0.7339  0.7510
 8287SOL     OW36496   0.873   4.389  12.876 -0.0576  0.0958 -0.1357
 8287SOL    HW136497   0.830   4.408  12.793 -1.8593  1.6642  1.1489
 8287SOL    HW236498   0.804   4.340  12.922  0.0489  0.1022  0.0277
 8288SOL     OW36499   0.125   2.406   6.984 -0.0780  0.0575  0.3672
 8288SOL    HW136500   0.084   2.394   7.070  0.8275  1.1931  0.9542
 8288SOL    HW236501   0.065   2.476   6.958 -1.5129 -0.9708  0.9229
 8289SOL     OW36502   0.906   0.012   8.334  0.1002 -0.0233 -0.6234
 8289SOL    HW136503   0.873   0.075   8.399  0.5901  1.2988 -1.6566
 8289SOL    HW236504   0.969   0.060   8.281 -2.0925  1.0609 -2.2523
 8290SOL     OW36505   2.904   4.697   2.630  0.0187 -0.1267  0.1265
 8290SOL    HW136506   2.962   4.644   2.684 -0.2652 -2.1845 -1.6054
 8290SOL    HW236507   2.824   4.647   2.649  0.0177 -0.2292 -0.1550
 8291SOL     OW36508   1.945   3.819   5.955 -0.4190  0.1615 -0.2860
 8291SOL    HW136509   2.039   3.808   5.941 -0.2426 -0.3168  1.2665
 8291SOL    HW236510   1.895   3.747   5.917  0.1108 -1.7304  2.5643
 8292SOL     OW36511   4.121   1.659  12.442 -0.2400 -0.6826 -0.0820
 8292SOL    HW136512   4.071   1.589  12.401  0.4750  0.1995 -2.4677
 8292SOL    HW236513   4.161   1.688  12.360  0.2155  0.1585  0.4344
 8293SOL     OW36514   0.637   4.029   3.032 -0.0501  0.0109 -0.1898
 8293SOL    HW136515   0.695   3.970   3.081  0.0018 -0.6035 -0.9945
 8293SOL    HW236516   0.573   3.965   3.000  0.5982  1.0697 -3.5754
 8294SOL     OW36517   4.389   0.668   8.717 -0.3082  0.3343  0.0442
 8294SOL    HW136518   4.371   0.579   8.687 -1.0338  0.1058  1.1844
 8294SOL    HW236519   4.390   0.660   8.812  1.9587 -0.7315 -0.0536
 8295SOL     OW36520   2.124   1.080   5.855 -0.3935  0.0693 -0.1826
 8295SOL    HW136521   2.076   1.153   5.815 -2.3083 -0.8614  0.4094
 8295SOL    HW236522   2.057   1.012   5.862  0.1049 -0.2298  1.6569
 8296SOL     OW36523   2.764   3.818   4.967 -0.5205  0.1062  0.7569
 8296SOL    HW136524   2.690   3.875   4.986  0.6498  0.9696  2.7742
 8296SOL    HW236525   2.788   3.811   5.059  0.3010  1.8070  0.6823
 8297SOL     OW36526   3.185   1.499   2.618 -0.0823 -0.3871 -0.1160
 8297SOL    HW136527   3.155   1.515   2.708 -1.4598 -1.2373 -0.4238
 8297SOL    HW236528   3.252   1.567   2.610 -1.0908  0.8529  1.8143
 8298SOL     OW36529   4.659   0.638   1.237  0.6629 -0.8885  0.4806
 8298SOL    HW136530   4.575   0.593   1.239 -0.0302  0.3164 -1.0417
 8298SOL    HW236531   4.717   0.566   1.214 -2.2719 -2.3249 -2.4476
 8299SOL     OW36532   1.217   0.863   9.247  0.8875 -0.1905 -0.1489
 8299SOL    HW136533   1.307   0.858   9.279  0.2956  0.2077  1.5740
 8299SOL    HW236534   1.225   0.820   9.161 -0.9825 -0.0824 -0.3760
 8300SOL     OW36535   0.523   0.201  16.730 -0.5123 -0.0686 -0.3959
 8300SOL    HW136536   0.611   0.196  16.693 -0.5195  3.6425 -0.9249
 8300SOL    HW236537   0.466   0.153  16.670 -0.5208  1.3847 -1.5538
 8301SOL     OW36538   0.272   1.180   9.407  0.2329  0.5788 -0.1456
 8301SOL    HW136539   0.342   1.149   9.350  0.3077 -1.7879  1.2031
 8301SOL    HW236540   0.251   1.254   9.350 -0.7013 -0.4055 -1.0796
 8302SOL     OW36541   3.249   1.039   7.819  0.2860  0.7707  0.3213
 8302SOL    HW136542   3.213   1.126   7.838 -0.7758  0.2319  0.8056
 8302SOL    HW236543   3.162   0.997   7.820  1.8701 -2.4995 -0.0371
 8303SOL     OW36544   2.566   2.255   6.141  0.5293  0.3063 -0.3872
 8303SOL    HW136545   2.485   2.282   6.183  0.8087 -0.3872  0.6128
 8303SOL    HW236546   2.534   2.169   6.113  0.4772 -0.1223  1.0044
 8304SOL     OW36547   4.715   2.709  15.478  0.2003  0.1921  0.7747
 8304SOL    HW136548   4.712   2.800  15.508 -0.1580  0.2218  0.6474
 8304SOL    HW236549   0.028   2.673  15.549 -1.2521 -3.2202  0.1221
 8305SOL     OW36550   1.111   2.276   0.101  0.4841 -0.1312 -0.1095
 8305SOL    HW136551   1.023   2.243   0.118  0.4277  0.4045  0.6695
 8305SOL    HW236552   1.165   2.242   0.172  1.7934 -1.4815 -1.7669
 8306SOL     OW36553   0.028   1.190   0.053  0.1689  0.2883 -0.2520
 8306SOL    HW136554   0.012   1.106   0.009  1.4629 -0.7993  1.3168
 8306SOL    HW236555   0.012   1.165   0.144  0.6241  0.9508  0.0040
 8307SOL     OW36556   2.355   2.966   6.351 -0.2067  0.2846 -0.1019
 8307SOL    HW136557   2.378   3.033   6.287 -1.0946 -0.9066 -1.6880
 8307SOL    HW236558   2.345   2.892   6.290 -1.4293 -0.2900  0.8010
 8308SOL     OW36559   2.324   2.149   4.172  0.2425  0.7812  0.7524
 8308SOL    HW136560   2.266   2.074   4.182  0.1912  1.0396  2.3945
 8308SOL    HW236561   2.260   2.218   4.155  1.2262  1.7913  1.1462
 8309SOL     OW36562   1.149   4.456  16.841  0.2239 -0.5523  0.2274
 8309SOL    HW136563   1.076   4.396  16.854  0.6268 -1.1860 -0.4410
 8309SOL    HW236564   1.103   4.518  16.784  1.3818 -0.8964 -1.0875
 8310SOL     OW36565   1.334   0.369   7.086  0.2921  0.0603 -0.4312
 8310SOL    HW136566   1.335   0.347   7.179 -0.1868 -3.3889 -1.2253
 8310SOL    HW236567   1.424   0.402   7.083  0.4152 -0.2574 -0.1858
 8311SOL     OW36568   0.410   1.871   4.238 -0.0543  0.1452  0.3186
 8311SOL    HW136569   0.409   1.905   4.148 -0.9258 -0.5160  0.0837
 8311SOL    HW236570   0.320   1.839   4.245  0.2655 -1.3108 -2.2662
 8312SOL     OW36571   2.188   3.223  12.961  0.5593 -0.5350 -0.5504
 8312SOL    HW136572   2.226   3.187  12.881 -0.6801 -2.1693 -0.4227
 8312SOL    HW236573   2.167   3.139  13.003 -0.8305 -0.0245 -0.2360
 8313SOL     OW36574   0.525   3.191   1.898 -0.1001  0.0262 -0.7420
 8313SOL    HW136575   0.559   3.112   1.940 -1.8621 -0.0544  0.5115
 8313SOL    HW236576   0.435   3.172   1.922  0.1990 -0.3859  0.0524
 8314SOL     OW36577   1.790   2.275  11.323 -0.2862 -1.0450 -0.5220
 8314SOL    HW136578   1.755   2.244  11.240 -4.4820  0.6181  0.6004
 8314SOL    HW236579   1.713   2.275  11.380  0.2340 -0.0991  0.1932
 8315SOL     OW36580   4.397   0.877   6.561 -0.2514  0.3345 -0.3991
 8315SOL    HW136581   4.371   0.821   6.635  0.0832  4.4924  2.8463
 8315SOL    HW236582   4.483   0.903   6.592  0.4689 -1.5213 -0.8621
 8316SOL     OW36583   0.300   3.767   8.665  0.1700  0.2340 -0.3155
 8316SOL    HW136584   0.327   3.851   8.701  0.4770  0.9292 -2.1713
 8316SOL    HW236585   0.330   3.780   8.575  0.1643 -0.3165 -0.4003
 8317SOL     OW36586   1.502   4.468   5.991 -0.4676 -0.5495  0.0387
 8317SOL    HW136587   1.472   4.379   5.976 -1.8861  0.2796 -2.0814
 8317SOL    HW236588   1.553   4.470   5.910 -0.3335  1.4728  0.1794
 8318SOL     OW36589   0.348   2.631  12.703 -0.3270 -0.1481 -0.2675
 8318SOL    HW136590   0.338   2.716  12.745  0.1993 -0.3360  0.2376
 8318SOL    HW236591   0.383   2.661  12.619  0.2669  1.0471  0.4130
 8319SOL     OW36592   4.497   4.510   4.144  0.2922  0.8339 -0.4854
 8319SOL    HW136593   4.407   4.487   4.163  0.2042  2.4028  0.9832
 8319SOL    HW236594   4.541   4.426   4.155 -1.6117 -0.1523 -0.4813
 8320SOL     OW36595   4.489   0.606   7.583 -0.0117 -0.0878 -0.7169
 8320SOL    HW136596   4.575   0.568   7.597  0.8398  1.8024 -0.8915
 8320SOL    HW236597   4.517   0.697   7.589  0.1598 -0.1398 -0.7494
 8321SOL     OW36598   0.439   4.379   1.196  1.0550  0.1855 -0.0129
 8321SOL    HW136599   0.508   4.328   1.238  1.5514  1.3888  0.6395
 8321SOL    HW236600   0.474   4.378   1.107  0.1928  2.0883 -0.3720
 8322SOL     OW36601   2.654   3.457   1.642 -0.3575  0.1850 -0.3639
 8322SOL    HW136602   2.623   3.545   1.620  0.3808  0.8569  1.2547
 8322SOL    HW236603   2.639   3.418   1.556 -1.9707 -0.3445  0.1545
 8323SOL     OW36604   0.499   2.008   7.751 -0.4389 -0.1369  0.5299
 8323SOL    HW136605   0.421   1.976   7.707  0.6308 -2.7263  0.5503
 8323SOL    HW236606   0.516   1.932   7.806 -3.8757  0.2122  2.0648
 8324SOL     OW36607   4.538   2.696   7.424  0.7250 -0.4916 -0.2261
 8324SOL    HW136608   4.616   2.752   7.420 -0.2374  0.8871  0.2351
 8324SOL    HW236609   4.476   2.746   7.370  0.3711 -0.2077  0.4429
 8325SOL     OW36610   1.470   0.795   3.961 -0.3908 -0.1596  0.7937
 8325SOL    HW136611   1.418   0.742   4.021 -1.5904 -0.8037 -0.7986
 8325SOL    HW236612   1.525   0.723   3.930 -2.4271 -0.9085 -1.1381
 8326SOL     OW36613   2.783   2.861   8.484  0.7254  0.4350 -0.0779
 8326SOL    HW136614   2.814   2.773   8.506 -0.7323 -0.0322  0.0940
 8326SOL    HW236615   2.765   2.899   8.570  1.6735  2.7431 -0.8863
 8327SOL     OW36616   0.705   3.949   5.298  0.3540  0.0516  0.0876
 8327SOL    HW136617   0.766   3.939   5.371 -0.2665 -1.5518  0.3864
 8327SOL    HW236618   0.751   3.919   5.220 -0.7561  0.6906 -0.8063
 8328SOL     OW36619   2.388   1.947   9.321 -0.1070 -0.1951  0.7137
 8328SOL    HW136620   2.395   1.852   9.309 -0.9614 -0.2622  0.7709
 8328SOL    HW236621   2.295   1.966   9.308 -0.0488  0.5764  1.4190
 8329SOL     OW36622   1.252   1.574   8.642 -0.4078 -0.0269  0.2094
 8329SOL    HW136623   1.259   1.581   8.547 -0.0700 -0.8629  0.1719
 8329SOL    HW236624   1.293   1.653   8.678 -1.4480 -0.2052  1.7921
 8330SOL     OW36625   0.340   0.673  11.931  0.8044  0.2429  0.1033
 8330SOL    HW136626   0.305   0.722  11.857  2.8132 -0.8693 -1.5913
 8330SOL    HW236627   0.325   0.732  12.005  1.7845  0.0037  0.5014
 8331SOL     OW36628   1.232   4.036   6.135 -0.1120  0.1888 -0.1440
 8331SOL    HW136629   1.260   3.984   6.060 -2.2040  1.6740 -1.9734
 8331SOL    HW236630   1.217   3.975   6.208 -0.4437  1.8368  1.1499
 8332SOL     OW36631   2.232   3.265   0.490  0.0937 -0.3002 -0.3087
 8332SOL    HW136632   2.257   3.217   0.569  1.3951  0.6217 -0.1592
 8332SOL    HW236633   2.221   3.356   0.519  3.6350 -0.3843  1.3485
 8333SOL     OW36634   1.750   2.883  16.916  0.2353  0.1827  0.1697
 8333SOL    HW136635   1.811   2.835  16.860  0.5535 -1.7503  2.1843
 8333SOL    HW236636   1.684   2.816  16.935  0.4523 -0.6764 -2.1352
 8334SOL     OW36637   4.502   0.551   2.129  0.7815 -0.0776 -0.5058
 8334SOL    HW136638   4.529   0.459   2.121 -2.0164 -0.7232 -2.6616
 8334SOL    HW236639   4.446   0.554   2.207  1.0823 -1.8479 -0.2232
 8335SOL     OW36640   0.256   0.396  13.002  0.0187  0.6657  0.0901
 8335SOL    HW136641   0.331   0.455  13.010 -0.1244  0.6792  1.3434
 8335SOL    HW236642   0.196   0.441  12.943 -0.4560  1.5999  1.2989
 8336SOL     OW36643   0.452   3.919   4.586 -0.1264  0.4826 -0.1660
 8336SOL    HW136644   0.506   3.856   4.634  0.5904 -0.1743 -1.8193
 8336SOL    HW236645   0.384   3.856   4.564 -0.0046 -0.4468  2.1339
 8337SOL     OW36646   1.093   3.674   5.091  0.0427  0.3082  0.1326
 8337SOL    HW136647   1.060   3.764   5.078  0.5618  0.3537 -0.8606
 8337SOL    HW236648   1.157   3.684   5.021  0.7799 -1.8750  0.5098
 8338SOL     OW36649   4.562   3.678   2.101  0.0224  0.3113  0.2826
 8338SOL    HW136650   4.571   3.668   2.006  0.4243 -3.4670  0.7122
 8338SOL    HW236651   4.490   3.740   2.093  0.3940  0.8863  1.3634
 8339SOL     OW36652   4.541   1.014   7.817  0.2768  0.3080 -0.1762
 8339SOL    HW136653   4.490   1.046   7.743 -1.3490 -0.3868  0.6437
 8339SOL    HW236654   4.605   0.963   7.768  1.2467  1.2406  0.0999
 8340SOL     OW36655   3.957   0.974   8.743  0.3102  0.2073  0.1642
 8340SOL    HW136656   3.983   0.961   8.652 -1.1158 -1.0395 -0.0523
 8340SOL    HW236657   3.881   0.916   8.740 -0.1758  0.7084  2.8185
 8341SOL     OW36658   0.609   2.991   2.147  0.4539 -0.3306  0.3696
 8341SOL    HW136659   0.566   2.922   2.096 -0.0147  1.7425 -2.0320
 8341SOL    HW236660   0.555   2.983   2.225 -0.2751 -2.9890 -0.3927
 8342SOL     OW36661   3.317   1.647  11.080 -0.0096 -0.0745  0.3297
 8342SOL    HW136662   3.290   1.556  11.068  0.9529 -0.2553 -0.5125
 8342SOL    HW236663   3.235   1.693  11.062  0.4415  0.7750  0.4024
 8343SOL     OW36664   3.587   3.389   2.105 -0.3030 -0.3087  0.1909
 8343SOL    HW136665   3.514   3.436   2.065  0.2226 -0.3313 -0.8043
 8343SOL    HW236666   3.609   3.330   2.032  3.5717  1.0355  0.2697
 8344SOL     OW36667   0.463   0.290   3.349  0.0186 -0.1885 -0.0811
 8344SOL    HW136668   0.450   0.196   3.343  0.2522 -0.3451  1.6941
 8344SOL    HW236669   0.488   0.307   3.259 -0.9323  2.1702  0.0953
 8345SOL     OW36670   4.623   1.203   4.848  0.1623 -0.1255 -0.6368
 8345SOL    HW136671   4.531   1.191   4.874  0.0377 -0.3565 -1.1921
 8345SOL    HW236672   4.630   1.159   4.764  1.0190  0.7674 -1.0309
 8346SOL     OW36673   2.438   0.197   5.529  0.0244 -0.0875  0.0852
 8346SOL    HW136674   2.526   0.204   5.492 -0.9286 -0.4311 -2.1782
 8346SOL    HW236675   2.437   0.277   5.583 -0.3443 -0.3821  0.5240
 8347SOL     OW36676   1.502   1.277   0.084 -0.6252 -0.2247  0.3871
 8347SOL    HW136677   1.482   1.186   0.061 -2.6785 -0.0519  1.4354
 8347SOL    HW236678   1.471   1.314   0.002 -0.7599  2.2946  1.5661
 8348SOL     OW36679   1.531   2.177   2.186 -0.2194 -0.3793 -0.0462
 8348SOL    HW136680   1.498   2.206   2.101  0.1721 -0.1286 -0.1137
 8348SOL    HW236681   1.459   2.192   2.246 -0.4591 -0.6813 -0.2558
 8349SOL     OW36682   1.806   2.746   6.504 -0.2864  0.2061 -0.2544
 8349SOL    HW136683   1.742   2.791   6.449  1.2331  0.5933 -1.6963
 8349SOL    HW236684   1.762   2.759   6.588  3.3053 -3.1611  2.1355
 8350SOL     OW36685   3.782   4.259   8.074 -0.2031  0.7245 -0.2918
 8350SOL    HW136686   3.756   4.346   8.104 -1.8131 -0.0477  0.4989
 8350SOL    HW236687   3.859   4.274   8.018  2.6403 -2.6937  2.7061
 8351SOL     OW36688   0.541   4.218   2.510  0.3968  0.0540  0.4700
 8351SOL    HW136689   0.579   4.186   2.592  2.1016  0.8698 -0.0062
 8351SOL    HW236690   0.532   4.309   2.538  0.1452  0.0687  0.3387
 8352SOL     OW36691   4.084   4.221   5.958 -0.0826 -0.0170 -0.3736
 8352SOL    HW136692   4.113   4.288   5.896  0.0476  1.6040  1.4159
 8352SOL    HW236693   4.152   4.238   6.024  1.3523 -1.0223 -1.5827
 8353SOL     OW36694   3.106   3.137  12.877 -0.7216 -0.5479  0.3103
 8353SOL    HW136695   3.024   3.135  12.926  0.6476 -0.1216  2.5962
 8353SOL    HW236696   3.175   3.162  12.938 -0.5259  0.6783 -0.4074
 8354SOL     OW36697   4.106   4.310   8.815 -0.1034 -0.1137 -0.1361
 8354SOL    HW136698   4.178   4.345   8.869 -0.7277 -1.1052  1.3400
 8354SOL    HW236699   4.164   4.256   8.762 -0.1407  0.6652 -0.9749
 8355SOL     OW36700   3.466   0.990  12.567  0.1121  0.0599  0.1083
 8355SOL    HW136701   3.465   0.907  12.615 -0.8556  1.5508  2.6206
 8355SOL    HW236702   3.556   1.009  12.538  1.7094 -1.8351  3.7935
 8356SOL     OW36703   2.325   1.933   4.558  0.1670  0.0289  0.0465
 8356SOL    HW136704   2.255   1.892   4.608 -0.0024  0.9223  0.5527
 8356SOL    HW236705   2.298   2.024   4.549  2.5291  0.9098  1.6302
 8357SOL     OW36706   1.583   0.888   9.050 -0.0183 -0.2407  0.3964
 8357SOL    HW136707   1.545   0.937   8.977  1.1613  2.2068  1.4219
 8357SOL    HW236708   1.655   0.844   9.005  1.8601  2.1672  1.0373
 8358SOL     OW36709   3.776   2.999   4.056  0.0264 -0.0204  0.4745
 8358SOL    HW136710   3.695   2.961   4.089  0.1673 -0.3495  0.4485
 8358SOL    HW236711   3.831   2.993   4.134 -0.6397 -1.7757  0.8093
 8359SOL     OW36712   3.932   4.147   8.457 -0.7109 -0.1216  0.1256
 8359SOL    HW136713   3.992   4.221   8.443 -2.0048  1.0020  0.5531
 8359SOL    HW236714   3.899   4.166   8.545  2.1373 -0.5050  1.2773
 8360SOL     OW36715   0.166   0.937   5.454  0.3365 -0.0060  0.0117
 8360SOL    HW136716   0.190   0.973   5.539  1.2846  1.2153 -0.7769
 8360SOL    HW236717   0.110   1.008   5.421  0.1571  0.6701  1.7990
 8361SOL     OW36718   0.903   3.213   3.222  0.2147  0.2162  0.3191
 8361SOL    HW136719   0.995   3.232   3.202 -0.0118  0.7704 -0.2147
 8361SOL    HW236720   0.885   3.176   3.136 -1.0900  0.0478  0.6750
 8362SOL     OW36721   3.953   3.334   4.046  0.5215 -0.1827 -0.1595
 8362SOL    HW136722   3.937   3.418   4.004  0.0150  0.5719  1.5549
 8362SOL    HW236723   3.864   3.304   4.028 -0.6926  2.3445  1.7228
 8363SOL     OW36724   0.753   1.265   0.910 -1.0773 -0.0300  0.1885
 8363SOL    HW136725   0.686   1.208   0.873  0.2725 -2.0391  0.8396
 8363SOL    HW236726   0.700   1.339   0.940  0.5595 -0.2523  3.6435
 8364SOL     OW36727   3.455   2.206   8.406  0.1140  0.2289 -0.1443
 8364SOL    HW136728   3.379   2.259   8.382 -0.2967 -0.5550 -0.5698
 8364SOL    HW236729   3.412   2.123   8.388 -1.0881  0.4098  1.8877
 8365SOL     OW36730   1.522   1.704   3.097  0.2415  0.2500 -0.0570
 8365SOL    HW136731   1.443   1.656   3.123  1.3735 -0.8790  1.3513
 8365SOL    HW236732   1.520   1.701   3.002 -2.2273 -2.3405  0.0551
 8366SOL     OW36733   4.082   2.596   4.444  0.8188  0.2902  0.0484
 8366SOL    HW136734   4.031   2.516   4.437 -0.0081  0.9487 -1.5255
 8366SOL    HW236735   4.086   2.615   4.538  0.3477 -0.7364  0.2761
 8367SOL     OW36736   4.339   0.402   8.435  0.1996  0.3773 -0.3900
 8367SOL    HW136737   4.430   0.370   8.430 -0.6752 -2.2492  0.2818
 8367SOL    HW236738   4.306   0.396   8.524  0.2729 -0.8988 -0.4450
 8368SOL     OW36739   2.418   1.272  14.772 -0.4743  0.1385 -0.2556
 8368SOL    HW136740   2.408   1.178  14.781 -1.5580  0.2701 -0.1361
 8368SOL    HW236741   2.344   1.282  14.712 -1.4014  2.5394  1.2594
 8369SOL     OW36742   0.279   3.505   3.256  0.2155 -0.3206  0.1523
 8369SOL    HW136743   0.210   3.453   3.297  2.0383 -0.6693  2.7754
 8369SOL    HW236744   0.334   3.530   3.329  3.0022  1.1056 -2.4174
 8370SOL     OW36745   4.519   3.050   7.575 -0.2680  0.2164 -0.1639
 8370SOL    HW136746   4.520   3.130   7.628 -0.4041 -0.1836  0.4458
 8370SOL    HW236747   4.494   2.979   7.634 -1.4694  3.3240  3.0960
 8371SOL     OW36748   2.950   3.538   9.935 -0.3300 -0.1724  0.2866
 8371SOL    HW136749   3.039   3.573   9.940 -0.5708  0.6508 -1.2325
 8371SOL    HW236750   2.966   3.456   9.889 -0.6171  0.8702 -1.6940
 8372SOL     OW36751   1.386   4.328   3.495 -0.3573 -0.2641 -0.3413
 8372SOL    HW136752   1.471   4.332   3.539 -0.6283  0.9922  0.0665
 8372SOL    HW236753   1.360   4.236   3.492  2.1947 -1.0122  1.2336
 8373SOL     OW36754   1.842   2.376  16.796  0.1049  0.1102 -0.4328
 8373SOL    HW136755   1.757   2.344  16.825 -0.5089  1.1082 -1.1206
 8373SOL    HW236756   1.832   2.386  16.702 -0.4092  0.5826 -0.3317
 8374SOL     OW36757   0.904   1.244   8.611  0.0817  0.8409 -0.4847
 8374SOL    HW136758   0.965   1.300   8.658 -1.6382 -0.2434  2.9791
 8374SOL    HW236759   0.955   1.236   8.530  1.2730 -0.5433  0.4059
 8375SOL     OW36760   0.027   1.696   7.552 -0.4461  0.3920 -0.2611
 8375SOL    HW136761   4.706   1.752   7.600  0.1502  2.2403 -1.6711
 8375SOL    HW236762   4.732   1.609   7.574 -1.5030  0.4897 -1.6002
 8376SOL     OW36763   1.034   2.748   3.589 -0.8223 -0.1957 -0.3618
 8376SOL    HW136764   0.982   2.806   3.534 -0.0968  0.2034 -0.6350
 8376SOL    HW236765   1.114   2.797   3.570  0.9012 -3.4929 -1.6663
 8377SOL     OW36766   3.151   2.263   5.802 -0.7437  0.3344  0.5965
 8377SOL    HW136767   3.150   2.358   5.796  0.5359  0.3260  0.1797
 8377SOL    HW236768   3.215   2.232   5.738 -1.5640  0.0168 -0.0593
 8378SOL     OW36769   4.129   0.251   8.033 -0.1990 -0.3240 -0.2796
 8378SOL    HW136770   4.159   0.162   8.051  0.4272 -0.3130 -1.2755
 8378SOL    HW236771   4.210   0.297   8.013 -0.6244 -0.6542 -2.8332
 8379SOL     OW36772   0.733   1.081   1.221 -0.2580 -0.1221 -0.2488
 8379SOL    HW136773   0.761   1.170   1.240  1.7720 -0.9667  0.6843
 8379SOL    HW236774   0.737   1.042   1.308  0.6648  1.1045  0.2642
 8380SOL     OW36775   2.439   3.247   3.911  0.1530  0.3194 -0.1470
 8380SOL    HW136776   2.511   3.184   3.904  0.5875  0.8482 -0.4966
 8380SOL    HW236777   2.434   3.279   4.001 -1.7738  0.5729 -0.3410
 8381SOL     OW36778   1.881   3.281   6.284 -0.0088 -0.6922 -0.7528
 8381SOL    HW136779   1.923   3.366   6.273  0.8090 -0.7590  1.8666
 8381SOL    HW236780   1.954   3.235   6.242  0.0255  0.2836 -1.7692
 8382SOL     OW36781   1.402   1.409  16.724  0.0395  0.3073  0.0500
 8382SOL    HW136782   1.388   1.404  16.629 -2.9025 -0.0263  0.5086
 8382SOL    HW236783   1.351   1.487  16.747 -3.2090 -2.3418  1.7943
 8383SOL     OW36784   4.182   4.477   2.589  0.1155  0.3613 -0.0957
 8383SOL    HW136785   4.218   4.391   2.567 -0.3385  0.3787 -0.9144
 8383SOL    HW236786   4.247   4.543   2.564  2.0020 -1.1372  0.8535
 8384SOL     OW36787   0.447   3.273  10.822  0.1612 -0.6744  0.4530
 8384SOL    HW136788   0.387   3.270  10.896  1.6454 -2.2140  1.5968
 8384SOL    HW236789   0.496   3.191  10.826  1.8966  0.2889 -1.4455
 8385SOL     OW36790   3.667   1.338   8.032 -0.3334  0.1186 -0.2356
 8385SOL    HW136791   3.751   1.315   7.992  0.5184  0.0984  1.5754
 8385SOL    HW236792   3.650   1.249   8.063  1.1894  0.5911  1.8976
 8386SOL     OW36793   2.819   2.699   5.319  0.5681  0.0036 -0.3516
 8386SOL    HW136794   2.783   2.633   5.260  0.1383  0.3947 -0.5285
 8386SOL    HW236795   2.797   2.657   5.403 -0.4761 -1.6575 -1.4554
 8387SOL     OW36796   2.990   2.112   3.759  0.9881  0.2819  0.6473
 8387SOL    HW136797   2.904   2.121   3.800 -0.2089 -1.8457 -1.3721
 8387SOL    HW236798   3.024   2.202   3.760 -1.4462  1.2041 -0.7119
 8388SOL     OW36799   1.428   1.047  17.698 -0.0294  0.1876  0.3375
 8388SOL    HW136800   1.419   0.966  17.647  1.0255  0.3168 -0.0537
 8388SOL    HW236801   1.428   0.999   0.023 -0.9030  0.2599  0.3755
 8389SOL     OW36802   4.708   1.344   9.633  0.4151 -0.1632  0.3404
 8389SOL    HW136803   4.678   1.376   9.547 -1.0906 -1.1171  0.5206
 8389SOL    HW236804   4.625   1.326   9.676 -0.6501  3.4425 -0.1942
 8390SOL     OW36805   1.490   0.092   5.488 -0.0168  0.2855 -0.0745
 8390SOL    HW136806   1.434   0.166   5.464  1.3460  0.8752 -1.3914
 8390SOL    HW236807   1.467   0.080   5.580  0.4953 -0.3683 -0.0281
 8391SOL     OW36808   1.373   4.203  10.417  0.5130  0.3793 -0.1149
 8391SOL    HW136809   1.466   4.217  10.435  0.6477 -0.1524 -0.4090
 8391SOL    HW236810   1.351   4.143  10.488  2.1031 -0.3330 -0.2413
 8392SOL     OW36811   3.542   4.290   5.330  0.3648 -0.3622  0.0857
 8392SOL    HW136812   3.618   4.248   5.370  1.4863  1.7180  0.1708
 8392SOL    HW236813   3.521   4.365   5.386  1.2556 -0.7830  0.9823
 8393SOL     OW36814   0.070   1.375   8.702  0.2185 -0.3964  0.4631
 8393SOL    HW136815   4.728   1.411   8.734 -0.3272  0.1248 -1.4942
 8393SOL    HW236816   0.129   1.392   8.775  0.5375 -2.0886  0.5925
 8394SOL     OW36817   4.466   1.309   9.782  0.3411 -0.2049  0.0420
 8394SOL    HW136818   4.490   1.379   9.844 -0.9469  1.3461 -1.1905
 8394SOL    HW236819   4.469   1.229   9.833  4.2801 -0.1875 -0.1531
 8395SOL     OW36820   2.504   1.195   1.501  0.0828  0.0588  0.4961
 8395SOL    HW136821   2.509   1.147   1.584  1.0987 -0.2789  0.2368
 8395SOL    HW236822   2.541   1.138   1.434  2.1524  0.7575  1.0271
 8396SOL     OW36823   1.909   1.040   9.026  0.4963  0.1831 -0.3225
 8396SOL    HW136824   1.882   0.949   9.028 -0.5006  0.5519  2.7094
 8396SOL    HW236825   1.896   1.064   8.934 -1.1921  1.8305  0.3474
 8397SOL     OW36826   2.134   3.549   1.991  0.7289 -0.0146  0.5828
 8397SOL    HW136827   2.159   3.527   2.081 -0.9834  0.1431  1.0991
 8397SOL    HW236828   2.042   3.525   1.995  0.7310  0.0910  1.2979
 8398SOL     OW36829   2.612   0.169   4.766 -0.5119 -0.6897 -0.1789
 8398SOL    HW136830   2.637   0.132   4.850  1.6650  0.2733 -0.3974
 8398SOL    HW236831   2.592   0.261   4.783  0.6808  0.0160 -2.5677
 8399SOL     OW36832   3.747   2.099   7.220  0.0494  0.6991  0.6634
 8399SOL    HW136833   3.684   2.126   7.154 -0.2837 -0.4650  0.5025
 8399SOL    HW236834   3.707   2.130   7.301 -1.8207  0.8122 -0.3177
 8400SOL     OW36835   0.421   2.328   3.039  0.0123 -0.5669  0.1734
 8400SOL    HW136836   0.411   2.264   3.109  2.8642  0.4914  1.5331
 8400SOL    HW236837   0.335   2.319   2.998 -0.4527  0.0468  1.0347
 8401SOL     OW36838   3.987   1.756  11.651 -0.7524  0.2135 -0.2850
 8401SOL    HW136839   3.896   1.755  11.620 -0.4671 -1.0557 -1.0817
 8401SOL    HW236840   4.002   1.661  11.653 -0.8841  0.1617 -2.4305
 8402SOL     OW36841   0.524   0.614   0.288 -0.6609  0.4995 -0.1078
 8402SOL    HW136842   0.433   0.609   0.257 -0.9875  0.4306  0.8403
 8402SOL    HW236843   0.570   0.641   0.209 -1.6140  2.3343 -0.0416
 8403SOL     OW36844   0.575   2.103   0.766  0.1419  0.5276  0.0410
 8403SOL    HW136845   0.626   2.181   0.790 -1.2969  1.8558 -1.2441
 8403SOL    HW236846   0.522   2.101   0.846  1.0640 -0.8470  0.6167
 8404SOL     OW36847   3.829   1.102   4.944  0.2246 -0.7814 -0.1788
 8404SOL    HW136848   3.827   1.198   4.941 -0.4835 -0.7113  2.1880
 8404SOL    HW236849   3.736   1.081   4.957  0.4604 -0.2816  2.2982
 8405SOL     OW36850   1.622   1.866  14.790 -0.1509  0.2365  0.4023
 8405SOL    HW136851   1.596   1.945  14.838 -1.8695  1.1350 -2.0247
 8405SOL    HW236852   1.543   1.842  14.742  0.7321 -0.5841 -0.6341
 8406SOL     OW36853   2.151   1.199  12.552  0.2663  0.2993  0.0388
 8406SOL    HW136854   2.166   1.110  12.523 -1.5273 -0.0138  0.0839
 8406SOL    HW236855   2.065   1.183  12.590 -0.1123 -1.2179 -1.4810
 8407SOL     OW36856   2.868   3.881   3.938 -0.0892  0.0232  0.2129
 8407SOL    HW136857   2.905   3.871   4.026 -3.6429 -3.4201  1.3383
 8407SOL    HW236858   2.912   3.963   3.918  0.7473 -0.0029  1.9374
 8408SOL     OW36859   2.089   1.032   8.755 -1.0588 -0.1389 -0.4785
 8408SOL    HW136860   2.178   1.036   8.720 -0.9420  0.5678 -0.1087
 8408SOL    HW236861   2.102   1.069   8.843 -2.4085 -0.6700 -0.0588
 8409SOL     OW36862   1.879   4.155  14.885 -0.3397  0.7216  0.0087
 8409SOL    HW136863   1.797   4.197  14.861 -0.9826 -0.3819  0.3036
 8409SOL    HW236864   1.928   4.187  14.808 -0.0821  0.5730  0.1079
 8410SOL     OW36865   0.294   0.106  13.012  0.1482 -0.3388 -0.1978
 8410SOL    HW136866   0.337   0.098  12.927 -2.6630 -2.1645 -1.4497
 8410SOL    HW236867   0.266   0.198  13.003  1.6159 -0.0198 -1.4154
 8411SOL     OW36868   4.471   3.138   1.529 -0.0116  0.0782 -0.5649
 8411SOL    HW136869   4.564   3.147   1.550  0.3973 -2.5073 -1.2213
 8411SOL    HW236870   4.437   3.156   1.617  1.2165 -0.0537 -0.0593
 8412SOL     OW36871   3.895   0.165   7.912 -0.4340 -0.1366 -0.4453
 8412SOL    HW136872   3.902   0.070   7.903  0.0397 -0.2465  1.1987
 8412SOL    HW236873   3.974   0.185   7.962 -2.6825  1.8367  2.3025
 8413SOL     OW36874   0.789   3.835  11.788 -0.5146 -0.3185 -0.1024
 8413SOL    HW136875   0.842   3.831  11.868 -1.7337  1.8082  0.7809
 8413SOL    HW236876   0.729   3.901  11.822  0.7246  0.8849 -0.2822
 8414SOL     OW36877   1.720   4.400  16.513  0.2857  0.0605  0.6877
 8414SOL    HW136878   1.752   4.310  16.519  0.7766  0.1140 -1.0218
 8414SOL    HW236879   1.744   4.425  16.424  1.5890 -1.0961  0.7045
 8415SOL     OW36880   0.824   0.616   3.410 -0.3364  0.0422  0.2049
 8415SOL    HW136881   0.865   0.530   3.402  0.8183  0.7099 -1.1065
 8415SOL    HW236882   0.768   0.614   3.332  1.1334  1.4065 -0.9005
 8416SOL     OW36883   3.771   2.898   7.730 -0.4149  0.1544 -0.5767
 8416SOL    HW136884   3.820   2.831   7.777  0.0617  0.1393 -1.0942
 8416SOL    HW236885   3.795   2.876   7.640  2.8943  2.3386 -0.2467
 8417SOL     OW36886   1.499   4.578  10.491  0.2189  0.1782 -0.2453
 8417SOL    HW136887   1.558   4.520  10.539 -2.1089 -0.0921  2.3253
 8417SOL    HW236888   1.495   4.537  10.405 -0.7777 -0.6226  0.1763
 8418SOL     OW36889   4.671   0.841   7.587 -0.0471  0.7211 -0.1761
 8418SOL    HW136890   4.605   0.878   7.528 -0.3945  0.8941  0.3200
 8418SOL    HW236891   0.000   0.816   7.526 -0.8858  0.6050 -1.0903
 8419SOL     OW36892   4.283   4.596   7.251 -0.0159  0.3074 -0.1480
 8419SOL    HW136893   4.329   4.516   7.275 -1.7123 -0.9522 -1.1414
 8419SOL    HW236894   4.294   4.631   7.340 -2.8521  0.3848  0.1640
 8420SOL     OW36895   3.034   3.186   7.544  0.8616  0.2411  0.0319
 8420SOL    HW136896   3.068   3.166   7.632 -1.5243 -0.4455  0.8015
 8420SOL    HW236897   3.086   3.262   7.521  0.4370  1.0209  1.5911
 8421SOL     OW36898   2.213   4.500   7.599  0.1390  0.1882 -0.3781
 8421SOL    HW136899   2.305   4.527   7.598  0.2840 -0.2873  0.6296
 8421SOL    HW236900   2.170   4.586   7.606 -1.2080 -0.4633 -0.7049
 8422SOL     OW36901   2.809   2.519   8.301 -0.3166 -0.6104 -0.1423
 8422SOL    HW136902   2.722   2.521   8.340  0.5600 -0.1203  1.7633
 8422SOL    HW236903   2.816   2.597   8.244  2.0809  1.2054  2.6395
 8423SOL     OW36904   2.135   2.572   3.286  0.0074  0.2444 -0.1477
 8423SOL    HW136905   2.108   2.579   3.194 -0.1941 -0.6054 -0.1577
 8423SOL    HW236906   2.099   2.486   3.308  0.8659  0.6473  2.7899
 8424SOL     OW36907   3.984   2.957   6.371 -0.2762  0.0875  0.0560
 8424SOL    HW136908   4.045   3.009   6.320 -3.1112  1.2845 -2.1076
 8424SOL    HW236909   4.043   2.883   6.386 -0.4145 -0.0180  0.0888
 8425SOL     OW36910   4.059   1.529   8.492 -0.2457 -0.1606 -0.4897
 8425SOL    HW136911   4.114   1.467   8.444 -1.3739  0.3745 -2.4590
 8425SOL    HW236912   3.992   1.544   8.425  0.5568 -0.7960 -1.4327
 8426SOL     OW36913   2.296   0.576   6.818  0.6161 -0.3839 -0.0354
 8426SOL    HW136914   2.324   0.485   6.828 -0.6784 -0.7323  0.4512
 8426SOL    HW236915   2.302   0.597   6.911  0.7023 -1.0915  0.1211
 8427SOL     OW36916   3.303   0.074  13.567  0.5917  0.0332  0.0560
 8427SOL    HW136917   3.347   0.004  13.518  1.0731  0.7451 -0.5134
 8427SOL    HW236918   3.346   0.074  13.652  1.1207 -0.2875 -0.2095
 8428SOL     OW36919   2.601   4.607  16.704 -0.5091  0.0398  0.1680
 8428SOL    HW136920   2.614   4.549  16.629 -0.8848 -0.1344  0.2368
 8428SOL    HW236921   2.674   4.574  16.755  0.2674 -0.4559 -1.2788
 8429SOL     OW36922   4.685   3.280  11.383  0.3293 -0.0995  0.2244
 8429SOL    HW136923   4.672   3.219  11.310 -2.7582 -1.5941  2.0395
 8429SOL    HW236924   4.677   3.356  11.325  2.1433  0.9355  1.3375
 8430SOL     OW36925   2.735   1.923   0.548  1.0266 -0.6914  0.4046
 8430SOL    HW136926   2.755   2.012   0.579 -0.3743 -0.0149 -0.6589
 8430SOL    HW236927   2.782   1.921   0.465 -0.5659  0.6098 -0.5141
 8431SOL     OW36928   2.613   0.350   5.225 -0.2941  0.1630 -0.7763
 8431SOL    HW136929   2.556   0.426   5.212  2.5794  2.6734  1.1573
 8431SOL    HW236930   2.592   0.331   5.316 -0.2550 -0.4998 -0.9062
 8432SOL     OW36931   1.714   0.753   9.392  0.2714 -0.1364  0.1523
 8432SOL    HW136932   1.728   0.658   9.399  1.4569 -0.1139 -1.9456
 8432SOL    HW236933   1.802   0.777   9.364  0.5361  0.5298  1.5621
 8433SOL     OW36934   4.385   0.271   7.917  0.0146  0.0725 -0.7978
 8433SOL    HW136935   4.394   0.308   7.829  1.3802  0.0422 -0.6668
 8433SOL    HW236936   4.463   0.301   7.964  1.0621 -3.3519 -0.3755
 8434SOL     OW36937   1.395   3.358  14.192  0.5948 -0.3031  0.5390
 8434SOL    HW136938   1.389   3.274  14.146  2.4510  0.7589 -1.6873
 8434SOL    HW236939   1.466   3.334  14.252  0.8275 -0.5302  0.1734
 8435SOL     OW36940   2.753   1.268   1.142 -0.2451  0.6104 -0.3527
 8435SOL    HW136941   2.812   1.227   1.078 -0.6507 -0.8771  0.2396
 8435SOL    HW236942   2.799   1.245   1.222 -0.6442 -0.9310 -0.5601
 8436SOL     OW36943   3.058   3.339  12.663  0.3911 -0.5145 -0.2159
 8436SOL    HW136944   3.057   3.268  12.598  0.6429  2.1370 -3.1306
 8436SOL    HW236945   3.083   3.293  12.743 -1.8046 -0.1829  0.6553
 8437SOL     OW36946   3.566   3.171   3.102 -0.1817  0.1977  0.5180
 8437SOL    HW136947   3.501   3.153   3.169 -0.0755 -2.0962  0.0007
 8437SOL    HW236948   3.648   3.154   3.149 -0.1666 -2.2897 -0.4409
 8438SOL     OW36949   4.025   3.699  17.252 -0.2796 -0.0680  0.6956
 8438SOL    HW136950   3.978   3.625  17.290 -1.4412 -0.8920 -2.3538
 8438SOL    HW236951   3.943   3.748  17.248 -0.1469  0.2269  1.4960
 8439SOL     OW36952   4.573   2.445   8.092  0.1921  0.0983  0.0881
 8439SOL    HW136953   4.625   2.524   8.105 -0.6800  0.8512 -0.9856
 8439SOL    HW236954   4.516   2.453   8.169 -2.0053  1.6707 -1.6983
 8440SOL     OW36955   4.127   3.935   7.267 -0.4656  0.2316  0.7545
 8440SOL    HW136956   4.088   3.952   7.181  0.7751  0.6108  0.2728
 8440SOL    HW236957   4.205   3.892   7.233 -1.9690 -2.3057  0.4967
 8441SOL     OW36958   2.784   3.250   8.346 -0.3900  0.6168  0.7391
 8441SOL    HW136959   2.703   3.206   8.369  0.1224  0.5607  2.4520
 8441SOL    HW236960   2.800   3.203   8.263 -0.0624 -0.9892  1.7032
 8442SOL     OW36961   2.209   2.306   5.059  0.1966 -0.2912  0.0494
 8442SOL    HW136962   2.211   2.252   4.980  0.4394  0.0753 -0.1961
 8442SOL    HW236963   2.211   2.398   5.030 -3.4605 -0.4460 -0.6470
 8443SOL     OW36964   0.615   2.772   0.141  0.1261 -0.1647  0.1379
 8443SOL    HW136965   0.539   2.807   0.189  0.3791  0.4867  0.0691
 8443SOL    HW236966   0.596   2.817   0.059 -2.6463  1.6115  1.7127
 8444SOL     OW36967   1.563   4.060   5.653 -0.0993  0.0740 -0.2626
 8444SOL    HW136968   1.624   4.017   5.593 -0.6018  1.1592 -1.5631
 8444SOL    HW236969   1.510   4.114   5.595  0.0787  3.3918  2.6702
 8445SOL     OW36970   0.393   2.539   4.195 -0.0307  0.1713 -0.1966
 8445SOL    HW136971   0.366   2.479   4.125 -1.4811  0.6318 -0.0429
 8445SOL    HW236972   0.438   2.607   4.145 -3.3827  1.2873 -1.7010
 8446SOL     OW36973   4.659   2.530   6.230  0.1813 -0.0686  0.1754
 8446SOL    HW136974   4.680   2.622   6.244 -0.6273  0.3282 -1.2392
 8446SOL    HW236975   4.566   2.540   6.245  0.8110  0.2132  3.7307
 8447SOL     OW36976   1.931   3.901  11.750 -0.1262 -0.1268  0.2201
 8447SOL    HW136977   1.877   3.825  11.730  2.2407 -1.1619 -2.1716
 8447SOL    HW236978   1.894   3.981  11.712  0.9438  0.0604 -0.4145
 8448SOL     OW36979   1.844   0.036   8.281 -0.5219 -0.0203 -0.2220
 8448SOL    HW136980   1.751   0.022   8.263 -0.2717 -0.7978 -0.8861
 8448SOL    HW236981   1.848   0.130   8.297 -0.5202 -0.4418  2.1735
 8449SOL     OW36982   4.126   1.168  13.887  0.3959 -0.7160 -0.3838
 8449SOL    HW136983   4.205   1.132  13.847 -0.5408 -2.9738 -0.2318
 8449SOL    HW236984   4.075   1.088  13.901  0.4587 -0.2432  2.5682
 8450SOL     OW36985   0.403   0.189   8.677 -0.2932 -0.1614 -0.3251
 8450SOL    HW136986   0.483   0.241   8.687 -0.8156  0.0114  3.1258
 8450SOL    HW236987   0.426   0.136   8.601  2.3960 -1.0660  1.1142
 8451SOL     OW36988   2.010   2.261  12.379 -0.3879  0.1952 -0.2151
 8451SOL    HW136989   1.995   2.354  12.395  0.5147  0.6922 -2.3183
 8451SOL    HW236990   1.918   2.239  12.394  0.4412 -2.1148  1.5480
 8452SOL     OW36991   4.616   1.300  12.663 -0.8183 -0.0855  0.6569
 8452SOL    HW136992   4.544   1.285  12.602 -0.5079  0.0230  0.2643
 8452SOL    HW236993   4.634   1.209  12.687 -0.3137 -0.3953 -0.8722
 8453SOL     OW36994   1.896   2.931  15.333 -0.3923 -0.0393 -0.0012
 8453SOL    HW136995   1.816   2.906  15.286  0.1699  0.4260 -1.1996
 8453SOL    HW236996   1.958   2.918  15.261 -2.8089 -0.2331 -2.0570
 8454SOL     OW36997   3.093   2.511   9.055 -0.2755  0.2879  0.0108
 8454SOL    HW136998   3.131   2.447   9.115 -0.7962 -0.6773 -0.6685
 8454SOL    HW236999   3.002   2.482   9.063  0.0625 -1.1462 -1.2215
 8455SOL     OW37000   2.219   2.532   4.890 -0.0448  0.0833  0.1353
 8455SOL    HW137001   2.290   2.479   4.855  0.4110  1.0804 -0.4660
 8455SOL    HW237002   2.244   2.621   4.866 -1.2578 -0.1484 -1.9347
 8456SOL     OW37003   3.314   1.546   9.687 -0.3060  0.5656  0.7035
 8456SOL    HW137004   3.265   1.574   9.609  2.3646 -0.0527 -1.2115
 8456SOL    HW237005   3.276   1.462   9.711 -2.2100  0.3844 -2.9655
 8457SOL     OW37006   4.033   3.664   1.599 -0.0035  0.8092  0.4382
 8457SOL    HW137007   4.104   3.724   1.576  0.5587 -0.2030 -0.4492
 8457SOL    HW237008   3.965   3.692   1.537 -0.1729  1.0276  0.7182
 8458SOL     OW37009   4.721   1.703   4.668 -0.0273 -0.0891  0.1311
 8458SOL    HW137010   4.723   1.609   4.655 -0.4263 -0.0708 -0.0566
 8458SOL    HW237011   0.066   1.716   4.627  0.8283 -0.2999  1.8586
 8459SOL     OW37012   0.511   3.349   8.899 -0.1973 -0.5287  0.0467
 8459SOL    HW137013   0.483   3.438   8.878  0.8231 -0.4116 -0.8174
 8459SOL    HW237014   0.465   3.301   8.830 -0.3714  0.3862 -0.4741
 8460SOL     OW37015   3.041   2.660   2.861  0.8329 -0.4099 -0.0543
 8460SOL    HW137016   3.101   2.695   2.927 -0.4595  1.8764 -0.1095
 8460SOL    HW237017   3.020   2.749   2.833 -0.0494 -1.8524 -3.8805
 8461SOL     OW37018   2.812   2.490  17.043 -0.3072  0.3369  0.2285
 8461SOL    HW137019   2.863   2.545  16.983 -1.0417  0.8329  0.0479
 8461SOL    HW237020   2.832   2.511  17.134  1.8259  2.8744 -0.8078
 8462SOL     OW37021   0.009   3.696   8.378  0.6379  0.3460 -0.1444
 8462SOL    HW137022   0.044   3.782   8.399 -0.5977  0.3434  1.8801
 8462SOL    HW237023   0.063   3.647   8.439  1.3551  1.5591  0.1839
 8463SOL     OW37024   2.094   1.595  12.152 -0.3471 -0.2960 -0.6806
 8463SOL    HW137025   2.093   1.689  12.168  1.1747 -0.6414  1.4137
 8463SOL    HW237026   2.172   1.577  12.100  1.3814  0.3013  1.7298
 8464SOL     OW37027   3.921   1.253  17.408 -0.3053  0.1149  0.4740
 8464SOL    HW137028   3.916   1.346  17.385 -0.6369 -0.1384 -0.4561
 8464SOL    HW237029   3.827   1.244  17.424 -0.2198 -0.4537  0.6735
 8465SOL     OW37030   4.332   4.557   5.637 -0.8861  0.1791 -0.1430
 8465SOL    HW137031   4.286   4.545   5.719  1.2298 -1.3011  0.8222
 8465SOL    HW237032   4.390   4.625   5.670 -0.2676 -1.2063  1.6464
 8466SOL     OW37033   2.901   1.846  10.289  0.3349  0.4542  0.3683
 8466SOL    HW137034   2.875   1.754  10.288 -0.8056  0.8373 -2.8970
 8466SOL    HW237035   2.882   1.870  10.199  3.1192 -1.0687 -0.6301
 8467SOL     OW37036   4.184   3.776  11.140 -0.4312 -0.0789 -0.0538
 8467SOL    HW137037   4.267   3.816  11.164 -0.5625  0.6782 -0.8278
 8467SOL    HW237038   4.133   3.851  11.109 -1.6789 -0.1279  1.8794
 8468SOL     OW37039   4.086   3.481  12.595  0.1916 -0.5863  0.1107
 8468SOL    HW137040   4.062   3.438  12.677 -1.9682 -0.6572 -0.5577
 8468SOL    HW237041   4.036   3.562  12.601  0.2940 -0.4080 -1.5285
 8469SOL     OW37042   2.580   4.472   6.933 -0.4781  0.1808  0.0953
 8469SOL    HW137043   2.496   4.457   6.889  0.9073 -1.2223 -2.1035
 8469SOL    HW237044   2.553   4.444   7.021 -1.1033 -0.4826 -0.2970
 8470SOL     OW37045   1.221   4.163   4.618  0.0436  0.1358  0.5849
 8470SOL    HW137046   1.274   4.163   4.697 -1.1312  0.1377  1.3831
 8470SOL    HW237047   1.280   4.131   4.551 -1.1290 -0.5579 -0.1167
 8471SOL     OW37048   0.410   4.390   2.003 -0.5946 -0.0130  0.4999
 8471SOL    HW137049   0.373   4.394   2.091 -0.0213  0.3452  0.7218
 8471SOL    HW237050   0.410   4.297   1.982 -2.6497  0.4366 -1.6354
 8472SOL     OW37051   4.343   3.913   6.020 -0.4651 -0.6622 -0.3968
 8472SOL    HW137052   4.258   3.941   6.053 -0.1155 -1.1186  0.8986
 8472SOL    HW237053   4.323   3.820   6.027 -4.0211  0.3285  2.4973
 8473SOL     OW37054   0.560   3.854   6.189 -0.5277  0.3331  0.1449
 8473SOL    HW137055   0.616   3.931   6.195  1.2195 -0.9774  0.5877
 8473SOL    HW237056   0.508   3.881   6.113 -1.2334 -1.5159 -0.0301
 8474SOL     OW37057   1.432   3.478  14.753  0.1510 -0.6180 -0.3921
 8474SOL    HW137058   1.486   3.404  14.725  0.6433 -0.1888 -0.5896
 8474SOL    HW237059   1.494   3.551  14.746 -0.4084 -0.2643 -1.6041
 8475SOL     OW37060   3.472   1.741   8.026 -0.3333 -0.2766  0.2160
 8475SOL    HW137061   3.389   1.775   8.060 -0.4441 -0.8908  0.5538
 8475SOL    HW237062   3.458   1.718   7.935 -1.8192  0.9738  0.1244
 8476SOL     OW37063   0.445   4.664   8.230  0.1429 -0.4640 -0.0300
 8476SOL    HW137064   0.425   4.691   8.140  0.4238 -0.7626 -0.1830
 8476SOL    HW237065   0.531   4.621   8.227  0.2968 -0.2207  0.9871
 8477SOL     OW37066   4.449   0.139   8.573 -0.4596  0.2119 -0.3026
 8477SOL    HW137067   4.459   0.097   8.658  0.5240 -0.6947 -0.8672
 8477SOL    HW237068   4.519   0.086   8.535 -0.7249  0.0939 -0.6280
 8478SOL     OW37069   2.729   1.299   3.194 -0.5660  0.0709 -0.3989
 8478SOL    HW137070   2.671   1.222   3.195 -1.4509  0.7486  0.7011
 8478SOL    HW237071   2.734   1.332   3.284 -0.2965  2.3809 -1.2700
 8479SOL     OW37072   0.095   3.762  14.120 -0.2708  0.0379  0.0090
 8479SOL    HW137073   0.169   3.711  14.153 -1.4793 -1.5030  0.3328
 8479SOL    HW237074   0.127   3.793  14.035 -3.0322 -1.0576 -1.4184
 8480SOL     OW37075   0.656   2.812   6.362 -0.0695 -0.3732  0.4105
 8480SOL    HW137076   0.717   2.742   6.341  0.7094  0.0640  1.2108
 8480SOL    HW237077   0.600   2.772   6.428 -0.0125  0.0412  0.7151
 8481SOL     OW37078   1.708   2.095  12.182  0.5933  0.0731  0.2856
 8481SOL    HW137079   1.771   2.027  12.209  0.7211  0.3133  0.5955
 8481SOL    HW237080   1.682   2.050  12.102 -1.6128 -0.2029  1.1715
 8482SOL     OW37081   1.542   1.838   8.362 -0.3155 -0.7772 -0.5024
 8482SOL    HW137082   1.584   1.803   8.441  0.4674  2.9824  0.7642
 8482SOL    HW237083   1.453   1.858   8.390 -0.7874  0.7226 -3.1023
 8483SOL     OW37084   3.840   1.725   4.541 -0.0888  0.4006  0.3874
 8483SOL    HW137085   3.815   1.652   4.598  1.2078 -0.5846 -0.3065
 8483SOL    HW237086   3.892   1.780   4.600  2.1577 -0.2997 -0.9666
 8484SOL     OW37087   3.004   0.923  12.984 -0.6460  0.2212  0.0058
 8484SOL    HW137088   3.047   1.008  12.974  0.3090 -0.5555 -2.4307
 8484SOL    HW237089   3.037   0.896  13.070 -0.8649 -0.8268 -0.2353
 8485SOL     OW37090   1.130   2.477  15.624 -0.2724 -0.3479 -0.4361
 8485SOL    HW137091   1.116   2.410  15.557 -2.1322  0.3077 -0.6800
 8485SOL    HW237092   1.042   2.493  15.659  0.1049  0.1165  0.3030
 8486SOL     OW37093   1.033   2.514   7.571  0.4163 -0.4912  0.4222
 8486SOL    HW137094   1.003   2.603   7.590 -1.0040 -0.8075 -0.2865
 8486SOL    HW237095   1.066   2.531   7.483 -0.4056 -1.1525 -0.0147
 8487SOL     OW37096   4.565   1.785   5.996  0.2921  0.2508 -0.0615
 8487SOL    HW137097   4.540   1.730   6.070 -1.3951  0.6885 -0.3045
 8487SOL    HW237098   4.547   1.720   5.927  0.1170 -0.5953  0.7876
 8488SOL     OW37099   3.770   3.717   3.735  0.1081  0.0075  0.2026
 8488SOL    HW137100   3.702   3.699   3.669  0.2238  0.0782  0.0636
 8488SOL    HW237101   3.721   3.773   3.795  1.2724 -0.2011  1.3272
 8489SOL     OW37102   4.406   0.909   1.454  0.0797 -0.1482 -0.1703
 8489SOL    HW137103   4.356   0.828   1.461  3.4156 -2.2353 -0.3093
 8489SOL    HW237104   4.494   0.872   1.459 -1.0219 -2.7026  0.0853
 8490SOL     OW37105   4.674   1.979  15.874 -0.4425 -0.2164  0.1442
 8490SOL    HW137106   4.731   1.975  15.951 -1.0360  0.4301  0.6161
 8490SOL    HW237107   4.647   1.888  15.872 -2.3564  0.3332  0.7244
 8491SOL     OW37108   1.651   1.948   4.783  0.3286 -0.6983 -0.5500
 8491SOL    HW137109   1.680   2.018   4.841 -0.1016 -1.6897  0.8700
 8491SOL    HW237110   1.687   1.868   4.822 -1.7427  0.0615  2.8771
 8492SOL     OW37111   2.701   1.029   7.719 -0.2416  0.4972  0.3533
 8492SOL    HW137112   2.616   1.067   7.742 -1.3243 -1.7656  0.1411
 8492SOL    HW237113   2.695   1.048   7.626  1.3130  0.1311  0.1799
 8493SOL     OW37114   4.131   1.652   8.712 -0.3863 -0.4454  0.1470
 8493SOL    HW137115   4.081   1.606   8.646  0.2363 -0.3520 -0.3920
 8493SOL    HW237116   4.084   1.735   8.721 -1.6526 -1.4649  2.7249
 8494SOL     OW37117   0.813   0.106   4.190  0.2397 -0.5277 -0.4642
 8494SOL    HW137118   0.890   0.063   4.152 -0.2609 -1.3076 -0.5902
 8494SOL    HW237119   0.842   0.197   4.180 -1.0924 -0.1301 -0.7169
 8495SOL     OW37120   1.728   4.040   2.694 -0.2663 -0.1246  0.1871
 8495SOL    HW137121   1.689   3.984   2.761 -2.1302  0.8611 -0.0615
 8495SOL    HW237122   1.687   3.994   2.621  1.3332 -0.2102 -0.6570
 8496SOL     OW37123   2.355   4.477  16.620 -0.0819  0.9923  0.8685
 8496SOL    HW137124   2.390   4.396  16.656  1.3220  0.2267 -2.2918
 8496SOL    HW237125   2.412   4.538  16.667 -0.4481  1.7484  0.3272
 8497SOL     OW37126   0.165   1.623  13.318  0.3157 -0.0053 -0.6691
 8497SOL    HW137127   0.124   1.707  13.340  0.1311 -0.4776  0.7976
 8497SOL    HW237128   0.199   1.595  13.403  2.7887 -0.2505 -1.7405
 8498SOL     OW37129   3.670   2.515   7.271 -0.3267  0.0395  0.3887
 8498SOL    HW137130   3.699   2.564   7.349  0.2628 -0.4776  0.4967
 8498SOL    HW237131   3.576   2.505   7.285 -0.0422 -1.0937  1.5569
 8499SOL     OW37132   0.444   4.371   1.630 -0.3453 -0.3260 -0.3650
 8499SOL    HW137133   0.423   4.340   1.718 -0.0302 -1.0454 -0.5412
 8499SOL    HW237134   0.506   4.303   1.603  2.3459  2.0801 -0.2848
 8500SOL     OW37135   4.175   2.386   4.865 -0.6250  0.6823 -0.5029
 8500SOL    HW137136   4.257   2.343   4.889  0.0408  1.7133 -0.8977
 8500SOL    HW237137   4.217   2.437   4.796  1.9260 -1.1413 -0.3144
 8501SOL     OW37138   0.578   3.287  14.498 -0.1625  0.8573 -0.2059
 8501SOL    HW137139   0.654   3.341  14.519  0.4938  0.9035 -2.6993
 8501SOL    HW237140   0.608   3.246  14.417  0.1991  0.3269  0.1950
 8502SOL     OW37141   2.209   0.584   9.476 -0.5040  0.2724 -0.4138
 8502SOL    HW137142   2.143   0.654   9.479 -0.4732  0.4453 -3.1141
 8502SOL    HW237143   2.240   0.580   9.566 -1.6860  0.8354  0.0136
 8503SOL     OW37144   3.250   0.216   4.463  0.1334  0.0400  0.3880
 8503SOL    HW137145   3.189   0.150   4.496 -0.9453 -0.2733 -2.1715
 8503SOL    HW237146   3.204   0.235   4.381  3.5237  0.8052 -1.3121
 8504SOL     OW37147   3.713   0.790   8.738 -0.2238  0.1743  0.3476
 8504SOL    HW137148   3.767   0.710   8.738  2.4949  1.9753 -1.4368
 8504SOL    HW237149   3.633   0.742   8.716 -1.3996  1.4692  1.8944
 8505SOL     OW37150   1.803   1.886   8.768  0.4162 -0.0724  0.6845
 8505SOL    HW137151   1.875   1.892   8.705 -0.7949 -2.8132 -0.9296
 8505SOL    HW237152   1.737   1.845   8.713  0.9085 -0.1679  0.1661
 8506SOL     OW37153   3.021   3.957   5.853  0.4785  0.2710 -0.2437
 8506SOL    HW137154   2.988   4.035   5.808  0.7493  0.2946 -0.3980
 8506SOL    HW237155   3.048   3.896   5.784 -1.1008 -0.0397 -0.5838
 8507SOL     OW37156   3.110   4.265   2.769  0.0882 -0.6610 -0.0749
 8507SOL    HW137157   3.098   4.245   2.677 -0.2321 -0.8442  0.0079
 8507SOL    HW237158   3.185   4.211   2.794  0.4643 -0.5282 -0.9113
 8508SOL     OW37159   0.556   1.654   4.708 -0.0481  0.0069  0.4221
 8508SOL    HW137160   0.529   1.744   4.692  0.3041 -0.3138 -1.9947
 8508SOL    HW237161   0.565   1.615   4.620 -2.7818 -2.3644  1.1803
 8509SOL     OW37162   3.642   2.994   8.105 -0.7635 -0.1214  0.6270
 8509SOL    HW137163   3.718   2.961   8.153  0.7100  1.1646 -0.8301
 8509SOL    HW237164   3.616   2.920   8.051  0.0241 -0.6088  0.9098
 8510SOL     OW37165   0.711   0.441   1.469 -0.3109 -0.4073 -0.1133
 8510SOL    HW137166   0.723   0.479   1.556  2.0404 -5.9085  1.9356
 8510SOL    HW237167   0.778   0.373   1.471 -0.8693 -0.9906 -1.1862
 8511SOL     OW37168   0.716   1.502  15.291  0.1716  0.2687  0.1674
 8511SOL    HW137169   0.657   1.480  15.363  0.0507 -2.3356 -0.7311
 8511SOL    HW237170   0.790   1.554  15.321 -0.7784  0.6119  1.9094
 8512SOL     OW37171   1.006   2.204  14.186  0.7548 -0.5690  0.4590
 8512SOL    HW137172   1.077   2.176  14.128 -0.0092 -3.3939  0.8795
 8512SOL    HW237173   0.963   2.264  14.125  1.9637  1.5375  1.6995
 8513SOL     OW37174   1.747   0.851   7.901 -0.1093 -0.7434  0.0023
 8513SOL    HW137175   1.796   0.785   7.950  0.0295 -0.8122 -0.2310
 8513SOL    HW237176   1.810   0.895   7.843  1.3216 -1.9782  0.6439
 8514SOL     OW37177   0.029   0.108   2.728  0.0088  0.2386  0.4361
 8514SOL    HW137178   0.037   0.032   2.786 -0.6556  0.2657  0.5650
 8514SOL    HW237179   0.006   0.072   2.642  0.0098 -0.3201  0.6686
 8515SOL     OW37180   0.624   3.619   6.662 -0.4722 -0.5696 -0.1501
 8515SOL    HW137181   0.640   3.574   6.745 -1.0906  1.0908  0.8555
 8515SOL    HW237182   0.642   3.546   6.602  0.7745 -1.4477  1.2686
 8516SOL     OW37183   0.709   0.276   1.105 -0.2847 -0.0312  0.4295
 8516SOL    HW137184   0.744   0.364   1.122 -0.2583  0.4952 -2.3774
 8516SOL    HW237185   0.789   0.228   1.129  0.0424  0.1466 -0.3043
 8517SOL     OW37186   0.424   3.595   8.883  0.3212 -0.5773  0.0582
 8517SOL    HW137187   0.374   3.611   8.963  0.6758 -0.7350  0.3078
 8517SOL    HW237188   0.378   3.658   8.827  0.4058  1.2239  1.9954
 8518SOL     OW37189   4.706   0.372  10.206 -0.2847 -0.1469 -0.1530
 8518SOL    HW137190   0.044   0.380  10.150  1.2497 -1.5241  1.7948
 8518SOL    HW237191   4.687   0.465  10.219  0.3510 -0.0479  0.0548
 8519SOL     OW37192   4.331   0.891   7.063  0.0650  0.0432 -0.3888
 8519SOL    HW137193   4.331   0.961   6.997  1.0817  1.6791  1.3174
 8519SOL    HW237194   4.240   0.866   7.054  0.2805 -1.5503  1.7673
 8520SOL     OW37195   0.285   0.402   2.342 -0.3979 -0.4525 -0.1832
 8520SOL    HW137196   0.290   0.412   2.438 -1.9120 -2.3765  0.0968
 8520SOL    HW237197   0.245   0.481   2.308 -0.1771  0.1652  0.9809
 8521SOL     OW37198   3.365   3.405   3.519  0.0043  0.4611 -0.1656
 8521SOL    HW137199   3.337   3.313   3.519  1.3428  0.0554  1.9277
 8521SOL    HW237200   3.301   3.452   3.572  0.3184  1.6335 -0.8327
 8522SOL     OW37201   0.334   1.610   5.530  0.1549  0.1774 -0.1491
 8522SOL    HW137202   0.307   1.652   5.612 -0.1748 -1.2174  0.4417
 8522SOL    HW237203   0.287   1.652   5.458  2.8925 -1.0379 -2.6289
 8523SOL     OW37204   3.458   3.146   3.535  0.1853 -0.0459 -0.0428
 8523SOL    HW137205   3.514   3.142   3.613 -0.9220 -2.4308  0.6506
 8523SOL    HW237206   3.460   3.056   3.502  2.5778  0.1998 -0.5394
 8524SOL     OW37207   2.609   0.037   2.872  0.2027  0.1927 -0.1311
 8524SOL    HW137208   2.626   4.697   2.921  0.8692  0.7040  0.4866
 8524SOL    HW237209   2.537   0.080   2.919  0.7548 -0.2742  1.1644
 8525SOL     OW37210   3.530   1.150  10.563  0.3314  0.7678 -0.4177
 8525SOL    HW137211   3.620   1.182  10.559  1.4919 -2.4788 -0.1259
 8525SOL    HW237212   3.485   1.183  10.484  0.2679  0.1329 -0.6444
 8526SOL     OW37213   3.560   2.913   0.182 -0.3246 -0.0310  0.0645
 8526SOL    HW137214   3.553   2.844   0.248 -1.8106 -0.9808 -1.1066
 8526SOL    HW237215   3.645   2.945   0.212 -0.2767 -0.1924  0.0995
 8527SOL     OW37216   2.891   1.304   4.592  0.0865  0.2107 -0.2486
 8527SOL    HW137217   2.805   1.338   4.566  0.1399  0.9843  0.5825
 8527SOL    HW237218   2.867   1.282   4.682  1.1700 -1.1028 -0.2909
 8528SOL     OW37219   3.974   3.721  10.633 -0.1217  0.0458  0.3212
 8528SOL    HW137220   3.965   3.742  10.540  0.6265  2.4490  0.8060
 8528SOL    HW237221   4.058   3.764  10.647 -0.3210  0.3844  0.4600
 8529SOL     OW37222   3.963   3.571   3.341  0.2518 -0.7155  0.4833
 8529SOL    HW137223   3.923   3.606   3.261  0.7763  2.6364  1.6939
 8529SOL    HW237224   3.956   3.647   3.399 -0.2138 -0.2577 -0.1563
 8530SOL     OW37225   3.130   4.460  12.923 -0.5139 -0.7420 -0.6757
 8530SOL    HW137226   3.186   4.453  12.845  1.0821 -0.8660  0.4732
 8530SOL    HW237227   3.163   4.395  12.986 -0.1604  0.6627  0.5911
 8531SOL     OW37228   2.900   0.317   5.700 -0.0279  0.1709  0.3517
 8531SOL    HW137229   2.970   0.299   5.762 -1.5657 -1.1663  1.7037
 8531SOL    HW237230   2.842   0.376   5.748  1.0735  0.4187  1.3831
 8532SOL     OW37231   3.648   0.562   7.347  0.1853  0.1155 -0.0953
 8532SOL    HW137232   3.636   0.490   7.409 -0.9009 -1.5323 -2.1845
 8532SOL    HW237233   3.720   0.603   7.395  0.7428 -0.8421 -0.1263
 8533SOL     OW37234   3.210   0.879   1.972 -0.3474 -0.6659 -0.1366
 8533SOL    HW137235   3.160   0.799   1.987 -1.7171  0.2573  0.1683
 8533SOL    HW237236   3.188   0.925   2.053  0.6911  2.6623 -1.7416
 8534SOL     OW37237   0.171   2.858  14.025 -0.2737 -0.8690  0.5525
 8534SOL    HW137238   0.196   2.817  13.942 -2.0151 -4.5577  1.8541
 8534SOL    HW237239   0.112   2.926  13.993  0.2721 -1.0909 -0.9374
 8535SOL     OW37240   3.951   1.753   6.912  0.2186 -0.0286 -0.3760
 8535SOL    HW137241   4.044   1.774   6.902  0.1932  0.0590 -0.4214
 8535SOL    HW237242   3.931   1.838   6.951 -2.1952 -0.3585 -0.9126
 8536SOL     OW37243   4.257   2.083  11.169 -0.3032  0.1526 -0.5812
 8536SOL    HW137244   4.210   2.007  11.205 -1.0709 -0.7119 -3.4198
 8536SOL    HW237245   4.210   2.100  11.087 -2.3589 -1.1301  0.3107
 8537SOL     OW37246   2.149   1.073   2.319 -0.4329  0.0765 -0.5280
 8537SOL    HW137247   2.217   1.130   2.355 -0.6485  0.3124 -0.4941
 8537SOL    HW237248   2.095   1.069   2.398  3.4543  0.8760  2.1332
 8538SOL     OW37249   4.376   1.418   1.191 -0.2546  0.6669  0.7725
 8538SOL    HW137250   4.358   1.329   1.161 -3.1721  0.9645  1.6299
 8538SOL    HW237251   4.372   1.413   1.287 -0.9525  1.5012  0.7903
 8539SOL     OW37252   2.154   0.195   6.028  0.1381 -0.8161  0.4030
 8539SOL    HW137253   2.175   0.115   5.979  0.9093  0.2276 -0.9933
 8539SOL    HW237254   2.064   0.183   6.060 -0.8814 -1.4043 -2.6580
 8540SOL     OW37255   4.117   3.707   4.893  0.0313 -0.0306  0.3374
 8540SOL    HW137256   4.204   3.695   4.932 -0.1069 -0.7477  0.4147
 8540SOL    HW237257   4.103   3.794   4.931 -1.5285  0.2846 -0.9603
 8541SOL     OW37258   3.501   3.147  12.593 -0.5660 -0.1459 -0.2755
 8541SOL    HW137259   3.422   3.092  12.593 -1.2679  0.8754 -2.4865
 8541SOL    HW237260   3.547   3.098  12.524 -0.0166  3.1684 -2.2812
 8542SOL     OW37261   4.148   3.329  17.161 -0.0624  0.6915 -0.0239
 8542SOL    HW137262   4.224   3.313  17.105  1.4889 -0.0876  2.2991
 8542SOL    HW237263   4.182   3.371  17.240 -0.9317 -1.8938  1.7387
 8543SOL     OW37264   1.705   2.317  11.043 -0.2444 -0.1210 -0.2022
 8543SOL    HW137265   1.738   2.406  11.051 -1.2661  0.3029 -0.7264
 8543SOL    HW237266   1.622   2.312  11.091 -1.3349  0.6054 -2.0177
 8544SOL     OW37267   2.125   2.319   4.080 -0.6398  0.6103  0.1330
 8544SOL    HW137268   2.160   2.387   4.022  2.5476  1.6346  3.2768
 8544SOL    HW237269   2.054   2.291   4.023 -1.2877  1.8271  0.3472
 8545SOL     OW37270   2.771   3.286   3.276  0.1082 -0.3371 -0.6459
 8545SOL    HW137271   2.679   3.305   3.257  0.3056 -0.3470 -1.6505
 8545SOL    HW237272   2.799   3.364   3.324  0.8156 -0.2512 -1.1938
 8546SOL     OW37273   3.077   0.017   4.670 -0.3188  0.2643  0.0827
 8546SOL    HW137274   2.989   0.016   4.634 -0.5708 -1.4087  0.7668
 8546SOL    HW237275   3.100   4.664   4.671 -0.3287  0.2487 -1.0931
 8547SOL     OW37276   3.838   1.125   1.862  0.0461 -0.2840 -0.2522
 8547SOL    HW137277   3.914   1.068   1.869 -0.0622 -0.4498 -0.4112
 8547SOL    HW237278   3.881   1.210   1.864  0.8685 -0.7679  2.2884
 8548SOL     OW37279   1.640   0.750   5.709 -0.0584  0.6120  0.7154
 8548SOL    HW137280   1.690   0.715   5.783 -0.5136 -1.9139 -0.1919
 8548SOL    HW237281   1.565   0.793   5.750  0.3461  0.9966  1.0552
 8549SOL     OW37282   0.390   1.371   1.712 -0.1471  0.1712  0.3538
 8549SOL    HW137283   0.478   1.373   1.748  0.4320 -0.7460 -1.0269
 8549SOL    HW237284   0.342   1.358   1.793 -0.9551 -0.0365 -0.1560
 8550SOL     OW37285   1.153   3.009   6.106 -0.2398  0.2426 -0.0783
 8550SOL    HW137286   1.105   2.966   6.177  0.2725 -0.4173 -0.1358
 8550SOL    HW237287   1.097   3.085   6.089 -0.2562  0.5051  1.1633
 8551SOL     OW37288   0.863   0.441   5.908  0.2725 -0.0895  0.1031
 8551SOL    HW137289   0.798   0.371   5.911 -0.6217  0.8092  1.4835
 8551SOL    HW237290   0.832   0.497   5.979  1.0216 -0.1346  0.4631
 8552SOL     OW37291   1.207   2.337   8.914 -0.3688 -0.3963 -0.2582
 8552SOL    HW137292   1.130   2.391   8.897  0.9230  0.6591 -2.7743
 8552SOL    HW237293   1.176   2.304   8.998  1.2866  1.9216  1.2541
 8553SOL     OW37294   3.855   0.496   2.602 -0.1267 -0.2422 -0.7389
 8553SOL    HW137295   3.837   0.402   2.600  0.0484 -0.3465  2.4561
 8553SOL    HW237296   3.776   0.534   2.640  0.9413  1.6110 -0.3665
 8554SOL     OW37297   1.928   2.132   8.176 -0.3623 -0.0915 -0.2017
 8554SOL    HW137298   1.842   2.092   8.160 -0.9106  0.3489  1.5753
 8554SOL    HW237299   1.914   2.189   8.252  0.7037 -0.2945  0.1449
 8555SOL     OW37300   1.336   0.217   8.043  0.5330 -0.0662 -0.4402
 8555SOL    HW137301   1.286   0.272   7.983 -0.1020 -0.8272 -0.6126
 8555SOL    HW237302   1.344   0.278   8.116  1.4856 -0.3719 -0.2807
 8556SOL     OW37303   2.088   4.736  16.842 -0.2836  0.2690  0.0974
 8556SOL    HW137304   2.176   4.732  16.805  1.1775  0.7220  3.5020
 8556SOL    HW237305   2.114   0.024  16.930  0.9667 -0.0749 -0.1599
 8557SOL     OW37306   3.397   3.689   8.111 -0.3164  0.2635  0.3101
 8557SOL    HW137307   3.389   3.596   8.132 -2.3559  1.1187  3.3296
 8557SOL    HW237308   3.306   3.697   8.080 -0.0491  1.3034 -0.2168
 8558SOL     OW37309   4.123   4.613  16.289  0.0180  0.8862 -0.0423
 8558SOL    HW137310   4.141   4.647  16.201  0.4789  0.3459 -0.1564
 8558SOL    HW237311   4.206   4.609  16.337  0.4487 -0.4260 -0.9067
 8559SOL     OW37312   1.321   2.847   7.168  0.7403  0.0264 -0.2669
 8559SOL    HW137313   1.336   2.809   7.081 -2.0487 -1.2379 -0.1896
 8559SOL    HW237314   1.412   2.856   7.198  0.8592  0.8071 -0.8446
 8560SOL     OW37315   1.977   4.601   5.507  0.1679  0.4362 -0.4326
 8560SOL    HW137316   2.057   4.644   5.477  0.7963  0.5609  1.4176
 8560SOL    HW237317   1.973   4.537   5.437 -0.2166 -0.4462  0.3947
 8561SOL     OW37318   1.677   0.885   9.623  0.5973 -0.4717  0.1402
 8561SOL    HW137319   1.683   0.818   9.555 -2.5691  1.5269 -2.1342
 8561SOL    HW237320   1.662   0.967   9.576  3.5383 -0.1499 -0.1893
 8562SOL     OW37321   1.002   3.840   9.644 -0.2408  0.5061  0.5526
 8562SOL    HW137322   0.910   3.813   9.638 -0.0895 -0.3572  2.0140
 8562SOL    HW237323   1.020   3.840   9.738 -0.1547  1.0348  0.5369
 8563SOL     OW37324   3.852   0.901  10.031 -0.4573 -0.4011  0.2475
 8563SOL    HW137325   3.782   0.917  10.094 -0.3921  1.0123 -0.0306
 8563SOL    HW237326   3.916   0.882  10.100 -1.4919 -2.1986  0.7130
 8564SOL     OW37327   0.690   4.421   8.769  0.1031 -0.0843 -0.1296
 8564SOL    HW137328   0.627   4.373   8.714  1.0716 -0.2399 -1.0842
 8564SOL    HW237329   0.755   4.351   8.775  0.9435  0.6775 -0.5084
 8565SOL     OW37330   1.002   1.798  17.247  0.1605 -0.0137  0.1015
 8565SOL    HW137331   1.026   1.759  17.331  2.0310  0.6116 -0.1310
 8565SOL    HW237332   0.966   1.885  17.262  0.0209  0.2337 -1.6401
 8566SOL     OW37333   1.538   3.732  12.551  0.5918 -0.7241 -0.6744
 8566SOL    HW137334   1.609   3.764  12.607  1.4151 -0.6227 -1.7999
 8566SOL    HW237335   1.495   3.674  12.614 -1.4795  1.1908 -0.2747
 8567SOL     OW37336   1.986   4.260   1.673  0.1775  0.0258  0.2987
 8567SOL    HW137337   1.979   4.356   1.675 -0.0897  0.0260 -0.5245
 8567SOL    HW237338   1.976   4.254   1.578  1.6934 -0.9978  0.2117
 8568SOL     OW37339   2.854   0.571   3.220  0.1170 -0.1704 -0.0119
 8568SOL    HW137340   2.949   0.582   3.230 -0.0894  0.7321  0.8296
 8568SOL    HW237341   2.856   0.549   3.126  1.5423  1.2560 -0.3221
 8569SOL     OW37342   3.213   2.593   4.471 -0.2730  0.0023  0.0387
 8569SOL    HW137343   3.263   2.512   4.479 -0.3001 -0.2106 -1.9426
 8569SOL    HW237344   3.259   2.640   4.402  3.8767 -1.7060  1.6821
 8570SOL     OW37345   2.242   4.691   1.465  0.2840  0.0025 -0.1667
 8570SOL    HW137346   2.241   0.033   1.514  0.0069 -1.8192  2.8842
 8570SOL    HW237347   2.329   4.654   1.483  0.6018  1.3701  1.0477
 8571SOL     OW37348   2.754   1.302   6.492  0.1680  0.0502 -0.6991
 8571SOL    HW137349   2.803   1.317   6.573  0.8457  1.8887 -1.4559
 8571SOL    HW237350   2.667   1.277   6.525  0.8568 -1.1464  0.1965
 8572SOL     OW37351   1.471   3.295  10.637 -0.9668  0.2992 -0.3057
 8572SOL    HW137352   1.382   3.272  10.661 -0.5563 -1.0355 -0.0473
 8572SOL    HW237353   1.476   3.379  10.682  1.6461  0.4019 -0.7799
 8573SOL     OW37354   0.137   3.172   4.071  0.3373  0.7395 -0.7290
 8573SOL    HW137355   0.143   3.151   4.164  1.3217 -0.6854 -1.1129
 8573SOL    HW237356   0.064   3.111   4.057  0.5392  0.2356  0.4044
 8574SOL     OW37357   0.882   3.906   2.785  0.0203 -0.0516  0.0243
 8574SOL    HW137358   0.946   3.836   2.770  0.2908  0.0180  0.8753
 8574SOL    HW237359   0.934   3.957   2.847  2.2021  0.0444 -1.8599
 8575SOL     OW37360   2.687   3.889   8.084  0.8209  0.1799  0.5707
 8575SOL    HW137361   2.729   3.805   8.068  1.8554  0.4179  1.9598
 8575SOL    HW237362   2.599   3.863   8.112 -0.0538  0.0508 -2.2827
 8576SOL     OW37363   0.301   0.980  12.572 -0.4175  0.0622  0.0348
 8576SOL    HW137364   0.383   0.995  12.525 -0.2921  1.1886  0.6135
 8576SOL    HW237365   0.292   0.886  12.558 -1.7433 -0.4080  3.9564
 8577SOL     OW37366   3.526   2.497  15.458 -0.4157  0.2465 -0.0954
 8577SOL    HW137367   3.616   2.473  15.479 -0.6233 -0.4181  0.0079
 8577SOL    HW237368   3.499   2.550  15.534  0.2043  0.4224  0.0057
 8578SOL     OW37369   2.013   1.841   6.830  0.0741  0.1327  0.3028
 8578SOL    HW137370   2.093   1.893   6.821 -1.0682  2.0215  1.0439
 8578SOL    HW237371   1.958   1.870   6.757  1.3436 -0.2477 -0.8033
 8579SOL     OW37372   3.953   0.689   6.682  0.2766  0.0418 -0.0878
 8579SOL    HW137373   3.996   0.625   6.739  1.7028  2.7803  1.9196
 8579SOL    HW237374   3.882   0.719   6.739  0.2146 -2.2318  1.0674
 8580SOL     OW37375   2.042   2.446   6.249 -0.3715  0.0643 -0.0684
 8580SOL    HW137376   2.047   2.378   6.317  1.0923 -1.2619 -1.4883
 8580SOL    HW237377   1.954   2.429   6.218  1.3482 -0.4739 -4.6163
 8581SOL     OW37378   2.121   1.890   9.235 -0.2089  0.3531 -0.3321
 8581SOL    HW137379   2.098   1.847   9.153 -0.7051  0.8201 -0.4393
 8581SOL    HW237380   2.034   1.915   9.268 -0.9943 -2.3965 -0.3070
 8582SOL     OW37381   0.571   4.253   4.806  0.4966 -0.0559 -0.2142
 8582SOL    HW137382   0.487   4.227   4.769 -0.7642 -0.7426  3.1733
 8582SOL    HW237383   0.573   4.349   4.796  0.3860  0.0145  0.4081
 8583SOL     OW37384   2.002   1.006   6.879  0.2345 -0.1676 -0.2536
 8583SOL    HW137385   1.937   1.064   6.918  1.4267  0.1839  1.1826
 8583SOL    HW237386   1.958   0.992   6.794 -0.1201  0.6677 -0.2045
 8584SOL     OW37387   3.185   1.111   7.034 -0.0877  0.4162 -0.2730
 8584SOL    HW137388   3.159   1.086   7.122 -4.4541  1.0896 -1.3709
 8584SOL    HW237389   3.279   1.096   7.023 -0.5351 -3.1677  0.7909
 8585SOL     OW37390   2.326   1.010  14.786 -0.7759 -0.0971 -0.4620
 8585SOL    HW137391   2.351   0.950  14.716 -0.4840  0.8316 -1.1557
 8585SOL    HW237392   2.246   1.056  14.762  0.0455 -1.0110 -4.9822
 8586SOL     OW37393   0.448   2.372  16.003  0.0103  0.6302 -0.1366
 8586SOL    HW137394   0.424   2.286  15.971  0.8641  0.4924 -0.4117
 8586SOL    HW237395   0.443   2.434  15.930 -2.7371  1.1065  0.4586
 8587SOL     OW37396   4.269   3.259   8.070 -0.3820 -0.0436  0.4370
 8587SOL    HW137397   4.204   3.326   8.088  1.8192  2.4522 -0.8732
 8587SOL    HW237398   4.329   3.247   8.144 -0.5677 -1.2495  0.3983
 8588SOL     OW37399   4.369   1.175   4.909  0.7091  0.0456 -0.8409
 8588SOL    HW137400   4.323   1.214   4.836  2.1989  2.3360 -0.5413
 8588SOL    HW237401   4.295   1.119   4.932  0.6869 -0.6304 -2.5764
 8589SOL     OW37402   3.989   0.003  12.930 -0.4968 -0.5239  0.3018
 8589SOL    HW137403   3.964   0.069  12.865  0.3025 -0.3188  0.2010
 8589SOL    HW237404   4.084   4.730  12.928 -0.3488  0.6735 -1.1504
 8590SOL     OW37405   3.897   2.007   3.718 -0.5073  0.1384 -0.0692
 8590SOL    HW137406   3.830   2.039   3.779  0.7522  0.3483  1.2026
 8590SOL    HW237407   3.895   2.083   3.659 -0.6252  0.0132 -0.2259
 8591SOL     OW37408   1.103   2.456   2.343 -0.3764  0.2543 -0.0379
 8591SOL    HW137409   1.116   2.542   2.383 -3.8843  1.3286 -1.2090
 8591SOL    HW237410   1.013   2.447   2.372 -0.7331 -0.3540 -1.3263
 8592SOL     OW37411   3.911   1.702   3.243  0.3616 -0.2162 -0.4399
 8592SOL    HW137412   3.878   1.625   3.289 -1.2961  0.7713  0.0378
 8592SOL    HW237413   3.915   1.751   3.324  1.1099 -1.1755  0.1050
 8593SOL     OW37414   3.702   1.506   5.793  0.3449  0.0093 -0.0167
 8593SOL    HW137415   3.702   1.562   5.716 -0.8301 -1.1298 -0.8532
 8593SOL    HW237416   3.634   1.544   5.849 -1.2790  0.3864 -2.2829
 8594SOL     OW37417   0.003   0.069   1.054  0.2825 -0.3495  0.0692
 8594SOL    HW137418   0.093   0.072   1.087 -0.1674  0.8921  1.1515
 8594SOL    HW237419   0.010   0.147   0.999  0.1852  0.2984  0.9695
 8595SOL     OW37420   4.697   1.386   7.885  0.2621 -0.3224 -0.2816
 8595SOL    HW137421   4.636   1.335   7.937  1.4512 -1.3254  0.1472
 8595SOL    HW237422   0.032   1.378   7.944  1.7186  1.5131 -1.8631
 8596SOL     OW37423   2.050   0.894   4.018  0.0204  0.1286  0.3145
 8596SOL    HW137424   1.986   0.823   4.024  1.6642 -1.5551 -2.0688
 8596SOL    HW237425   2.019   0.948   3.945  2.2276  0.7110 -0.1880
 8597SOL     OW37426   2.476   1.582   8.747 -0.4333  0.5655  0.0502
 8597SOL    HW137427   2.486   1.624   8.832 -3.5324  1.0274  0.1768
 8597SOL    HW237428   2.537   1.510   8.759  0.2884  0.6793 -2.9366
 8598SOL     OW37429   0.915   0.530   7.311  0.0576 -0.0467  0.2168
 8598SOL    HW137430   0.827   0.559   7.289  0.4021 -1.2635 -2.7722
 8598SOL    HW237431   0.915   0.502   7.403  0.9224  0.8172  0.4829
 8599SOL     OW37432   1.763   0.050   0.974  0.0675 -0.6343  0.0729
 8599SOL    HW137433   1.765   0.101   0.892 -0.2750  1.1139  1.1502
 8599SOL    HW237434   1.714   4.715   0.941 -0.8591 -1.4937  3.4862
 8600SOL     OW37435   2.692   1.972   2.719 -0.2379  0.2623 -0.2763
 8600SOL    HW137436   2.622   2.004   2.662 -1.7486  0.7397  1.8585
 8600SOL    HW237437   2.694   1.878   2.698  3.8459  0.3123 -0.1277
 8601SOL     OW37438   0.401   3.137   3.094 -0.4450  0.0911  0.2144
 8601SOL    HW137439   0.463   3.113   3.025  1.4870 -0.2890  2.0873
 8601SOL    HW237440   0.326   3.160   3.040  0.1852  0.5085 -0.4718
 8602SOL     OW37441   0.564   0.940  14.017 -0.2234 -0.3259 -0.3798
 8602SOL    HW137442   0.592   0.965  14.105 -2.3632 -1.3327  0.5859
 8602SOL    HW237443   0.522   1.016  13.976  0.1968 -0.7004 -1.5128
 8603SOL     OW37444   0.207   3.816   6.400 -0.1582 -0.2240  0.4369
 8603SOL    HW137445   0.276   3.772   6.450 -0.4247  1.1384  2.0208
 8603SOL    HW237446   0.199   3.903   6.440 -0.7282 -0.3085  0.5121
 8604SOL     OW37447   0.560   3.632   3.896  0.2191 -0.1501  0.0549
 8604SOL    HW137448   0.651   3.653   3.914  0.7109 -0.2852 -2.1846
 8604SOL    HW237449   0.550   3.545   3.935 -2.8845  0.4230  0.4900
 8605SOL     OW37450   3.666   3.351   1.777 -0.6975  0.7340  0.1401
 8605SOL    HW137451   3.702   3.269   1.746 -0.5101 -0.3654  3.2250
 8605SOL    HW237452   3.742   3.409   1.778  0.0346 -0.2274 -0.0884
 8606SOL     OW37453   1.646   1.028   2.528 -0.3336  0.5630  0.8424
 8606SOL    HW137454   1.559   0.988   2.536 -0.7047  0.9450 -1.1452
 8606SOL    HW237455   1.655   1.066   2.615 -0.7966  0.0480  1.1191
 8607SOL     OW37456   1.483   2.361  11.231  0.4007  0.2903 -0.3576
 8607SOL    HW137457   1.462   2.275  11.196 -0.3862  0.0260  0.7923
 8607SOL    HW237458   1.398   2.387  11.265  0.5763  1.7538 -1.0281
 8608SOL     OW37459   1.780   4.357   9.413 -0.6232 -0.2990  0.0658
 8608SOL    HW137460   1.772   4.452   9.407  0.1959 -0.2587 -0.4262
 8608SOL    HW237461   1.687   4.335   9.407 -0.2312 -1.6140 -1.1842
 8609SOL     OW37462   2.458   3.001   9.474 -0.0844  0.2415  0.0599
 8609SOL    HW137463   2.425   2.918   9.508 -1.5663  0.4887 -0.7698
 8609SOL    HW237464   2.387   3.008   9.410 -0.8511 -1.2009  0.7528
 8610SOL     OW37465   0.702   3.302   2.441  0.2343 -0.7668 -0.2854
 8610SOL    HW137466   0.770   3.349   2.392  1.4401 -2.2410 -0.0153
 8610SOL    HW237467   0.645   3.281   2.367  1.0317  0.3766 -1.2241
 8611SOL     OW37468   0.532   3.187  15.369 -0.1412  0.0348 -0.0130
 8611SOL    HW137469   0.468   3.171  15.438  1.0755  1.8043  1.5221
 8611SOL    HW237470   0.544   3.282  15.373  0.4220 -0.0626  0.7929
 8612SOL     OW37471   1.903   2.067   0.465  0.6840  0.3085  0.3882
 8612SOL    HW137472   1.811   2.062   0.439  0.1930  0.3433  2.0942
 8612SOL    HW237473   1.941   2.129   0.403  1.3456 -0.1341  0.3426
 8613SOL     OW37474   0.570   3.064   2.895 -0.7026  0.2516 -0.5634
 8613SOL    HW137475   0.614   2.982   2.871 -0.5438 -0.1297  1.0756
 8613SOL    HW237476   0.542   3.093   2.808  2.3244 -1.2625 -2.0523
 8614SOL     OW37477   3.208   0.579  10.353 -0.0517 -0.9284  0.1489
 8614SOL    HW137478   3.243   0.595  10.441 -1.3937  0.2511  0.4672
 8614SOL    HW237479   3.131   0.533  10.385 -0.6735  0.1262  0.1642
 8615SOL     OW37480   4.052   0.745   3.904  0.3954 -0.6124  0.2721
 8615SOL    HW137481   4.130   0.699   3.935  0.3348 -1.8010 -1.3450
 8615SOL    HW237482   4.000   0.667   3.888  0.6658 -0.6435 -0.4536
 8616SOL     OW37483   2.131   2.973   7.972  0.2461  0.2605  0.1181
 8616SOL    HW137484   2.122   3.035   8.045 -0.9487 -0.6468  0.7366
 8616SOL    HW237485   2.187   2.909   8.016 -0.9897 -0.3824  0.7579
 8617SOL     OW37486   2.948   2.588   1.342 -0.0297 -0.4889 -0.2521
 8617SOL    HW137487   3.007   2.591   1.417  0.5690 -0.9476 -0.7034
 8617SOL    HW237488   2.900   2.506   1.350  2.0643 -1.7484 -0.5230
 8618SOL     OW37489   1.939   2.774  11.439 -0.3318 -0.4794 -0.2648
 8618SOL    HW137490   1.915   2.691  11.400 -0.5530  0.2508 -1.6705
 8618SOL    HW237491   1.993   2.813  11.371 -1.5928 -1.2728 -1.7061
 8619SOL     OW37492   4.727   2.230   5.712  0.6603  0.1356  0.4898
 8619SOL    HW137493   0.051   2.296   5.739 -2.3628  3.1163  0.3800
 8619SOL    HW237494   0.045   2.157   5.690 -0.3812 -1.2006  2.1651
 8620SOL     OW37495   4.456   0.452   6.181  0.0253  0.1548  0.2469
 8620SOL    HW137496   4.473   0.387   6.248 -1.7983 -0.7624 -0.1862
 8620SOL    HW237497   4.416   0.518   6.238 -1.1744  0.3862 -0.8487
 8621SOL     OW37498   0.460   1.208   2.639  0.0728  0.5761 -0.0836
 8621SOL    HW137499   0.509   1.290   2.630 -0.7922  1.1335  0.2996
 8621SOL    HW237500   0.389   1.245   2.692  0.6825 -2.6255  2.9857
 8622SOL     OW37501   3.830   0.619   6.967 -0.4380  0.5901  0.4278
 8622SOL    HW137502   3.911   0.568   6.973 -1.4482 -1.0675 -0.0126
 8622SOL    HW237503   3.764   0.556   6.997  2.7920 -2.7469  0.5717
 8623SOL     OW37504   2.562   2.846   2.587 -0.0732  0.5239 -0.1118
 8623SOL    HW137505   2.561   2.868   2.680  0.8079 -0.3268  0.1017
 8623SOL    HW237506   2.648   2.806   2.575 -1.3499 -1.2539 -3.1954
 8624SOL     OW37507   3.340   3.861  17.755  0.1503  0.2310  0.0559
 8624SOL    HW137508   3.312   3.952  17.750  0.7148  0.4605  0.9189
 8624SOL    HW237509   3.308   3.826  17.672  0.8071 -0.1385 -0.0422
 8625SOL     OW37510   2.459   2.202  17.494 -0.3754  0.5339  0.2965
 8625SOL    HW137511   2.542   2.243  17.517 -0.9424  0.9517  1.5904
 8625SOL    HW237512   2.454   2.133  17.560 -0.5499 -1.3587 -1.6937
 8626SOL     OW37513   2.706   1.915  14.423  0.2656 -0.5005 -0.1732
 8626SOL    HW137514   2.664   1.886  14.504  0.4058  0.7276  0.3320
 8626SOL    HW237515   2.800   1.898  14.431  0.3095 -0.4811 -0.6162
 8627SOL     OW37516   1.020   1.359  17.461 -0.8760  0.8639  0.5192
 8627SOL    HW137517   1.096   1.416  17.472 -1.0499  1.4363 -1.1089
 8627SOL    HW237518   1.070   1.278  17.449  2.0672  2.7123  0.1783
 8628SOL     OW37519   1.942   0.135   9.636 -0.0968  0.2514 -0.2757
 8628SOL    HW137520   1.933   0.229   9.653  1.8379  0.3827  0.0779
 8628SOL    HW237521   1.872   0.100   9.690 -0.6454  2.3265  0.3668
 8629SOL     OW37522   0.294   2.725   5.680  0.2201 -0.0553  0.4175
 8629SOL    HW137523   0.277   2.780   5.604 -1.0694 -1.2131 -0.1559
 8629SOL    HW237524   0.246   2.783   5.739  2.2301  0.2595  1.7346
 8630SOL     OW37525   1.660   4.251   6.642  0.3127  0.2737 -0.1069
 8630SOL    HW137526   1.728   4.305   6.602  0.0695  1.1781  0.7069
 8630SOL    HW237527   1.578   4.300   6.644  0.5070  0.6048 -0.1458
 8631SOL     OW37528   2.581   1.502  12.069  0.6280  0.4571  1.3402
 8631SOL    HW137529   2.646   1.481  12.002 -0.4893  1.2114  0.0216
 8631SOL    HW237530   2.515   1.436  12.049 -0.7721  1.8636  1.3280
 8632SOL     OW37531   0.340   0.911   0.513 -0.2363  0.0217 -0.0229
 8632SOL    HW137532   0.297   0.966   0.578  0.6252 -0.5730  1.0642
 8632SOL    HW237533   0.412   0.888   0.571 -1.3730  0.3337  1.5111
 8633SOL     OW37534   3.156   3.700  12.066  0.2414  0.2973 -0.1215
 8633SOL    HW137535   3.221   3.750  12.017  2.4992  0.2363  2.7951
 8633SOL    HW237536   3.164   3.736  12.154 -0.6164  3.3054 -1.2826
 8634SOL     OW37537   2.247   2.192   4.568  0.5065  0.1501 -0.4559
 8634SOL    HW137538   2.317   2.212   4.630 -1.0606 -1.3924  1.8440
 8634SOL    HW237539   2.259   2.258   4.500  2.1767  0.7548  0.4410
 8635SOL     OW37540   3.755   0.558   6.180  0.4211 -0.1765  0.0376
 8635SOL    HW137541   3.695   0.494   6.141  0.2578  0.7087 -1.1828
 8635SOL    HW237542   3.726   0.560   6.271 -0.9475  3.9686 -0.4604
 8636SOL     OW37543   3.301   2.699   5.190 -0.3711 -0.7696 -0.3456
 8636SOL    HW137544   3.220   2.724   5.232  1.1449  0.6010  1.7544
 8636SOL    HW237545   3.350   2.780   5.202 -2.1811  0.4017 -0.8722
 8637SOL     OW37546   4.272   4.432  13.778  0.1023 -0.2585  0.6803
 8637SOL    HW137547   4.247   4.517  13.815 -2.6985 -0.4989 -0.6653
 8637SOL    HW237548   4.190   4.395  13.746  0.7762  0.5654 -2.0120
 8638SOL     OW37549   1.565   1.286   3.823 -0.0614 -0.0975 -0.4051
 8638SOL    HW137550   1.628   1.216   3.840  0.1751 -0.0927 -1.2532
 8638SOL    HW237551   1.510   1.299   3.900 -0.8132  0.5526 -1.0537
 8639SOL     OW37552   3.074   0.411   2.407 -0.3057  0.0021  0.2377
 8639SOL    HW137553   3.061   0.319   2.429  0.2036 -0.1794 -0.2097
 8639SOL    HW237554   2.986   0.445   2.421 -0.1330 -0.3503  2.1320
 8640SOL     OW37555   2.129   1.973  16.847 -0.8146 -0.1282  0.4853
 8640SOL    HW137556   2.115   1.965  16.753 -1.0872  0.4949  0.4774
 8640SOL    HW237557   2.179   2.054  16.841 -0.3771 -0.4711 -0.6163
 8641SOL     OW37558   4.715   2.446  15.122 -0.8760  0.0151 -0.1832
 8641SOL    HW137559   4.668   2.389  15.061 -1.9809  1.0269 -0.2787
 8641SOL    HW237560   0.052   2.462  15.069 -0.6102 -0.6432  0.0011
 8642SOL     OW37561   3.479   0.043   3.486 -0.2586 -0.2132 -0.0265
 8642SOL    HW137562   3.569   0.045   3.518  0.1088  0.6925 -1.1024
 8642SOL    HW237563   3.478   0.133   3.454  0.2134 -0.3265 -0.3655
 8643SOL     OW37564   4.550   2.781   9.483  0.5904 -0.7117  0.6865
 8643SOL    HW137565   4.528   2.813   9.395  1.0619 -1.3888  0.3238
 8643SOL    HW237566   4.490   2.829   9.540  2.3266 -0.4842  2.3152
 8644SOL     OW37567   1.210   0.707   9.009 -0.2410 -0.2014 -0.3663
 8644SOL    HW137568   1.156   0.711   8.930 -1.1175 -1.4311  0.1737
 8644SOL    HW237569   1.156   0.675   9.081 -1.4916 -0.8761 -1.6022
 8645SOL     OW37570   3.791   4.289   3.819  0.0068 -0.0807  0.0027
 8645SOL    HW137571   3.769   4.365   3.765  0.9532 -0.1661 -0.5215
 8645SOL    HW237572   3.828   4.229   3.753 -1.2632  1.1711 -1.8434
 8646SOL     OW37573   0.952   3.414   9.559  0.0843  0.0014 -0.7672
 8646SOL    HW137574   1.023   3.451   9.612  1.3983  1.6431 -3.6943
 8646SOL    HW237575   0.950   3.480   9.490  0.8130 -0.3301 -1.1090
 8647SOL     OW37576   0.862   1.069  13.468  0.1008 -0.1934 -0.2274
 8647SOL    HW137577   0.900   0.999  13.523  1.6364  0.6144 -0.2647
 8647SOL    HW237578   0.906   1.150  13.495 -1.3486  0.6684 -0.4503
 8648SOL     OW37579   4.044   0.702  12.469 -0.5671 -0.0398 -0.2174
 8648SOL    HW137580   4.010   0.629  12.521 -1.3421  0.2798 -0.2773
 8648SOL    HW237581   3.968   0.741  12.426  0.1188 -1.9213 -3.1568
 8649SOL     OW37582   2.463   3.101  17.161  0.1069 -0.2701  0.6049
 8649SOL    HW137583   2.374   3.070  17.178 -0.4172  1.3976  0.9023
 8649SOL    HW237584   2.517   3.049  17.219 -2.3652 -1.2678  2.0035
 8650SOL     OW37585   3.654   2.344   4.528  0.1135  1.0112  0.0644
 8650SOL    HW137586   3.705   2.381   4.456  1.2240  0.7574  0.7230
 8650SOL    HW237587   3.694   2.257   4.526 -1.2306  0.4322 -1.8584
 8651SOL     OW37588   2.780   1.250  16.231  0.0956 -0.0442  0.2290
 8651SOL    HW137589   2.807   1.284  16.146 -2.2283 -1.2016 -0.9857
 8651SOL    HW237590   2.729   1.176  16.198  0.5145  0.0393 -0.6130
 8652SOL     OW37591   2.639   2.258  15.911  0.5590 -0.1665  0.4146
 8652SOL    HW137592   2.633   2.167  15.883 -0.0685  0.3233 -1.0477
 8652SOL    HW237593   2.608   2.295  15.828 -0.5502 -1.0193  0.4525
 8653SOL     OW37594   0.087   4.684   5.503 -0.8184  0.2504  0.1058
 8653SOL    HW137595   0.114   4.685   5.411 -1.2350  0.2420 -0.0141
 8653SOL    HW237596   0.095   4.591   5.521 -0.4525  0.3524  0.4714
 8654SOL     OW37597   0.896   2.249   0.268 -0.1808 -0.2505 -0.1065
 8654SOL    HW137598   0.821   2.293   0.228  0.1757  2.0803  1.8043
 8654SOL    HW237599   0.862   2.167   0.301  1.3078 -0.5121  0.7695
 8655SOL     OW37600   2.937   3.028   4.092 -0.3340  0.3571 -0.2074
 8655SOL    HW137601   2.927   2.938   4.124 -0.9812 -0.8339 -3.7810
 8655SOL    HW237602   3.017   3.028   4.040 -0.5779 -1.5083 -0.5695
 8656SOL     OW37603   3.942   2.208   6.686  0.3629 -0.2231  0.0042
 8656SOL    HW137604   3.931   2.157   6.606  1.8318  0.9770 -0.9561
 8656SOL    HW237605   3.859   2.191   6.732 -1.4032  0.8413 -2.8255
 8657SOL     OW37606   2.563   4.150  16.345 -0.1215  0.3727  0.1338
 8657SOL    HW137607   2.646   4.120  16.381 -0.1910 -0.0690 -0.0641
 8657SOL    HW237608   2.514   4.149  16.427  1.3505  3.1253  1.0205
 8658SOL     OW37609   0.475   2.198   7.464 -0.2511 -0.3010  0.1098
 8658SOL    HW137610   0.502   2.263   7.400  0.7889 -1.8412 -0.9988
 8658SOL    HW237611   0.557   2.184   7.511  0.8683 -0.2185 -1.8200
 8659SOL     OW37612   0.955   4.356  15.177 -0.4204 -0.3143 -0.7149
 8659SOL    HW137613   0.919   4.443  15.160 -0.7449  0.0231  1.6878
 8659SOL    HW237614   1.048   4.376  15.182 -0.8160  1.1721  0.5251
 8660SOL     OW37615   3.607   4.563   9.921 -0.6665 -0.1200 -0.1876
 8660SOL    HW137616   3.630   4.628   9.988 -0.1382  0.9683 -1.4130
 8660SOL    HW237617   3.519   4.590   9.893 -0.0515  0.5661 -1.4302
 8661SOL     OW37618   4.389   0.363   8.756 -0.0698  0.4402 -0.4166
 8661SOL    HW137619   4.429   0.290   8.708  0.5186  1.8157 -2.0306
 8661SOL    HW237620   4.442   0.373   8.835 -2.6535  2.3832  1.0313
 8662SOL     OW37621   0.051   0.257   5.435  0.1195  0.1322  0.1823
 8662SOL    HW137622   0.027   0.317   5.506 -0.7820  0.5161 -0.4518
 8662SOL    HW237623   4.715   0.199   5.433  0.7684 -0.6435 -2.0758
 8663SOL     OW37624   3.584   3.954  10.987  0.5683 -0.7502  0.1882
 8663SOL    HW137625   3.617   3.969  11.076 -2.0890  0.6972  0.9216
 8663SOL    HW237626   3.657   3.966  10.926  0.5605  2.0499  0.7396
 8664SOL     OW37627   0.337   3.885   0.975 -0.0401  0.1826 -0.5199
 8664SOL    HW137628   0.260   3.924   1.017  1.4531 -0.5216  2.9070
 8664SOL    HW237629   0.409   3.932   1.018 -0.9701  0.8755  0.2787
 8665SOL     OW37630   4.281   3.861  11.498  0.2696  0.0934 -0.0172
 8665SOL    HW137631   4.195   3.904  11.496  1.4532  2.5508  1.0145
 8665SOL    HW237632   4.343   3.933  11.509  0.6869  0.1330 -2.7601
 8666SOL     OW37633   0.589   2.333  15.106  0.3379  0.0949  0.6941
 8666SOL    HW137634   0.513   2.369  15.153  0.3843  1.5999 -0.3749
 8666SOL    HW237635   0.554   2.260  15.055 -0.9500  1.3751 -0.2516
 8667SOL     OW37636   3.649   2.935   2.250  0.1496  0.1637 -0.1760
 8667SOL    HW137637   3.719   2.999   2.261  0.5729 -0.3842  0.2728
 8667SOL    HW237638   3.676   2.863   2.307  1.3950 -0.9112 -2.1263
 8668SOL     OW37639   1.358   3.907   1.887 -0.0175 -0.3189  0.6012
 8668SOL    HW137640   1.292   3.963   1.929 -1.1983 -1.3517  0.1271
 8668SOL    HW237641   1.439   3.937   1.929 -0.1625 -1.2282  1.5256
 8669SOL     OW37642   4.573   4.625  10.195 -0.1678 -0.4732 -0.2267
 8669SOL    HW137643   4.587   4.715  10.166  3.0775 -1.7905 -2.7798
 8669SOL    HW237644   4.485   4.639  10.229 -0.4001 -1.3822 -0.4685
 8670SOL     OW37645   1.301   4.011   0.905  0.1523 -0.5231 -0.7027
 8670SOL    HW137646   1.347   3.979   0.983  1.4062  2.2443 -0.3065
 8670SOL    HW237647   1.347   3.971   0.831  1.3254 -1.6146  0.6355
 8671SOL     OW37648   3.241   4.172   1.327  0.5586  0.7310 -0.1475
 8671SOL    HW137649   3.273   4.082   1.338 -2.0165 -0.1743 -0.0104
 8671SOL    HW237650   3.264   4.219   1.407 -3.0665  2.2490  0.0043
 8672SOL     OW37651   4.259   1.185   3.834 -0.3573  0.2418 -0.1448
 8672SOL    HW137652   4.310   1.262   3.861 -0.2357 -0.3833  1.3818
 8672SOL    HW237653   4.319   1.111   3.845 -0.4218  0.5293  2.2362
 8673SOL     OW37654   1.072   0.558  12.904 -0.1365 -0.2818 -0.2444
 8673SOL    HW137655   1.098   0.485  12.960 -0.9915 -0.8455 -0.5874
 8673SOL    HW237656   1.046   0.626  12.967 -0.6887  1.1286 -2.0004
 8674SOL     OW37657   0.305   2.131   7.092 -0.0369  0.0912 -0.4373
 8674SOL    HW137658   0.282   2.213   7.135  0.6187 -0.4040  0.8645
 8674SOL    HW237659   0.229   2.101   7.042  0.9527 -1.8542 -0.7974
 8675SOL     OW37660   0.285   3.420   8.239 -0.2202  0.1484 -0.0877
 8675SOL    HW137661   0.218   3.412   8.307  0.9532  0.2455  1.0914
 8675SOL    HW237662   0.296   3.336   8.196  0.4126  0.5108 -0.6403
 8676SOL     OW37663   4.629   1.510   5.341  0.0328 -0.1709  0.7034
 8676SOL    HW137664   4.573   1.546   5.409  1.0592  3.7730 -0.5848
 8676SOL    HW237665   4.561   1.474   5.284 -2.0779  1.4408  2.2115
 8677SOL     OW37666   1.003   3.325   1.812  0.1465 -0.3685 -0.4255
 8677SOL    HW137667   0.963   3.243   1.783  0.1281 -0.6551  0.4211
 8677SOL    HW237668   0.974   3.378   1.738  0.7983  0.3131 -0.1960
 8678SOL     OW37669   3.512   1.921   6.562  0.4173  0.2803  0.0167
 8678SOL    HW137670   3.500   1.928   6.657  0.6684  3.0919 -0.1579
 8678SOL    HW237671   3.492   1.829   6.549 -1.4440  0.7428 -0.4486
 8679SOL     OW37672   4.674   4.603   3.954  0.0642  0.3186  0.1899
 8679SOL    HW137673   4.595   4.598   4.008  0.3131 -0.9152  0.4373
 8679SOL    HW237674   4.680   4.697   3.935  0.2731  0.8550  2.8559
 8680SOL     OW37675   1.615   1.440   3.173 -0.0766 -0.1625 -0.4223
 8680SOL    HW137676   1.553   1.510   3.193  1.5899  1.3092 -0.4135
 8680SOL    HW237677   1.582   1.378   3.238 -0.2485 -0.1194 -0.4667
 8681SOL     OW37678   4.422   4.740  10.757 -0.2781 -0.2237  0.3089
 8681SOL    HW137679   4.453   4.656  10.723 -1.1011  0.4533 -2.1287
 8681SOL    HW237680   4.349   0.024  10.701 -1.2651 -0.2523  1.5941
 8682SOL     OW37681   1.873   4.706   8.624  0.3062  0.3841 -0.4700
 8682SOL    HW137682   1.943   4.643   8.636 -1.7433 -1.9872 -0.9530
 8682SOL    HW237683   1.845   4.688   8.535 -0.3405  1.4447 -0.4883
 8683SOL     OW37684   1.008   0.353   2.398  0.4577  0.9069  0.4629
 8683SOL    HW137685   0.969   0.276   2.357  0.9522  0.4086  0.9310
 8683SOL    HW237686   0.935   0.404   2.434  0.8944  2.1450 -0.4049
 8684SOL     OW37687   3.173   3.895   3.015 -0.2709 -0.3407 -0.0373
 8684SOL    HW137688   3.088   3.861   3.043 -0.4386 -0.0016 -0.1440
 8684SOL    HW237689   3.233   3.838   3.063  1.4345  0.6117 -1.0344
 8685SOL     OW37690   4.258   4.638  13.303 -0.3321  0.4162 -0.0470
 8685SOL    HW137691   4.290   4.715  13.350 -1.0405 -0.9608  2.6726
 8685SOL    HW237692   4.334   4.600  13.260 -1.1933 -1.7768  0.3944
 8686SOL     OW37693   3.066   3.919   1.835 -0.2178 -0.0901 -0.1878
 8686SOL    HW137694   3.134   3.944   1.897 -0.1074 -0.8855  0.0061
 8686SOL    HW237695   3.096   3.949   1.749  0.9757  0.4468  0.4077
 8687SOL     OW37696   2.404   2.044   7.219 -0.1403  0.0003  0.1549
 8687SOL    HW137697   2.313   2.070   7.208  1.1314  3.8070 -1.4450
 8687SOL    HW237698   2.438   2.105   7.285  2.8898  1.4116 -2.6940
 8688SOL     OW37699   3.652   2.010   8.477  0.6039  0.4109 -0.5017
 8688SOL    HW137700   3.615   1.922   8.470 -0.8291  1.0642 -1.1386
 8688SOL    HW237701   3.578   2.066   8.454  2.0157  2.6379  0.3973
 8689SOL     OW37702   2.565   3.022   6.527 -0.8034 -0.0184  0.3938
 8689SOL    HW137703   2.513   2.995   6.452  0.6742  1.2978 -1.1147
 8689SOL    HW237704   2.654   3.021   6.493 -0.6627 -0.3869  0.7729
 8690SOL     OW37705   3.847   2.506   8.718 -0.2823  0.0197  0.6014
 8690SOL    HW137706   3.820   2.522   8.628  0.7957 -1.0509  0.0828
 8690SOL    HW237707   3.891   2.421   8.710 -1.1685 -0.2530 -1.2193
 8691SOL     OW37708   3.616   1.581   3.115  0.4260 -0.3216  0.7750
 8691SOL    HW137709   3.646   1.538   3.035 -0.6681  0.5848 -0.1263
 8691SOL    HW237710   3.682   1.649   3.131 -0.3855  0.4976  0.6120
 8692SOL     OW37711   0.675   0.712   1.354  0.3440  0.3865 -0.4303
 8692SOL    HW137712   0.770   0.716   1.364  0.2158  2.5745 -0.1086
 8692SOL    HW237713   0.661   0.631   1.402 -0.6377  1.1457  0.5636
 8693SOL     OW37714   3.152   1.076   2.961  0.3504  0.3208  0.1065
 8693SOL    HW137715   3.099   1.056   3.039  1.2228  1.9159  1.1080
 8693SOL    HW237716   3.185   1.161   2.989 -0.8891  0.9849 -0.4352
 8694SOL     OW37717   2.047   0.850   2.192 -0.4266  0.1022  0.3761
 8694SOL    HW137718   2.089   0.927   2.229  1.1859 -1.4455  1.7687
 8694SOL    HW237719   1.985   0.829   2.261  0.5458 -0.6165  1.0254
 8695SOL     OW37720   4.040   0.947   1.863 -0.1028  0.1177  0.1836
 8695SOL    HW137721   4.133   0.953   1.841 -0.1623  1.6188  0.3545
 8695SOL    HW237722   4.048   0.883   1.934 -3.8375  0.4182  0.8919
 8696SOL     OW37723   1.584   4.066   3.721  0.2662 -0.2749  0.2284
 8696SOL    HW137724   1.643   4.020   3.661 -0.5085 -0.1796 -0.6122
 8696SOL    HW237725   1.628   4.150   3.727 -1.5524  0.7115 -0.2307
 8697SOL     OW37726   4.500   4.411   7.025 -0.6565 -0.4046 -0.1889
 8697SOL    HW137727   4.577   4.467   7.037 -0.8728 -0.0540 -0.4409
 8697SOL    HW237728   4.428   4.469   7.048 -0.3702 -0.2175  0.2368
 8698SOL     OW37729   3.015   2.266  15.923 -0.1035  0.1969  0.3179
 8698SOL    HW137730   3.030   2.305  15.837 -1.0754 -1.2208 -0.5075
 8698SOL    HW237731   3.087   2.306  15.970  2.0432  0.3670 -3.0948
 8699SOL     OW37732   2.802   0.990   2.537  0.0018 -0.1748 -0.4897
 8699SOL    HW137733   2.712   0.956   2.527  0.1069 -0.6301  0.1316
 8699SOL    HW237734   2.796   1.023   2.626 -1.1698 -0.3062 -0.5077
 8700SOL     OW37735   0.971   3.975   3.227 -0.0608 -0.7364  0.3727
 8700SOL    HW137736   1.022   3.947   3.303  3.3689  2.8696 -0.6185
 8700SOL    HW237737   0.939   3.891   3.194  0.3196 -0.0976 -1.6395
 8701SOL     OW37738   3.534   0.235  13.425  0.6192 -0.4244 -0.9787
 8701SOL    HW137739   3.552   0.279  13.508  0.3503  0.0873 -1.1908
 8701SOL    HW237740   3.603   0.169  13.416  1.4474  0.3531 -0.3142
 8702SOL     OW37741   3.332   4.495   5.889 -0.3711  0.0966 -0.7807
 8702SOL    HW137742   3.340   4.416   5.836 -1.3609  0.0619 -0.8758
 8702SOL    HW237743   3.274   4.460   5.957 -0.2227  1.3017 -0.0332
 8703SOL     OW37744   3.860   4.218   2.652  0.4847  0.3149  0.1033
 8703SOL    HW137745   3.899   4.147   2.601 -2.2247 -1.6826  0.8389
 8703SOL    HW237746   3.887   4.293   2.599 -0.3838 -0.1237 -0.9740
 8704SOL     OW37747   3.884   3.060   2.275 -0.0283 -0.1469  0.6004
 8704SOL    HW137748   3.904   3.082   2.366 -4.3601 -1.4467  1.9111
 8704SOL    HW237749   3.964   3.015   2.247  0.9298  0.2597  2.7389
 8705SOL     OW37750   3.041   3.121   1.058  0.0021  0.2353 -0.2355
 8705SOL    HW137751   3.088   3.146   1.138  0.8459 -1.0068 -0.3582
 8705SOL    HW237752   3.107   3.108   0.990  0.9437  0.0237  0.7233
 8706SOL     OW37753   1.785   1.110  13.006 -0.2254 -0.3538  0.0192
 8706SOL    HW137754   1.749   1.023  12.987  0.2569 -0.5607  0.0450
 8706SOL    HW237755   1.880   1.100  13.009 -0.2649 -1.7751 -3.1711
 8707SOL     OW37756   4.285   4.298   7.579 -0.0933  0.3136  0.0378
 8707SOL    HW137757   4.296   4.204   7.573 -0.6815  0.5080 -3.9750
 8707SOL    HW237758   4.190   4.294   7.572 -0.0320 -1.3502  0.3096
 8708SOL     OW37759   2.817   1.954  10.554 -0.2224  0.2294  0.5484
 8708SOL    HW137760   2.867   1.928  10.478  1.2881 -0.1027  1.6543
 8708SOL    HW237761   2.732   1.914  10.533 -0.3035  0.1577  1.0023
 8709SOL     OW37762   3.263   3.106   2.907 -0.3247  0.4414  0.3073
 8709SOL    HW137763   3.349   3.106   2.864  0.3789 -0.1125  1.7049
 8709SOL    HW237764   3.267   3.178   2.969 -0.5716 -0.0959  0.9482
 8710SOL     OW37765   2.700   3.862   3.153  0.1327 -0.6323 -0.0412
 8710SOL    HW137766   2.698   3.900   3.065  2.2350 -0.9703 -0.2342
 8710SOL    HW237767   2.786   3.894   3.180 -0.6817  0.3825  1.3496
 8711SOL     OW37768   1.421   2.338   2.615  0.3836  0.2605  0.4130
 8711SOL    HW137769   1.499   2.322   2.668 -0.5045 -1.7297  1.1022
 8711SOL    HW237770   1.463   2.387   2.544  0.7542 -0.1344  0.3629
 8712SOL     OW37771   1.307   4.224   8.600  0.4240  0.2611  0.4504
 8712SOL    HW137772   1.331   4.182   8.683  1.6351 -0.9489 -0.5181
 8712SOL    HW237773   1.228   4.272   8.626 -1.0855 -2.3334  0.7349
 8713SOL     OW37774   3.922   2.425  15.188 -0.0780  0.2048 -0.2549
 8713SOL    HW137775   3.835   2.410  15.151  0.4385 -1.9825 -0.5704
 8713SOL    HW237776   3.910   2.363  15.261 -1.2300  1.8360  0.9395
 8714SOL     OW37777   3.192   1.284   2.464 -0.0239  0.0561 -0.0875
 8714SOL    HW137778   3.170   1.225   2.537  2.8518  1.0116  1.5098
 8714SOL    HW237779   3.164   1.368   2.499  0.9679  0.4603 -0.2691
 8715SOL     OW37780   1.451   4.105   4.486  0.0464  0.0766  0.6135
 8715SOL    HW137781   1.478   4.194   4.507  1.4678 -0.5577  1.4643
 8715SOL    HW237782   1.474   4.098   4.394 -1.3867 -0.1019  0.2619
 8716SOL     OW37783   3.434   1.322  16.458 -0.0226 -0.1586 -0.3035
 8716SOL    HW137784   3.344   1.324  16.424  0.8476  2.4339 -2.4631
 8716SOL    HW237785   3.482   1.330  16.375 -0.8131  0.2800 -0.7239
 8717SOL     OW37786   1.554   0.427   7.958 -0.5992 -0.2244  0.6377
 8717SOL    HW137787   1.530   0.347   7.912  2.6462 -0.0311 -1.4104
 8717SOL    HW237788   1.648   0.432   7.941 -0.4871 -1.7266  0.8729
 8718SOL     OW37789   0.171   4.659   4.096 -0.6817 -0.3387  0.4855
 8718SOL    HW137790   0.155   4.642   4.188  2.3663 -1.9605  0.7267
 8718SOL    HW237791   0.089   4.628   4.058 -0.4923  0.6949 -0.7895
 8719SOL     OW37792   0.825   4.551   1.127  0.2399 -0.1767  0.4034
 8719SOL    HW137793   0.739   4.589   1.109 -0.2628 -1.6458 -0.3496
 8719SOL    HW237794   0.827   4.493   1.051 -0.8915 -2.5486  2.1726
 8720SOL     OW37795   3.833   3.451  11.653 -0.0874 -0.2212 -0.1477
 8720SOL    HW137796   3.776   3.484  11.723  1.3978 -1.5360  1.6639
 8720SOL    HW237797   3.775   3.430  11.579 -1.3894  1.1187  0.5011
 8721SOL     OW37798   4.225   2.785  12.480 -0.0362  0.2595 -0.7291
 8721SOL    HW137799   4.169   2.863  12.484  3.0523  2.5684 -2.5627
 8721SOL    HW237800   4.162   2.731  12.432  0.6907  0.5109 -1.9503
 8722SOL     OW37801   2.612   3.920   3.904  0.0538  0.2994  0.0670
 8722SOL    HW137802   2.598   3.882   3.817 -0.6706  1.2396 -0.2274
 8722SOL    HW237803   2.708   3.919   3.907  0.0448  4.1416  1.8027
 8723SOL     OW37804   2.814   2.201  12.122 -0.3824 -0.1114 -0.1575
 8723SOL    HW137805   2.818   2.184  12.028  1.9640 -3.4542  0.5573
 8723SOL    HW237806   2.813   2.111  12.156  1.8128 -0.1275 -0.1338
 8724SOL     OW37807   0.645   1.508   7.001 -0.3493  0.4136  0.3069
 8724SOL    HW137808   0.562   1.509   7.048 -0.3336 -1.4522  0.3497
 8724SOL    HW237809   0.680   1.593   7.029 -1.1411  0.6832  0.4910
 8725SOL     OW37810   3.083   2.568   6.611  0.0666 -0.0248  0.3497
 8725SOL    HW137811   3.158   2.523   6.650  2.2540  0.1544 -3.6704
 8725SOL    HW237812   3.041   2.591   6.693  0.3297 -0.0381  0.4887
 8726SOL     OW37813   0.767   3.752   9.557  0.2070 -0.0795 -0.1988
 8726SOL    HW137814   0.808   3.722   9.476  0.5661 -2.0607  0.7149
 8726SOL    HW237815   0.686   3.702   9.568 -0.7315  1.6387  0.7503
 8727SOL     OW37816   0.243   2.681   1.634 -0.3947  0.4451  0.6711
 8727SOL    HW137817   0.295   2.733   1.573  0.3152  1.4843  2.1470
 8727SOL    HW237818   0.247   2.595   1.591  0.2954  0.8491 -0.0577
 8728SOL     OW37819   1.092   0.817   7.967 -0.5409 -0.2314 -0.1821
 8728SOL    HW137820   1.003   0.821   8.000 -0.1899 -2.4596  1.0872
 8728SOL    HW237821   1.137   0.854   8.043  0.6501  0.2275 -1.1099
 8729SOL     OW37822   3.997   1.436  15.439 -0.2114 -0.3401 -0.1091
 8729SOL    HW137823   4.050   1.393  15.506 -0.5735  0.5806  0.7803
 8729SOL    HW237824   3.968   1.521  15.474 -0.1434 -0.7454  0.9112
 8730SOL     OW37825   3.183   1.869  11.411  0.1219 -0.0885 -0.1221
 8730SOL    HW137826   3.137   1.829  11.485 -0.2913  0.7564  0.0692
 8730SOL    HW237827   3.120   1.862  11.340 -0.2641 -0.1612  0.2324
 8731SOL     OW37828   0.834   3.106  17.573 -0.0951 -0.3061  0.1265
 8731SOL    HW137829   0.832   3.161  17.651 -2.0410  1.4141 -1.1500
 8731SOL    HW237830   0.898   3.044  17.609  0.1166 -0.5410 -0.6436
 8732SOL     OW37831   1.212   4.417   0.082 -0.1226 -0.4117  0.1965
 8732SOL    HW137832   1.292   4.455   0.045 -1.6340  0.7123 -1.9206
 8732SOL    HW237833   1.151   4.424   0.009  1.1305 -2.2001 -1.0177
 8733SOL     OW37834   1.136   0.467   5.852  0.2815  0.2974 -0.1481
 8733SOL    HW137835   1.053   0.477   5.898 -1.4383 -0.9839 -2.9913
 8733SOL    HW237836   1.122   0.505   5.765  1.1804 -0.3197 -0.5681
 8734SOL     OW37837   1.861   0.890   9.878  0.1208  0.1453  0.7599
 8734SOL    HW137838   1.789   0.919   9.933  0.3814 -1.1430  1.7880
 8734SOL    HW237839   1.818   0.831   9.817  0.0171 -1.3683  2.3031
 8735SOL     OW37840   3.430   1.365   9.313 -0.2063  0.4514 -0.0785
 8735SOL    HW137841   3.356   1.306   9.330 -0.6695  1.6503  2.0135
 8735SOL    HW237842   3.452   1.316   9.234 -1.2151  1.5770 -1.0733
 8736SOL     OW37843   3.528   4.415  12.569 -0.3823 -0.7809 -0.3239
 8736SOL    HW137844   3.445   4.436  12.611  0.4678  1.6418  0.1107
 8736SOL    HW237845   3.509   4.452  12.483 -0.7040  1.4753  0.7165
 8737SOL     OW37846   0.845   4.222   4.749 -0.3131 -0.2068 -0.1065
 8737SOL    HW137847   0.752   4.218   4.773 -0.3858 -1.5164 -0.5939
 8737SOL    HW237848   0.860   4.131   4.724 -2.1613 -1.1570  2.1687
 8738SOL     OW37849   4.237   2.419   8.710 -0.4425 -0.4408 -0.4413
 8738SOL    HW137850   4.188   2.346   8.671  0.2475 -2.0841  1.7876
 8738SOL    HW237851   4.284   2.458   8.636  1.1865 -3.9520 -1.2358
 8739SOL     OW37852   3.409   1.699   2.610  0.1382 -0.1634  0.7942
 8739SOL    HW137853   3.468   1.734   2.676 -0.1571 -0.8563  1.4282
 8739SOL    HW237854   3.399   1.777   2.555  2.7012  0.2550  0.9268
 8740SOL     OW37855   4.288   2.814   2.526  0.4640  0.0150  0.0411
 8740SOL    HW137856   4.321   2.754   2.593 -0.0300  1.1144  1.2767
 8740SOL    HW237857   4.356   2.805   2.459 -0.3484  0.2304 -0.8135
 8741SOL     OW37858   4.093   2.895   0.871 -0.1260  0.1533  0.2479
 8741SOL    HW137859   4.187   2.904   0.887 -0.3577 -0.7188  2.0458
 8741SOL    HW237860   4.082   2.942   0.788  0.3878 -1.2518 -0.6008
 8742SOL     OW37861   2.191   1.620   7.615 -0.5596  0.3063 -0.3939
 8742SOL    HW137862   2.286   1.609   7.611 -0.5662 -0.0017  0.2540
 8742SOL    HW237863   2.165   1.608   7.524 -0.2462 -3.3538 -0.0117
 8743SOL     OW37864   3.678   0.874   3.226 -0.2442 -0.1686 -0.4238
 8743SOL    HW137865   3.721   0.927   3.158  0.3254 -1.1969 -0.8742
 8743SOL    HW237866   3.677   0.927   3.306 -2.3139 -0.8280 -0.0346
 8744SOL     OW37867   0.409   3.773   7.864 -0.1730 -0.6578  0.0160
 8744SOL    HW137868   0.330   3.759   7.916  0.2438  1.2095  1.1589
 8744SOL    HW237869   0.447   3.685   7.869 -0.4209 -0.7456  0.3425
 8745SOL     OW37870   1.848   1.858  10.019  0.3112  1.1089  0.3712
 8745SOL    HW137871   1.937   1.889   9.999  1.1409 -2.1392 -0.9793
 8745SOL    HW237872   1.861   1.795  10.090  1.2049 -1.3269 -1.9741
 8746SOL     OW37873   2.105   4.625   7.983  0.1062 -0.4403 -0.1655
 8746SOL    HW137874   2.014   4.622   7.955 -0.5656  0.7769  1.8917
 8746SOL    HW237875   2.106   4.661   8.072  3.5013 -2.5743  0.6650
 8747SOL     OW37876   4.044   1.281   2.202 -0.1245  0.8079  0.3476
 8747SOL    HW137877   4.015   1.281   2.293  0.6372 -0.7769  0.5900
 8747SOL    HW237878   3.957   1.285   2.162 -0.7231  0.7321  1.6437
 8748SOL     OW37879   1.717   4.649   4.591  0.0912 -0.0208  0.9849
 8748SOL    HW137880   1.669   4.621   4.513 -2.1139 -0.9308  2.6616
 8748SOL    HW237881   1.712   4.571   4.646 -0.7595  0.8238  2.1096
 8749SOL     OW37882   4.379   4.107   7.305  0.0317 -0.0285  0.2506
 8749SOL    HW137883   4.337   4.069   7.228 -1.0573  0.5330  0.5745
 8749SOL    HW237884   4.403   4.030   7.357  0.0229  1.0186  1.8038
 8750SOL     OW37885   4.299   4.341  10.337  0.1645 -0.6588  0.7496
 8750SOL    HW137886   4.302   4.371  10.428 -0.8977  2.0337 -0.1276
 8750SOL    HW237887   4.367   4.273  10.347 -0.2486 -1.1879 -0.0440
 8751SOL     OW37888   2.613   0.150  10.472  0.1608  0.5519 -0.1126
 8751SOL    HW137889   2.532   0.129  10.518  0.1099 -0.1407 -0.5174
 8751SOL    HW237890   2.592   0.121  10.383 -0.8173 -2.0880  0.9948
 8752SOL     OW37891   3.630   4.083  16.128  0.7841  0.4426 -0.5427
 8752SOL    HW137892   3.630   4.160  16.072  0.0500  1.4133  0.7856
 8752SOL    HW237893   3.692   4.122  16.191 -0.5952  1.1775  0.3536
 8753SOL     OW37894   2.514   1.223   6.561 -0.1051 -0.3973 -0.7718
 8753SOL    HW137895   2.518   1.131   6.586  2.6538  0.0866  0.5196
 8753SOL    HW237896   2.435   1.218   6.507 -0.1460  1.1605 -0.8387
 8754SOL     OW37897   4.099   3.969   4.985  0.4638 -0.0732 -0.0999
 8754SOL    HW137898   4.049   4.017   4.919 -0.9749 -0.0392  1.0210
 8754SOL    HW237899   4.163   4.034   5.015  1.2238 -1.1832  0.6868
 8755SOL     OW37900   2.368   1.245   5.078  0.4157 -0.7054 -0.7117
 8755SOL    HW137901   2.352   1.278   5.166 -0.9897 -1.5760 -0.6481
 8755SOL    HW237902   2.451   1.292   5.069  0.1318 -0.1231 -0.3249
 8756SOL     OW37903   0.336   4.715   6.714 -0.0225 -0.0602 -0.4436
 8756SOL    HW137904   0.380   4.692   6.632  1.3838  1.2211 -0.0540
 8756SOL    HW237905   0.276   0.039   6.676  2.5575  1.2055 -2.4134
 8757SOL     OW37906   0.817   4.073   4.429  0.2470 -0.4605 -0.3821
 8757SOL    HW137907   0.733   4.045   4.392  0.0102  0.1836 -0.3439
 8757SOL    HW237908   0.819   4.032   4.515  1.3286  2.0211  0.7730
 8758SOL     OW37909   4.131   4.423   6.194 -0.6054 -0.5032 -0.0435
 8758SOL    HW137910   4.045   4.444   6.231  0.4127  0.2252  1.9020
 8758SOL    HW237911   4.148   4.508   6.153  0.1688 -1.2369 -1.2522
 8759SOL     OW37912   0.971   0.980   5.404  0.3830  0.1291  0.2466
 8759SOL    HW137913   0.967   0.915   5.474  2.7194 -1.9237 -1.5337
 8759SOL    HW237914   0.885   1.021   5.412 -0.3112 -1.4696  0.8862
 8760SOL     OW37915   3.067   1.523   7.424  0.4631 -0.2847 -0.5139
 8760SOL    HW137916   2.991   1.485   7.468 -0.4251  2.2958  0.1150
 8760SOL    HW237917   3.135   1.490   7.484  1.2986 -0.4157 -1.5223
 8761SOL     OW37918   0.981   3.628   0.791 -0.1736 -0.3673  0.3768
 8761SOL    HW137919   1.071   3.654   0.810 -0.2076  0.3222 -0.4140
 8761SOL    HW237920   0.957   3.712   0.752 -2.4625 -1.1255  0.1109
 8762SOL     OW37921   3.797   3.819  17.285 -0.1433 -0.2138 -0.6686
 8762SOL    HW137922   3.805   3.914  17.299  1.3792 -0.3404 -0.7046
 8762SOL    HW237923   3.714   3.819  17.238  0.5755  0.2025 -1.9324
 8763SOL     OW37924   3.723   3.043  11.690  0.0338 -0.8415  0.2392
 8763SOL    HW137925   3.790   3.095  11.646  1.7660 -3.7140 -0.5250
 8763SOL    HW237926   3.754   2.953  11.692  2.0753 -0.1699 -0.8001
 8764SOL     OW37927   4.141   4.184  14.304  1.0382 -0.2556  0.5924
 8764SOL    HW137928   4.102   4.098  14.289 -0.8367  0.8557 -0.7655
 8764SOL    HW237929   4.232   4.167  14.279  0.6335 -0.8437 -0.4742
 8765SOL     OW37930   0.819   3.289   7.903 -0.1778  0.0867  0.5263
 8765SOL    HW137931   0.801   3.382   7.920 -0.2319 -0.1432  1.7621
 8765SOL    HW237932   0.869   3.259   7.979  2.3074  1.6203 -0.4852
 8766SOL     OW37933   3.657   1.031   5.444 -0.1504  0.2396 -0.2892
 8766SOL    HW137934   3.711   0.957   5.414 -0.3487  0.6856 -1.7473
 8766SOL    HW237935   3.607   0.982   5.509  0.1518 -1.5318 -1.3872
 8767SOL     OW37936   1.558   0.110   4.686 -0.5663 -0.2281  0.3492
 8767SOL    HW137937   1.579   0.136   4.776  0.7832  1.5486 -0.4601
 8767SOL    HW237938   1.631   0.051   4.671  0.2875  0.7176  0.7929
 8768SOL     OW37939   2.003   0.714  13.496 -0.1649 -0.4545  0.3603
 8768SOL    HW137940   2.031   0.733  13.586 -2.2912 -0.4234  1.0012
 8768SOL    HW237941   1.920   0.671  13.516 -0.5266  0.5662  1.0532
 8769SOL     OW37942   0.433   0.401   7.630  0.9020  0.2533 -0.2863
 8769SOL    HW137943   0.507   0.419   7.688  0.7538  2.7527 -0.8977
 8769SOL    HW237944   0.476   0.345   7.564  2.2374 -0.5297  1.2378
 8770SOL     OW37945   0.057   3.851   4.288 -0.1301  0.2138 -0.3196
 8770SOL    HW137946   0.049   3.904   4.367  1.2351 -0.9549  0.6097
 8770SOL    HW237947   0.145   3.883   4.266 -0.4564  0.3744 -1.3788
 8771SOL     OW37948   4.249   4.679   1.810  0.0091 -0.6309  0.0082
 8771SOL    HW137949   4.223   0.029   1.791 -0.7241 -0.9469 -0.4677
 8771SOL    HW237950   4.341   4.679   1.836 -0.3747  0.0240  1.3876
 8772SOL     OW37951   0.239   2.874   4.691  0.4509 -0.2096  0.1227
 8772SOL    HW137952   0.252   2.863   4.785  0.2630 -1.7643 -0.0340
 8772SOL    HW237953   0.231   2.783   4.663 -0.7309  1.1957 -4.1665
 8773SOL     OW37954   4.240   2.658   7.921  0.1014 -0.1229 -0.5317
 8773SOL    HW137955   4.276   2.582   7.967  0.2335 -0.3529 -1.0084
 8773SOL    HW237956   4.210   2.603   7.848 -0.7965  0.6654 -0.7500
 8774SOL     OW37957   0.401   2.932   2.307  0.1724  0.3245 -0.2506
 8774SOL    HW137958   0.375   2.857   2.360  1.7772 -0.4459 -0.5682
 8774SOL    HW237959   0.318   2.980   2.312  0.2463  0.3878  0.5246
 8775SOL     OW37960   1.317   1.188   1.630 -0.4700 -0.2734  0.3281
 8775SOL    HW137961   1.375   1.130   1.679  1.4816  1.3041 -0.0828
 8775SOL    HW237962   1.371   1.240   1.570  0.8026 -1.6650  0.2662
 8776SOL     OW37963   1.597   0.651  15.915  0.0153 -0.1500  0.5316
 8776SOL    HW137964   1.563   0.707  15.984 -1.2531 -0.4163  0.1271
 8776SOL    HW237965   1.682   0.633  15.953  0.9005 -0.6741 -1.6968
 8777SOL     OW37966   3.858   0.673   1.992  0.7839 -0.2879 -0.5766
 8777SOL    HW137967   3.825   0.717   1.914 -1.5159  0.5210  0.8333
 8777SOL    HW237968   3.797   0.705   2.059 -2.2255 -0.8321 -3.0223
 8778SOL     OW37969   3.484   2.704   6.627 -0.1790 -0.5211 -0.1360
 8778SOL    HW137970   3.497   2.796   6.604 -2.5164 -0.2075 -0.2452
 8778SOL    HW237971   3.487   2.657   6.543  0.3084 -0.3958 -0.1906
 8779SOL     OW37972   0.742   3.384  11.296 -0.2124 -0.0441  0.2975
 8779SOL    HW137973   0.782   3.342  11.220  1.4121  2.1501 -0.0557
 8779SOL    HW237974   0.654   3.345  11.286 -0.0758 -0.4499  0.6849
 8780SOL     OW37975   0.043   0.410   4.369  0.1865  0.5279  0.0983
 8780SOL    HW137976   0.125   0.440   4.409  0.8755 -2.2292  0.6982
 8780SOL    HW237977   0.037   0.322   4.404 -1.8602  1.3037  1.6422
 8781SOL     OW37978   2.501   1.729   8.969 -0.1096 -0.1216  0.3656
 8781SOL    HW137979   2.450   1.683   9.036  1.1851 -2.3799 -0.1949
 8781SOL    HW237980   2.587   1.739   9.011  1.0184 -0.1893 -1.9713
 8782SOL     OW37981   1.530   3.818   1.608  0.2193  0.2805 -0.3245
 8782SOL    HW137982   1.592   3.800   1.679  0.4201  0.7993 -0.3665
 8782SOL    HW237983   1.496   3.904   1.633  0.7080  0.9980 -2.0951
 8783SOL     OW37984   1.773   3.313   6.901  0.6174 -0.2836 -0.1678
 8783SOL    HW137985   1.787   3.321   6.995  3.3834  1.3948 -0.7337
 8783SOL    HW237986   1.760   3.403   6.872 -1.9286 -0.3258  0.8729
 8784SOL     OW37987   1.583   1.738   2.662  0.2240  0.3991  0.2064
 8784SOL    HW137988   1.593   1.751   2.568  1.3843 -1.2020  0.1117
 8784SOL    HW237989   1.624   1.653   2.679 -1.2821 -0.0047  1.8916
 8785SOL     OW37990   3.509   3.719   7.701 -0.0599  0.4398  0.2568
 8785SOL    HW137991   3.540   3.799   7.742  0.8833  1.1246 -1.7878
 8785SOL    HW237992   3.495   3.751   7.612 -1.0802 -0.3726  0.1241
 8786SOL     OW37993   1.242   2.368   7.681 -0.6404 -0.0703 -0.0085
 8786SOL    HW137994   1.171   2.425   7.651 -0.3162  0.6418  0.5868
 8786SOL    HW237995   1.243   2.301   7.613 -0.1152 -0.3973  0.3208
 8787SOL     OW37996   3.996   1.388   3.879  0.0457  0.6902 -0.4307
 8787SOL    HW137997   4.070   1.328   3.895 -0.8568  0.1210  1.6815
 8787SOL    HW237998   3.953   1.342   3.807  0.9380 -1.7264  0.5576
 8788SOL     OW37999   2.422   0.450   8.426 -0.0990 -0.1256  0.6040
 8788SOL    HW138000   2.476   0.482   8.353  1.0453 -0.8423  1.1273
 8788SOL    HW238001   2.493   0.434   8.488 -1.7200 -3.2939  1.6248
 8789SOL     OW38002   3.136   0.971   4.842 -0.1410 -0.1314 -0.7785
 8789SOL    HW138003   3.092   1.016   4.914 -0.9822 -0.4416 -1.1017
 8789SOL    HW238004   3.195   0.908   4.882  2.8152  3.5063  0.6117
 8790SOL     OW38005   3.494   2.943   9.304 -0.1647  0.2472  0.5675
 8790SOL    HW138006   3.406   2.936   9.266 -0.4048  1.4784  0.8744
 8790SOL    HW238007   3.492   2.871   9.366  0.8423 -1.4427 -1.3601
 8791SOL     OW38008   2.961   0.350   0.979 -0.2379  0.1555  0.8674
 8791SOL    HW138009   3.017   0.273   0.967 -1.0665 -0.3071  0.0289
 8791SOL    HW238010   3.021   0.409   1.025 -0.3034  0.2798  0.7927
 8792SOL     OW38011   4.410   4.632   6.120 -0.4555 -0.0235 -0.5008
 8792SOL    HW138012   4.419   4.543   6.153 -0.0164 -0.2441 -1.2015
 8792SOL    HW238013   4.493   4.647   6.075 -2.2045  0.5397 -3.5715
 8793SOL     OW38014   3.503   0.397   9.188  0.1115 -0.4252  0.3480
 8793SOL    HW138015   3.528   0.339   9.260 -0.8693 -1.1250  0.1337
 8793SOL    HW238016   3.457   0.336   9.130 -0.8836  0.2894  0.3841
 8794SOL     OW38017   4.291   0.368   2.929  0.6765 -0.0854  0.2358
 8794SOL    HW138018   4.284   0.344   2.836  0.5003 -0.4356  0.3382
 8794SOL    HW238019   4.382   0.397   2.936  1.0378 -0.7684 -1.5095
 8795SOL     OW38020   1.757   3.196   1.934 -0.6204  0.8401  0.2066
 8795SOL    HW138021   1.678   3.207   1.882  1.0222 -1.1826 -2.6982
 8795SOL    HW238022   1.800   3.144   1.866 -0.1554 -0.1598  1.2620
 8796SOL     OW38023   0.333   0.102   9.920 -0.0947  0.1132 -0.1070
 8796SOL    HW138024   0.382   0.144   9.849  4.5779 -1.8012  1.9559
 8796SOL    HW238025   0.370   0.147   9.996 -0.1115  0.5158 -0.3353
 8797SOL     OW38026   0.215   3.091  14.731 -0.1786  0.7903 -0.0991
 8797SOL    HW138027   0.265   3.011  14.716 -2.4170 -0.7037  0.6076
 8797SOL    HW238028   0.270   3.153  14.682 -0.0914  0.1090 -0.8594
 8798SOL     OW38029   0.325   2.131  15.928 -0.0964  0.1177  0.2133
 8798SOL    HW138030   0.377   2.051  15.922 -0.6929 -0.2730  0.2757
 8798SOL    HW238031   0.273   2.119  15.849  1.6742  1.3502 -1.1350
 8799SOL     OW38032   1.225   1.694   2.920 -0.4863 -0.0546  0.9527
 8799SOL    HW138033   1.238   1.686   3.014 -0.7660 -0.1714  0.9807
 8799SOL    HW238034   1.298   1.749   2.891 -0.7876 -1.2682 -2.1413
 8800SOL     OW38035   4.210   2.130   6.989  0.8301 -0.6147  0.1547
 8800SOL    HW138036   4.205   2.110   6.896  0.8053 -1.2097  0.2870
 8800SOL    HW238037   4.253   2.051   7.023  1.5103  0.6904  2.3801
 8801SOL     OW38038   0.678   3.547  16.366  0.2858 -0.7261  1.1280
 8801SOL    HW138039   0.712   3.576  16.451  1.3755 -0.0353  0.4596
 8801SOL    HW238040   0.684   3.628  16.314 -0.4959 -0.7762  0.9559
 8802SOL     OW38041   2.217   0.310  13.794 -0.3206  0.2545 -0.2514
 8802SOL    HW138042   2.177   0.283  13.876 -0.5063 -0.4681 -0.5765
 8802SOL    HW238043   2.200   0.231  13.743  2.9923  0.4423 -1.6224
 8803SOL     OW38044   2.440   2.770   1.899  0.4450 -0.4494  0.0247
 8803SOL    HW138045   2.414   2.772   1.992 -0.1850  0.5423 -0.1755
 8803SOL    HW238046   2.531   2.741   1.902  0.7645  0.4922 -0.8386
 8804SOL     OW38047   0.571   3.279   2.197 -0.1878 -0.0145  0.4320
 8804SOL    HW138048   0.593   3.193   2.161  1.2973  0.7102 -0.3898
 8804SOL    HW238049   0.540   3.328   2.121  1.5259 -1.1452 -1.0093
 8805SOL     OW38050   1.568   1.615   7.718 -0.6186  0.3604  0.2244
 8805SOL    HW138051   1.582   1.666   7.798  1.2302  1.4481 -0.7768
 8805SOL    HW238052   1.642   1.640   7.662  0.6570 -4.1223 -0.0738
 8806SOL     OW38053   3.846   2.532  17.360 -0.6054  0.0727  0.1356
 8806SOL    HW138054   3.900   2.460  17.327 -0.6460  1.0651 -2.1449
 8806SOL    HW238055   3.839   2.499  17.449 -2.6458  1.3647  0.4580
 8807SOL     OW38056   2.566   4.639   2.211  0.3839 -0.1122 -0.2761
 8807SOL    HW138057   2.564   4.721   2.162 -0.6520  0.2274  0.3327
 8807SOL    HW238058   2.583   4.576   2.140  0.2575  0.5324 -0.8742
 8808SOL     OW38059   0.691   1.102   1.951 -0.1538 -0.3993  0.5075
 8808SOL    HW138060   0.738   1.062   1.879 -1.4176 -3.2269  1.2285
 8808SOL    HW238061   0.625   1.035   1.969  0.2861 -0.4311  2.0479
 8809SOL     OW38062   3.621   0.046   6.483  1.0642  0.4392 -0.3132
 8809SOL    HW138063   3.693   0.018   6.539 -0.3842 -0.2220  1.2163
 8809SOL    HW238064   3.593   4.704   6.443  1.3179 -0.3324  1.1024
 8810SOL     OW38065   2.817   1.696   3.224 -0.3791 -0.0541  0.2264
 8810SOL    HW138066   2.823   1.777   3.276 -0.8250 -0.1876  0.4866
 8810SOL    HW238067   2.895   1.649   3.251 -1.0119 -0.9103  0.5411
 8811SOL     OW38068   0.819   3.993  15.416  0.4005 -0.1197 -0.1091
 8811SOL    HW138069   0.891   4.004  15.354  1.2018 -3.5419  0.2335
 8811SOL    HW238070   0.861   3.954  15.492  0.0194 -0.1808  0.0714
 8812SOL     OW38071   4.407   0.358   1.660 -0.2084 -0.5212  0.0821
 8812SOL    HW138072   4.367   0.435   1.700 -1.3027 -0.1962 -1.6321
 8812SOL    HW238073   4.482   0.397   1.615 -0.8598  1.8397  1.0519
 8813SOL     OW38074   1.702   2.332   9.397 -0.0123 -0.3794 -0.2027
 8813SOL    HW138075   1.663   2.278   9.466  1.9872 -3.0411 -1.1546
 8813SOL    HW238076   1.642   2.314   9.325 -0.4410 -2.3659  0.6601
 8814SOL     OW38077   4.139   3.953  12.936 -0.4445  0.3983  0.8392
 8814SOL    HW138078   4.227   3.941  12.901 -1.0545 -0.5203 -0.3653
 8814SOL    HW238079   4.092   3.893  12.879  0.3330  0.5328  0.0647
 8815SOL     OW38080   1.490   2.648   6.880 -0.1944 -0.3254  0.3421
 8815SOL    HW138081   1.437   2.727   6.885  1.1324  0.4388  2.6323
 8815SOL    HW238082   1.424   2.587   6.912 -0.7412  2.2226  4.0383
 8816SOL     OW38083   4.617   3.800  16.836 -0.0476 -0.0695 -0.1915
 8816SOL    HW138084   4.550   3.734  16.856  0.5121 -0.2629  1.0429
 8816SOL    HW238085   4.592   3.868  16.899 -0.7486  0.1116 -0.6597
 8817SOL     OW38086   1.568   4.104   8.794  0.8410  0.9048  0.8395
 8817SOL    HW138087   1.590   4.162   8.868  1.3224 -1.0947  2.2639
 8817SOL    HW238088   1.593   4.163   8.724 -2.6091  2.5736  1.0064
 8818SOL     OW38089   1.638   3.089  17.081  0.0196 -0.2433 -0.3765
 8818SOL    HW138090   1.719   3.101  17.131 -0.8296  0.5389  0.8057
 8818SOL    HW238091   1.665   3.020  17.020  1.1770 -0.1932  0.0828
 8819SOL     OW38092   2.027   2.303   3.316 -0.4719 -0.0078 -0.0549
 8819SOL    HW138093   2.096   2.260   3.367 -0.6491 -0.4026 -0.1439
 8819SOL    HW238094   1.964   2.233   3.298  1.0967 -1.4298 -0.0069
 8820SOL     OW38095   2.936   2.915   5.823  0.0377 -0.0647 -0.5059
 8820SOL    HW138096   2.887   2.986   5.865  1.9812  1.3794 -0.7008
 8820SOL    HW238097   3.003   2.902   5.890 -0.5203  1.2004  0.2870
 8821SOL     OW38098   2.926   2.253   4.729 -0.3400  0.1443 -0.0768
 8821SOL    HW138099   2.849   2.308   4.745 -0.9933 -0.6370 -0.5614
 8821SOL    HW238100   2.975   2.248   4.811 -0.5776 -1.5455 -0.0390
 8822SOL     OW38101   1.574   1.961   9.057 -0.1935  0.1861  0.3923
 8822SOL    HW138102   1.530   1.980   9.140  1.2616 -2.5927  1.7987
 8822SOL    HW238103   1.539   1.876   9.032  2.8113 -0.3737 -1.8990
 8823SOL     OW38104   1.794   3.219  12.295  1.1688 -0.3966 -0.2429
 8823SOL    HW138105   1.848   3.215  12.216  0.4222  0.8558 -0.8097
 8823SOL    HW238106   1.745   3.300  12.283  2.1689  0.0645 -1.1364
 8824SOL     OW38107   2.248   4.626   8.425  0.0486  0.0644 -0.2459
 8824SOL    HW138108   2.237   4.566   8.500  2.3844  0.9941  0.8280
 8824SOL    HW238109   2.322   4.680   8.453 -0.5011 -0.7174  2.7632
 8825SOL     OW38110   2.878   2.283   1.373 -0.2928  0.3512 -0.1538
 8825SOL    HW138111   2.870   2.259   1.281 -0.1196 -0.4611  0.0442
 8825SOL    HW238112   2.870   2.201   1.422  1.3177 -0.7699 -1.7656
 8826SOL     OW38113   4.659   3.562  13.998  0.9945  0.2134 -0.3783
 8826SOL    HW138114   4.580   3.595  14.041  0.0451 -0.8636 -1.3016
 8826SOL    HW238115   4.720   3.628  14.033  0.6927  0.4352 -0.2725
 8827SOL     OW38116   1.079   2.794   6.734 -0.2333  0.5827  0.1837
 8827SOL    HW138117   1.064   2.699   6.737  0.3373  0.4513 -0.9543
 8827SOL    HW238118   0.993   2.827   6.760 -1.1000 -0.7478 -1.0135
 8828SOL     OW38119   1.065   3.342  16.601 -0.4259 -0.1404  0.2570
 8828SOL    HW138120   0.970   3.334  16.593 -0.6187  2.8425 -0.3432
 8828SOL    HW238121   1.103   3.257  16.580  2.7519  1.6921 -1.3395
 8829SOL     OW38122   2.045   2.250  17.512  0.0119  0.5315 -0.1268
 8829SOL    HW138123   2.064   2.281  17.423  1.2733  2.7662  0.9309
 8829SOL    HW238124   2.119   2.188  17.509 -0.3448  0.2191 -2.4314
 8830SOL     OW38125   3.091   2.011   2.237  0.8165  0.2859 -0.0169
 8830SOL    HW138126   3.121   2.101   2.252  0.5502  0.5802 -1.1942
 8830SOL    HW238127   3.073   2.011   2.143 -0.3537  1.7738  0.2128
 8831SOL     OW38128   1.194   4.507   8.445 -1.1573  0.0185 -0.0153
 8831SOL    HW138129   1.225   4.564   8.515 -1.2866  3.9614 -3.1962
 8831SOL    HW238130   1.263   4.494   8.381  0.7933 -0.5708  2.2050
 8832SOL     OW38131   3.012   3.656   2.535 -0.2045 -0.1394 -0.2908
 8832SOL    HW138132   3.030   3.728   2.475  0.1164 -0.3590 -0.4594
 8832SOL    HW238133   3.051   3.689   2.616  0.3019  2.0473 -1.4164
 8833SOL     OW38134   3.692   2.605   3.796 -0.2310 -0.1234 -0.0091
 8833SOL    HW138135   3.757   2.612   3.727 -0.0431 -3.7022 -0.2164
 8833SOL    HW238136   3.657   2.517   3.779  0.4200 -0.1438 -1.2684
 8834SOL     OW38137   3.910   2.040   8.582  0.2422 -0.1432  0.1180
 8834SOL    HW138138   3.910   2.127   8.542 -1.3593  0.3047  1.0732
 8834SOL    HW238139   3.817   2.018   8.570  0.1978  0.8277 -1.3513
 8835SOL     OW38140   3.156   1.499   1.706  0.0584  0.5874  0.3866
 8835SOL    HW138141   3.214   1.514   1.781  0.0417  1.5099  0.2242
 8835SOL    HW238142   3.144   1.406   1.722  1.0541  0.1906 -1.2124
 8836SOL     OW38143   2.447   3.647   7.431  0.4127 -0.2236 -0.0540
 8836SOL    HW138144   2.429   3.553   7.433 -3.6526  0.6134  1.9423
 8836SOL    HW238145   2.384   3.663   7.361 -1.4574 -0.3690  1.6088
 8837SOL     OW38146   1.631   0.420  12.331  0.0400  0.0900 -0.1281
 8837SOL    HW138147   1.645   0.379  12.245 -0.4297 -2.5279  1.0371
 8837SOL    HW238148   1.711   0.471  12.341 -0.8948  1.7715 -1.2912
 8838SOL     OW38149   3.870   0.464   5.722  0.4230  0.3945 -0.3507
 8838SOL    HW138150   3.903   0.423   5.802  1.5073  1.1117 -0.4261
 8838SOL    HW238151   3.859   0.554   5.753 -1.3583 -0.8838  2.7369
 8839SOL     OW38152   2.869   1.651   5.942  0.1233 -0.7344 -0.3328
 8839SOL    HW138153   2.895   1.582   6.004  2.4513 -0.2888 -0.8156
 8839SOL    HW238154   2.949   1.692   5.910  0.6819 -0.7979  0.9772
 8840SOL     OW38155   4.415   0.368   7.668 -0.3081  0.1249 -0.4709
 8840SOL    HW138156   4.422   0.459   7.640  0.1740 -0.1002 -1.0811
 8840SOL    HW238157   4.449   0.325   7.590  2.8549  1.0847  0.3838
 8841SOL     OW38158   2.140   2.136   6.213 -0.4991 -0.0379  0.4605
 8841SOL    HW138159   2.141   2.081   6.134 -0.1700  0.9192 -0.2017
 8841SOL    HW238160   2.176   2.221   6.186 -0.0481 -0.1392  0.7354
 8842SOL     OW38161   0.219   0.988   3.860  0.2439 -0.4150  0.2910
 8842SOL    HW138162   0.133   0.945   3.862  1.3662 -2.7176 -0.7923
 8842SOL    HW238163   0.266   0.934   3.797  0.7913 -0.7301  0.9804
 8843SOL     OW38164   2.254   3.118   4.288  0.0137  0.0867 -0.0629
 8843SOL    HW138165   2.183   3.053   4.287 -0.7757  0.9587 -1.0491
 8843SOL    HW238166   2.227   3.189   4.229 -0.3316  1.6639  2.0135
 8844SOL     OW38167   4.406   4.281   3.909  0.5017  0.6735 -0.0535
 8844SOL    HW138168   4.377   4.312   3.995 -3.2898 -1.0347 -0.7181
 8844SOL    HW238169   4.463   4.205   3.922 -1.2793 -0.5631  0.6096
 8845SOL     OW38170   0.098   2.774   8.505 -0.2741  0.1002  0.2105
 8845SOL    HW138171   0.062   2.848   8.554  0.5048 -0.0020  0.9246
 8845SOL    HW238172   0.151   2.741   8.578  1.9072 -0.6977 -1.7427
 8846SOL     OW38173   1.823   0.198   8.948 -0.3782  0.1531  0.0606
 8846SOL    HW138174   1.770   0.128   8.910  1.0820 -0.7440 -0.3343
 8846SOL    HW238175   1.867   0.243   8.876  2.2022  0.6068  1.9280
 8847SOL     OW38176   2.374   0.021  16.821 -0.2595 -0.2509 -0.2083
 8847SOL    HW138177   2.456   4.714  16.807  0.1688  0.1605  0.9005
 8847SOL    HW238178   2.410   0.104  16.853 -1.0223 -1.0107  2.6696
 8848SOL     OW38179   2.835   2.405   4.030 -0.2412  0.1131 -0.5632
 8848SOL    HW138180   2.750   2.445   4.046  0.2790  0.3792  1.5833
 8848SOL    HW238181   2.873   2.461   3.963  1.4704 -0.3725 -0.0155
 8849SOL     OW38182   2.256   4.208  13.688 -0.0193 -0.1871  0.1910
 8849SOL    HW138183   2.228   4.230  13.599  0.3599 -0.8810 -0.1057
 8849SOL    HW238184   2.185   4.149  13.713 -0.5258  0.3086 -0.0876
 8850SOL     OW38185   1.410   3.138   8.196 -0.3678 -0.0813 -0.0662
 8850SOL    HW138186   1.334   3.196   8.196 -1.6985 -1.8328 -1.8041
 8850SOL    HW238187   1.452   3.160   8.113 -1.7887 -1.0779 -1.0685
 8851SOL     OW38188   4.451   2.740   4.137 -0.3457 -0.0148 -0.4225
 8851SOL    HW138189   4.532   2.764   4.182  0.6233 -0.2958 -2.0445
 8851SOL    HW238190   4.401   2.818   4.161 -1.0539 -0.5470 -0.1595
 8852SOL     OW38191   0.187   3.365  15.986  0.0303  0.4404 -0.9504
 8852SOL    HW138192   0.183   3.456  16.015 -0.4455  0.0094  0.3694
 8852SOL    HW238193   0.104   3.336  16.026 -0.7305  2.2979 -1.1815
 8853SOL     OW38194   3.398   1.139   6.699 -0.0886 -0.7569  0.0662
 8853SOL    HW138195   3.476   1.188   6.671  0.2370 -1.3833 -0.1297
 8853SOL    HW238196   3.385   1.073   6.630 -0.5179 -0.9593  0.3421
 8854SOL     OW38197   4.040   0.283  10.815 -0.1116  0.1144  0.2434
 8854SOL    HW138198   3.950   0.285  10.782 -0.7763  2.4209  2.1863
 8854SOL    HW238199   4.031   0.346  10.886  2.3485 -0.9722  1.5303
 8855SOL     OW38200   2.440   2.429   2.087 -0.2951  0.3482  0.3258
 8855SOL    HW138201   2.480   2.499   2.139 -0.2855  0.4641  0.1643
 8855SOL    HW238202   2.501   2.429   2.013  0.7851 -0.4994  1.2295
 8856SOL     OW38203   3.491   0.011   5.777 -0.2108  0.7787  0.4879
 8856SOL    HW138204   3.403   4.732   5.746  1.1964 -0.6855 -2.6495
 8856SOL    HW238205   3.472   0.089   5.828 -0.2468  0.0450  1.6070
 8857SOL     OW38206   1.521   2.426   8.351  0.4723 -0.4195 -0.1892
 8857SOL    HW138207   1.453   2.473   8.399  0.4186  0.0808 -0.7587
 8857SOL    HW238208   1.478   2.420   8.266 -1.6307  0.0006  0.8270
 8858SOL     OW38209   1.230   4.348   0.337 -0.1321  0.0485  0.3588
 8858SOL    HW138210   1.165   4.417   0.349  0.1265  0.4588 -0.6700
 8858SOL    HW238211   1.248   4.361   0.245 -2.1951  1.5501  0.1666
 8859SOL     OW38212   4.565   3.143   5.114 -0.3746 -0.3492 -0.3808
 8859SOL    HW138213   4.478   3.130   5.077 -0.5805  1.8161 -0.6423
 8859SOL    HW238214   4.594   3.234   5.123 -1.4633  0.0596 -0.9916
 8860SOL     OW38215   1.313   0.214   0.977  0.4272 -0.1993 -0.5673
 8860SOL    HW138216   1.271   0.205   1.063  0.8929  0.4325 -0.2698
 8860SOL    HW238217   1.247   0.274   0.942 -0.5714 -1.2127 -0.4489
 8861SOL     OW38218   0.639   1.875   8.320 -0.3025  0.3552 -0.1441
 8861SOL    HW138219   0.627   1.828   8.402 -2.1301  1.4174  0.1795
 8861SOL    HW238220   0.545   1.889   8.308 -0.0479  2.4720  0.4897
 8862SOL     OW38221   0.667   2.034   5.504 -0.3327  0.2218 -0.1338
 8862SOL    HW138222   0.594   1.975   5.487  2.1236 -3.2371  1.1665
 8862SOL    HW238223   0.677   2.075   5.418 -0.5949  0.3817 -0.0878
 8863SOL     OW38224   3.668   4.611   4.608  0.0993 -0.1615 -0.1444
 8863SOL    HW138225   3.739   4.658   4.565 -0.5989 -0.3381 -1.4901
 8863SOL    HW238226   3.643   4.672   4.677 -2.4507 -1.1487 -0.1829
 8864SOL     OW38227   3.191   3.103   2.591 -0.2394  0.1079  0.5722
 8864SOL    HW138228   3.219   3.180   2.640 -1.1637 -0.6480  2.3136
 8864SOL    HW238229   3.121   3.131   2.533 -0.8401  0.4405  1.4568
 8865SOL     OW38230   3.661   1.537  10.298 -0.7087 -0.0284  0.1230
 8865SOL    HW138231   3.695   1.449  10.282 -0.3901  0.3893 -1.5028
 8865SOL    HW238232   3.578   1.509  10.336 -0.0742 -1.7442  0.2383
 8866SOL     OW38233   0.770   3.947   9.179 -0.2263  0.1641 -0.2410
 8866SOL    HW138234   0.805   4.031   9.146  1.1711 -0.8966 -1.4697
 8866SOL    HW238235   0.716   3.979   9.251 -1.0865  0.7020 -1.1328
 8867SOL     OW38236   1.906   3.716   3.167 -0.4710 -0.0932 -0.3864
 8867SOL    HW138237   1.993   3.687   3.139 -0.5229 -1.0189  0.4359
 8867SOL    HW238238   1.854   3.667   3.102  0.7149 -1.4743 -0.2888
 8868SOL     OW38239   1.935   0.860   4.997 -0.6268  0.1210 -0.6833
 8868SOL    HW138240   2.006   0.923   5.005 -0.6101 -0.2268  1.9309
 8868SOL    HW238241   1.855   0.912   4.991  1.0610  2.6598 -1.1000
 8869SOL     OW38242   4.462   0.215   9.156 -0.9446  0.0653 -0.1407
 8869SOL    HW138243   4.532   0.226   9.092 -1.1687  0.6614 -0.2869
 8869SOL    HW238244   4.432   0.304   9.178  0.4054 -0.5432  4.2702
 8870SOL     OW38245   3.172   0.306   5.243 -0.2695 -0.2434 -0.0611
 8870SOL    HW138246   3.122   0.297   5.324 -0.2220  2.3154  0.2532
 8870SOL    HW238247   3.218   0.389   5.254  0.0571 -0.6877  1.9669
 8871SOL     OW38248   4.497   4.064   0.983 -0.1188  0.2087 -0.1733
 8871SOL    HW138249   4.485   4.126   1.055 -2.3706 -0.8967  0.4166
 8871SOL    HW238250   4.422   4.072   0.924  0.9318  0.5371 -1.4638
 8872SOL     OW38251   1.823   3.667  17.460 -0.2265 -0.2524 -0.1516
 8872SOL    HW138252   1.757   3.624  17.405  0.0785  1.1256 -1.6057
 8872SOL    HW238253   1.836   3.616  17.539 -0.2601  0.8664  0.5710
 8873SOL     OW38254   4.698   0.421  13.905  0.0646 -0.6081 -0.2411
 8873SOL    HW138255   4.631   0.442  13.840  0.0222 -0.6933 -0.2247
 8873SOL    HW238256   4.667   0.485  13.970 -1.3383 -0.8502 -0.6657
 8874SOL     OW38257   1.183   1.615   1.830 -0.0440 -0.0910  0.7811
 8874SOL    HW138258   1.169   1.530   1.789  1.7808 -0.7224  1.4583
 8874SOL    HW238259   1.250   1.657   1.777 -0.2584 -0.3066  0.3342
 8875SOL     OW38260   2.625   3.019   3.964  0.6112 -0.3514 -0.1677
 8875SOL    HW138261   2.707   3.053   3.999 -0.2171  2.0649 -0.6154
 8875SOL    HW238262   2.658   2.931   3.945  1.4860 -0.5684  2.3695
 8876SOL     OW38263   3.714   1.778  11.558 -0.7194  0.0519  0.4190
 8876SOL    HW138264   3.689   1.846  11.620  0.5159 -1.1614  2.2681
 8876SOL    HW238265   3.647   1.785  11.491 -0.1766 -0.3372 -0.1660
 8877SOL     OW38266   4.551   2.204   3.589  0.2060 -0.5221 -0.3586
 8877SOL    HW138267   4.578   2.153   3.665  1.2656 -1.6166 -1.4726
 8877SOL    HW238268   4.636   2.229   3.553  0.6214 -0.1272  0.9190
 8878SOL     OW38269   2.911   3.865   7.822  0.1937  0.0041 -0.0129
 8878SOL    HW138270   2.868   3.946   7.850  0.6971  0.2471  0.0625
 8878SOL    HW238271   3.001   3.896   7.820  0.9618 -2.3112 -0.6705
 8879SOL     OW38272   4.105   1.516   9.607 -0.0537  0.5489  0.3644
 8879SOL    HW138273   4.077   1.521   9.698 -0.8224 -2.1892  0.2726
 8879SOL    HW238274   4.174   1.450   9.600  1.0603  1.7761 -0.1724
 8880SOL     OW38275   2.540   2.996   2.363  0.2808  1.1892 -0.0242
 8880SOL    HW138276   2.626   2.954   2.357 -0.9008 -1.1024 -0.8529
 8880SOL    HW238277   2.509   2.963   2.447 -1.0667  1.0405 -0.5822
 8881SOL     OW38278   3.412   1.691  15.206  0.2664 -0.5415  0.6572
 8881SOL    HW138279   3.332   1.639  15.202 -0.6571  0.8181  1.2702
 8881SOL    HW238280   3.475   1.627  15.240  0.2362 -2.9101 -3.8279
 8882SOL     OW38281   2.441   2.592   3.804  0.2339 -0.2137  0.0255
 8882SOL    HW138282   2.420   2.651   3.732 -0.3049  1.8911  1.8942
 8882SOL    HW238283   2.521   2.549   3.772  1.0277  2.7079 -1.8571
 8883SOL     OW38284   4.651   0.925   5.646 -0.3171  0.3849 -0.0887
 8883SOL    HW138285   4.699   0.878   5.578 -2.1516  0.0966 -1.1607
 8883SOL    HW238286   4.570   0.876   5.635  0.2288 -0.7446  0.9393
 8884SOL     OW38287   0.350   4.642  16.399  0.4524  0.4485 -0.2684
 8884SOL    HW138288   0.320   4.554  16.376 -1.3035  0.8014  0.6411
 8884SOL    HW238289   0.440   4.643  16.368  0.4383 -1.2287 -0.3718
 8885SOL     OW38290   3.571   4.034   5.512  0.4320  0.1509  0.0659
 8885SOL    HW138291   3.543   4.057   5.423 -0.9557 -1.8653 -0.0168
 8885SOL    HW238292   3.642   3.977   5.484 -0.9297 -1.8305  0.6359
 8886SOL     OW38293   0.823   2.396  12.153  0.2192  0.2282 -0.1479
 8886SOL    HW138294   0.764   2.436  12.216 -1.1135 -1.1577 -0.5091
 8886SOL    HW238295   0.825   2.306  12.188 -1.5334 -1.3319 -4.0291
 8887SOL     OW38296   1.596   1.799   6.599  0.4436 -0.2559  0.1850
 8887SOL    HW138297   1.580   1.836   6.685  0.4609 -0.4148  0.2565
 8887SOL    HW238298   1.642   1.718   6.621  0.1079 -0.5821 -0.3073
 8888SOL     OW38299   0.989   1.598   5.439  0.5932 -0.0562 -0.3194
 8888SOL    HW138300   0.986   1.647   5.521  0.5714 -1.1517  0.3323
 8888SOL    HW238301   1.063   1.542   5.460 -0.5402 -1.4675 -0.0994
 8889SOL     OW38302   3.985   4.047  17.612  0.0951 -0.0358 -0.0460
 8889SOL    HW138303   4.021   4.022  17.697 -1.0739  0.4008  0.5892
 8889SOL    HW238304   4.027   3.975  17.567 -1.3679  0.9455 -3.0222
 8890SOL     OW38305   1.042   1.711  11.398 -0.2628 -0.1925 -0.1331
 8890SOL    HW138306   1.115   1.731  11.458  0.0465 -2.2218  0.1438
 8890SOL    HW238307   0.979   1.676  11.460 -0.1057  1.6177  1.0642
 8891SOL     OW38308   2.027   1.969   1.555  0.0759 -0.6920  0.2292
 8891SOL    HW138309   2.049   2.053   1.595  1.3785  0.4649 -2.8905
 8891SOL    HW238310   2.002   1.922   1.634 -1.0308  0.2915  0.4750
 8892SOL     OW38311   3.938   3.253   7.065 -0.5889 -0.3802  0.1637
 8892SOL    HW138312   4.016   3.215   7.024 -0.2188  0.0101  0.5004
 8892SOL    HW238313   3.930   3.326   7.003  1.8562  1.3354  1.8207
 8893SOL     OW38314   4.129   1.840   9.061  0.4112  0.0606 -0.0849
 8893SOL    HW138315   4.098   1.895   8.989  0.9724  2.2197  1.3423
 8893SOL    HW238316   4.073   1.878   9.128 -1.4778 -0.5142 -1.3287
 8894SOL     OW38317   3.847   1.618   6.034 -0.2383  0.6091  0.4847
 8894SOL    HW138318   3.780   1.568   6.082  0.5984 -0.8741  0.0907
 8894SOL    HW238319   3.925   1.616   6.091 -0.0407 -0.7286  0.1613
 8895SOL     OW38320   2.059   1.500   2.394 -0.2296  0.1452  0.0799
 8895SOL    HW138321   1.978   1.458   2.366 -0.1832  0.1886 -0.1258
 8895SOL    HW238322   2.114   1.493   2.316 -2.0776  0.8516 -1.2809
 8896SOL     OW38323   1.150   3.602  16.482  0.5067 -0.3036 -0.3107
 8896SOL    HW138324   1.105   3.518  16.493  1.0198 -0.4594  0.6050
 8896SOL    HW238325   1.118   3.637  16.399  1.3519  0.4665 -0.3029
 8897SOL     OW38326   3.981   0.772   0.384  0.0451 -0.2782 -0.4471
 8897SOL    HW138327   4.018   0.858   0.407 -1.6048  0.4112 -0.3487
 8897SOL    HW238328   4.062   0.735   0.349 -0.4927 -2.0678  0.2119
 8898SOL     OW38329   4.433   1.678   9.037  0.0321  0.4036 -0.0027
 8898SOL    HW138330   4.448   1.770   9.017  3.1939 -0.0016  0.5482
 8898SOL    HW238331   4.339   1.673   9.019  0.1296  1.2847 -0.7104
 8899SOL     OW38332   2.932   2.094   4.499 -0.6176  0.6213  0.8547
 8899SOL    HW138333   2.938   2.153   4.574  2.3499  0.3223  0.8427
 8899SOL    HW238334   2.996   2.023   4.507  1.6705  2.5456 -0.6351
 8900SOL     OW38335   3.480   1.046   2.582  0.3475 -0.2862  0.0310
 8900SOL    HW138336   3.475   1.107   2.655 -0.8796 -1.0534  0.5936
 8900SOL    HW238337   3.433   0.967   2.608  0.5598 -0.5896 -0.4869
 8901SOL     OW38338   2.483   1.854   6.831  0.0053  0.1962  0.2904
 8901SOL    HW138339   2.562   1.907   6.839 -1.3429  2.6208 -2.6320
 8901SOL    HW238340   2.503   1.781   6.889 -2.6613  1.0021  2.2154
 8902SOL     OW38341   2.481   0.331  13.709  0.6691 -0.2226  0.1851
 8902SOL    HW138342   2.386   0.339  13.720  0.7123  1.9811 -0.8329
 8902SOL    HW238343   2.495   0.242  13.740 -0.2868 -0.6390 -0.5548
 8903SOL     OW38344   0.995   4.142   2.551  0.0406  0.1456  0.2502
 8903SOL    HW138345   0.993   4.169   2.643 -1.0220 -0.4862  0.4081
 8903SOL    HW238346   0.924   4.078   2.540  0.0190  0.3772 -0.9327
 8904SOL     OW38347   2.252   2.130   5.714  0.5743  0.1014 -0.0741
 8904SOL    HW138348   2.281   2.078   5.639  1.1397 -0.7022  0.7015
 8904SOL    HW238349   2.165   2.158   5.687  0.5523 -1.5133 -1.6048
 8905SOL     OW38350   4.096   2.745   1.900 -0.1115  0.2038 -0.2679
 8905SOL    HW138351   4.118   2.660   1.862  0.5619 -0.1914  1.0225
 8905SOL    HW238352   4.174   2.800   1.892  0.6667 -0.8088  0.3125
 8906SOL     OW38353   1.635   2.949   5.796 -0.1698  0.7568 -0.2947
 8906SOL    HW138354   1.715   2.937   5.746 -0.2267 -0.0475 -0.1993
 8906SOL    HW238355   1.635   2.871   5.851  0.7666  0.6228 -0.4838
 8907SOL     OW38356   0.445   2.852  10.701  0.4493 -0.1774 -0.1494
 8907SOL    HW138357   0.351   2.861  10.683  0.2359  0.4144  1.2973
 8907SOL    HW238358   0.484   2.910  10.635 -0.1391 -1.0090 -1.2183
 8908SOL     OW38359   3.327   3.235   9.201 -0.7520  0.1705  0.0961
 8908SOL    HW138360   3.293   3.146   9.195  1.0473 -0.5254  0.3657
 8908SOL    HW238361   3.261   3.282   9.253  0.2214  0.7648  0.7948
 8909SOL     OW38362   3.370   1.133   8.495 -0.3560 -0.2294  0.1253
 8909SOL    HW138363   3.392   1.202   8.558 -0.2578  0.3979 -0.5986
 8909SOL    HW238364   3.377   1.181   8.413 -0.4753 -2.0305 -0.9517
 8910SOL     OW38365   0.872   3.066   4.046 -0.0370 -0.0132 -0.0443
 8910SOL    HW138366   0.933   3.033   3.981  0.4624 -0.9474  0.8969
 8910SOL    HW238367   0.792   3.016   4.030 -0.4471  0.7089 -0.2810
 8911SOL     OW38368   2.690   4.501   3.043 -0.0144 -0.0722  0.2101
 8911SOL    HW138369   2.780   4.470   3.041  0.3739  1.0754 -0.2847
 8911SOL    HW238370   2.639   4.421   3.046 -0.3237  0.1292  0.4136
 8912SOL     OW38371   4.669   0.131   3.982  0.1602 -0.2110  0.4915
 8912SOL    HW138372   4.706   0.183   4.053 -1.8259  0.2907  1.1631
 8912SOL    HW238373   4.650   0.200   3.919 -1.6468  1.2063  2.5879
 8913SOL     OW38374   3.329   1.843   2.042  0.0734  0.2823 -0.4276
 8913SOL    HW138375   3.266   1.912   2.021  1.3681  1.2771 -1.0446
 8913SOL    HW238376   3.369   1.888   2.116  0.4767 -0.4669 -0.1854
 8914SOL     OW38377   3.862   0.031   5.460  0.0702  0.0072 -0.8931
 8914SOL    HW138378   3.836   4.695   5.512  2.3448 -2.3772 -3.2366
 8914SOL    HW238379   3.816   0.105   5.500  0.8314  0.2989 -0.5739
 8915SOL     OW38380   3.109   4.318   3.844 -0.0317 -0.4954  0.3576
 8915SOL    HW138381   3.119   4.396   3.789  0.3141 -0.9928 -0.2767
 8915SOL    HW238382   3.169   4.343   3.914  1.0282 -1.2026 -0.3071
 8916SOL     OW38383   2.532   2.273   2.385 -0.3723  0.1212 -0.0489
 8916SOL    HW138384   2.465   2.213   2.419  1.0673 -1.0742  0.7155
 8916SOL    HW238385   2.570   2.214   2.320  1.5174 -1.5913  2.5606
 8917SOL     OW38386   3.047   3.284  16.282  0.2842  0.7845  0.0453
 8917SOL    HW138387   3.123   3.301  16.338  1.0002  0.2441 -0.7616
 8917SOL    HW238388   3.005   3.219  16.338  1.2968 -0.6782 -0.8879
 8918SOL     OW38389   4.112   4.319   6.565  0.6341 -0.1699 -0.3701
 8918SOL    HW138390   4.058   4.243   6.544 -0.3569 -0.2372  2.4384
 8918SOL    HW238391   4.080   4.327   6.655 -1.0982  1.8183 -1.1487
 8919SOL     OW38392   1.578   0.425   6.748 -0.3650 -0.5628  0.4003
 8919SOL    HW138393   1.525   0.478   6.688  3.2031  2.2225 -0.2833
 8919SOL    HW238394   1.615   0.504   6.788  1.2669 -0.0343 -2.1508
 8920SOL     OW38395   3.522   2.145  12.300  0.3845  0.3817 -0.3169
 8920SOL    HW138396   3.527   2.240  12.287  0.6983  0.2994 -0.7852
 8920SOL    HW238397   3.611   2.121  12.325  0.1074 -0.3995 -0.0914
 8921SOL     OW38398   0.104   2.503   7.825  0.3785 -0.4945 -0.1092
 8921SOL    HW138399   0.134   2.433   7.883  0.2309 -0.1271  0.4096
 8921SOL    HW238400   0.013   2.481   7.806  1.1876 -2.4514 -1.6352
 8922SOL     OW38401   1.667   2.317   4.836 -0.0711  0.1096 -0.1498
 8922SOL    HW138402   1.674   2.234   4.883 -0.0484  0.4995  0.5250
 8922SOL    HW238403   1.696   2.371   4.909  1.4281 -0.4767 -0.3134
 8923SOL     OW38404   1.866   0.881   8.604  0.5198 -0.3124  0.3693
 8923SOL    HW138405   1.942   0.911   8.653 -0.4886  0.6318  1.3666
 8923SOL    HW238406   1.798   0.937   8.642  0.4421 -0.4486  0.4326
 8924SOL     OW38407   4.510   3.467   6.990 -0.5209 -0.3870 -0.1338
 8924SOL    HW138408   4.602   3.474   6.966 -1.0495  1.8304 -1.5679
 8924SOL    HW238409   4.493   3.397   6.927  1.1099 -0.6532 -0.2562
 8925SOL     OW38410   1.444   0.876   1.558  0.5800  0.3749  0.0886
 8925SOL    HW138411   1.461   0.930   1.636 -1.3370  0.0865  0.7196
 8925SOL    HW238412   1.402   0.798   1.595  0.5357 -0.3089 -1.4392
 8926SOL     OW38413   0.636   1.752  12.646 -0.3448 -0.6897 -0.1596
 8926SOL    HW138414   0.608   1.790  12.730 -0.9468 -0.2458 -0.5633
 8926SOL    HW238415   0.554   1.762  12.598 -0.8313 -1.0474  0.5880
 8927SOL     OW38416   4.295   0.677  12.389 -0.3127  0.3035 -0.2173
 8927SOL    HW138417   4.308   0.752  12.331  3.2728  0.8042  1.2589
 8927SOL    HW238418   4.205   0.682  12.421 -0.5190 -2.4835 -0.4310
 8928SOL     OW38419   4.689   4.514   7.655  0.0605 -0.2736 -0.2338
 8928SOL    HW138420   4.597   4.503   7.679 -0.3981  0.9839 -1.3927
 8928SOL    HW238421   4.691   4.503   7.560  0.1943  1.3420 -0.4169
 8929SOL     OW38422   4.276   2.852   4.874  0.1520  0.4202 -0.0963
 8929SOL    HW138423   4.230   2.933   4.853 -1.0049  0.7380  3.5475
 8929SOL    HW238424   4.225   2.793   4.818 -2.6208  3.6664 -0.9824
 8930SOL     OW38425   3.576   3.843   3.882  0.0011  0.2323 -0.2393
 8930SOL    HW138426   3.526   3.806   3.810  0.2524  1.3078 -0.9664
 8930SOL    HW238427   3.521   3.916   3.914  0.8661  0.1452  1.4243
 8931SOL     OW38428   1.323   0.661  16.300  0.2794  0.2333 -0.2432
 8931SOL    HW138429   1.359   0.637  16.385 -2.2933 -0.7784  0.5741
 8931SOL    HW238430   1.392   0.719  16.270 -0.0840 -0.0587 -1.6611
 8932SOL     OW38431   2.329   1.546   4.367 -0.1411 -0.8803  0.2218
 8932SOL    HW138432   2.327   1.472   4.305  4.7896 -1.3140  0.5214
 8932SOL    HW238433   2.352   1.623   4.316 -1.0487 -1.5675 -1.2072
 8933SOL     OW38434   2.812   1.595   1.307  0.3631 -0.0657 -0.2600
 8933SOL    HW138435   2.899   1.558   1.321  0.4642 -0.3758 -1.7346
 8933SOL    HW238436   2.839   1.687   1.309 -0.8241  0.2729  0.1274
 8934SOL     OW38437   1.193   2.631  13.563  0.2451  0.3884  0.4701
 8934SOL    HW138438   1.216   2.569  13.493 -2.4473  1.0913 -1.0483
 8934SOL    HW238439   1.098   2.619  13.562  0.4229 -1.2436  3.1112
 8935SOL     OW38440   2.938   2.653   0.458  0.5899  0.7863  0.6196
 8935SOL    HW138441   2.858   2.667   0.507  1.6739  4.1059  1.4563
 8935SOL    HW238442   3.004   2.699   0.511  1.8172 -1.7124  1.2455
 8936SOL     OW38443   2.619   2.484   1.907  0.3672  0.0632 -0.1780
 8936SOL    HW138444   2.605   2.488   1.812  2.6461  1.1795 -0.4661
 8936SOL    HW238445   2.664   2.566   1.928  0.1488  0.2849 -0.5670
 8937SOL     OW38446   1.153   4.113   6.608  0.2242 -0.3246  0.7243
 8937SOL    HW138447   1.174   4.112   6.702  1.7538  2.0699  0.4125
 8937SOL    HW238448   1.226   4.068   6.567  1.3353  0.4667  1.8248
 8938SOL     OW38449   3.286   2.003   5.107  0.1058 -0.2729  0.0740
 8938SOL    HW138450   3.219   1.975   5.045  0.4602 -1.0037  0.0131
 8938SOL    HW238451   3.338   2.063   5.053  1.2680  0.0881  1.5801
 8939SOL     OW38452   2.361   4.263   6.837  0.1917  0.0379 -0.4948
 8939SOL    HW138453   2.294   4.327   6.862  0.0525 -1.3565  2.6655
 8939SOL    HW238454   2.328   4.225   6.755 -0.2275  1.7538 -1.1443
 8940SOL     OW38455   2.813   2.912   7.577  0.9394  0.1011  0.3166
 8940SOL    HW138456   2.754   2.960   7.518  1.8084 -0.1654 -0.7612
 8940SOL    HW238457   2.761   2.833   7.589  0.5009 -0.4141 -4.9627
 8941SOL     OW38458   3.458   3.681   0.136 -0.1353 -0.0942 -0.4568
 8941SOL    HW138459   3.422   3.748   0.078 -0.0607  0.2177 -0.1396
 8941SOL    HW238460   3.397   3.688   0.210  1.8811  1.1802  1.0750
 8942SOL     OW38461   0.245   0.445   3.456  0.3666  0.0741  0.3988
 8942SOL    HW138462   0.323   0.401   3.423  0.8870  0.6804  0.8287
 8942SOL    HW238463   0.173   0.382   3.452  1.3310 -0.9201 -1.4111
 8943SOL     OW38464   0.285   1.363  17.345  0.3667  0.0028  0.1048
 8943SOL    HW138465   0.210   1.391  17.397 -0.4750 -4.6011  1.4553
 8943SOL    HW238466   0.324   1.448  17.327 -2.0837  1.6935  2.8990
 8944SOL     OW38467   0.169   2.029   5.816  0.2166 -0.2214  0.1625
 8944SOL    HW138468   0.224   2.090   5.866  1.7635 -1.4442 -0.0388
 8944SOL    HW238469   0.117   1.991   5.887 -0.2577  0.9978  0.4634
 8945SOL     OW38470   2.389   1.047  17.230  0.5125  0.0677 -0.1770
 8945SOL    HW138471   2.462   1.044  17.168  0.5377  2.0123 -0.2476
 8945SOL    HW238472   2.436   1.036  17.312 -0.1806 -2.9642 -0.1801
 8946SOL     OW38473   3.799   2.492   0.913  0.2074  0.1099  0.3297
 8946SOL    HW138474   3.853   2.496   0.993  1.2032  1.8257 -0.4113
 8946SOL    HW238475   3.718   2.456   0.947  0.2881  0.2538  0.6856
 8947SOL     OW38476   0.712   2.153   7.613 -0.0124 -0.3234 -0.2402
 8947SOL    HW138477   0.644   2.096   7.649 -0.7615  1.6103  1.3987
 8947SOL    HW238478   0.772   2.172   7.685 -0.0072 -1.3784  0.0369
 8948SOL     OW38479   4.620   1.079   4.259  0.0363 -0.1698  0.6167
 8948SOL    HW138480   4.700   1.029   4.244  0.2659  0.2185  0.5411
 8948SOL    HW238481   4.646   1.103   4.348  0.9225 -3.8378  1.3614
 8949SOL     OW38482   0.326   2.468   2.335 -0.3510 -0.4212 -0.2939
 8949SOL    HW138483   0.277   2.453   2.254 -0.3867 -1.3467 -0.1036
 8949SOL    HW238484   0.336   2.380   2.371 -1.6115 -0.9648 -1.2573
 8950SOL     OW38485   4.206   4.739  17.084  0.2536 -0.1796  0.3001
 8950SOL    HW138486   4.276   4.675  17.094 -0.3109 -0.9689 -0.8117
 8950SOL    HW238487   4.184   4.703  16.998  1.7043  0.3339 -0.2972
 8951SOL     OW38488   0.173   3.148   9.015  0.1093  0.2737 -0.3229
 8951SOL    HW138489   0.157   3.241   9.036  3.4311 -0.0567  3.6955
 8951SOL    HW238490   0.263   3.142   9.047 -0.9122 -0.9868  2.3216
 8952SOL     OW38491   3.344   0.446   2.518  0.4048 -0.5917 -0.2091
 8952SOL    HW138492   3.368   0.358   2.489  0.6665 -0.9265  1.0340
 8952SOL    HW238493   3.250   0.438   2.502  0.3389 -2.8526  1.3683
 8953SOL     OW38494   0.346   3.935  13.454  1.1202  0.0043  0.1606
 8953SOL    HW138495   0.423   3.907  13.502  0.3151  0.2967  1.6178
 8953SOL    HW238496   0.294   3.855  13.451 -0.3752  1.0471 -2.2789
 8954SOL     OW38497   3.934   3.470   8.409  0.6843  0.5384 -0.5366
 8954SOL    HW138498   3.875   3.452   8.336  1.1484  1.1881 -1.0707
 8954SOL    HW238499   3.887   3.426   8.480 -0.0669  1.0935 -0.6854
 8955SOL     OW38500   1.849   2.759  16.689  0.6951  1.0957  0.4349
 8955SOL    HW138501   1.878   2.717  16.609 -1.7883  0.6277 -0.2118
 8955SOL    HW238502   1.783   2.819  16.657  0.6100  0.8043  0.0659
 8956SOL     OW38503   0.833   0.563   2.486  0.2474  0.1682 -0.3199
 8956SOL    HW138504   0.789   0.646   2.470  1.0385  0.6656  0.1149
 8956SOL    HW238505   0.766   0.495   2.480 -0.8706  1.1127  1.3536
 8957SOL     OW38506   0.751   4.624  15.408 -0.0469 -0.2166  0.5478
 8957SOL    HW138507   0.825   4.602  15.465 -0.4317 -1.0823  0.7080
 8957SOL    HW238508   0.680   4.596  15.465 -0.1712  1.9025  1.4449
 8958SOL     OW38509   0.119   0.318   9.778  0.0323  0.5223  0.1253
 8958SOL    HW138510   0.117   0.223   9.787  0.2100  0.7030  2.0585
 8958SOL    HW238511   0.086   0.327   9.689 -0.5257 -1.8027  0.0944
 8959SOL     OW38512   3.555   4.733  16.361 -0.1664  0.2070  0.2715
 8959SOL    HW138513   3.498   0.009  16.286 -2.0636  2.1103  2.1390
 8959SOL    HW238514   3.626   0.050  16.332 -2.2153  1.2741 -2.6080
 8960SOL     OW38515   3.471   3.436   6.240 -0.1708  0.1946  0.1387
 8960SOL    HW138516   3.468   3.489   6.160  2.0724  0.7622  0.4363
 8960SOL    HW238517   3.519   3.497   6.296  1.3616  0.7582 -1.7660
 8961SOL     OW38518   4.578   0.151  10.084  0.1752  0.3974 -0.5520
 8961SOL    HW138519   4.589   0.179   9.993  1.4041  0.2184 -0.4602
 8961SOL    HW238520   4.627   0.212  10.140  0.6618 -0.3136 -0.2143
 8962SOL     OW38521   0.426   0.537   7.187  0.2356 -1.0673 -0.0918
 8962SOL    HW138522   0.440   0.535   7.093 -1.8622  3.0214 -0.4622
 8962SOL    HW238523   0.510   0.579   7.208 -0.1979 -0.5816  0.6583
 8963SOL     OW38524   4.469   4.726   2.429  0.0345 -0.0022  0.2605
 8963SOL    HW138525   4.560   4.734   2.456  0.6067  0.5686 -1.8440
 8963SOL    HW238526   4.472   4.698   2.337  0.0900 -2.6244  1.0641
 8964SOL     OW38527   1.026   2.300   8.552  0.1971 -0.2150 -0.1529
 8964SOL    HW138528   0.968   2.354   8.606 -0.5282 -0.9152 -0.2237
 8964SOL    HW238529   0.986   2.312   8.466  0.1218  0.1735 -0.0634
 8965SOL     OW38530   2.335   4.461  12.096  0.6823 -0.0770 -0.3673
 8965SOL    HW138531   2.355   4.383  12.044 -2.2394 -1.8892  1.2015
 8965SOL    HW238532   2.389   4.434  12.170 -1.4074 -2.1803  0.3853
 8966SOL     OW38533   0.227   4.215   1.309  0.1401 -0.4000  0.3674
 8966SOL    HW138534   0.161   4.281   1.330  0.0505 -0.9375  1.7709
 8966SOL    HW238535   0.306   4.269   1.296 -0.0508  0.0909  1.2113
 8967SOL     OW38536   0.704   4.540   9.200 -0.2221 -0.6831 -0.1922
 8967SOL    HW138537   0.616   4.524   9.165 -0.2654  1.2288 -0.9900
 8967SOL    HW238538   0.680   4.608   9.263 -1.2368 -1.2697  0.0519
 8968SOL     OW38539   0.069   1.738   1.273  0.1849  0.2771  0.0712
 8968SOL    HW138540   0.090   1.645   1.281  0.3466  0.3364  0.3040
 8968SOL    HW238541   0.148   1.777   1.310  0.2907 -0.6243  0.7844
 8969SOL     OW38542   1.953   4.638  16.548 -0.2358 -0.2025 -0.0203
 8969SOL    HW138543   1.913   4.715  16.588  1.0784  0.4910 -0.0530
 8969SOL    HW238544   1.938   4.573  16.616 -2.3568 -2.0845 -2.2537
 8970SOL     OW38545   2.122   3.566   4.711 -0.9378  0.0825 -0.1430
 8970SOL    HW138546   2.111   3.518   4.793  2.5426 -0.3680  0.0388
 8970SOL    HW238547   2.076   3.509   4.650 -1.6827 -0.2759  0.7586
 8971SOL     OW38548   4.299   1.768   3.016 -0.8444  0.0069  0.6082
 8971SOL    HW138549   4.342   1.685   3.037 -0.1224  0.5344  1.2278
 8971SOL    HW238550   4.209   1.738   3.004 -0.1061 -0.6769 -3.3234
 8972SOL     OW38551   1.333   1.026   2.815  0.1692  0.4223  0.2359
 8972SOL    HW138552   1.315   0.980   2.897  2.0976  1.7200  1.3694
 8972SOL    HW238553   1.246   1.062   2.802 -0.4811 -1.5924 -1.0831
 8973SOL     OW38554   0.348   4.476  11.348 -0.6248  0.0880 -0.7120
 8973SOL    HW138555   0.271   4.532  11.360  0.6213  1.4090  1.1689
 8973SOL    HW238556   0.392   4.509  11.270 -1.8438  1.2707 -0.8972
 8974SOL     OW38557   3.490   4.041  10.106  0.4933  0.0283 -0.2516
 8974SOL    HW138558   3.502   4.133  10.129  0.8941  0.2079 -1.1820
 8974SOL    HW238559   3.436   4.014  10.181 -1.1086 -0.3805 -1.5666
 8975SOL     OW38560   0.818   2.820   3.054 -0.1542 -0.0658 -0.8438
 8975SOL    HW138561   0.783   2.885   3.114  1.6996 -1.3891  1.6891
 8975SOL    HW238562   0.830   2.742   3.108 -0.1824  2.0726  2.2623
 8976SOL     OW38563   2.345   3.830   6.875  0.6430  0.4377 -0.3930
 8976SOL    HW138564   2.394   3.872   6.946 -0.4649 -0.8294  1.1273
 8976SOL    HW238565   2.370   3.739   6.889  0.0513 -0.0236 -2.4111
 8977SOL     OW38566   2.033   0.398  16.559 -0.2368  0.0592  0.2358
 8977SOL    HW138567   1.967   0.346  16.514  0.1730 -0.3106  0.0671
 8977SOL    HW238568   2.065   0.443  16.480  1.2727  0.3368  0.9877
 8978SOL     OW38569   1.004   3.288  11.668  0.3570  0.2236 -0.1785
 8978SOL    HW138570   0.924   3.297  11.615  0.0794  0.3445  0.2620
 8978SOL    HW238571   1.005   3.364  11.727 -2.7777 -0.5876  0.9086
 8979SOL     OW38572   2.657   4.292   4.620  0.5887  0.0337 -0.2319
 8979SOL    HW138573   2.739   4.336   4.597  1.7454 -1.4966  1.0281
 8979SOL    HW238574   2.640   4.330   4.706  1.7872 -2.0181  0.9081
 8980SOL     OW38575   0.268   1.868   6.834 -0.4470 -0.0979 -0.6998
 8980SOL    HW138576   0.321   1.941   6.804 -2.2984  0.5824 -2.3186
 8980SOL    HW238577   0.200   1.920   6.877  0.3200  0.5787 -0.3096
 8981SOL     OW38578   4.171   3.123   5.574 -0.0376  0.2021 -0.5561
 8981SOL    HW138579   4.203   3.205   5.538  1.3505 -0.4298 -0.7445
 8981SOL    HW238580   4.210   3.056   5.518  1.1257  0.8263 -0.4836
 8982SOL     OW38581   0.394   0.809  16.522  0.0535  0.1927 -0.2205
 8982SOL    HW138582   0.310   0.769  16.498 -1.1216  3.0617 -0.8492
 8982SOL    HW238583   0.454   0.735  16.534  1.0949  0.8390 -1.3724
 8983SOL     OW38584   0.406   2.116   8.806  0.0530  0.0453  0.1806
 8983SOL    HW138585   0.446   2.029   8.799  3.1496  1.4511  0.5789
 8983SOL    HW238586   0.318   2.098   8.773 -0.2037  1.9178 -0.1415
 8984SOL     OW38587   3.343   0.249   9.036 -0.2305 -0.2034 -0.2720
 8984SOL    HW138588   3.362   0.173   8.981 -0.6501  0.5657 -1.4676
 8984SOL    HW238589   3.297   0.202   9.106  0.0924 -0.0691  0.0289
 8985SOL     OW38590   0.635   3.693  10.700 -0.0762  0.0256  0.3616
 8985SOL    HW138591   0.633   3.600  10.721  0.3665 -0.1894 -0.5420
 8985SOL    HW238592   0.683   3.724  10.776  1.5846  0.7856 -0.9825
 8986SOL     OW38593   1.194   1.824   1.387 -0.8523  0.2547 -0.0387
 8986SOL    HW138594   1.213   1.836   1.294 -2.3999  1.7864 -0.1362
 8986SOL    HW238595   1.102   1.850   1.388 -0.9660 -0.1436 -0.0116
 8987SOL     OW38596   3.590   0.817   4.068  0.3244  0.0054  0.2169
 8987SOL    HW138597   3.682   0.793   4.068  0.2808 -0.1493 -0.7056
 8987SOL    HW238598   3.547   0.788   4.149 -1.2952 -1.1329 -1.0277
 8988SOL     OW38599   4.557   3.279  15.390  0.0885 -0.4332 -0.1557
 8988SOL    HW138600   4.522   3.328  15.464  0.7018  2.1454 -1.5801
 8988SOL    HW238601   4.579   3.349  15.329 -2.9704 -1.3556 -2.3193
 8989SOL     OW38602   4.243   3.386   7.348  0.0301 -0.5639 -0.3668
 8989SOL    HW138603   4.204   3.338   7.422  1.2079 -1.0220 -0.0403
 8989SOL    HW238604   4.258   3.312   7.289  2.4786 -0.5074  0.1678
 8990SOL     OW38605   0.844   1.709   3.808  0.6481 -0.0750  0.2401
 8990SOL    HW138606   0.798   1.708   3.892  2.6806 -0.3334  1.3427
 8990SOL    HW238607   0.869   1.619   3.789  0.0570 -0.6088  2.0030
 8991SOL     OW38608   2.299   4.213  17.024  0.4858 -0.0843  0.0930
 8991SOL    HW138609   2.214   4.256  17.037  0.6013  0.1569  0.0558
 8991SOL    HW238610   2.281   4.127  17.061 -0.5049  0.2112  0.3125
 8992SOL     OW38611   2.875   1.397  10.040 -0.1756  0.1161  0.2600
 8992SOL    HW138612   2.861   1.479   9.992  2.2926 -0.5518 -1.6184
 8992SOL    HW238613   2.906   1.348   9.964 -1.1726 -0.3545  0.1614
 8993SOL     OW38614   4.238   4.221   2.555 -0.1341  0.2374  0.6948
 8993SOL    HW138615   4.181   4.223   2.478  0.3576 -0.3586  0.3142
 8993SOL    HW238616   4.226   4.137   2.600 -0.8872 -1.2102 -2.2087
 8994SOL     OW38617   2.812   3.762  13.893 -0.5482 -0.1093  0.0217
 8994SOL    HW138618   2.840   3.829  13.956  0.4570  0.5023 -1.0654
 8994SOL    HW238619   2.891   3.712  13.873 -0.7424 -0.9185  1.2802
 8995SOL     OW38620   0.438   2.583  14.575 -0.1897  0.6091 -0.2916
 8995SOL    HW138621   0.433   2.678  14.569  0.2119  0.6904  0.7894
 8995SOL    HW238622   0.463   2.571  14.666 -0.5734 -0.9255 -0.3795
 8996SOL     OW38623   1.359   1.848   5.400 -0.1066  0.4383 -0.0729
 8996SOL    HW138624   1.424   1.830   5.332 -0.6105  0.7177 -0.6326
 8996SOL    HW238625   1.351   1.765   5.447 -0.7643 -0.3402 -1.5725
 8997SOL     OW38626   4.576   1.195   5.605  0.2480  0.1035 -0.0749
 8997SOL    HW138627   4.613   1.111   5.634  0.3883 -0.4256 -1.7778
 8997SOL    HW238628   4.656   1.246   5.621 -0.0423  1.0472 -1.6163
 8998SOL     OW38629   1.815   2.906   2.590 -0.0987 -0.1181  0.2017
 8998SOL    HW138630   1.880   2.856   2.640 -0.2922 -0.0708  0.4959
 8998SOL    HW238631   1.843   2.994   2.614 -2.2024 -0.3582  3.4403
 8999SOL     OW38632   2.523   4.728   3.508 -0.8373 -0.1349  0.4636
 8999SOL    HW138633   2.530   4.689   3.421 -1.5994  0.6386  0.0505
 8999SOL    HW238634   2.617   4.728   3.522 -0.8047 -0.1781  0.2451
 9000SOL     OW38635   0.868   0.228   1.430  0.5312 -0.1191 -0.0342
 9000SOL    HW138636   0.806   0.157   1.421 -0.8518  1.2971 -1.6354
 9000SOL    HW238637   0.894   0.231   1.338 -0.7061  0.7218 -0.3540
 9001SOL     OW38638   0.176   2.427   2.634 -0.0718 -0.3400  0.0467
 9001SOL    HW138639   0.270   2.435   2.645 -0.0093 -2.4818  1.0200
 9001SOL    HW238640   0.154   2.504   2.582  1.2141  0.3182  0.4944
 9002SOL     OW38641   4.594   0.105   9.772 -0.3365  0.1361  0.1379
 9002SOL    HW138642   4.506   0.141   9.767 -0.2066  0.2545 -1.1393
 9002SOL    HW238643   4.598   0.023   9.722  0.6265  0.3045 -0.0584
 9003SOL     OW38644   1.630   4.622  17.148 -0.1310  0.0107  0.1238
 9003SOL    HW138645   1.591   4.585  17.227  0.4372 -1.6126 -0.3527
 9003SOL    HW238646   1.725   4.615  17.158 -0.3638 -2.2591  0.8178
 9004SOL     OW38647   1.233   3.240   3.956  0.4752  0.1703 -0.1477
 9004SOL    HW138648   1.253   3.148   3.939 -1.0517  0.3061 -2.6505
 9004SOL    HW238649   1.189   3.231   4.040  1.0723 -3.5589 -0.2133
 9005SOL     OW38650   1.565   0.681   4.518  0.2309  0.1099  0.3462
 9005SOL    HW138651   1.552   0.587   4.507  0.0500  0.3005 -1.1409
 9005SOL    HW238652   1.595   0.686   4.608  1.0385 -0.8103  0.1340
 9006SOL     OW38653   3.312   0.004  17.123  0.1291 -0.1773  0.3452
 9006SOL    HW138654   3.294   0.062  17.050  0.1832 -1.2681 -0.5339
 9006SOL    HW238655   3.233   4.690  17.126  0.3031 -0.3376  2.3912
 9007SOL     OW38656   3.248   0.536   7.843 -0.4025 -0.0665 -0.6624
 9007SOL    HW138657   3.297   0.465   7.884 -0.2362  0.6677  0.4026
 9007SOL    HW238658   3.160   0.533   7.882 -0.4926 -1.2213 -0.9469
 9008SOL     OW38659   1.460   2.853   3.539 -0.0239 -0.0816 -0.2160
 9008SOL    HW138660   1.534   2.911   3.519  0.0756 -0.1780 -0.1264
 9008SOL    HW238661   1.512   2.815   3.610  1.6824  2.6244  0.0020
 9009SOL     OW38662   0.065   4.257   4.134 -0.0872  0.1495 -0.2055
 9009SOL    HW138663   4.733   4.226   4.080 -1.0220 -0.6661  1.5419
 9009SOL    HW238664   0.145   4.268   4.082  0.0040 -0.1862 -0.1331
 9010SOL     OW38665   3.390   0.502   8.939 -0.2343 -0.1517  0.0961
 9010SOL    HW138666   3.422   0.457   8.861 -0.0594  0.4105 -0.1604
 9010SOL    HW238667   3.373   0.425   8.993 -1.2034 -1.0324 -1.4583
 9011SOL     OW38668   0.159   3.079   7.383  0.2115 -0.0913 -0.0559
 9011SOL    HW138669   0.229   3.020   7.410 -1.2209 -0.9863  1.6422
 9011SOL    HW238670   0.100   3.004   7.385 -1.1539  0.9897  0.7006
 9012SOL     OW38671   4.581   0.823   2.393 -0.2051  1.0600 -0.1483
 9012SOL    HW138672   4.672   0.799   2.415 -0.6008 -0.2575  0.0509
 9012SOL    HW238673   4.593   0.868   2.310  0.6511 -3.2110 -2.3602
 9013SOL     OW38674   1.968   1.452  11.515  0.0175 -0.4643  0.8310
 9013SOL    HW138675   2.054   1.444  11.554  0.1951  0.0931  0.5615
 9013SOL    HW238676   1.986   1.386  11.448  3.1485 -1.0443  2.2349
 9014SOL     OW38677   2.327   3.051  10.089  0.3284 -0.3415  0.4559
 9014SOL    HW138678   2.380   2.973  10.106  0.6271 -0.1465  0.4192
 9014SOL    HW238679   2.235   3.027  10.104 -0.2919  0.4431 -2.1278
 9015SOL     OW38680   2.843   3.490   3.434  0.1665  0.1415 -0.0709
 9015SOL    HW138681   2.894   3.530   3.503 -0.0385  2.0825 -1.0606
 9015SOL    HW238682   2.756   3.495   3.474  0.6284 -1.2035  1.0975
 9016SOL     OW38683   2.038   4.727   7.533  0.3277  0.1493  0.0481
 9016SOL    HW138684   1.944   4.719   7.552  0.0660 -0.4223 -1.5176
 9016SOL    HW238685   2.033   0.073   7.491  1.7858 -0.4744 -1.4052
 9017SOL     OW38686   0.892   4.451   9.898  0.3878  0.6789 -0.1116
 9017SOL    HW138687   0.867   4.377   9.843  0.7160  1.0065 -0.7043
 9017SOL    HW238688   0.899   4.411   9.985  1.5973  0.9643 -0.0731
 9018SOL     OW38689   4.157   0.897   8.931  0.3862 -0.0476 -0.1093
 9018SOL    HW138690   4.110   0.905   9.013  0.7920  2.3184 -0.1118
 9018SOL    HW238691   4.093   0.913   8.861  0.2868  0.7373  0.1630
 9019SOL     OW38692   3.181   0.719  13.544 -0.2638  0.4105  0.4409
 9019SOL    HW138693   3.143   0.631  13.538  0.8874 -0.1444  1.4432
 9019SOL    HW238694   3.154   0.749  13.457 -1.7103 -1.5484  0.2226
 9020SOL     OW38695   4.522   2.161   6.849  0.0399  0.4147 -0.4648
 9020SOL    HW138696   4.615   2.165   6.830 -0.0700 -1.3212 -1.3858
 9020SOL    HW238697   4.492   2.239   6.802 -2.9152 -0.5560 -0.1942
 9021SOL     OW38698   1.796   2.496   3.320  0.4045 -0.3435  0.4839
 9021SOL    HW138699   1.873   2.455   3.283 -1.8424 -2.5099 -1.7574
 9021SOL    HW238700   1.736   2.422   3.333  0.1610 -0.0969  0.7754
 9022SOL     OW38701   4.539   4.297   5.884  0.3262  0.0907 -0.2921
 9022SOL    HW138702   4.489   4.331   5.959  0.0241 -0.3339 -0.2994
 9022SOL    HW238703   4.605   4.365   5.870 -0.7728  1.0615 -0.8471
 9023SOL     OW38704   0.115   1.907   6.386 -0.4137  0.0062  0.6949
 9023SOL    HW138705   0.205   1.933   6.404 -0.2962  0.1526 -0.1160
 9023SOL    HW238706   0.137   1.841   6.321  1.3185  1.9920 -0.7189
 9024SOL     OW38707   2.372   0.672  12.660  0.5819 -0.4229  0.3023
 9024SOL    HW138708   2.383   0.577  12.667 -0.8763 -0.5974  0.2126
 9024SOL    HW238709   2.455   0.705  12.696  0.5190 -2.4215  2.2888
 9025SOL     OW38710   4.249   0.723   1.108 -0.2795  0.4116 -0.2059
 9025SOL    HW138711   4.156   0.725   1.131 -0.1396  3.2792  0.1131
 9025SOL    HW238712   4.255   0.817   1.095 -0.3578  0.5287  0.5804
 9026SOL     OW38713   1.487   1.694   8.988  0.1882  0.6288  0.2595
 9026SOL    HW138714   1.513   1.671   8.899  1.4540  1.6452  0.3581
 9026SOL    HW238715   1.407   1.643   8.994  0.7054 -0.2865 -0.8322
 9027SOL     OW38716   0.542   4.425   7.621 -0.8206 -0.2526 -0.0272
 9027SOL    HW138717   0.466   4.477   7.646  1.1611  1.2713  2.8885
 9027SOL    HW238718   0.543   4.444   7.528  3.6566 -0.9755 -0.1392
 9028SOL     OW38719   3.780   1.884   4.048 -0.0289 -0.0343  0.7708
 9028SOL    HW138720   3.818   1.809   4.002 -2.1058  0.3266 -1.5480
 9028SOL    HW238721   3.803   1.867   4.139  0.7951  0.0500  0.5778
 9029SOL     OW38722   4.368   2.879  12.147  0.0787 -0.0267  0.0714
 9029SOL    HW138723   4.292   2.913  12.195  0.8802  1.2352  0.4543
 9029SOL    HW238724   4.430   2.950  12.164 -2.0059  1.0506  3.2079
 9030SOL     OW38725   2.708   2.087   8.751 -0.3226  0.5320 -0.4987
 9030SOL    HW138726   2.790   2.037   8.759 -0.9456 -0.3051  0.7467
 9030SOL    HW238727   2.680   2.103   8.841 -2.5338 -1.5722 -0.8248
 9031SOL     OW38728   4.474   3.933   3.176 -0.0621  0.3162 -0.1134
 9031SOL    HW138729   4.438   3.863   3.122  0.8453 -0.2423  0.0146
 9031SOL    HW238730   4.391   3.943   3.223  0.3776  2.4407  0.2158
 9032SOL     OW38731   3.016   3.127   6.532  0.2757 -0.1155 -0.0679
 9032SOL    HW138732   3.009   3.129   6.436 -1.6677  0.2580  0.0933
 9032SOL    HW238733   3.011   3.033   6.548  3.8394 -0.0931  1.2103
 9033SOL     OW38734   4.327   3.885   7.580  0.2779 -0.5467 -0.1316
 9033SOL    HW138735   4.323   3.789   7.584  1.1248 -0.4847  2.2884
 9033SOL    HW238736   4.392   3.900   7.650  1.6690 -0.7903 -1.3678
 9034SOL     OW38737   0.117   2.426   5.506  1.0579  0.9116 -0.1394
 9034SOL    HW138738   0.051   2.388   5.449  0.4573  0.4945  0.8374
 9034SOL    HW238739   0.171   2.350   5.531 -1.9211 -1.1684 -0.0754
 9035SOL     OW38740   3.166   4.577  12.093  0.2465 -0.5693  0.3943
 9035SOL    HW138741   3.123   4.500  12.055 -1.2009  0.8988 -0.9724
 9035SOL    HW238742   3.259   4.561  12.077 -0.0006  1.4569 -3.1803
 9036SOL     OW38743   2.597   3.935   3.404  0.3345  0.1291  0.1910
 9036SOL    HW138744   2.598   4.029   3.386 -0.2557 -0.0258 -0.6252
 9036SOL    HW238745   2.617   3.900   3.317 -2.3260  0.7774 -0.6847
 9037SOL     OW38746   0.885   3.718   9.096  0.0664  0.2875  0.5181
 9037SOL    HW138747   0.870   3.795   9.151  0.3477  1.4603 -1.0630
 9037SOL    HW238748   0.805   3.719   9.044  0.4854  1.4638 -0.0998
 9038SOL     OW38749   3.816   2.308  10.577 -0.0496 -0.0631 -0.5863
 9038SOL    HW138750   3.779   2.239  10.633  0.7333  0.2928  0.3641
 9038SOL    HW238751   3.767   2.382  10.612  2.3198  1.3179 -0.2194
 9039SOL     OW38752   1.861   1.698   8.052 -0.3150  0.2651 -0.1850
 9039SOL    HW138753   1.919   1.743   7.990 -0.5676  2.3664  1.1151
 9039SOL    HW238754   1.895   1.609   8.053  0.9819  0.7705  1.7352
 9040SOL     OW38755   2.071   4.333   6.080 -0.2475 -0.2097  0.2824
 9040SOL    HW138756   2.105   4.271   6.015  0.7823 -1.2505  1.7986
 9040SOL    HW238757   1.981   4.333   6.049  0.0014  0.7109 -0.4530
 9041SOL     OW38758   4.073   2.515   8.910 -0.8281  0.0492  0.0607
 9041SOL    HW138759   4.008   2.458   8.870 -0.9644 -0.8891  1.6390
 9041SOL    HW238760   4.143   2.506   8.845  3.1201  0.2043  4.2848
 9042SOL     OW38761   2.216   0.940  12.084 -0.3761  0.0844 -0.0643
 9042SOL    HW138762   2.190   0.997  12.012  0.2122  0.7043  0.2157
 9042SOL    HW238763   2.180   0.856  12.054  1.7718 -0.5281 -0.9589
 9043SOL     OW38764   0.742   2.208   1.886 -0.3089  0.0876  0.0361
 9043SOL    HW138765   0.774   2.298   1.887  1.7142 -0.6434  1.9137
 9043SOL    HW238766   0.747   2.194   1.981  2.9170  2.8593  0.2815
 9044SOL     OW38767   4.505   3.565   5.240  0.3686  0.0431 -0.1563
 9044SOL    HW138768   4.496   3.509   5.317  0.5364 -0.9825 -0.8799
 9044SOL    HW238769   4.540   3.640   5.288 -0.9180  1.3706 -1.3029
 9045SOL     OW38770   2.763   2.116   9.816  0.5535  0.0961 -0.0896
 9045SOL    HW138771   2.837   2.177   9.814  1.1401 -0.6152 -0.3319
 9045SOL    HW238772   2.798   2.061   9.887  0.3426 -0.2643 -0.2628
 9046SOL     OW38773   4.641   1.631   7.285  0.1435  0.3068  0.3899
 9046SOL    HW138774   4.642   1.676   7.369 -0.5820  0.2877  0.4125
 9046SOL    HW238775   4.674   1.545   7.312 -1.4495 -0.9078 -1.4677
 9047SOL     OW38776   2.857   2.694   8.062  0.0854  0.0372 -0.2229
 9047SOL    HW138777   2.791   2.674   7.996  0.4498  2.1575 -1.2244
 9047SOL    HW238778   2.823   2.768   8.111 -0.9284 -1.2895  1.0835
 9048SOL     OW38779   1.706   3.935   0.834  0.0944 -0.4237 -0.5619
 9048SOL    HW138780   1.623   3.933   0.787  1.2610 -1.0008 -2.5897
 9048SOL    HW238781   1.680   3.889   0.914  0.2472  1.1740  0.4058
 9049SOL     OW38782   3.064   4.073  13.928  0.4294  0.0807  0.4730
 9049SOL    HW138783   2.993   4.031  13.977  1.0865 -0.8964  0.5914
 9049SOL    HW238784   3.052   4.164  13.957 -1.5109 -0.6447  2.0122
 9050SOL     OW38785   3.776   4.150   2.987 -0.1752 -0.1531 -0.2026
 9050SOL    HW138786   3.800   4.161   3.079 -0.2337  2.3160 -0.4788
 9050SOL    HW238787   3.787   4.056   2.972 -0.6119 -0.0078 -1.4905
 9051SOL     OW38788   1.958   1.611   5.321  0.1626  0.3613  0.7366
 9051SOL    HW138789   1.993   1.623   5.233 -0.7008  0.6921  0.4274
 9051SOL    HW238790   2.025   1.662   5.366 -1.1156  2.6267  0.0793
 9052SOL     OW38791   4.287   4.056   1.434  0.4236 -0.4265 -0.4003
 9052SOL    HW138792   4.376   4.085   1.414 -0.3412  0.8706 -1.9074
 9052SOL    HW238793   4.248   4.134   1.474 -1.9558 -2.0181  0.3706
 9053SOL     OW38794   1.048   0.672   8.358  0.1878 -0.8860  0.3730
 9053SOL    HW138795   1.120   0.667   8.296  0.2140  0.9427  0.2413
 9053SOL    HW238796   1.094   0.694   8.439 -2.2333 -0.7346  1.7417
 9054SOL     OW38797   2.577   3.350   5.188  0.5291 -0.2278  0.9891
 9054SOL    HW138798   2.514   3.286   5.222 -1.1882 -0.3129 -2.2733
 9054SOL    HW238799   2.530   3.378   5.109 -3.6350  0.2997  3.6164
 9055SOL     OW38800   1.910   2.657   8.484 -0.5863  0.5859  0.0520
 9055SOL    HW138801   1.830   2.606   8.467  0.8138 -0.6931 -2.6583
 9055SOL    HW238802   1.947   2.604   8.554 -2.8476  1.5447  1.9730
 9056SOL     OW38803   2.249   2.595   8.739  0.1479 -0.1260 -0.0848
 9056SOL    HW138804   2.301   2.619   8.816 -1.2340  1.9857  0.1930
 9056SOL    HW238805   2.252   2.683   8.702 -1.0411  0.2169  0.6119
 9057SOL     OW38806   1.421   2.176   4.369  0.2745  0.0003 -0.0933
 9057SOL    HW138807   1.407   2.146   4.280 -0.4595  1.1029 -0.3441
 9057SOL    HW238808   1.511   2.145   4.381  0.3131  0.3417  0.5061
 9058SOL     OW38809   3.348   3.465   8.747 -0.2273  0.4024  0.6193
 9058SOL    HW138810   3.294   3.463   8.827  1.0292  3.4806  1.5253
 9058SOL    HW238811   3.439   3.465   8.775 -0.0166  1.7046 -0.0844
 9059SOL     OW38812   2.404   0.609   9.815 -0.4010  0.1582  0.1182
 9059SOL    HW138813   2.342   0.678   9.792 -0.2800 -0.1672 -1.2199
 9059SOL    HW238814   2.478   0.615   9.753  0.6011  0.3205  1.3281
 9060SOL     OW38815   1.665   1.591   5.263  0.2772  0.2132 -0.0462
 9060SOL    HW138816   1.619   1.524   5.314  1.9757  0.8371  2.2911
 9060SOL    HW238817   1.746   1.608   5.311  0.3286 -0.2423  0.0275
 9061SOL     OW38818   3.591   2.513   0.077 -0.5781  0.2521  0.4727
 9061SOL    HW138819   3.584   2.496  17.741 -1.5384 -2.2122  0.9978
 9061SOL    HW238820   3.654   2.585   0.074 -1.2491  0.7660 -1.3359
 9062SOL     OW38821   4.331   3.001  16.700 -0.0145  0.2834  0.0307
 9062SOL    HW138822   4.377   3.054  16.635 -1.4094  1.3050 -0.1370
 9062SOL    HW238823   4.257   3.061  16.714 -0.4270 -0.3338  0.4930
 9063SOL     OW38824   2.148   2.114   3.093 -0.5828 -0.0011  0.2673
 9063SOL    HW138825   2.094   2.075   3.162 -0.0500  0.7152  1.0902
 9063SOL    HW238826   2.231   2.066   3.097 -0.4019  0.0981 -1.9542
 9064SOL     OW38827   3.099   4.269   7.442  0.6024 -0.1085 -0.8233
 9064SOL    HW138828   3.059   4.336   7.386 -0.8580  0.4968  0.9676
 9064SOL    HW238829   3.170   4.255   7.379  0.9712  0.4816 -0.5429
 9065SOL     OW38830   0.071   0.757   4.772 -0.1149 -0.2562  0.3590
 9065SOL    HW138831   4.727   0.734   4.812 -0.8349  0.7650 -0.5623
 9065SOL    HW238832   0.121   0.773   4.851  0.5093 -0.2726 -0.0333
 9066SOL     OW38833   2.975   0.139  13.676  0.1295 -0.2235  0.1225
 9066SOL    HW138834   3.068   0.132  13.655  0.4022  0.5143  1.1002
 9066SOL    HW238835   2.947   0.212  13.621 -0.5503  0.3369  1.2064
 9067SOL     OW38836   3.632   1.439   0.002  0.6192  0.1575 -0.1008
 9067SOL    HW138837   3.614   1.426  17.667 -0.4275  1.2974 -0.0524
 9067SOL    HW238838   3.693   1.365   0.010  1.4016  0.9782  1.5797
 9068SOL     OW38839   3.767   1.700   2.450  0.4171 -0.3767  0.3343
 9068SOL    HW138840   3.750   1.656   2.366 -0.3991  1.7419 -0.6124
 9068SOL    HW238841   3.790   1.787   2.418 -2.2884 -0.6966 -2.5296
 9069SOL     OW38842   4.306   2.516   4.661 -0.0634 -0.5869 -0.6750
 9069SOL    HW138843   4.254   2.597   4.661 -0.7454 -1.0149  1.6285
 9069SOL    HW238844   4.384   2.549   4.705 -0.7292 -1.2190  0.9779
 9070SOL     OW38845   2.900   1.989   5.471  0.2901 -0.0028 -0.7675
 9070SOL    HW138846   2.972   2.021   5.417 -1.8431  1.8899 -2.4744
 9070SOL    HW238847   2.916   2.038   5.552  1.4521 -1.0292 -0.3763
 9071SOL     OW38848   0.472   0.161   1.794  0.1725  0.2670 -0.3059
 9071SOL    HW138849   0.486   0.130   1.884  1.6761  0.0148 -0.6208
 9071SOL    HW238850   0.428   0.084   1.758  0.6582  0.2207 -0.7904
 9072SOL     OW38851   4.193   1.272   1.434 -0.3008 -0.2411 -0.2053
 9072SOL    HW138852   4.247   1.208   1.388 -0.9097 -0.3975 -0.7137
 9072SOL    HW238853   4.224   1.261   1.523 -0.6075 -3.1640 -0.4533
 9073SOL     OW38854   0.837   4.195   9.455  0.0727 -0.1347 -0.2120
 9073SOL    HW138855   0.845   4.178   9.549  0.2134  0.5800 -0.0992
 9073SOL    HW238856   0.759   4.143   9.435  0.2848  0.1101 -1.6522
 9074SOL     OW38857   1.989   0.030  10.662 -0.2483  0.7763 -0.1652
 9074SOL    HW138858   1.983   4.681  10.696  1.3574 -0.4860 -3.1893
 9074SOL    HW238859   1.904   0.033  10.620  0.2607  1.5554 -1.1549
 9075SOL     OW38860   3.691   1.174   8.688 -0.1081  0.0909  0.4976
 9075SOL    HW138861   3.669   1.129   8.769  0.1897 -0.8422  0.0641
 9075SOL    HW238862   3.616   1.146   8.635  0.1929 -0.6284  0.4471
 9076SOL     OW38863   1.726   0.354   5.417 -0.7290  0.3879 -0.0086
 9076SOL    HW138864   1.644   0.399   5.397 -0.7668  0.1986 -0.2758
 9076SOL    HW238865   1.753   0.416   5.485 -1.5083  1.2688 -0.4960
 9077SOL     OW38866   2.222   1.949   8.314 -0.2646 -0.6110 -0.0370
 9077SOL    HW138867   2.278   1.878   8.346  1.0781  0.3044 -0.3537
 9077SOL    HW238868   2.135   1.915   8.335  0.5852 -1.3699  2.2687
 9078SOL     OW38869   1.850   0.268   3.385  0.1173 -0.2237  0.0558
 9078SOL    HW138870   1.807   0.352   3.400  1.9377  0.4316  1.6812
 9078SOL    HW238871   1.781   0.216   3.345  1.1046  0.1484 -2.1218
 9079SOL     OW38872   2.707   0.646  11.142 -0.0787  0.2899  1.1070
 9079SOL    HW138873   2.773   0.622  11.207  0.8550  0.9125  0.3898
 9079SOL    HW238874   2.704   0.741  11.152  2.0443  0.4463  0.2034
 9080SOL     OW38875   2.452   0.073  13.882 -0.1069 -0.4382 -0.2695
 9080SOL    HW138876   2.389   0.007  13.913 -1.1991  0.7341 -0.0205
 9080SOL    HW238877   2.485   0.107  13.964 -0.1730 -1.2234  0.0860
 9081SOL     OW38878   1.435   4.416  16.828  0.1159 -0.3360  0.8440
 9081SOL    HW138879   1.429   4.353  16.900  0.2821  0.8756  1.9173
 9081SOL    HW238880   1.348   4.456  16.840  1.0041  1.2602  1.8949
 9082SOL     OW38881   0.518   1.055   7.819 -0.5643  0.4381  0.5776
 9082SOL    HW138882   0.612   1.047   7.835 -0.4693  0.7607  0.1747
 9082SOL    HW238883   0.489   0.991   7.884 -0.8232  0.1886  0.2199
 9083SOL     OW38884   0.607   2.970  11.224  0.4385 -0.2726 -0.4975
 9083SOL    HW138885   0.514   2.949  11.212 -0.0046  0.6163  1.2951
 9083SOL    HW238886   0.592   3.058  11.259 -1.6046 -0.8672  0.0998
 9084SOL     OW38887   3.301   1.309   0.743 -0.4731  0.0417 -0.1529
 9084SOL    HW138888   3.357   1.361   0.800  0.6012  0.4670 -1.5902
 9084SOL    HW238889   3.214   1.326   0.778  0.1642  0.7476  1.1002
 9085SOL     OW38890   2.958   2.227   0.235 -0.0859 -0.0952  0.1784
 9085SOL    HW138891   2.986   2.317   0.222 -0.0733  0.1182  1.7392
 9085SOL    HW238892   2.899   2.236   0.309  0.4517 -2.0256  0.8585
 9086SOL     OW38893   0.387   3.993   8.754  0.2934  0.2149  1.0798
 9086SOL    HW138894   0.455   4.010   8.819 -0.2639  0.3004  1.6416
 9086SOL    HW238895   0.318   4.038   8.803 -0.2418  0.6129 -0.0421
 9087SOL     OW38896   3.017   3.419  17.572 -0.1937  0.0985 -0.9937
 9087SOL    HW138897   3.054   3.344  17.618  1.2388  1.0741 -0.5547
 9087SOL    HW238898   3.078   3.438  17.501  1.2352  0.2459  0.2831
 9088SOL     OW38899   1.507   3.146   3.685 -0.4478 -0.0335 -0.1852
 9088SOL    HW138900   1.426   3.178   3.645 -0.5325 -0.9279 -0.7274
 9088SOL    HW238901   1.577   3.204   3.656 -1.0850  0.6853 -0.2742
 9089SOL     OW38902   0.911   2.169   3.899 -0.3086  0.5011 -0.8175
 9089SOL    HW138903   0.913   2.249   3.951 -2.2363 -0.3687  0.5715
 9089SOL    HW238904   0.830   2.186   3.851 -1.0318  0.0431  0.2414
 9090SOL     OW38905   0.522   3.559  13.969 -0.5428  0.0150  0.3634
 9090SOL    HW138906   0.534   3.518  13.884 -1.3504  0.8336 -0.1549
 9090SOL    HW238907   0.482   3.493  14.026  1.0632  0.6055  2.1972
 9091SOL     OW38908   2.136   2.108   0.574 -0.2665 -0.0949 -0.4515
 9091SOL    HW138909   2.049   2.099   0.536 -0.7185 -0.1633  0.6012
 9091SOL    HW238910   2.182   2.026   0.553  0.8527  0.7033 -1.1087
 9092SOL     OW38911   1.732   1.966   4.158  0.7796 -0.5260 -0.1226
 9092SOL    HW138912   1.776   1.935   4.237  2.0142 -1.9929 -1.3975
 9092SOL    HW238913   1.753   2.059   4.158 -1.1480 -0.0768 -0.1249
 9093SOL     OW38914   2.690   2.187   5.421  0.1573 -0.0046  0.0502
 9093SOL    HW138915   2.653   2.135   5.349 -0.6796  0.8213 -0.1163
 9093SOL    HW238916   2.747   2.127   5.469  1.0979 -0.0433 -1.1304
 9094SOL     OW38917   2.816   0.539   6.673 -0.0844 -1.0282 -0.1382
 9094SOL    HW138918   2.828   0.445   6.675 -0.6381 -1.0909  0.5159
 9094SOL    HW238919   2.721   0.549   6.664 -0.0872 -0.1946  0.7166
 9095SOL     OW38920   2.842   3.477   5.808 -0.3126  0.3292  0.3083
 9095SOL    HW138921   2.916   3.532   5.833 -0.8904 -0.4674  3.8119
 9095SOL    HW238922   2.815   3.519   5.726  1.5781  1.7198  0.4030
 9096SOL     OW38923   1.871   0.393   5.198 -0.0161 -0.0416 -0.3324
 9096SOL    HW138924   1.823   0.388   5.280 -0.3072  1.1515 -0.4286
 9096SOL    HW238925   1.798   0.385   5.136 -0.2737 -0.1533 -0.0136
 9097SOL     OW38926   4.647   1.792  11.902  0.4026 -0.0485 -0.4253
 9097SOL    HW138927   4.650   1.727  11.832  1.7111  0.0091 -0.4091
 9097SOL    HW238928   4.573   1.847  11.874 -0.0307  0.9312  2.6187
 9098SOL     OW38929   3.827   0.646   9.072 -0.1294  0.4006 -0.8653
 9098SOL    HW138930   3.816   0.551   9.083  2.2401  0.2093 -0.1452
 9098SOL    HW238931   3.855   0.638   8.981  1.0295 -1.9648 -0.3024
 9099SOL     OW38932   2.542   2.033  10.845 -0.6526  0.4818 -0.2505
 9099SOL    HW138933   2.605   2.105  10.853  1.0797 -1.0658  0.0808
 9099SOL    HW238934   2.465   2.067  10.890  0.0895 -0.2488  1.5320
 9100SOL     OW38935   3.015   0.701   2.700  0.1436 -0.6091 -0.0068
 9100SOL    HW138936   3.036   0.766   2.767 -0.8278 -0.3764  0.0792
 9100SOL    HW238937   3.097   0.651   2.698  1.0244  0.8372  0.6701
 9101SOL     OW38938   0.357   2.179   3.293 -0.3993 -0.0047  0.0526
 9101SOL    HW138939   0.412   2.105   3.322 -2.0210 -1.3711 -0.3648
 9101SOL    HW238940   0.273   2.135   3.302 -0.6198  0.2482 -0.7400
 9102SOL     OW38941   3.488   0.546  16.844  0.5473 -0.3183  0.0542
 9102SOL    HW138942   3.561   0.605  16.859 -1.1338  0.7567  4.0180
 9102SOL    HW238943   3.479   0.514  16.754  0.0806  0.1533 -0.0710
 9103SOL     OW38944   3.189   2.040   9.930  0.0500 -0.4003  0.7768
 9103SOL    HW138945   3.167   1.950   9.910 -0.1576 -0.2978  0.5499
 9103SOL    HW238946   3.281   2.041   9.906 -0.2558  2.0873 -0.3262
 9104SOL     OW38947   3.092   3.087   7.793  0.2818 -0.3632  0.1707
 9104SOL    HW138948   3.016   3.032   7.812  1.4414 -2.5997 -1.5654
 9104SOL    HW238949   3.092   3.136   7.875 -0.8294 -0.5545  0.2895
 9105SOL     OW38950   4.414   2.581   5.314 -0.2108 -0.1148  0.3315
 9105SOL    HW138951   4.374   2.618   5.393 -3.3325  0.3800 -1.4871
 9105SOL    HW238952   4.459   2.662   5.290  0.4930 -0.4740  0.4427
 9106SOL     OW38953   3.466   0.720  14.983 -0.3396 -0.1055 -0.4948
 9106SOL    HW138954   3.443   0.808  14.953 -0.4005  0.3004  0.7791
 9106SOL    HW238955   3.524   0.695  14.911  0.8884  0.6965  0.2239
 9107SOL     OW38956   4.508   4.345   6.162 -0.6683  0.2801  0.3149
 9107SOL    HW138957   4.513   4.251   6.179  2.0041  0.0495 -1.7703
 9107SOL    HW238958   4.544   4.369   6.247 -0.4877 -0.6759  0.5072
 9108SOL     OW38959   0.961   0.976  13.841 -0.2228 -0.5295 -0.2957
 9108SOL    HW138960   0.899   0.920  13.795 -2.4058  1.0975  0.6443
 9108SOL    HW238961   1.045   0.944  13.808  1.1358  1.3026  1.3488
 9109SOL     OW38962   1.451   3.678   6.098  0.3022  0.6438  0.3957
 9109SOL    HW138963   1.364   3.717   6.107 -0.3359 -0.5199 -0.6646
 9109SOL    HW238964   1.513   3.751   6.091  2.8934 -1.4085  1.7342
 9110SOL     OW38965   1.579   0.350   3.564  0.3904 -0.9102  0.2473
 9110SOL    HW138966   1.534   0.432   3.543 -0.7344 -0.7136  3.3939
 9110SOL    HW238967   1.659   0.388   3.600 -0.9104  1.5897  0.5176
 9111SOL     OW38968   0.921   0.907   6.551 -0.0114 -0.3360  0.0903
 9111SOL    HW138969   0.884   0.977   6.499  0.4920  0.8773  1.3721
 9111SOL    HW238970   1.012   0.935   6.540 -0.8933  1.8048 -1.5993
 9112SOL     OW38971   2.105   2.623   5.365  0.5008 -0.0069 -0.0387
 9112SOL    HW138972   2.104   2.614   5.460  0.2655 -0.5050 -0.0915
 9112SOL    HW238973   2.173   2.691   5.359 -1.1897  1.9190  2.5097
 9113SOL     OW38974   0.435   0.320   2.615 -0.0320 -0.1351 -0.7069
 9113SOL    HW138975   0.489   0.370   2.675 -0.4249  0.5467 -0.9249
 9113SOL    HW238976   0.352   0.329   2.662  0.1110  0.2285 -0.5242
 9114SOL     OW38977   1.454   2.915   7.431  0.1074 -0.1740 -0.4090
 9114SOL    HW138978   1.489   2.913   7.342 -1.4281  0.4748 -1.0389
 9114SOL    HW238979   1.526   2.946   7.485  0.6014 -1.2157 -0.4795
 9115SOL     OW38980   3.301   3.127   8.748  0.4667  0.2073  0.0217
 9115SOL    HW138981   3.223   3.102   8.698 -0.1757  2.1203  0.0646
 9115SOL    HW238982   3.310   3.221   8.736 -2.6152  0.2364 -2.1226
 9116SOL     OW38983   2.694   1.663   2.757 -0.0455  0.0649  0.4666
 9116SOL    HW138984   2.765   1.628   2.703  0.0889 -1.4380  1.6346
 9116SOL    HW238985   2.618   1.610   2.733  0.9838 -1.6054  0.8683
 9117SOL     OW38986   3.858   3.895  12.839  0.3029  0.2149 -0.0925
 9117SOL    HW138987   3.833   3.979  12.801 -1.1009  1.0237  2.5950
 9117SOL    HW238988   3.781   3.881  12.893  0.0139  1.7857 -0.1018
 9118SOL     OW38989   2.557   2.647   2.270  0.0853 -0.5621 -0.2355
 9118SOL    HW138990   2.489   2.709   2.243  0.2104 -0.4003 -0.1819
 9118SOL    HW238991   2.632   2.700   2.243  0.2081 -0.1858  0.8485
 9119SOL     OW38992   3.759   0.685   2.307  0.2524 -0.2009 -0.1210
 9119SOL    HW138993   3.685   0.652   2.358  0.1715  1.4545  0.8438
 9119SOL    HW238994   3.800   0.749   2.366 -0.3138  1.6007 -1.6969
 9120SOL     OW38995   3.534   2.594   4.340 -0.6166  0.2061  0.2573
 9120SOL    HW138996   3.513   2.543   4.261 -0.2401  3.0556 -1.6961
 9120SOL    HW238997   3.543   2.684   4.308  0.8976 -0.5541 -1.4241
 9121SOL     OW38998   3.423   0.244   5.510 -0.1866  0.0576 -0.3649
 9121SOL    HW138999   3.399   0.321   5.562 -0.6741 -1.5364  1.7697
 9121SOL    HW239000   3.404   0.271   5.420  0.0354  0.0471 -0.4161
 9122SOL     OW39001   2.644   4.123   5.085 -0.2872 -0.2258  0.5046
 9122SOL    HW139002   2.738   4.137   5.099  0.0194 -1.6785 -0.0620
 9122SOL    HW239003   2.609   4.181   5.152  2.1111 -1.2537  2.6319
 9123SOL     OW39004   1.176   2.298   5.168  0.1224  0.1209 -0.0244
 9123SOL    HW139005   1.129   2.303   5.252 -0.0088 -0.1952 -0.0796
 9123SOL    HW239006   1.111   2.251   5.116  0.3684  0.4549 -0.6338
 9124SOL     OW39007   3.932   4.518  11.797 -0.0366 -0.8254 -0.2006
 9124SOL    HW139008   3.920   4.566  11.879  2.3906  2.5212 -1.8162
 9124SOL    HW239009   4.010   4.562  11.765 -0.5652  1.8444  2.1691
 9125SOL     OW39010   0.855   3.633   7.396 -0.0537  1.0104 -0.1709
 9125SOL    HW139011   0.876   3.585   7.476 -1.8203  1.2269  0.4350
 9125SOL    HW239012   0.926   3.697   7.397  1.0572 -0.1886 -1.7401
 9126SOL     OW39013   3.079   1.087   5.073  0.3806 -0.0093 -0.3223
 9126SOL    HW139014   3.154   1.065   5.128 -0.5762  1.9514  1.7827
 9126SOL    HW239015   3.093   1.181   5.062 -2.3034  0.3364 -0.9116
 9127SOL     OW39016   0.701   4.283  11.696 -0.6603 -0.2398  0.3934
 9127SOL    HW139017   0.640   4.219  11.731 -0.8388 -1.0880 -1.5291
 9127SOL    HW239018   0.642   4.356  11.677 -2.2969 -1.0827  2.3335
 9128SOL     OW39019   1.497   0.455   5.304 -0.1600  0.1391 -0.0102
 9128SOL    HW139020   1.433   0.445   5.233  1.1897 -1.3987 -1.0269
 9128SOL    HW239021   1.534   0.541   5.283 -4.8538  2.4764  1.3367
 9129SOL     OW39022   2.816   0.038  13.247  0.3936 -0.4332 -0.3694
 9129SOL    HW139023   2.864   0.087  13.313 -0.7159  1.2294 -0.7805
 9129SOL    HW239024   2.880   4.711  13.229 -0.5929 -1.1159 -1.3461
 9130SOL     OW39025   4.467   2.996   3.644  0.0122 -0.3942 -0.1272
 9130SOL    HW139026   4.431   3.054   3.576 -1.0387  0.7193  1.3882
 9130SOL    HW239027   4.480   3.060   3.714 -0.7782 -0.5575  0.1628
 9131SOL     OW39028   3.178   4.689   2.133  0.1991 -0.3161 -0.1235
 9131SOL    HW139029   3.247   0.016   2.133  0.0434 -0.1565  1.1740
 9131SOL    HW239030   3.151   4.680   2.225  0.4802  2.2859  0.2139
 9132SOL     OW39031   2.323   1.557   5.362 -0.4828 -0.2120 -0.5405
 9132SOL    HW139032   2.269   1.635   5.367 -0.5276 -0.1848 -1.4015
 9132SOL    HW239033   2.336   1.537   5.455  1.1469  0.2460 -0.6667
 9133SOL     OW39034   4.192   1.187   8.600  0.2705  0.5021  0.2876
 9133SOL    HW139035   4.273   1.191   8.550 -0.4666 -0.5124 -0.9937
 9133SOL    HW239036   4.174   1.093   8.592 -1.6483  0.8967 -0.0137
 9134SOL     OW39037   1.227   4.217   8.306 -0.0291 -0.3212  0.1290
 9134SOL    HW139038   1.283   4.221   8.384  1.4091  0.8712 -0.9741
 9134SOL    HW239039   1.160   4.159   8.342 -0.3951 -0.2418 -0.4283
 9135SOL     OW39040   0.678   0.849   2.131  0.5752 -0.2069  0.2424
 9135SOL    HW139041   0.609   0.783   2.130  1.1291 -0.7936  0.5679
 9135SOL    HW239042   0.632   0.926   2.164 -0.5218 -0.0188 -1.7478
 9136SOL     OW39043   2.610   4.659   3.253 -0.4359  0.5565 -0.0646
 9136SOL    HW139044   2.669   4.657   3.177 -1.0048 -3.8844 -0.4176
 9136SOL    HW239045   2.532   4.627   3.208  0.5903 -0.2304 -1.3128
 9137SOL     OW39046   4.427   3.961   2.840  0.0096 -0.1545  0.1356
 9137SOL    HW139047   4.362   3.933   2.905  0.3997 -1.1303  0.1037
 9137SOL    HW239048   4.387   4.044   2.816 -2.6636 -2.5606 -3.6620
 9138SOL     OW39049   1.152   2.501   3.652  0.3277  0.5036 -0.1490
 9138SOL    HW139050   1.216   2.550   3.703  2.7617 -1.4782 -1.2920
 9138SOL    HW239051   1.097   2.578   3.632 -1.0941 -0.6068 -0.5183
 9139SOL     OW39052   1.874   0.412   4.563 -0.4409 -0.3754 -0.2272
 9139SOL    HW139053   1.899   0.352   4.492  0.8143 -2.8858  2.3630
 9139SOL    HW239054   1.892   0.355   4.637  0.3928 -0.7483 -0.7045
 9140SOL     OW39055   0.844   2.666   6.633  0.6809  0.2945  0.5359
 9140SOL    HW139056   0.883   2.753   6.624 -0.0074  0.2864 -2.5566
 9140SOL    HW239057   0.850   2.659   6.729  0.3054 -1.3549  0.4374
 9141SOL     OW39058   3.629   0.608  14.776  0.0237  0.1507 -0.3913
 9141SOL    HW139059   3.722   0.611  14.796 -0.0254  1.8767 -0.4086
 9141SOL    HW239060   3.620   0.680  14.714  1.3840  2.3327  1.9706
 9142SOL     OW39061   3.850   2.813   4.835 -0.2079 -0.2735 -0.2442
 9142SOL    HW139062   3.799   2.779   4.761 -1.9453  3.8496 -0.9639
 9142SOL    HW239063   3.786   2.807   4.906  1.9870  1.6278  1.8663
 9143SOL     OW39064   4.083   1.514   4.456 -0.3272 -0.1072  0.7140
 9143SOL    HW139065   4.061   1.528   4.364  1.3394  0.6726  0.4444
 9143SOL    HW239066   4.086   1.419   4.464 -2.4113 -0.1449  1.1302
 9144SOL     OW39067   1.835   0.634   9.664 -0.2046 -0.4919  0.3330
 9144SOL    HW139068   1.793   0.599   9.585  1.2522  0.5970 -0.9145
 9144SOL    HW239069   1.864   0.554   9.706 -0.0242  0.4203  1.9297
 9145SOL     OW39070   3.195   0.301  10.965  0.1034  0.4221  0.2647
 9145SOL    HW139071   3.178   0.238  11.035  4.0148 -0.5296  0.3345
 9145SOL    HW239072   3.128   0.275  10.902  0.7238  0.4866 -0.4234
 9146SOL     OW39073   3.546   0.978   4.895  0.0897  0.1724  0.2541
 9146SOL    HW139074   3.487   1.051   4.913 -3.1935 -2.0837 -1.2884
 9146SOL    HW239075   3.560   0.943   4.983 -0.8289 -2.4367 -0.6406
 9147SOL     OW39076   2.067   2.531   3.032 -0.0112  0.8779 -0.3335
 9147SOL    HW139077   2.087   2.564   2.945  1.2982  0.9449 -0.0096
 9147SOL    HW239078   2.139   2.471   3.054  0.9518  1.7423 -1.1799
 9148SOL     OW39079   0.060   3.725  12.189 -0.0794  0.5754  0.2228
 9148SOL    HW139080   0.007   3.645  12.194  0.8838 -0.2842 -3.1483
 9148SOL    HW239081   0.031   3.752  12.102  0.6480  0.7069  0.0160
 9149SOL     OW39082   1.697   4.065   4.965 -0.1754  0.3210 -0.3061
 9149SOL    HW139083   1.629   4.029   5.023 -1.9868 -0.6908 -3.0491
 9149SOL    HW239084   1.739   3.982   4.941 -0.8901 -0.2795  0.5160
 9150SOL     OW39085   3.966   4.345   1.356  0.0146  0.0906 -0.3844
 9150SOL    HW139086   3.914   4.384   1.427 -0.2629  1.0134 -1.0986
 9150SOL    HW239087   4.054   4.349   1.393  0.6182  1.2105 -1.9279
 9151SOL     OW39088   3.030   2.390   7.843 -0.3979 -0.6032  0.1871
 9151SOL    HW139089   2.999   2.417   7.757 -0.3860  2.3275  1.0674
 9151SOL    HW239090   3.028   2.296   7.828 -1.7883 -0.6047  0.3540
 9152SOL     OW39091   0.775   0.938   5.723 -0.4507  0.2987  0.2188
 9152SOL    HW139092   0.857   0.892   5.703  0.9968  2.9345 -0.0133
 9152SOL    HW239093   0.735   0.950   5.637  1.0242 -1.1449 -0.6837
 9153SOL     OW39094   3.493   1.372   7.562 -0.1485  0.3422  0.4317
 9153SOL    HW139095   3.497   1.398   7.654 -1.1502 -0.4246  0.7027
 9153SOL    HW239096   3.586   1.378   7.542 -0.2940  4.8334  1.0098
 9154SOL     OW39097   2.696   3.843   5.738 -0.0418  0.1899 -0.0814
 9154SOL    HW139098   2.712   3.756   5.703 -0.2642  0.2834 -0.4046
 9154SOL    HW239099   2.735   3.906   5.677  0.8243 -0.6818 -0.4256
 9155SOL     OW39100   3.272   2.912   3.713  0.2837 -0.2762  0.0308
 9155SOL    HW139101   3.368   2.902   3.711  0.4049  0.8819  0.2516
 9155SOL    HW239102   3.253   2.872   3.628 -0.2308  1.6500 -0.7556
 9156SOL     OW39103   3.681   4.126   3.248 -0.4874 -0.4619 -0.0819
 9156SOL    HW139104   3.616   4.056   3.252  0.2235 -1.1621 -0.6314
 9156SOL    HW239105   3.658   4.205   3.297  0.5293 -0.4946  0.4428
 9157SOL     OW39106   4.110   3.403  11.722 -0.1398  0.5511 -0.0968
 9157SOL    HW139107   4.015   3.399  11.733 -0.4397 -1.1931 -3.0696
 9157SOL    HW239108   4.120   3.495  11.699 -1.6514  1.1363  1.6829
 9158SOL     OW39109   1.780   2.305   4.593 -0.5045 -0.1908 -0.2455
 9158SOL    HW139110   1.837   2.382   4.597 -1.2785  0.3843 -0.2866
 9158SOL    HW239111   1.746   2.309   4.682  0.8962  1.4913  0.1910
 9159SOL     OW39112   1.486   0.641  10.077  0.6547 -0.3432  0.3881
 9159SOL    HW139113   1.410   0.587  10.055  2.4298 -3.0018  0.7252
 9159SOL    HW239114   1.521   0.655   9.988 -2.8191  0.4413 -0.8411
 9160SOL     OW39115   4.723   4.247   8.552 -0.6470 -0.2104  0.2254
 9160SOL    HW139116   0.073   4.251   8.519 -0.5501  1.0235  0.6292
 9160SOL    HW239117   4.675   4.210   8.478 -2.2052  0.8497  0.7152
 9161SOL     OW39118   3.046   2.861   6.607  0.0873 -0.1695  0.1955
 9161SOL    HW139119   3.118   2.800   6.624  0.9045  1.0646  1.1248
 9161SOL    HW239120   2.995   2.833   6.682  2.2750 -0.2735  1.6427
 9162SOL     OW39121   4.739   2.615  16.338 -0.3672  0.3025 -0.4367
 9162SOL    HW139122   4.728   2.521  16.325  0.1627  0.0704  0.7704
 9162SOL    HW239123   0.094   2.627  16.349 -0.2793  0.6945 -1.6609
 9163SOL     OW39124   4.350   1.111   7.646  0.2078  0.5493  0.5925
 9163SOL    HW139125   4.297   1.045   7.600 -0.6138  1.5261  0.1235
 9163SOL    HW239126   4.285   1.149   7.705 -0.4112  0.1776  0.1540
 9164SOL     OW39127   1.596   2.010   4.494  0.2410 -0.0954  0.2547
 9164SOL    HW139128   1.651   1.997   4.571 -0.5454  0.4351  0.9210
 9164SOL    HW239129   1.579   1.922   4.462  0.7262  0.2740 -1.0130
 9165SOL     OW39130   1.749   1.581  12.678  0.8138 -0.0582 -0.5171
 9165SOL    HW139131   1.797   1.509  12.718  1.6993  0.6908 -0.2165
 9165SOL    HW239132   1.688   1.533  12.622  1.3722 -0.3478 -0.8801
 9166SOL     OW39133   2.283   2.625   1.606 -0.2997 -0.6478  0.2731
 9166SOL    HW139134   2.306   2.718   1.615  1.3419 -1.0536  0.2207
 9166SOL    HW239135   2.261   2.621   1.513  0.6801 -1.5790  0.0956
 9167SOL     OW39136   2.241   2.967  17.185  0.1155  0.4568  0.1803
 9167SOL    HW139137   2.206   2.945  17.098 -1.1145  0.2847  0.7191
 9167SOL    HW239138   2.260   2.883  17.227  0.2533  0.0919 -0.6094
 9168SOL     OW39139   0.934   0.684   4.328  0.0415  0.0360  0.6139
 9168SOL    HW139140   0.863   0.627   4.358 -2.1694  2.3718 -0.1418
 9168SOL    HW239141   0.884   0.748   4.277 -0.1419 -1.0543 -0.5660
 9169SOL     OW39142   4.222   0.743  14.666 -0.1751  0.2342 -0.7027
 9169SOL    HW139143   4.276   0.679  14.712 -0.3489  1.2888  0.9421
 9169SOL    HW239144   4.237   0.820  14.720  1.1795 -0.5416  0.0154
 9170SOL     OW39145   2.540   2.553   7.293 -0.4161 -0.4583 -0.3447
 9170SOL    HW139146   2.563   2.531   7.203 -0.2063  1.0231 -0.6498
 9170SOL    HW239147   2.615   2.607   7.319 -1.4842  1.5211 -1.3597
 9171SOL     OW39148   0.245   0.985   4.929  0.6901  0.0235 -0.0651
 9171SOL    HW139149   0.244   1.002   4.835 -0.4621 -1.5721 -0.3386
 9171SOL    HW239150   0.332   1.005   4.964  0.6037 -0.0583  0.2004
 9172SOL     OW39151   3.995   4.343   0.860  0.0040  0.2935 -0.0628
 9172SOL    HW139152   4.036   4.368   0.943  0.4913  1.6914 -0.7227
 9172SOL    HW239153   3.906   4.327   0.893  0.0949  0.1068  0.0896
 9173SOL     OW39154   0.320   0.630   6.606  0.0648 -0.3313  0.0546
 9173SOL    HW139155   0.259   0.703   6.607 -1.4669 -1.6052 -0.2241
 9173SOL    HW239156   0.401   0.675   6.631 -0.8208  0.0118  2.3176
 9174SOL     OW39157   3.344   2.371   5.377  0.3971 -0.2975  0.5167
 9174SOL    HW139158   3.310   2.426   5.448 -0.8680 -2.6931  1.7514
 9174SOL    HW239159   3.273   2.369   5.313  1.7281  1.2909 -0.9996
 9175SOL     OW39160   3.518   4.405   4.211  0.3129  0.2413 -0.0642
 9175SOL    HW139161   3.560   4.413   4.297 -0.8666  0.8220  0.4626
 9175SOL    HW239162   3.574   4.336   4.174 -0.0745  0.5980 -1.3024
 9176SOL     OW39163   3.061   0.740   6.027 -0.1269  0.0188  0.1639
 9176SOL    HW139164   3.087   0.833   6.024  3.1637 -0.9077  0.1832
 9176SOL    HW239165   2.967   0.741   6.044 -0.3469 -0.8648 -1.0401
 9177SOL     OW39166   4.531   2.334  12.210 -0.3023  0.1299  0.2394
 9177SOL    HW139167   4.470   2.363  12.142  0.8109  0.1952 -0.7192
 9177SOL    HW239168   4.486   2.249  12.218 -1.8366  0.9377  0.2557
 9178SOL     OW39169   0.961   3.519  11.875  0.0482  0.0956  0.4259
 9178SOL    HW139170   0.898   3.538  11.806 -1.1024 -0.3038  1.3756
 9178SOL    HW239171   1.013   3.598  11.855 -0.0233  0.1408  0.4182
 9179SOL     OW39172   1.269   3.830   5.937 -0.4156  0.3142 -0.0513
 9179SOL    HW139173   1.212   3.770   5.890  2.0360  0.3721 -3.1155
 9179SOL    HW239174   1.327   3.859   5.867  0.9053  0.7420  1.2140
 9180SOL     OW39175   4.023   0.217   2.713 -0.5736 -0.2375 -0.0175
 9180SOL    HW139176   3.941   0.175   2.686  0.4563 -1.3923 -1.3456
 9180SOL    HW239177   4.085   0.146   2.729  0.9297  0.9992 -0.4178
 9181SOL     OW39178   2.196   2.692  13.471  0.2046  0.2328 -0.0983
 9181SOL    HW139179   2.105   2.718  13.455  0.2140  1.9921  2.7065
 9181SOL    HW239180   2.177   2.600  13.489  0.3027  0.0612 -0.8547
 9182SOL     OW39181   3.600   3.752  10.367 -0.0952  0.1655  0.0483
 9182SOL    HW139182   3.574   3.716  10.451  1.4684 -0.3095  0.3378
 9182SOL    HW239183   3.693   3.755  10.389 -0.1667  1.7898  0.1835
 9183SOL     OW39184   0.773   4.275   3.101  0.0490  0.2959  0.0113
 9183SOL    HW139185   0.694   4.320   3.132 -0.5791 -0.0469 -1.1015
 9183SOL    HW239186   0.742   4.184   3.107  1.8167 -0.3786 -1.4038
 9184SOL     OW39187   3.039   4.095   2.323 -0.1649 -0.2076  0.0450
 9184SOL    HW139188   2.982   4.123   2.252 -0.2473 -0.6597 -0.0644
 9184SOL    HW239189   3.117   4.141   2.290  0.9065 -0.8997  1.5952
 9185SOL     OW39190   4.612   1.772   4.406  0.6617  0.1495  0.3269
 9185SOL    HW139191   4.572   1.756   4.491 -0.9609  0.0437 -0.4571
 9185SOL    HW239192   4.602   1.867   4.400  0.4957  0.1367  0.3913
 9186SOL     OW39193   4.273   1.118   2.688 -0.3849 -0.1834 -0.5924
 9186SOL    HW139194   4.339   1.177   2.652 -1.0538  2.4785  2.5432
 9186SOL    HW239195   4.319   1.037   2.665 -2.2313 -1.5625  0.6491
 9187SOL     OW39196   0.831   1.258   6.114  0.1376  0.7088 -0.3018
 9187SOL    HW139197   0.746   1.273   6.071 -1.5285 -3.4913  1.5857
 9187SOL    HW239198   0.807   1.178   6.160  0.7994  0.1206 -0.9774
 9188SOL     OW39199   0.269   0.570  16.907  0.5199 -0.7734 -0.2680
 9188SOL    HW139200   0.177   0.559  16.932  0.7943 -3.0707 -0.2655
 9188SOL    HW239201   0.278   0.665  16.910 -0.0172 -0.7667  1.7683
 9189SOL     OW39202   1.368   3.289   5.011  0.3301 -0.2568 -0.5885
 9189SOL    HW139203   1.365   3.237   4.931  1.0618  0.7733 -1.2854
 9189SOL    HW239204   1.382   3.377   4.976 -0.8941 -0.6342 -2.0373
 9190SOL     OW39205   4.610   0.215  10.876  0.3210  0.2708  0.2478
 9190SOL    HW139206   4.578   0.159  10.805  1.0791  2.1898 -1.6350
 9190SOL    HW239207   4.618   0.305  10.844  0.5799  0.6378  1.3783
 9191SOL     OW39208   3.722   4.498   8.660 -0.0534 -0.0074 -0.2487
 9191SOL    HW139209   3.719   4.578   8.712 -3.5867 -1.0309  1.0916
 9191SOL    HW239210   3.736   4.540   8.575  1.4864  2.6153  1.2996
 9192SOL     OW39211   0.246   1.930   1.401  0.2791 -0.1334 -1.2311
 9192SOL    HW139212   0.337   1.950   1.423  0.5322 -3.2318  0.4982
 9192SOL    HW239213   0.209   1.943   1.488 -1.1594 -1.2394 -1.6766
 9193SOL     OW39214   1.351   1.593   6.538  1.1614  0.0939 -0.2211
 9193SOL    HW139215   1.417   1.645   6.493  1.7985 -2.0554 -1.8037
 9193SOL    HW239216   1.272   1.643   6.515  1.0642  0.4582  0.9016
 9194SOL     OW39217   2.519   2.993   7.451 -0.4303  0.3152 -0.1688
 9194SOL    HW139218   2.432   2.968   7.481 -0.2675  0.2603  0.2588
 9194SOL    HW239219   2.501   3.013   7.359 -1.0540  0.2646 -0.0575
 9195SOL     OW39220   1.750   3.247   2.936 -0.3351  0.4785  0.3964
 9195SOL    HW139221   1.716   3.292   2.858 -2.5292 -3.1044 -0.7276
 9195SOL    HW239222   1.844   3.265   2.933 -0.0518 -0.7266  2.1211
 9196SOL     OW39223   1.876   2.575   5.790  0.1923 -0.0945 -0.7463
 9196SOL    HW139224   1.806   2.606   5.732  1.2402  0.0342 -1.9676
 9196SOL    HW239225   1.894   2.655   5.839  0.4446 -0.4203 -0.3075
 9197SOL     OW39226   0.710   1.357  13.560  0.0654 -0.2997 -0.5177
 9197SOL    HW139227   0.649   1.354  13.487  1.4877 -0.1051 -1.7224
 9197SOL    HW239228   0.672   1.296  13.623 -2.5702 -0.1075 -1.9010
 9198SOL     OW39229   1.409   0.517   8.954  0.7029  0.8378  0.3655
 9198SOL    HW139230   1.368   0.603   8.956  0.8355  0.9316 -1.2137
 9198SOL    HW239231   1.331   0.466   8.975  0.6013 -0.0112 -2.1079
 9199SOL     OW39232   1.751   3.399   1.340  0.7287  0.2496 -0.2802
 9199SOL    HW139233   1.788   3.315   1.365 -0.7575 -0.8047 -1.5900
 9199SOL    HW239234   1.678   3.402   1.402  1.8415 -1.4181  1.1156
 9200SOL     OW39235   2.248   0.326   9.346 -0.0165 -0.0651  0.1359
 9200SOL    HW139236   2.256   0.380   9.267 -0.1524 -0.4179 -0.1225
 9200SOL    HW239237   2.204   0.387   9.405  0.2125  1.9514 -1.7822
 9201SOL     OW39238   4.222   3.480   7.768 -0.0850  0.1574  0.4345
 9201SOL    HW139239   4.213   3.528   7.686  0.0714 -2.0037 -0.8411
 9201SOL    HW239240   4.303   3.524   7.795  0.3991  0.2646 -1.2152
 9202SOL     OW39241   0.407   0.999   1.981  0.1282 -0.2243 -0.4903
 9202SOL    HW139242   0.352   1.077   1.975  1.1998  0.4996 -0.9572
 9202SOL    HW239243   0.401   0.967   1.891 -1.2410  0.7652 -0.7352
 9203SOL     OW39244   1.601   4.117   5.916  0.5389 -0.5076 -0.1519
 9203SOL    HW139245   1.519   4.165   5.926  1.0265  0.6053 -1.5278
 9203SOL    HW239246   1.591   4.094   5.824  0.2520 -0.3312 -0.1659
 9204SOL     OW39247   2.453   3.363   8.012  0.3534 -0.3892 -0.5657
 9204SOL    HW139248   2.506   3.332   7.938  0.3733 -0.0537 -0.6907
 9204SOL    HW239249   2.371   3.368   7.964  0.5290 -0.9541 -0.9258
 9205SOL     OW39250   2.973   4.123   6.792 -0.0203 -0.7594 -0.4561
 9205SOL    HW139251   2.980   4.033   6.761 -1.0266 -1.3844  1.1378
 9205SOL    HW239252   2.930   4.107   6.877  1.5171  0.7690  0.6114
 9206SOL     OW39253   3.788   3.784  16.011 -0.3617 -0.0280 -0.2833
 9206SOL    HW139254   3.725   3.850  15.984 -0.2799  0.5302  0.8829
 9206SOL    HW239255   3.764   3.767  16.102  0.4020 -1.0484 -0.2630
 9207SOL     OW39256   4.026   3.173   3.613  0.0800 -0.1103  0.1598
 9207SOL    HW139257   4.072   3.122   3.679  2.5761 -4.4093 -4.8260
 9207SOL    HW239258   4.063   3.261   3.622  0.6301 -0.0094 -2.8854
 9208SOL     OW39259   2.976   1.195   7.270 -0.6733 -0.4045 -0.0370
 9208SOL    HW139260   2.961   1.288   7.249 -0.9226 -0.2885  0.6383
 9208SOL    HW239261   2.921   1.141   7.212 -2.4633  2.0970 -0.7026
 9209SOL     OW39262   1.537   2.222   0.248  0.2181 -0.4877 -0.0317
 9209SOL    HW139263   1.589   2.211   0.168 -0.1221 -0.8419 -0.2048
 9209SOL    HW239264   1.569   2.157   0.311  2.2380  1.3593  0.8631
 9210SOL     OW39265   0.869   4.526   6.145 -0.2370 -0.0964 -0.0297
 9210SOL    HW139266   0.868   4.495   6.235  2.2447 -1.2728 -0.3967
 9210SOL    HW239267   0.858   4.618   6.171  1.0033 -0.5424  2.0214
 9211SOL     OW39268   3.406   3.391   4.259 -0.1112  0.0246 -0.1432
 9211SOL    HW139269   3.422   3.315   4.314  0.5902  1.0213  1.0392
 9211SOL    HW239270   3.495   3.425   4.246 -1.0336  2.2032 -0.8232
 9212SOL     OW39271   3.573   1.426   8.871 -0.6125  0.2021  0.2857
 9212SOL    HW139272   3.556   1.511   8.910 -0.0919 -0.6992  2.4528
 9212SOL    HW239273   3.669   1.429   8.870 -0.5391 -1.9501  0.8345
 9213SOL     OW39274   4.398   4.148  13.789 -0.4947 -0.1639  0.0482
 9213SOL    HW139275   4.454   4.193  13.725 -2.8857  2.7643  0.0231
 9213SOL    HW239276   4.357   4.223  13.831 -0.1423  0.4445 -0.6884
 9214SOL     OW39277   2.041   3.846   8.643 -0.1119  0.2480 -0.2690
 9214SOL    HW139278   1.955   3.885   8.660 -0.4106  0.1963 -1.6793
 9214SOL    HW239279   2.104   3.913   8.619 -1.9883  1.7283 -1.0172
 9215SOL     OW39280   0.564   2.659   7.469 -0.0649 -0.1694 -0.1241
 9215SOL    HW139281   0.560   2.633   7.377 -0.9639  0.3261 -0.2161
 9215SOL    HW239282   0.593   2.750   7.471 -1.7109  0.3262  1.1100
 9216SOL     OW39283   3.628   0.460   2.048 -0.1576  0.5351  0.1769
 9216SOL    HW139284   3.659   0.526   2.111  1.7058 -0.9610  0.8140
 9216SOL    HW239285   3.668   0.377   2.074  0.6668  1.3201  1.3986
 9217SOL     OW39286   3.042   1.934   4.988 -0.0556 -0.2696  0.0747
 9217SOL    HW139287   3.078   1.934   4.900 -0.2190 -1.6149  0.0059
 9217SOL    HW239288   2.966   1.875   4.984 -0.9050  0.9569 -1.7522
 9218SOL     OW39289   3.879   4.008   5.636 -0.6870 -0.4234 -0.6254
 9218SOL    HW139290   3.861   3.957   5.715 -2.3921  1.6046  0.2980
 9218SOL    HW239291   3.879   4.095   5.677  0.4356 -0.0532 -1.4039
 9219SOL     OW39292   1.162   4.737   1.931  0.2183  0.4281  0.1259
 9219SOL    HW139293   1.129   0.074   1.977  0.9906 -0.1216  1.5965
 9219SOL    HW239294   1.234   0.027   1.876  0.6995  0.0736  0.5660
 9220SOL     OW39295   0.244   1.333  16.523  0.1022  0.2192  0.2815
 9220SOL    HW139296   0.166   1.324  16.467 -0.5898 -0.0000  1.2906
 9220SOL    HW239297   0.202   1.387  16.590 -1.8343  0.2870 -0.9776
 9221SOL     OW39298   2.087   3.913   1.809  0.0386  0.0998  0.1285
 9221SOL    HW139299   2.020   3.974   1.841 -0.7651  0.6068 -2.5086
 9221SOL    HW239300   2.042   3.857   1.746 -0.0203 -1.0314  1.1791
 9222SOL     OW39301   0.937   2.439   0.972 -0.4070  0.0494  0.1734
 9222SOL    HW139302   0.989   2.363   1.000  2.1923  2.0279  0.7291
 9222SOL    HW239303   0.869   2.396   0.920 -0.1219  0.0426 -0.1970
 9223SOL     OW39304   3.831   2.421   3.389  0.4110 -0.1116  0.1433
 9223SOL    HW139305   3.846   2.514   3.372  1.9552 -0.5548 -0.9105
 9223SOL    HW239306   3.829   2.383   3.301  0.0124 -0.6213  0.3711
 9224SOL     OW39307   2.821   2.048   7.824 -0.1401  0.1322 -0.3285
 9224SOL    HW139308   2.914   2.072   7.832  0.0254 -0.5129 -0.3028
 9224SOL    HW239309   2.777   2.103   7.889 -0.4430 -1.3398  0.7231
 9225SOL     OW39310   0.377   2.729   4.890 -0.1368 -0.4987 -0.2465
 9225SOL    HW139311   0.455   2.675   4.880 -0.1814 -0.5185 -0.4855
 9225SOL    HW239312   0.417   2.793   4.948 -1.5893  0.8738 -0.7695
 9226SOL     OW39313   4.215   3.387  16.516  0.0191  0.5046 -0.4894
 9226SOL    HW139314   4.131   3.418  16.482 -0.4822 -0.6751 -0.3328
 9226SOL    HW239315   4.259   3.358  16.435  1.9446 -1.0877  1.1295
 9227SOL     OW39316   3.947   4.325  10.442 -0.1956  1.1108  0.3730
 9227SOL    HW139317   4.017   4.378  10.481 -0.7136  0.7279  1.8239
 9227SOL    HW239318   3.910   4.286  10.521 -3.5423 -0.0399 -1.7590
 9228SOL     OW39319   0.697   1.159  10.936  0.4213 -0.2524  0.0601
 9228SOL    HW139320   0.682   1.158  10.841  0.1753 -0.9164  0.1057
 9228SOL    HW239321   0.650   1.084  10.972 -0.3125  1.8309  3.4213
 9229SOL     OW39322   4.612   2.006   3.108  0.5467  0.1430  0.3631
 9229SOL    HW139323   4.656   1.982   3.026 -0.3372 -0.8460  0.1696
 9229SOL    HW239324   4.676   1.985   3.176  2.3272  1.1647 -0.9800
 9230SOL     OW39325   2.850   1.102   2.788 -0.0283  0.1267 -0.4675
 9230SOL    HW139326   2.818   1.041   2.854 -0.1268 -1.1777 -1.7168
 9230SOL    HW239327   2.814   1.178   2.832 -1.4806  0.2584 -1.8973
 9231SOL     OW39328   2.020   0.326   2.417 -0.3613  0.3023 -0.3418
 9231SOL    HW139329   1.957   0.395   2.440 -0.8110 -0.2608  0.1002
 9231SOL    HW239330   1.979   0.304   2.334 -1.3534  0.7013  0.0419
 9232SOL     OW39331   4.262   1.379   6.964  0.3779 -0.3735 -0.2624
 9232SOL    HW139332   4.325   1.315   6.931  0.2730 -1.0918  0.9006
 9232SOL    HW239333   4.298   1.460   6.929 -0.8906  0.2312 -0.1689
 9233SOL     OW39334   3.836   4.652   3.466 -0.0147 -0.0375  0.2708
 9233SOL    HW139335   3.882   4.735   3.474  0.0268  0.2802 -3.0419
 9233SOL    HW239336   3.829   4.653   3.370  1.4683 -1.3333  0.1371
 9234SOL     OW39337   4.160   0.133   5.456 -0.1506  0.0036  0.8483
 9234SOL    HW139338   4.195   0.153   5.369  0.8951 -0.1723  1.2250
 9234SOL    HW239339   4.091   0.066   5.450 -1.0073  1.0006 -0.3910
 9235SOL     OW39340   2.832   3.825   4.527  0.5628 -0.2163 -0.0522
 9235SOL    HW139341   2.786   3.820   4.611  0.5896 -0.9927 -0.0816
 9235SOL    HW239342   2.814   3.742   4.483 -0.9102 -0.4542  0.9908
 9236SOL     OW39343   3.731   4.176   5.125 -0.1486  0.8400  0.3880
 9236SOL    HW139344   3.760   4.194   5.214  0.2113  2.7826 -0.1303
 9236SOL    HW239345   3.636   4.186   5.127 -0.1751  0.6682  0.0393
 9237SOL     OW39346   2.900   1.305   5.847 -0.2703 -0.0378 -0.3947
 9237SOL    HW139347   2.857   1.369   5.791  1.4797 -0.9015 -2.7289
 9237SOL    HW239348   2.970   1.351   5.892  0.2180 -0.6395 -0.5504
 9238SOL     OW39349   4.465   1.150   5.192 -0.0086 -0.1173  0.3466
 9238SOL    HW139350   4.535   1.113   5.139 -0.8652  1.4771 -1.9451
 9238SOL    HW239351   4.421   1.209   5.130  1.1468  1.6674  1.2212
 9239SOL     OW39352   1.192   2.437  10.098 -0.4911 -0.0776  0.0114
 9239SOL    HW139353   1.248   2.478  10.163 -1.3964 -2.2764  2.1836
 9239SOL    HW239354   1.240   2.366  10.055 -1.2616 -1.0320  0.7043
 9240SOL     OW39355   4.245   0.915   2.316  0.3851 -0.0902 -0.1604
 9240SOL    HW139356   4.292   0.926   2.234  0.3202  2.0174  0.0858
 9240SOL    HW239357   4.162   0.892   2.274 -1.0527  1.8617  1.6303
 9241SOL     OW39358   4.201   2.122   9.086 -0.1520  0.0875 -0.2342
 9241SOL    HW139359   4.214   2.029   9.103 -1.6400 -0.3818 -1.6877
 9241SOL    HW239360   4.289   2.154   9.066  0.0333  0.2334  0.7857
 9242SOL     OW39361   2.876   3.477   6.771  0.4362  0.1879 -0.5594
 9242SOL    HW139362   2.870   3.444   6.682  0.9880 -0.6233 -0.3053
 9242SOL    HW239363   2.797   3.531   6.768  0.1948 -0.0126  2.1300
 9243SOL     OW39364   3.537   4.326  10.415 -0.5464 -0.5441 -0.1806
 9243SOL    HW139365   3.609   4.282  10.370  1.5497  1.9691  0.6811
 9243SOL    HW239366   3.540   4.407  10.364  2.1813  0.7260  1.9399
 9244SOL     OW39367   4.654   3.357  16.141 -0.6739 -0.3703 -0.2118
 9244SOL    HW139368   4.675   3.369  16.234 -2.1752 -0.2592  0.1168
 9244SOL    HW239369   4.612   3.271  16.143 -2.1005  0.3905  2.6379
 9245SOL     OW39370   1.119   1.519   1.416  0.3601  0.0418  0.1507
 9245SOL    HW139371   1.134   1.469   1.496 -0.6744  0.7549  0.7946
 9245SOL    HW239372   1.200   1.569   1.426  0.6786 -0.5754  0.7268
 9246SOL     OW39373   0.097   3.763  17.232  0.2326  0.5117 -1.0534
 9246SOL    HW139374   0.097   3.820  17.156 -0.3222 -1.6641 -2.6877
 9246SOL    HW239375   0.078   3.823  17.305 -1.5842  0.0745 -1.1462
 9247SOL     OW39376   4.690   2.153   1.951  0.1272 -0.0407  0.2687
 9247SOL    HW139377   4.731   2.083   1.901  0.5971  0.3541  0.1005
 9247SOL    HW239378   4.663   2.106   2.030  2.3922 -2.4317 -0.3969
 9248SOL     OW39379   0.979   3.440   1.279 -0.2799  0.1571  0.6234
 9248SOL    HW139380   1.039   3.391   1.336 -0.9348  0.4154  1.5375
 9248SOL    HW239381   0.904   3.443   1.339 -0.7421 -2.4219  0.1894
 9249SOL     OW39382   2.874   2.263   8.205  0.1926  0.5602 -0.0164
 9249SOL    HW139383   2.945   2.308   8.161  0.7718 -0.3003  0.0274
 9249SOL    HW239384   2.838   2.338   8.252  1.6183  2.0832 -1.4066
 9250SOL     OW39385   2.852   2.930  14.533 -0.1546 -0.0030 -0.2342
 9250SOL    HW139386   2.776   2.916  14.590  0.4402  0.3866  0.6712
 9250SOL    HW239387   2.856   2.850  14.482  0.5422  1.0758 -1.8588
 9251SOL     OW39388   1.479   0.491   7.681 -0.9494 -0.0736  0.0049
 9251SOL    HW139389   1.563   0.525   7.649 -0.5677 -0.3141  0.7486
 9251SOL    HW239390   1.441   0.568   7.722 -0.1913  0.6399 -0.6146
 9252SOL     OW39391   2.552   0.684   6.784  0.1070 -0.2975 -0.2902
 9252SOL    HW139392   2.564   0.606   6.729 -0.9296 -0.7569  0.1345
 9252SOL    HW239393   2.460   0.684   6.811 -0.1983 -0.1046 -1.3188
 9253SOL     OW39394   2.716   4.163   6.112  0.5504 -0.0200  0.0701
 9253SOL    HW139395   2.652   4.191   6.178  0.2905  0.4655 -0.3816
 9253SOL    HW239396   2.697   4.071   6.126  0.9299 -0.1367 -0.1984
 9254SOL     OW39397   1.969   1.394   6.991  0.3133 -0.0837 -0.3727
 9254SOL    HW139398   2.023   1.386   6.913 -1.3469 -1.0848 -1.4101
 9254SOL    HW239399   1.937   1.305   7.009  1.0199  0.2677  2.6771
 9255SOL     OW39400   3.851   1.748   4.969  0.7729 -0.0399  0.0449
 9255SOL    HW139401   3.862   1.703   5.053 -0.7497  1.0181  0.8030
 9255SOL    HW239402   3.786   1.815   4.990  0.9839  0.9796 -2.4852
 9256SOL     OW39403   2.777   2.667   7.337  0.1420 -0.5727 -0.1768
 9256SOL    HW139404   2.827   2.586   7.339 -1.3304 -1.4141  3.0505
 9256SOL    HW239405   2.835   2.729   7.293 -0.8480  0.7386  0.3295
 9257SOL     OW39406   2.530   0.900   7.127  0.4537  0.1000 -0.1337
 9257SOL    HW139407   2.585   0.826   7.102 -1.2543 -0.9513 -0.7622
 9257SOL    HW239408   2.526   0.963   7.055  0.8959  1.8590  1.3497
 9258SOL     OW39409   3.932   3.894   2.836 -0.3803  0.3018  0.2559
 9258SOL    HW139410   3.916   3.881   2.930 -2.1340  0.1509 -0.0555
 9258SOL    HW239411   3.885   3.819   2.798 -0.5884  1.1174 -1.1052
 9259SOL     OW39412   1.103   0.820  16.365  0.1043  1.1365  0.5110
 9259SOL    HW139413   1.152   0.739  16.350 -1.0522  0.5193  0.0959
 9259SOL    HW239414   1.170   0.885  16.341  1.6812 -0.5411  0.3658
 9260SOL     OW39415   0.659   4.491   1.886  0.1457  0.2003 -0.2287
 9260SOL    HW139416   0.735   4.461   1.935 -0.1735  1.2489  0.8927
 9260SOL    HW239417   0.581   4.460   1.932  1.6790 -1.6512  1.0945
 9261SOL     OW39418   2.391   4.486   5.781  0.1956  0.3851  0.0520
 9261SOL    HW139419   2.351   4.572   5.767  0.3446  0.6543  1.2745
 9261SOL    HW239420   2.383   4.442   5.697  0.3933 -2.4642  1.4973
 9262SOL     OW39421   3.057   2.328  12.409 -0.7168  0.2315  0.2471
 9262SOL    HW139422   3.144   2.365  12.420 -1.4434  2.4292 -1.2225
 9262SOL    HW239423   3.068   2.239  12.441 -0.8553 -0.5026 -1.7381
 9263SOL     OW39424   1.267   0.383   8.243  0.5469 -0.2041  0.1591
 9263SOL    HW139425   1.331   0.415   8.307  0.3883 -1.4346  0.9306
 9263SOL    HW239426   1.231   0.460   8.199 -2.2856 -1.1862  0.7439
 9264SOL     OW39427   3.715   4.019  13.609 -0.2339 -0.1287 -0.2537
 9264SOL    HW139428   3.805   4.022  13.641  0.2662  2.7032 -1.9296
 9264SOL    HW239429   3.699   3.925  13.619  1.4181 -0.4143 -0.3939
 9265SOL     OW39430   1.819   3.491  15.472 -0.8661  0.0012 -0.9329
 9265SOL    HW139431   1.907   3.526  15.457  0.0974 -2.4929 -1.1059
 9265SOL    HW239432   1.833   3.396  15.469  1.0060  0.2562 -0.4920
 9266SOL     OW39433   1.510   4.079   2.311 -0.6101 -0.4210 -0.1741
 9266SOL    HW139434   1.587   4.136   2.304 -0.7173 -0.1314  0.9895
 9266SOL    HW239435   1.436   4.128   2.347  0.8857 -0.1335  2.5371
 9267SOL     OW39436   2.400   2.651   3.110 -0.7874  0.0042  0.0433
 9267SOL    HW139437   2.336   2.580   3.117 -0.7612  0.0259  0.5150
 9267SOL    HW239438   2.478   2.600   3.090  1.0368  1.8081  2.5765
 9268SOL     OW39439   0.931   0.870   4.753  0.5672 -0.0018 -0.0839
 9268SOL    HW139440   0.926   0.778   4.780 -0.6598  0.8716  2.7184
 9268SOL    HW239441   1.021   0.889   4.781  0.1237 -1.2621  2.1574
 9269SOL     OW39442   4.541   3.090   1.037  0.0007 -0.6516 -0.5763
 9269SOL    HW139443   4.462   3.144   1.034  0.8963  0.7223  0.5035
 9269SOL    HW239444   4.569   3.119   1.124  0.2165  2.0551 -1.5490
 9270SOL     OW39445   1.482   2.082   3.007 -0.3209 -0.6077 -0.7362
 9270SOL    HW139446   1.459   2.010   2.947 -0.7054  0.0980 -1.4286
 9270SOL    HW239447   1.561   2.110   2.961  0.6183 -0.4092  1.0120
 9271SOL     OW39448   4.267   0.255   3.213 -0.0218  0.1664  0.0933
 9271SOL    HW139449   4.317   0.335   3.199 -1.1212  0.9668  0.7268
 9271SOL    HW239450   4.269   0.211   3.127 -0.7586 -0.4498  0.3875
 9272SOL     OW39451   2.336   2.086   2.391  0.1400 -0.0553 -0.0970
 9272SOL    HW139452   2.252   2.127   2.414  0.6591 -0.2003  2.0478
 9272SOL    HW239453   2.307   2.011   2.339 -2.5881 -0.0828  1.4219
 9273SOL     OW39454   4.441   4.446   7.742  0.6389 -0.5892  0.0632
 9273SOL    HW139455   4.391   4.405   7.672  0.3510  1.9089 -1.1775
 9273SOL    HW239456   4.397   4.529   7.762  0.9241 -0.9765  2.3531
 9274SOL     OW39457   3.486   4.462   7.139 -0.4115  0.1215  0.3620
 9274SOL    HW139458   3.416   4.402   7.112 -0.3570  0.8967 -1.5458
 9274SOL    HW239459   3.443   4.548   7.133  1.3019  0.7867 -2.4989
 9275SOL     OW39460   0.250   1.750   8.039  0.1001 -0.5867  0.4072
 9275SOL    HW139461   0.310   1.731   7.967  0.4521 -0.3801  0.6473
 9275SOL    HW239462   0.276   1.841   8.055  0.5844 -0.8249  0.9804
 9276SOL     OW39463   1.866   4.088   1.836 -0.0563  0.0416 -0.3139
 9276SOL    HW139464   1.903   4.131   1.759  1.1506  2.2695  1.5080
 9276SOL    HW239465   1.861   4.154   1.906  0.4272 -2.6025  2.2190
 9277SOL     OW39466   0.170   0.657   7.161 -0.0242  0.4524  0.1407
 9277SOL    HW139467   0.258   0.625   7.181  0.1467  0.2187 -0.9828
 9277SOL    HW239468   0.183   0.714   7.085  1.5467  0.0158  0.0865
 9278SOL     OW39469   1.559   2.028   3.307 -0.8865  0.1457 -0.3671
 9278SOL    HW139470   1.531   2.003   3.219 -1.7026  0.9949 -0.3518
 9278SOL    HW239471   1.563   1.937   3.339 -2.1380  0.4072  0.5678
 9279SOL     OW39472   3.090   2.135   0.583 -0.7507 -0.3494 -0.2420
 9279SOL    HW139473   3.136   2.215   0.608  0.2999 -0.4563 -1.8521
 9279SOL    HW239474   3.111   2.117   0.491  2.1526  2.9442 -0.2251
 9280SOL     OW39475   3.772   4.582   2.334  0.5928 -0.1455 -0.3176
 9280SOL    HW139476   3.680   4.556   2.338  0.9018 -1.1514  0.2434
 9280SOL    HW239477   3.771   4.591   2.239  2.2536  0.3753 -0.2918
 9281SOL     OW39478   2.461   2.644   9.443 -0.4281  0.0509 -0.1482
 9281SOL    HW139479   2.483   2.556   9.472  1.2186  0.9468  1.3190
 9281SOL    HW239480   2.401   2.679   9.509 -0.5617  1.6872 -1.1207
 9282SOL     OW39481   0.614   3.967   7.903  0.1241  0.7533 -0.4901
 9282SOL    HW139482   0.544   3.902   7.899  1.2928 -0.5329  0.0799
 9282SOL    HW239483   0.609   4.011   7.818 -1.8562  2.4972  0.4994
 9283SOL     OW39484   0.177   4.645   3.088  0.1793 -0.6120 -0.1158
 9283SOL    HW139485   0.223   4.685   3.014 -1.0817 -0.1641 -0.6725
 9283SOL    HW239486   0.100   4.700   3.105 -0.8686 -1.8164 -0.9197
 9284SOL     OW39487   3.625   4.361   3.422 -0.2363 -0.0355  0.1876
 9284SOL    HW139488   3.548   4.352   3.478  1.0863  0.6969  2.1160
 9284SOL    HW239489   3.687   4.392   3.488  1.0358  0.8564 -1.4106
 9285SOL     OW39490   2.429   2.937   1.367 -0.0036  0.1991  0.2297
 9285SOL    HW139491   2.451   2.903   1.454  0.2355  0.2079  0.1747
 9285SOL    HW239492   2.510   2.974   1.332 -0.7203  0.1444 -1.4525
 9286SOL     OW39493   0.959   2.167   4.643  0.1056  0.6892  0.0308
 9286SOL    HW139494   1.008   2.241   4.607  0.9967  0.4642  0.7931
 9286SOL    HW239495   0.965   2.112   4.565  0.2865  1.7923 -0.7384
 9287SOL     OW39496   3.650   3.007  12.442  0.3784 -0.2948 -0.4671
 9287SOL    HW139497   3.687   2.962  12.519 -0.5197 -0.1497  0.0466
 9287SOL    HW239498   3.660   2.944  12.370 -2.0241 -0.1460 -0.9193
 9288SOL     OW39499   3.724   3.742   1.667 -0.0131 -0.2070  0.0383
 9288SOL    HW139500   3.768   3.729   1.583 -2.9747  1.4547 -1.7530
 9288SOL    HW239501   3.656   3.676   1.655  0.5321 -0.6963 -0.3569
 9289SOL     OW39502   2.917   0.178   8.270 -0.1574  0.0991  0.0551
 9289SOL    HW139503   2.913   0.164   8.364  1.8277  3.3275  0.6099
 9289SOL    HW239504   2.825   0.178   8.242 -0.1783 -1.8367  0.1863
 9290SOL     OW39505   4.034   1.843   3.453 -0.2164 -0.8715  0.4358
 9290SOL    HW139506   4.076   1.898   3.519 -0.8525  1.0979 -0.8083
 9290SOL    HW239507   4.100   1.774   3.461  1.4920  0.1172 -5.4063
 9291SOL     OW39508   2.032   1.590  16.244  0.1571  0.2419 -0.0542
 9291SOL    HW139509   2.073   1.587  16.157 -2.4231  1.0799 -1.3145
 9291SOL    HW239510   1.940   1.574  16.221  0.0276 -0.8738  1.3098
 9292SOL     OW39511   3.724   3.226   3.915 -0.9327  0.2815  0.0478
 9292SOL    HW139512   3.741   3.134   3.933  0.8339  0.4833 -0.6275
 9292SOL    HW239513   3.700   3.221   3.823  0.3750 -0.3100 -0.2629
 9293SOL     OW39514   3.165   4.174   8.854 -0.1509  0.1048  0.1038
 9293SOL    HW139515   3.124   4.088   8.867  1.5925 -0.6227  0.8785
 9293SOL    HW239516   3.178   4.168   8.759 -0.8571  1.7176 -0.0961
 9294SOL     OW39517   1.226   0.755   4.340 -0.3321 -0.0851 -0.8465
 9294SOL    HW139518   1.131   0.762   4.334 -0.4421 -0.7999 -0.0299
 9294SOL    HW239519   1.240   0.755   4.435 -0.3223  0.1096 -0.8482
 9295SOL     OW39520   0.539   0.852   0.700  0.0410  0.0589  0.1618
 9295SOL    HW139521   0.494   0.858   0.784  2.3997  0.2691  1.3950
 9295SOL    HW239522   0.625   0.885   0.724 -0.8572  1.6115  1.2539
 9296SOL     OW39523   4.344   2.781   6.115 -0.0513 -0.5380 -0.2112
 9296SOL    HW139524   4.362   2.722   6.188 -1.4033 -2.2705 -1.2966
 9296SOL    HW239525   4.327   2.869   6.149  1.5859 -0.7510  1.1486
 9297SOL     OW39526   4.389   0.252   3.438 -0.0637  0.1037 -0.0965
 9297SOL    HW139527   4.450   0.179   3.449 -1.6050 -1.2766 -0.6934
 9297SOL    HW239528   4.360   0.250   3.346 -0.3572  1.4035 -0.0384
 9298SOL     OW39529   0.028   4.651   4.335  0.1233 -0.3478  0.0682
 9298SOL    HW139530   0.061   4.725   4.387 -0.0027  0.4093 -0.9170
 9298SOL    HW239531   4.675   4.671   4.336  0.1930  0.1403 -1.9433
 9299SOL     OW39532   2.941   3.833   4.218  0.2503  0.4705  0.5301
 9299SOL    HW139533   2.890   3.858   4.295 -1.0091  1.5225 -0.6491
 9299SOL    HW239534   2.974   3.751   4.256  2.4891  0.8641 -0.5904
 9300SOL     OW39535   3.461   4.102   8.450 -0.2027 -0.2130 -0.1254
 9300SOL    HW139536   3.414   4.028   8.410  0.4320 -0.6991  0.0198
 9300SOL    HW239537   3.544   4.099   8.403  2.1768  2.9081  3.9377
 9301SOL     OW39538   0.745   1.010   0.769 -0.2747  0.0147  0.1686
 9301SOL    HW139539   0.725   1.031   0.678 -0.7719 -1.1990  0.0027
 9301SOL    HW239540   0.821   1.067   0.779 -0.2256  0.1239 -0.8930
 9302SOL     OW39541   4.567   1.453   8.798  0.7064 -0.3580 -0.2095
 9302SOL    HW139542   4.493   1.403   8.834  0.9526  1.2245  2.5262
 9302SOL    HW239543   4.516   1.522   8.756 -0.4003 -1.0937 -0.0797
 9303SOL     OW39544   0.778   3.819   7.229  0.2929 -0.2300 -0.0747
 9303SOL    HW139545   0.786   3.746   7.290 -0.6348  1.9414  2.6277
 9303SOL    HW239546   0.729   3.783   7.155  0.1980 -0.1374 -0.0570
 9304SOL     OW39547   1.782   2.295   4.064 -0.0559 -0.0219 -0.4406
 9304SOL    HW139548   1.737   2.293   4.149 -1.4394  1.0994 -1.1425
 9304SOL    HW239549   1.721   2.344   4.009 -2.0032  0.5001  2.2122
 9305SOL     OW39550   3.945   2.347  12.865  0.0867 -0.3740  0.1337
 9305SOL    HW139551   3.981   2.298  12.939  1.5293 -0.4686 -0.6234
 9305SOL    HW239552   4.008   2.419  12.859  0.3452 -0.7090 -1.0357
 9306SOL     OW39553   0.919   0.630   4.844  0.2534 -0.1196 -0.2619
 9306SOL    HW139554   0.970   0.552   4.821 -2.2295 -1.5648 -0.9572
 9306SOL    HW239555   0.829   0.603   4.824 -1.2593  2.4253  3.3330
 9307SOL     OW39556   2.730   1.863   8.009 -0.2072 -0.1971 -0.2964
 9307SOL    HW139557   2.753   1.907   8.091  0.2929 -0.8348 -0.0890
 9307SOL    HW239558   2.762   1.931   7.951 -0.5461  0.7188  0.5856
 9308SOL     OW39559   1.036   3.860   8.928  0.1313  0.0746  0.1415
 9308SOL    HW139560   0.999   3.813   9.003  0.2278  0.4079  0.3970
 9308SOL    HW239561   1.096   3.929   8.956  0.8038 -0.4465 -0.0199
 9309SOL     OW39562   0.776   3.497  11.698 -0.3762  0.6373 -0.2318
 9309SOL    HW139563   0.785   3.412  11.655  0.4916  0.6834 -0.1284
 9309SOL    HW239564   0.756   3.551  11.621 -0.1509  2.4530  1.0027
 9310SOL     OW39565   3.810   0.738   7.497 -0.4071 -0.0069  0.1133
 9310SOL    HW139566   3.864   0.703   7.568 -0.3382  1.5187  0.7998
 9310SOL    HW239567   3.841   0.828   7.501 -0.4075 -0.1207  3.0556
 9311SOL     OW39568   1.067   3.206   7.193 -0.1595 -0.1281  0.7971
 9311SOL    HW139569   0.979   3.228   7.160  1.4821  1.4857 -2.4959
 9311SOL    HW239570   1.120   3.277   7.157 -2.1259  0.5218 -0.8304
 9312SOL     OW39571   0.291   1.098  15.505  0.2197  0.0332  0.3700
 9312SOL    HW139572   0.279   1.153  15.582  2.7861 -0.0790  0.8635
 9312SOL    HW239573   0.376   1.134  15.479  0.2564  0.3537  0.9365
 9313SOL     OW39574   1.559   1.468  12.517  0.0874 -0.4944 -0.2182
 9313SOL    HW139575   1.608   1.408  12.460  0.9782 -1.6850  1.8165
 9313SOL    HW239576   1.495   1.501  12.455 -0.5705  1.5410  1.5582
 9314SOL     OW39577   3.873   1.022   7.024  0.0355  0.0297 -0.0640
 9314SOL    HW139578   3.930   1.099   7.031 -0.5296  0.5189 -0.9161
 9314SOL    HW239579   3.810   1.051   6.958  0.5515  0.7013 -0.2653
 9315SOL     OW39580   0.164   1.098   2.393  0.5988 -0.2019  0.3429
 9315SOL    HW139581   0.193   1.030   2.455 -0.3031 -0.7762  0.1421
 9315SOL    HW239582   0.077   1.061   2.374  0.0426  2.2062 -1.7177
 9316SOL     OW39583   1.893   2.261   8.410 -0.3835 -0.1811 -0.0506
 9316SOL    HW139584   1.831   2.314   8.460 -0.8691  0.0317 -0.8823
 9316SOL    HW239585   1.970   2.284   8.463 -0.8172  0.4608  0.3008
 9317SOL     OW39586   4.312   1.379   2.235  0.0565  0.7139  0.0871
 9317SOL    HW139587   4.316   1.372   2.140 -2.6030 -0.9024  0.0835
 9317SOL    HW239588   4.225   1.347   2.260 -0.3060  0.5706 -1.3700
 9318SOL     OW39589   3.845   0.650   1.458 -0.0492  0.1322  0.2564
 9318SOL    HW139590   3.898   0.718   1.499 -0.4772  0.4888  0.2075
 9318SOL    HW239591   3.786   0.639   1.532 -0.4580 -2.7994 -0.4953
 9319SOL     OW39592   3.056   3.353   6.079  0.0963 -0.7682  0.1024
 9319SOL    HW139593   3.029   3.381   6.166 -1.1483 -1.5871 -0.0141
 9319SOL    HW239594   3.085   3.440   6.050  1.6609 -1.0009  0.9628
 9320SOL     OW39595   0.752   1.178   5.072 -0.0839  0.1817  0.0302
 9320SOL    HW139596   0.674   1.230   5.054  0.7639  0.4596 -2.7548
 9320SOL    HW239597   0.777   1.202   5.162 -3.2505  0.4411  0.8481
 9321SOL     OW39598   4.580   0.014   0.266 -0.2950  0.1032  0.4977
 9321SOL    HW139599   4.600   4.666   0.297 -0.1687 -0.0699 -0.0892
 9321SOL    HW239600   4.491   0.032   0.298 -1.3192 -0.6213 -1.9569
 9322SOL     OW39601   4.561   1.007   1.821  0.1915  0.0074 -0.2955
 9322SOL    HW139602   4.622   1.001   1.895 -0.2557  0.0981  0.0776
 9322SOL    HW239603   4.566   0.914   1.796 -2.6422  0.5775 -2.9023
 9323SOL     OW39604   1.325   0.301   9.817 -0.1265  0.4753 -0.3454
 9323SOL    HW139605   1.251   0.248   9.786 -0.4495 -0.2891  1.7306
 9323SOL    HW239606   1.362   0.244   9.883 -2.3551 -0.3805  0.1580
 9324SOL     OW39607   1.980   2.215   3.870  0.4019 -0.2750  0.6056
 9324SOL    HW139608   1.994   2.262   3.787 -2.0940 -0.8241 -0.1066
 9324SOL    HW239609   1.888   2.236   3.885  0.5117  0.6107  0.0849
 9325SOL     OW39610   0.962   2.023  14.385 -0.1215 -0.1875 -0.6016
 9325SOL    HW139611   0.914   1.985  14.312 -0.6227  0.5245 -0.6449
 9325SOL    HW239612   0.980   2.105  14.339  0.6764  0.0788  0.1671
 9326SOL     OW39613   2.385   0.734   7.764 -0.2386 -0.1129 -0.4864
 9326SOL    HW139614   2.361   0.642   7.775  2.2534 -0.4991  1.9247
 9326SOL    HW239615   2.434   0.748   7.845 -1.6486 -0.2470  0.3778
 9327SOL     OW39616   1.301   0.519   3.454  0.2548 -0.2172  0.5490
 9327SOL    HW139617   1.218   0.519   3.500  0.3705 -1.7756  0.7558
 9327SOL    HW239618   1.262   0.516   3.367  2.3517  0.2045 -0.4186
 9328SOL     OW39619   0.831   3.752   3.110 -0.0534  0.6982 -0.3790
 9328SOL    HW139620   0.865   3.663   3.100  0.0600  0.5115  1.6330
 9328SOL    HW239621   0.755   3.751   3.052  1.3343  0.3237 -2.2084
 9329SOL     OW39622   0.723   2.936   7.776 -0.3730 -0.1012  0.2922
 9329SOL    HW139623   0.736   2.932   7.871  2.5684  0.4362 -0.0768
 9329SOL    HW239624   0.712   3.031   7.767 -0.7078 -0.0085  1.6706
 9330SOL     OW39625   3.914   2.907   5.341  0.2342 -0.1686 -0.5153
 9330SOL    HW139626   3.873   2.943   5.263 -1.7770  1.4483  1.2928
 9330SOL    HW239627   3.923   2.991   5.386 -0.7299 -1.0195  1.2801
 9331SOL     OW39628   3.613   1.499   2.590  0.2561 -0.0487  0.9089
 9331SOL    HW139629   3.524   1.531   2.606  0.1832  1.0018 -1.5467
 9331SOL    HW239630   3.638   1.566   2.526  0.5122  0.6896  1.7905
 9332SOL     OW39631   3.164   0.661  12.891 -0.2559 -0.3692  0.1709
 9332SOL    HW139632   3.113   0.642  12.970 -1.0738  2.0927  0.2346
 9332SOL    HW239633   3.133   0.746  12.859 -0.9930 -0.4893  0.5504
 9333SOL     OW39634   0.672   1.851   1.180  0.4085 -0.7651  0.7981
 9333SOL    HW139635   0.691   1.912   1.252  1.7507 -0.4248  0.1532
 9333SOL    HW239636   0.576   1.849   1.187  0.5498 -2.4287  2.2368
 9334SOL     OW39637   4.015   3.893   9.033  0.0920  0.6049 -0.4457
 9334SOL    HW139638   4.052   3.847   8.958 -0.5884  0.1347 -0.4937
 9334SOL    HW239639   3.963   3.817   9.058 -1.5553  1.4067 -1.4085
 9335SOL     OW39640   2.560   1.401   2.055 -0.0179  0.1130  0.2135
 9335SOL    HW139641   2.558   1.394   1.960  1.7771  1.7631  0.0618
 9335SOL    HW239642   2.535   1.491   2.075  0.2687  0.1583  0.3768
 9336SOL     OW39643   3.652   0.610   2.743 -0.6866  0.1884  0.3543
 9336SOL    HW139644   3.579   0.551   2.762 -0.1913 -0.5848 -0.1262
 9336SOL    HW239645   3.605   0.694   2.745 -2.3338 -0.6789 -0.8722
 9337SOL     OW39646   1.792   4.012   5.505 -0.0929 -0.2452 -0.4225
 9337SOL    HW139647   1.743   3.976   5.431  3.0092 -1.9740 -1.6042
 9337SOL    HW239648   1.865   3.951   5.505  0.4507  0.4127 -1.2739
 9338SOL     OW39649   4.512   0.397  14.569 -0.4496 -0.0140 -0.1928
 9338SOL    HW139650   4.562   0.318  14.548 -0.8849 -0.9440  2.3420
 9338SOL    HW239651   4.576   0.452  14.615 -1.5737  1.5945 -0.5411
 9339SOL     OW39652   3.816   4.651   6.290  0.2406  0.4344  0.2788
 9339SOL    HW139653   3.759   4.579   6.315 -0.5601  1.7388  2.2324
 9339SOL    HW239654   3.810   4.667   6.196 -0.2251  1.9350  0.5515
 9340SOL     OW39655   1.250   0.517   7.523  0.1928  0.3205  0.6765
 9340SOL    HW139656   1.294   0.507   7.607 -1.1798  0.6449  1.4352
 9340SOL    HW239657   1.229   0.611   7.524 -0.4373  0.1758  0.7773
 9341SOL     OW39658   2.044   1.987   7.983 -0.3041  0.6665  0.1127
 9341SOL    HW139659   2.132   2.001   8.017 -0.1627  1.1335 -0.4374
 9341SOL    HW239660   1.994   2.012   8.061  1.7177  1.0179  1.2765
 9342SOL     OW39661   1.331   2.248   4.907  0.3760  0.1234  0.2394
 9342SOL    HW139662   1.319   2.175   4.968 -0.7543 -0.2684 -0.4346
 9342SOL    HW239663   1.415   2.280   4.939  0.3075  0.4836  0.0608
 9343SOL     OW39664   1.124   4.001   2.903 -0.1640  0.2111  0.4370
 9343SOL    HW139665   1.169   3.917   2.892 -1.2859 -0.2216 -0.8276
 9343SOL    HW239666   1.155   4.016   2.993 -0.8454 -0.9188  0.8598
 9344SOL     OW39667   3.487   2.538   7.561  0.2847 -0.4934  0.0283
 9344SOL    HW139668   3.435   2.473   7.514 -1.1127 -1.3837  2.8042
 9344SOL    HW239669   3.432   2.615   7.575 -1.1029 -1.1412 -1.8820
 9345SOL     OW39670   3.367   4.481   4.912  0.4710 -0.0097 -0.2062
 9345SOL    HW139671   3.331   4.564   4.942  1.5159  0.6946 -0.9090
 9345SOL    HW239672   3.456   4.488   4.947  0.2085  0.1293  0.4266
 9346SOL     OW39673   0.837   2.325   7.434  0.1259 -0.0941  0.0942
 9346SOL    HW139674   0.889   2.381   7.492 -0.5968  1.7506 -1.0413
 9346SOL    HW239675   0.791   2.272   7.499  0.8104 -2.6402 -1.4722
 9347SOL     OW39676   1.947   2.309  11.568  0.0132  0.1307 -0.1111
 9347SOL    HW139677   1.924   2.294  11.476 -0.1708 -0.0563 -0.0349
 9347SOL    HW239678   1.984   2.397  11.571 -0.0148  0.1342  0.0929
 9348SOL     OW39679   4.151   3.875   5.251 -0.0179  0.1743  0.2863
 9348SOL    HW139680   4.083   3.934   5.284  2.0019  2.1405  0.9078
 9348SOL    HW239681   4.124   3.882   5.160  0.6027 -3.3571 -0.1549
 9349SOL     OW39682   4.611   4.036   6.519 -0.4374  0.4659  0.1991
 9349SOL    HW139683   4.700   4.022   6.486 -1.0115  0.8127 -1.4925
 9349SOL    HW239684   4.629   4.110   6.578  0.7791 -0.3343  0.8339
 9350SOL     OW39685   2.776   3.114  17.459  0.3052  0.2332  0.5010
 9350SOL    HW139686   2.708   3.161  17.508 -0.4798 -1.7846  1.3110
 9350SOL    HW239687   2.724   3.042  17.422 -0.3695  1.2365 -0.5167
 9351SOL     OW39688   1.338   0.402   5.090 -0.4285  0.1849  0.0666
 9351SOL    HW139689   1.298   0.489   5.088 -2.8718 -0.9409  0.4540
 9351SOL    HW239690   1.332   0.385   4.996 -0.0901  1.2680 -0.1607
 9352SOL     OW39691   3.542   3.032   4.943  0.5585  0.4092  0.2001
 9352SOL    HW139692   3.559   3.055   4.852  0.0822 -4.8392 -1.1892
 9352SOL    HW239693   3.462   3.083   4.957  0.1867 -0.1442  0.0914
 9353SOL     OW39694   4.278   2.668  15.043  0.0892 -0.2687  0.0339
 9353SOL    HW139695   4.333   2.730  15.091  0.5984 -0.3334 -0.4715
 9353SOL    HW239696   4.234   2.731  14.987  1.2940 -0.0601 -0.6741
 9354SOL     OW39697   1.243   2.617   6.038  0.3870  0.0218 -0.1557
 9354SOL    HW139698   1.280   2.702   6.064 -0.7405  0.0373  1.4040
 9354SOL    HW239699   1.254   2.575   6.123  0.5272 -0.4119 -0.3864
 9355SOL     OW39700   3.152   3.826  14.199 -0.0596  0.2187  0.4368
 9355SOL    HW139701   3.178   3.916  14.219 -0.2299  0.1378  1.0304
 9355SOL    HW239702   3.237   3.783  14.205 -0.5970 -0.6150  2.1916
 9356SOL     OW39703   2.126   3.442   6.256 -0.3603  0.3337  0.0168
 9356SOL    HW139704   2.111   3.411   6.167  0.9045 -0.7933  0.1823
 9356SOL    HW239705   2.187   3.515   6.248  0.0824  0.1254  1.4544
 9357SOL     OW39706   3.610   1.904   2.246 -0.2639  0.5665 -0.1531
 9357SOL    HW139707   3.638   1.845   2.176  1.5723  1.0739  0.1382
 9357SOL    HW239708   3.664   1.983   2.239  0.0805  0.4534  1.1445
 9358SOL     OW39709   2.312   4.167   2.346  0.3341  0.5410 -0.0580
 9358SOL    HW139710   2.298   4.240   2.406  0.4268 -1.2811  2.2312
 9358SOL    HW239711   2.348   4.102   2.407 -2.0218 -1.0887 -0.3712
 9359SOL     OW39712   1.882   4.629   7.848 -0.3630  0.1655  0.4766
 9359SOL    HW139713   1.873   4.627   7.752 -2.4223  0.7983  0.6673
 9359SOL    HW239714   1.830   4.706   7.868  0.1140  0.8977 -1.0327
 9360SOL     OW39715   3.797   3.144   1.665 -0.3877 -0.1849 -0.2239
 9360SOL    HW139716   3.881   3.114   1.700  0.2938 -1.4478 -2.8769
 9360SOL    HW239717   3.812   3.144   1.570  0.6706 -0.6412 -0.0597
 9361SOL     OW39718   2.853   0.639   5.819  0.3492  0.0322 -0.2593
 9361SOL    HW139719   2.837   0.655   5.912 -1.6651 -1.2773 -0.3807
 9361SOL    HW239720   2.775   0.589   5.795 -1.1834  1.8259  0.9928
 9362SOL     OW39721   2.713   2.767   0.533  0.2309  0.2966 -0.8191
 9362SOL    HW139722   2.635   2.820   0.514 -0.4465 -0.4529 -0.1397
 9362SOL    HW239723   2.769   2.809   0.598 -2.2020  1.3735  0.6081
 9363SOL     OW39724   3.308   0.459  17.014 -0.5155  0.4565 -0.3543
 9363SOL    HW139725   3.377   0.495  16.959  2.2122  0.8960  3.2934
 9363SOL    HW239726   3.323   0.365  17.001 -0.8799  0.4073 -0.3945
 9364SOL     OW39727   3.477   4.252   8.908 -0.6416 -0.3422  0.3763
 9364SOL    HW139728   3.500   4.162   8.888 -0.9843 -0.1039 -1.1187
 9364SOL    HW239729   3.460   4.285   8.820  0.4216  0.0340  0.3084
 9365SOL     OW39730   0.337   1.377   0.995 -0.2067  0.1699 -0.3124
 9365SOL    HW139731   0.397   1.309   1.026  0.4775  1.3389  0.9607
 9365SOL    HW239732   0.392   1.454   1.007  0.2109 -0.2033  0.1784
 9366SOL     OW39733   2.917   0.275  12.423 -0.0910  0.4444  0.3059
 9366SOL    HW139734   2.903   0.259  12.330  3.1459  0.1256 -0.1125
 9366SOL    HW239735   2.880   0.195  12.461 -1.3555  0.4704 -0.8821
 9367SOL     OW39736   1.910   3.854   7.681 -0.2692 -0.1270 -0.0928
 9367SOL    HW139737   1.872   3.834   7.767  1.5477 -1.0323  0.5084
 9367SOL    HW239738   2.002   3.847   7.709  0.1884  3.0644 -0.8743
 9368SOL     OW39739   2.198   2.771   6.677 -0.3214  0.1728 -0.4242
 9368SOL    HW139740   2.275   2.827   6.687 -0.7802  0.8047 -0.4122
 9368SOL    HW239741   2.226   2.717   6.602  1.2695  0.1133  0.2127
 9369SOL     OW39742   1.762   1.298  13.296  0.3206  0.3152 -0.1152
 9369SOL    HW139743   1.770   1.208  13.325 -0.7922 -0.4833 -2.2696
 9369SOL    HW239744   1.716   1.324  13.375 -0.8771  2.3563 -1.4638
 9370SOL     OW39745   1.484   4.294   9.086 -0.6104  0.0555  0.2765
 9370SOL    HW139746   1.502   4.257   9.173 -3.5131  1.2529  1.4036
 9370SOL    HW239747   1.547   4.366   9.090 -1.0402  0.5256 -1.5795
 9371SOL     OW39748   2.105   0.502   8.400  0.4404  0.1185 -0.2436
 9371SOL    HW139749   2.199   0.515   8.412  0.5991 -0.7534 -0.5556
 9371SOL    HW239750   2.097   0.412   8.368 -0.5014 -0.1640  0.7897
 9372SOL     OW39751   0.218   3.128   2.399  0.4220 -0.2056  0.0157
 9372SOL    HW139752   0.242   3.127   2.492  0.7042 -0.6081 -0.0608
 9372SOL    HW239753   0.167   3.208   2.388 -1.1213 -1.0644  0.9992
 9373SOL     OW39754   2.109   2.171  11.715  1.0166 -0.1104 -0.5370
 9373SOL    HW139755   2.062   2.089  11.727 -2.4699  1.5209 -2.8421
 9373SOL    HW239756   2.051   2.218  11.654 -0.3272 -1.2465 -0.1396
 9374SOL     OW39757   2.182   2.734   7.677 -0.2452 -0.0184 -0.5238
 9374SOL    HW139758   2.158   2.643   7.691 -1.1750  0.4501  1.0036
 9374SOL    HW239759   2.205   2.728   7.585 -1.4306  0.8999 -0.8858
 9375SOL     OW39760   0.177   3.348   2.149  0.6250  0.0352 -0.1150
 9375SOL    HW139761   0.085   3.361   2.172  1.0507  1.1678  0.9687
 9375SOL    HW239762   0.185   3.394   2.065 -0.9655  0.1233 -0.2274
 9376SOL     OW39763   4.124   1.232   7.809  0.3184  0.0351 -0.1329
 9376SOL    HW139764   4.073   1.288   7.750  0.5562 -0.3955 -0.7453
 9376SOL    HW239765   4.059   1.209   7.876  1.9558 -0.0992  1.4034
 9377SOL     OW39766   0.362   1.872   1.157  0.0236 -0.0336  0.1773
 9377SOL    HW139767   0.327   1.908   1.238  1.1429  0.6694  0.3588
 9377SOL    HW239768   0.378   1.948   1.101 -1.6991 -1.1892 -1.8655
 9378SOL     OW39769   0.995   4.587  16.629  0.0333 -0.4615  0.0215
 9378SOL    HW139770   0.938   4.630  16.565  1.6311  0.5331 -0.7274
 9378SOL    HW239771   1.069   4.648  16.625  1.0835 -1.7594 -0.3160
 9379SOL     OW39772   3.668   1.441   6.166  0.2291  0.0175  0.0995
 9379SOL    HW139773   3.699   1.391   6.091 -1.2790 -2.4792  1.1390
 9379SOL    HW239774   3.640   1.365   6.217 -2.9109  0.1053 -1.5045
 9380SOL     OW39775   2.688   1.421  15.085 -0.0616 -0.0867 -0.1264
 9380SOL    HW139776   2.715   1.417  14.994  1.9227 -0.5866  0.5050
 9380SOL    HW239777   2.594   1.410  15.071  0.1853  0.3557 -2.1026
 9381SOL     OW39778   0.199   2.636   2.911  0.0499 -0.1823  0.3324
 9381SOL    HW139779   0.132   2.567   2.909  0.2253 -0.3197 -0.7999
 9381SOL    HW239780   0.205   2.653   2.817  0.8178 -1.2628  0.1826
 9382SOL     OW39781   2.188   0.984   0.637 -0.5935  0.4609 -0.1254
 9382SOL    HW139782   2.184   1.055   0.701  0.2742  1.8618 -1.6314
 9382SOL    HW239783   2.139   1.027   0.566 -1.1437  1.0075  0.5923
 9383SOL     OW39784   1.448   0.018   7.872 -0.2463 -0.7878  0.2608
 9383SOL    HW139785   1.435   0.090   7.811 -0.3115 -0.2494  0.9064
 9383SOL    HW239786   1.395   0.036   7.950 -2.1296 -4.0971 -0.2527
 9384SOL     OW39787   3.455   3.250   5.684  0.2512  0.0755  0.0521
 9384SOL    HW139788   3.485   3.338   5.706 -2.1377  1.0902 -0.8025
 9384SOL    HW239789   3.422   3.244   5.774 -0.9704  1.5263 -0.3117
 9385SOL     OW39790   4.173   2.101   6.723 -0.2560  0.1578 -0.2339
 9385SOL    HW139791   4.082   2.131   6.724 -0.6376 -0.9390 -1.0289
 9385SOL    HW239792   4.193   2.109   6.629  1.6534  2.6357  0.4035
 9386SOL     OW39793   3.987   3.383   8.746  0.2263  0.1017  0.4753
 9386SOL    HW139794   4.029   3.302   8.774  0.5787  0.6956  1.6754
 9386SOL    HW239795   3.916   3.344   8.694 -1.1667  1.7623  1.1282
 9387SOL     OW39796   1.711   3.551   6.786 -0.0004  0.0411  0.1676
 9387SOL    HW139797   1.804   3.544   6.809  0.7293  1.7788 -2.3407
 9387SOL    HW239798   1.717   3.604   6.707  2.7066  0.5148  0.6871
 9388SOL     OW39799   3.448   2.307   6.545 -0.1866  0.0436  0.3008
 9388SOL    HW139800   3.463   2.383   6.488 -0.9477  0.6278  0.8821
 9388SOL    HW239801   3.425   2.354   6.625  1.9517 -1.4353  1.7645
 9389SOL     OW39802   2.309   0.331   3.184  0.0056  0.2983 -0.0750
 9389SOL    HW139803   2.214   0.331   3.185 -0.0071  3.1289  0.5002
 9389SOL    HW239804   2.332   0.332   3.276  1.2089 -0.6911 -0.3638
 9390SOL     OW39805   2.170   2.927   1.385 -0.0427 -0.3042  0.2100
 9390SOL    HW139806   2.144   2.972   1.305 -0.3697  2.4567  1.8612
 9390SOL    HW239807   2.265   2.931   1.383 -0.0446 -1.1270 -1.3209
 9391SOL     OW39808   4.519   4.559  13.744 -0.1054 -0.0975 -0.8366
 9391SOL    HW139809   4.572   4.483  13.770 -0.7950 -0.6551 -1.0623
 9391SOL    HW239810   4.431   4.522  13.740  0.2981 -1.1735  0.1772
 9392SOL     OW39811   3.902   0.682   3.297 -0.4767 -0.2146  0.4922
 9392SOL    HW139812   3.844   0.737   3.244 -1.1094  0.1657  1.5830
 9392SOL    HW239813   3.989   0.718   3.283 -0.8788  0.0882 -1.2059
 9393SOL     OW39814   1.538   1.747   5.599  0.7610 -0.4311 -0.3344
 9393SOL    HW139815   1.581   1.662   5.587  0.1840 -0.7499 -0.1616
 9393SOL    HW239816   1.450   1.722   5.571  0.6731  0.1820 -0.6023
 9394SOL     OW39817   1.373   4.708  13.692  0.0560  0.3029 -0.4187
 9394SOL    HW139818   1.405   0.040  13.746 -0.0871  1.4540 -1.8948
 9394SOL    HW239819   1.450   4.652  13.694  0.3607  0.7849  1.2849
 9395SOL     OW39820   1.227   0.776   7.462 -0.0163 -0.5424  0.9036
 9395SOL    HW139821   1.178   0.824   7.529 -1.8415  0.3124 -1.0257
 9395SOL    HW239822   1.304   0.832   7.450  0.4496 -1.4091 -0.0702
 9396SOL     OW39823   0.692   3.297   4.519  0.2435  0.1789 -0.7631
 9396SOL    HW139824   0.691   3.285   4.425 -1.2804 -0.8742 -0.6255
 9396SOL    HW239825   0.689   3.207   4.551 -0.0116  0.7187  0.7544
 9397SOL     OW39826   0.127   2.133   8.733 -0.3761 -0.2554  0.4265
 9397SOL    HW139827   0.083   2.064   8.683 -1.3556  0.5958  0.1152
 9397SOL    HW239828   0.068   2.134   8.808  2.2180 -2.6539  2.5184
 9398SOL     OW39829   1.861   1.277   8.817  0.6980  0.3073  0.2699
 9398SOL    HW139830   1.821   1.315   8.895  0.0426  0.5270 -0.1697
 9398SOL    HW239831   1.948   1.268   8.856  1.6257  1.0167 -1.5948
 9399SOL     OW39832   3.269   2.228  13.672  0.5763 -0.0269  0.5951
 9399SOL    HW139833   3.249   2.317  13.700 -3.4792 -1.6194  2.8589
 9399SOL    HW239834   3.190   2.210  13.622 -0.1028  1.7511  1.0295
 9400SOL     OW39835   4.181   2.678  14.674 -0.6086  0.1078 -0.2874
 9400SOL    HW139836   4.207   2.729  14.750  0.5083 -1.1430  0.1777
 9400SOL    HW239837   4.096   2.707  14.641 -0.7753  0.3352  0.3427
 9401SOL     OW39838   2.229   2.876   4.794 -0.1355 -0.1148 -0.4584
 9401SOL    HW139839   2.281   2.957   4.794 -0.2582 -0.0336  0.0430
 9401SOL    HW239840   2.223   2.867   4.699 -3.3116  1.7997 -0.4205
 9402SOL     OW39841   1.375   3.120   6.860  0.1649 -0.5364  0.0710
 9402SOL    HW139842   1.329   3.167   6.790 -0.9083 -2.0905 -0.2648
 9402SOL    HW239843   1.348   3.173   6.936 -0.8790  0.0702 -0.7092
 9403SOL     OW39844   3.852   3.570   3.946 -0.3783  0.1193  0.8102
 9403SOL    HW139845   3.846   3.658   3.982  0.2984  0.5594 -0.1607
 9403SOL    HW239846   3.847   3.608   3.858 -0.2680 -0.4933  0.5367
 9404SOL     OW39847   3.923   0.695  14.863 -0.3447 -0.4312  0.4020
 9404SOL    HW139848   4.005   0.744  14.855 -0.3130 -0.2576  1.8483
 9404SOL    HW239849   3.943   0.612  14.907 -0.3493 -1.0695 -0.7899
 9405SOL     OW39850   4.612   0.753   2.017  0.1694  0.0764 -0.1829
 9405SOL    HW139851   4.627   0.717   1.930 -1.2099  0.4043 -0.5512
 9405SOL    HW239852   4.570   0.676   2.056  1.1730 -0.1306  0.5129
 9406SOL     OW39853   1.797   2.706   3.502  0.0178  0.1179 -0.5737
 9406SOL    HW139854   1.817   2.645   3.432  0.2657 -0.7784  0.2690
 9406SOL    HW239855   1.795   2.652   3.581  0.0110  0.5097 -0.3052
 9407SOL     OW39856   1.868   0.031   2.847  0.6569  0.2005  0.2853
 9407SOL    HW139857   1.816   4.731   2.916 -0.6358  1.2033 -0.1118
 9407SOL    HW239858   1.958   0.035   2.879 -0.0718  2.3682  2.0417
 9408SOL     OW39859   2.508   0.156   3.720 -0.7481 -0.1558 -0.2882
 9408SOL    HW139860   2.603   0.161   3.708 -0.9859  2.2207 -1.0950
 9408SOL    HW239861   2.482   0.092   3.654 -2.6844 -0.1336  0.4562
 9409SOL     OW39862   2.260   0.818   2.544 -0.4601 -0.3451  0.0189
 9409SOL    HW139863   2.277   0.807   2.451 -1.4419 -3.5455  0.2264
 9409SOL    HW239864   2.347   0.849   2.568 -0.5639 -2.1949  2.7467
 9410SOL     OW39865   1.886   4.108  15.998 -0.4690  0.2810 -0.1715
 9410SOL    HW139866   1.797   4.073  15.996 -0.6068  0.6216 -0.1072
 9410SOL    HW239867   1.861   4.199  15.982 -0.9012  0.0377 -0.9377
 9411SOL     OW39868   3.850   3.327   0.053 -0.4327 -0.5167 -0.3557
 9411SOL    HW139869   3.908   3.271   0.106 -1.3982  0.4962  1.7468
 9411SOL    HW239870   3.900   3.407   0.036  0.3854 -0.9042  0.1743
 9412SOL     OW39871   3.243   0.696   8.246  0.1456  0.3031 -0.0210
 9412SOL    HW139872   3.240   0.792   8.248 -1.1123  0.2525  0.2840
 9412SOL    HW239873   3.322   0.679   8.194  0.6164  1.2603  0.3922
 9413SOL     OW39874   0.286   4.443   5.000 -0.4012  0.4454 -0.2854
 9413SOL    HW139875   0.260   4.503   4.929  1.1666 -0.7837 -1.8848
 9413SOL    HW239876   0.380   4.436   4.987 -0.5540 -4.0664  1.3441
 9414SOL     OW39877   1.298   2.547   7.387 -0.4306 -0.2820  0.4721
 9414SOL    HW139878   1.338   2.596   7.459  0.0062  0.3102 -0.1760
 9414SOL    HW239879   1.310   2.456   7.417 -0.8173 -0.4068  0.2495
 9415SOL     OW39880   1.343   2.049   7.798  0.7456  0.6169 -0.1299
 9415SOL    HW139881   1.300   1.977   7.753  2.8099 -1.5261  1.2715
 9415SOL    HW239882   1.378   2.105   7.729  1.9972  1.4202  1.1411
 9416SOL     OW39883   1.586   2.215  16.864 -0.1921  0.1927  0.8319
 9416SOL    HW139884   1.566   2.193  16.773 -0.0253  0.0182  0.8393
 9416SOL    HW239885   1.602   2.130  16.905  2.6725  1.3541  2.0700
 9417SOL     OW39886   3.879   1.909   0.374 -0.3381  0.0829  0.0864
 9417SOL    HW139887   3.881   1.956   0.291 -1.7176  0.1952  0.1190
 9417SOL    HW239888   3.932   1.965   0.431 -1.9192  2.4927 -0.8119
 9418SOL     OW39889   4.387   2.127   8.641 -0.0711  0.8108 -0.5973
 9418SOL    HW139890   4.329   2.135   8.717  1.1629 -1.3376  0.5830
 9418SOL    HW239891   4.434   2.050   8.672 -0.1572  0.3253 -1.6809
 9419SOL     OW39892   3.490   2.562   9.112 -0.3192 -0.2977  0.2033
 9419SOL    HW139893   3.527   2.511   9.184  2.2798 -1.2899 -1.8318
 9419SOL    HW239894   3.564   2.587   9.058  0.6198  0.1806  1.7012
 9420SOL     OW39895   0.999   4.585   9.227 -0.7285  0.1223  0.0180
 9420SOL    HW139896   0.923   4.529   9.214  0.1371 -0.7016 -1.5426
 9420SOL    HW239897   0.946   4.664   9.220 -1.5561 -0.2853  1.5733
 9421SOL     OW39898   3.290   2.355   6.125  0.1097 -0.3654 -0.3875
 9421SOL    HW139899   3.376   2.322   6.099  0.2297 -1.5184  1.4941
 9421SOL    HW239900   3.291   2.437   6.076 -2.2786  0.4664  0.9542
 9422SOL     OW39901   2.214   3.361   4.148 -0.6111 -0.8212  0.1906
 9422SOL    HW139902   2.156   3.390   4.077 -0.1694 -1.1478 -0.3015
 9422SOL    HW239903   2.262   3.437   4.182  0.9561 -0.5381 -2.6958
 9423SOL     OW39904   1.968   1.904   2.466  0.1202  0.3690 -0.3770
 9423SOL    HW139905   1.909   1.880   2.394 -0.3380  1.4268 -0.3487
 9423SOL    HW239906   1.980   1.998   2.455 -0.0332  0.3794 -0.4605
 9424SOL     OW39907   3.548   2.069  13.310 -0.8065 -0.3822  0.3294
 9424SOL    HW139908   3.570   2.085  13.401 -1.6110  0.6504  0.3391
 9424SOL    HW239909   3.496   1.989  13.324  1.2723 -2.3246 -3.0111
 9425SOL     OW39910   3.176   0.014   6.003  0.5404 -0.0607  0.3971
 9425SOL    HW139911   3.199   4.663   6.020  1.3431  0.0347 -0.1928
 9425SOL    HW239912   3.262   0.045   5.975  0.9729 -0.3264  1.4219
 9426SOL     OW39913   4.228   1.529   3.730  0.1196  0.7044 -0.4879
 9426SOL    HW139914   4.148   1.550   3.777  0.1594 -1.2023  0.4493
 9426SOL    HW239915   4.287   1.484   3.791 -0.1834 -2.4624 -2.4674
 9427SOL     OW39916   1.632   4.423   3.605 -0.0064  0.5093  0.2077
 9427SOL    HW139917   1.723   4.441   3.630  0.1320 -1.7496  1.3656
 9427SOL    HW239918   1.604   4.506   3.567 -0.9424  0.8855  1.6951
 9428SOL     OW39919   4.698   2.662   1.692 -0.1946  0.2925  0.7703
 9428SOL    HW139920   4.727   2.584   1.739 -1.5229 -0.2290  0.7201
 9428SOL    HW239921   0.034   2.684   1.638  0.0218 -0.3505  0.8079
 9429SOL     OW39922   4.368   3.509  12.109 -0.2759  0.1401 -0.0719
 9429SOL    HW139923   4.372   3.483  12.017  0.7828 -1.8029  0.5228
 9429SOL    HW239924   4.373   3.602  12.089 -1.9093  0.2160 -0.1696
 9430SOL     OW39925   4.523   4.631   1.853 -0.0726  0.1214  0.3812
 9430SOL    HW139926   4.521   4.591   1.767 -0.3812  0.9335  0.0073
 9430SOL    HW239927   4.616   4.621   1.873 -0.1700 -1.1321  0.2135
 9431SOL     OW39928   0.061   0.919   2.929 -0.1949  0.0560 -0.1490
 9431SOL    HW139929   0.117   0.980   2.880 -0.5510 -0.3097 -1.0086
 9431SOL    HW239930   0.111   0.913   3.011  3.5298 -0.4505 -2.4469
 9432SOL     OW39931   3.150   3.210   9.734 -0.1454 -0.2923  0.5010
 9432SOL    HW139932   3.068   3.260   9.732  0.5965  0.8417 -0.9882
 9432SOL    HW239933   3.183   3.237   9.648  0.0006  2.2509  1.3653
 9433SOL     OW39934   2.091   1.852   4.694 -0.4771  0.1911 -0.1607
 9433SOL    HW139935   2.082   1.870   4.788 -1.4305 -0.9987 -0.0354
 9433SOL    HW239936   2.043   1.923   4.651 -0.6362  1.3570  1.9351
 9434SOL     OW39937   0.999   1.667   7.291 -0.2926 -0.0497 -0.5095
 9434SOL    HW139938   0.908   1.663   7.321  0.1338 -1.3099  0.6180
 9434SOL    HW239939   1.044   1.670   7.376 -0.1005  0.5762 -0.6350
 9435SOL     OW39940   3.609   2.468   6.214 -0.1129  0.2466  0.2974
 9435SOL    HW139941   3.689   2.416   6.229 -0.0312  0.4053  0.4152
 9435SOL    HW239942   3.623   2.482   6.121 -0.2763  0.9045  0.3728
 9436SOL     OW39943   1.098   1.777   4.626  0.2703 -0.1633  0.1547
 9436SOL    HW139944   1.101   1.862   4.672  3.5840  0.1433 -0.6679
 9436SOL    HW239945   1.191   1.765   4.608  0.6394 -0.1215  2.0460
 9437SOL     OW39946   2.664   1.794   5.846  0.2739 -0.3654  0.0798
 9437SOL    HW139947   2.737   1.734   5.861 -1.3731 -2.3228  0.1845
 9437SOL    HW239948   2.603   1.761   5.912 -0.0282 -0.5645 -0.3008
 9438SOL     OW39949   2.891   0.091   2.270 -0.1350  0.2698  0.2607
 9438SOL    HW139950   2.899   4.737   2.254 -1.3658  0.0006  1.2156
 9438SOL    HW239951   2.885   0.129   2.183 -0.1960  1.5310  0.8230
 9439SOL     OW39952   3.772   4.129  14.486  0.0900  0.6315 -0.3758
 9439SOL    HW139953   3.750   4.154  14.575 -0.2056  2.0599 -0.8498
 9439SOL    HW239954   3.836   4.197  14.467 -0.1218  0.8481 -0.3207
 9440SOL     OW39955   4.676   4.311   2.882  0.4187  0.3573 -0.1445
 9440SOL    HW139956   4.719   4.301   2.967 -0.2852 -2.1118 -0.0704
 9440SOL    HW239957   4.588   4.273   2.890  0.6080 -0.3529 -1.4346
 9441SOL     OW39958   2.836   3.225   2.081 -0.1316 -0.2558  0.1823
 9441SOL    HW139959   2.833   3.249   2.174 -2.0084 -0.4668  0.1811
 9441SOL    HW239960   2.822   3.310   2.039 -1.9395 -1.8058 -2.3797
 9442SOL     OW39961   0.142   1.811   4.279  0.1029  0.4159  0.2734
 9442SOL    HW139962   0.189   1.814   4.362 -0.6513 -1.2192  0.7577
 9442SOL    HW239963   0.059   1.766   4.293  0.3083  0.4704  1.6467
 9443SOL     OW39964   3.137   4.607  10.927  0.0080 -0.5773 -0.8096
 9443SOL    HW139965   3.215   4.554  10.908 -1.1376 -1.7442 -2.2412
 9443SOL    HW239966   3.170   4.674  10.987  1.5338 -2.0192 -0.0556
 9444SOL     OW39967   3.564   2.235   5.976 -0.5036 -0.1739 -0.0469
 9444SOL    HW139968   3.576   2.313   5.923  1.2881 -1.5282 -1.6388
 9444SOL    HW239969   3.511   2.178   5.921 -0.3664 -1.6717  1.3635
 9445SOL     OW39970   0.418   2.401   8.446 -0.7433 -0.5488  0.1134
 9445SOL    HW139971   0.341   2.345   8.458 -0.0857 -1.6430 -0.7807
 9445SOL    HW239972   0.376   2.469   8.393  0.7133  1.4608  1.5173
 9446SOL     OW39973   0.131   0.939   1.318 -0.0913 -0.5869 -0.2392
 9446SOL    HW139974   0.157   1.031   1.312 -1.7065 -0.2018 -1.5235
 9446SOL    HW239975   0.221   0.914   1.340 -0.8859 -0.4808  3.0020
 9447SOL     OW39976   1.679   4.288   2.636 -0.3439 -0.6058 -0.2769
 9447SOL    HW139977   1.703   4.196   2.644  0.7382 -0.0922  2.3278
 9447SOL    HW239978   1.764   4.312   2.673  0.0395  0.2430 -1.7026
 9448SOL     OW39979   0.579   3.710   0.574 -0.0414  0.3519 -0.1580
 9448SOL    HW139980   0.526   3.645   0.528 -0.5553 -0.6348  1.8233
 9448SOL    HW239981   0.636   3.647   0.619  0.2990  0.5426 -0.3225
 9449SOL     OW39982   0.187   0.913   8.422 -0.4079  0.2325 -0.2315
 9449SOL    HW139983   0.110   0.959   8.389 -2.4061 -2.0853  1.1972
 9449SOL    HW239984   0.218   0.865   8.346 -0.5870  0.7391 -0.6219
 9450SOL     OW39985   4.148   4.714   4.748 -0.5030  0.4932 -0.0297
 9450SOL    HW139986   4.204   4.640   4.724 -1.8553 -0.4996 -0.1338
 9450SOL    HW239987   4.090   4.656   4.798 -0.0963  0.3241  0.2495
 9451SOL     OW39988   1.175   4.168   1.249 -0.5135 -0.4430 -0.5757
 9451SOL    HW139989   1.199   4.076   1.236 -0.2279 -0.4179 -0.2327
 9451SOL    HW239990   1.087   4.167   1.286 -0.3124  2.8881  0.0057
 9452SOL     OW39991   2.298   4.638  16.249  0.0569  0.2275 -0.2453
 9452SOL    HW139992   2.237   4.567  16.231  0.1316  0.1085 -0.0185
 9452SOL    HW239993   2.273   4.642  16.341  1.4570  0.8756  0.1086
 9453SOL     OW39994   4.371   1.636   0.225  0.7422 -0.1330 -0.3757
 9453SOL    HW139995   4.307   1.577   0.264  0.0888  1.8050  1.4802
 9453SOL    HW239996   4.407   1.674   0.305  0.3921  0.1047 -0.3331
 9454SOL     OW39997   3.059   2.193   3.126 -0.6421 -0.5216 -0.2065
 9454SOL    HW139998   3.057   2.275   3.078 -1.9860 -1.3340 -1.5339
 9454SOL    HW239999   2.972   2.201   3.166  0.7128  1.5457  2.3444
 9455SOL     OW40000   3.208   1.951   9.430 -0.1926 -0.1025  0.0285
 9455SOL    HW140001   3.284   1.986   9.478  0.6728  0.0708 -1.4693
 9455SOL    HW240002   3.257   1.905   9.361 -0.6355 -1.4383  0.6093
 9456SOL     OW40003   0.817   1.838   1.697  0.0452 -0.2733 -0.6024
 9456SOL    HW140004   0.894   1.857   1.750 -1.8583  2.1988  1.2711
 9456SOL    HW240005   0.829   1.743   1.696  1.5435 -0.0835 -0.1275
 9457SOL     OW40006   1.002   2.975   3.840 -0.0850  0.3669 -0.2067
 9457SOL    HW140007   1.083   2.962   3.791 -0.2812 -0.8429 -0.2107
 9457SOL    HW240008   0.941   2.973   3.767  2.0136  0.9913 -1.9854
 9458SOL     OW40009   4.573   0.172   0.034  0.2821 -0.0530 -0.2199
 9458SOL    HW140010   4.659   0.171  17.749  0.6177  1.0321  0.4086
 9458SOL    HW240011   4.587   0.118   0.112  2.9640 -0.7016 -1.1587
 9459SOL     OW40012   0.919   3.864   0.684  0.4084 -0.4209  0.0154
 9459SOL    HW140013   0.834   3.908   0.677 -0.3080 -1.9100 -0.6994
 9459SOL    HW240014   0.974   3.932   0.647  0.2950 -0.5161 -0.3290
 9460SOL     OW40015   2.509   0.632   3.502  0.9241 -0.0899  0.3936
 9460SOL    HW140016   2.545   0.559   3.452  0.3181  0.2567 -0.5345
 9460SOL    HW240017   2.488   0.589   3.585  0.1076  1.2037  0.8514
 9461SOL     OW40018   1.473   2.658  15.362  0.1016  0.1282  0.1907
 9461SOL    HW140019   1.462   2.747  15.329 -1.3550 -0.9349 -2.1838
 9461SOL    HW240020   1.445   2.674  15.452  2.3458  0.9556  0.7428
 9462SOL     OW40021   2.787   0.044   1.336 -0.7436  0.3288 -0.6452
 9462SOL    HW140022   2.791   4.737   1.253 -0.9973 -0.8358  0.0133
 9462SOL    HW240023   2.692   0.057   1.328 -0.8141 -0.4853 -1.1283
 9463SOL     OW40024   3.420   3.709   6.589  0.7281 -0.1888 -0.3137
 9463SOL    HW140025   3.376   3.775   6.642  1.4995 -1.6490  2.1755
 9463SOL    HW240026   3.435   3.648   6.662 -1.6740 -1.2503 -0.6991
 9464SOL     OW40027   3.172   1.114  15.173  0.2872  0.1258  0.0043
 9464SOL    HW140028   3.134   1.067  15.100 -0.4963  0.1264  0.4203
 9464SOL    HW240029   3.255   1.143  15.134 -0.6493  0.9025 -1.3751
 9465SOL     OW40030   3.006   3.994   3.502 -0.2898 -0.1207 -0.5353
 9465SOL    HW140031   2.942   4.063   3.518 -0.8358 -0.5595 -0.8092
 9465SOL    HW240032   3.091   4.013   3.543 -1.9076 -0.2532  2.9212
 9466SOL     OW40033   3.779   2.273   6.152  0.2566 -0.6734 -0.1386
 9466SOL    HW140034   3.708   2.262   6.089 -0.1987  0.8492  0.1039
 9466SOL    HW240035   3.755   2.201   6.211 -2.2243  0.2319 -0.0558
 9467SOL     OW40036   2.934   0.556  11.578  0.6724 -0.2290 -0.0793
 9467SOL    HW140037   2.892   0.537  11.494 -2.3215  4.9159  0.2545
 9467SOL    HW240038   2.947   0.651  11.578  0.2764 -0.1815  0.8080
 9468SOL     OW40039   1.317   2.839   6.892  0.1420  0.1580  0.7782
 9468SOL    HW140040   1.259   2.799   6.827  1.2125  1.1190 -0.7456
 9468SOL    HW240041   1.328   2.926   6.853 -1.5543  0.0463  0.0259
 9469SOL     OW40042   4.452   3.088  16.455  0.0617  0.4176 -0.0270
 9469SOL    HW140043   4.521   3.053  16.398  0.0031 -2.4281  1.6452
 9469SOL    HW240044   4.413   3.156  16.400  2.6728  1.3767 -0.7173
 9470SOL     OW40045   3.316   0.548  11.689  0.4367 -0.7332 -1.0658
 9470SOL    HW140046   3.267   0.630  11.697  1.7143 -0.0140 -0.6659
 9470SOL    HW240047   3.403   0.585  11.703  0.5083 -0.7261 -1.5520
 9471SOL     OW40048   0.013   2.350  15.979 -0.1250 -0.5501  0.3351
 9471SOL    HW140049   4.740   2.344  16.073  2.8539 -0.1831  0.7863
 9471SOL    HW240050   0.070   2.273  15.976  0.2571 -0.2949  1.2104
 9472SOL     OW40051   1.754   0.956  12.729 -0.9294  0.4604  0.1071
 9472SOL    HW140052   1.810   0.883  12.755 -1.3354  0.5065  1.1118
 9472SOL    HW240053   1.815   1.010  12.679  0.6515 -0.4089  1.1227
 9473SOL     OW40054   3.724   2.492   8.483  0.7442 -0.0819 -0.1517
 9473SOL    HW140055   3.665   2.425   8.449  0.6911  0.8681 -1.8733
 9473SOL    HW240056   3.768   2.512   8.401  1.1525  1.6034  0.4822
 9474SOL     OW40057   3.609   0.410  13.179 -0.2063  0.3313 -0.1696
 9474SOL    HW140058   3.659   0.440  13.255  0.8701  0.0155 -0.7426
 9474SOL    HW240059   3.678   0.362  13.133 -2.9719 -1.5470 -2.3414
 9475SOL     OW40060   3.460   1.394   7.842  0.8094  0.1379  0.3005
 9475SOL    HW140061   3.514   1.321   7.871  2.7785  0.5578 -2.2228
 9475SOL    HW240062   3.506   1.464   7.889 -0.9231  0.3922  1.6089
 9476SOL     OW40063   0.364   1.447   4.606  0.2349 -0.1604 -0.1508
 9476SOL    HW140064   0.408   1.516   4.557 -1.6802  0.3308 -1.1447
 9476SOL    HW240065   0.410   1.366   4.582  2.2766  0.4156  1.8437
 9477SOL     OW40066   1.461   4.712   6.694 -0.1017  0.1377 -0.0708
 9477SOL    HW140067   1.439   0.002   6.606 -1.9113 -1.8511 -0.3024
 9477SOL    HW240068   1.557   4.718   6.689  0.0514 -1.7172  0.7786
 9478SOL     OW40069   2.696   4.515  13.024 -0.4210  0.4464  0.2507
 9478SOL    HW140070   2.644   4.587  13.061 -0.3579 -0.6882  2.5440
 9478SOL    HW240071   2.683   4.531  12.930  1.6122 -0.2114 -0.1608
 9479SOL     OW40072   4.504   4.445   3.363  0.5915 -0.2212 -0.3608
 9479SOL    HW140073   4.485   4.357   3.330  1.2988 -0.6635  0.4250
 9479SOL    HW240074   4.421   4.493   3.364 -0.0999 -1.4040 -0.8470
 9480SOL     OW40075   4.503   2.975   8.138  0.3043  0.0833  0.4323
 9480SOL    HW140076   4.423   2.922   8.134  1.2492 -1.1920 -1.4579
 9480SOL    HW240077   4.506   2.990   8.233 -2.5215 -2.1009  0.8641
 9481SOL     OW40078   4.720   0.135   3.134 -0.7827 -0.4564  0.2878
 9481SOL    HW140079   0.052   0.175   3.086  0.3336 -1.9418  0.7240
 9481SOL    HW240080   4.711   0.204   3.200 -2.2220  0.4042 -0.8037
 9482SOL     OW40081   0.827   2.675   6.893 -0.0700 -0.0619 -0.5566
 9482SOL    HW140082   0.865   2.645   6.976  1.9377  1.0993 -1.0550
 9482SOL    HW240083   0.820   2.768   6.912 -1.7421  0.0410 -1.5816
 9483SOL     OW40084   2.978   1.579  15.586  0.2015  0.5265  0.0476
 9483SOL    HW140085   3.013   1.666  15.604 -2.1376  1.4895  0.0643
 9483SOL    HW240086   3.016   1.526  15.656 -0.6737 -0.4033 -0.1741
 9484SOL     OW40087   1.747   3.049   3.125 -0.3324 -0.1068  0.3421
 9484SOL    HW140088   1.657   3.030   3.151 -0.0703 -2.4673 -0.4675
 9484SOL    HW240089   1.740   3.134   3.080 -0.8194  0.3490  1.2879
 9485SOL     OW40090   0.679   1.772   1.994 -0.7578 -0.2250 -0.4519
 9485SOL    HW140091   0.643   1.728   1.917  1.3412  0.7956 -2.0174
 9485SOL    HW240092   0.595   1.792   2.033 -0.8329 -3.2995  0.9509
 9486SOL     OW40093   0.641   3.919  12.026 -0.1553  0.4855  0.1597
 9486SOL    HW140094   0.569   3.862  12.051 -0.1866 -0.0353 -1.1026
 9486SOL    HW240095   0.720   3.871  12.051 -1.2848 -1.5734 -0.1917
 9487SOL     OW40096   1.796   1.244   0.444 -0.4105  0.2707 -0.3026
 9487SOL    HW140097   1.710   1.241   0.485 -0.2855 -0.9655 -0.1269
 9487SOL    HW240098   1.776   1.292   0.363  0.5841 -1.4382 -1.5903
 9488SOL     OW40099   4.245   1.752   4.459  0.5518  0.2469 -0.2848
 9488SOL    HW140100   4.196   1.672   4.479  0.7334  0.4789  1.0898
 9488SOL    HW240101   4.280   1.740   4.371 -2.1494 -0.0370 -1.3239
 9489SOL     OW40102   2.429   2.406   3.514 -0.2269  0.5082  0.2537
 9489SOL    HW140103   2.506   2.451   3.480 -1.2072  1.0200 -1.2793
 9489SOL    HW240104   2.448   2.400   3.608  3.4892  1.0575 -0.4607
 9490SOL     OW40105   0.032   4.524   6.582 -0.3164  0.0842 -0.3163
 9490SOL    HW140106   0.111   4.569   6.554  0.8506 -1.8451 -0.1352
 9490SOL    HW240107   0.065   4.461   6.646 -0.5690 -1.7135 -1.9406
 9491SOL     OW40108   3.586   3.231  13.191  0.2243  0.3576  0.2915
 9491SOL    HW140109   3.594   3.155  13.249  0.2759 -0.0623 -0.2669
 9491SOL    HW240110   3.666   3.224  13.139  0.6604  2.2026  0.6936
 9492SOL     OW40111   0.881   1.655   2.530 -0.1957  0.7069  0.0833
 9492SOL    HW140112   0.892   1.745   2.559  1.2077  0.0781  1.5012
 9492SOL    HW240113   0.953   1.618   2.581 -0.4881  2.2376  1.5807
 9493SOL     OW40114   0.539   2.480   8.689  0.6932 -0.3014  0.5114
 9493SOL    HW140115   0.469   2.421   8.661  0.3019 -0.2303  1.3442
 9493SOL    HW240116   0.513   2.567   8.657 -0.9002 -1.1534 -0.5242
 9494SOL     OW40117   3.673   0.557   0.856 -1.1197 -0.1600 -0.1075
 9494SOL    HW140118   3.763   0.523   0.855  0.0705  3.0628 -0.4634
 9494SOL    HW240119   3.663   0.584   0.947  2.3033 -2.4116  0.9667
 9495SOL     OW40120   3.613   0.263   3.059 -0.6266 -0.3754  0.2240
 9495SOL    HW140121   3.536   0.319   3.045 -0.8460 -0.7940 -0.2563
 9495SOL    HW240122   3.661   0.334   3.100  0.2738 -1.9033  1.7856
 9496SOL     OW40123   1.196   4.593   9.435 -0.0543  0.2566 -0.5920
 9496SOL    HW140124   1.126   4.593   9.370 -0.6480  0.5267  0.0449
 9496SOL    HW240125   1.147   4.545   9.502  2.3522 -0.9837  0.2945
 9497SOL     OW40126   4.186   3.225  12.505  0.6886  0.1543 -0.1023
 9497SOL    HW140127   4.176   3.317  12.528 -1.3776 -0.3098  0.8902
 9497SOL    HW240128   4.093   3.210  12.486  0.1785  3.7029 -0.4500
 9498SOL     OW40129   2.631   0.942  14.720  0.4235 -0.3372  0.7011
 9498SOL    HW140130   2.589   0.901  14.796  1.6243 -1.3370  0.8316
 9498SOL    HW240131   2.654   0.872  14.659 -1.5934  0.3753 -0.8962
 9499SOL     OW40132   0.373   0.275   4.928  0.0903  0.1851 -0.0679
 9499SOL    HW140133   0.320   0.348   4.961  0.4162  0.0634  0.7280
 9499SOL    HW240134   0.369   0.216   5.004 -1.9784  2.4915  1.6366
 9500SOL     OW40135   4.620   1.205   7.047 -0.3282 -0.3409 -0.5148
 9500SOL    HW140136   4.568   1.205   7.127  0.7340 -0.3949  0.1825
 9500SOL    HW240137   4.711   1.207   7.078 -0.0818 -1.8381 -1.1353
 9501SOL     OW40138   2.089   3.322  17.579 -0.1415 -0.2593 -0.2543
 9501SOL    HW140139   2.093   3.251  17.643  0.1206 -0.2634 -0.2734
 9501SOL    HW240140   2.074   3.282  17.494 -0.9765 -2.0316  0.7451
 9502SOL     OW40141   0.713   3.170   8.200  0.2340 -0.1979 -0.2903
 9502SOL    HW140142   0.712   3.197   8.292  1.6269  1.2597 -0.6906
 9502SOL    HW240143   0.806   3.176   8.179 -0.1601 -1.7689 -2.4419
 9503SOL     OW40144   1.347   0.479   6.023 -0.4039 -0.5793  0.7126
 9503SOL    HW140145   1.278   0.469   5.957  0.8412 -0.6236 -0.5955
 9503SOL    HW240146   1.293   0.530   6.082 -1.3907  0.6278 -1.2158
 9504SOL     OW40147   0.474   0.011   3.759  0.2818  0.2603 -0.0724
 9504SOL    HW140148   0.527   4.704   3.695 -0.8859 -0.3351 -0.6094
 9504SOL    HW240149   0.538   0.044   3.822 -0.1806 -0.2454  0.6682
 9505SOL     OW40150   1.748   3.353  13.475 -0.8579  0.2195  0.3355
 9505SOL    HW140151   1.831   3.400  13.478  1.3994 -3.7127  0.0443
 9505SOL    HW240152   1.703   3.397  13.403  0.9510  1.8715  0.2365
 9506SOL     OW40153   0.981   2.169   5.051  0.3538 -0.8790 -0.4197
 9506SOL    HW140154   0.961   2.194   4.961 -0.7798 -1.8156 -0.4217
 9506SOL    HW240155   1.008   2.078   5.039  0.5532 -0.8203 -0.4259
 9507SOL     OW40156   0.004   0.163   4.520 -0.0751 -0.2131 -0.2502
 9507SOL    HW140157   0.039   0.150   4.608  0.9889 -1.2354 -0.8404
 9507SOL    HW240158   4.654   0.132   4.530  0.6268 -2.4655 -0.9002
 9508SOL     OW40159   2.221   4.310  14.563  0.3094 -0.3187  0.0397
 9508SOL    HW140160   2.197   4.342  14.477  5.5372 -1.7891 -1.9546
 9508SOL    HW240161   2.237   4.217  14.549 -1.4734 -0.7473  0.8063
 9509SOL     OW40162   4.278   4.094   6.790  0.4271  0.4382 -0.6129
 9509SOL    HW140163   4.360   4.139   6.769  2.2150 -2.5814 -0.1635
 9509SOL    HW240164   4.212   4.157   6.763 -0.0855 -0.5901 -1.7941
 9510SOL     OW40165   4.642   1.096   1.534  0.2946 -0.0477 -0.1096
 9510SOL    HW140166   4.598   1.179   1.554  1.9867  0.6658  0.6708
 9510SOL    HW240167   4.621   1.095   1.441  1.3348  1.0114 -0.3466
 9511SOL     OW40168   2.737   1.581  16.649 -0.0967 -0.5395 -0.0046
 9511SOL    HW140169   2.734   1.504  16.592  0.7226 -1.1288  0.7401
 9511SOL    HW240170   2.683   1.638  16.594 -0.2315 -0.3344  0.3421
 9512SOL     OW40171   1.562   1.609   4.447  0.2459 -0.0875  0.0879
 9512SOL    HW140172   1.612   1.592   4.367 -0.1412 -0.2847 -0.1103
 9512SOL    HW240173   1.548   1.523   4.486  2.7481  0.1933  1.5575
 9513SOL     OW40174   4.725   2.738  16.061  0.4178 -0.3688  0.3276
 9513SOL    HW140175   4.720   2.643  16.069  0.4259 -0.2269  1.8888
 9513SOL    HW240176   0.011   2.757  16.151 -2.4565 -3.2551  1.7545
 9514SOL     OW40177   3.653   3.393   4.108 -0.6605  0.3265 -0.6161
 9514SOL    HW140178   3.669   3.346   4.027  1.0324 -0.2731  0.0698
 9514SOL    HW240179   3.713   3.467   4.098 -1.7538  0.9635 -2.5528
 9515SOL     OW40180   3.448   1.180   0.536  0.2834  0.2165  0.1056
 9515SOL    HW140181   3.400   1.229   0.603  1.5886  0.1786  1.0639
 9515SOL    HW240182   3.519   1.237   0.508  3.0661 -2.4655  1.6902
 9516SOL     OW40183   0.535   0.283   4.252 -0.1635  0.0001  0.4474
 9516SOL    HW140184   0.615   0.334   4.270  0.4419 -1.6344  2.3898
 9516SOL    HW240185   0.569   0.214   4.195 -0.5700 -1.1424  1.5900
 9517SOL     OW40186   2.749   2.735   1.920 -0.1167  0.0257 -0.0446
 9517SOL    HW140187   2.729   2.826   1.946  1.2165  0.0079  1.0221
 9517SOL    HW240188   2.843   2.734   1.934 -0.1345 -0.0571  0.0690
 9518SOL     OW40189   1.048   3.222   1.078  0.0542  0.1882  0.2807
 9518SOL    HW140190   1.093   3.274   1.011 -2.2817  1.8402 -0.0319
 9518SOL    HW240191   1.044   3.297   1.138 -0.1427  1.6062 -1.4996
 9519SOL     OW40192   1.478   3.802   7.331  0.1835 -0.4456 -1.4127
 9519SOL    HW140193   1.566   3.837   7.343 -0.6262  1.3487 -0.6538
 9519SOL    HW240194   1.480   3.724   7.387  1.5131  0.5280 -0.1062
 9520SOL     OW40195   1.640   0.572   8.843  0.5592 -0.3579  0.3232
 9520SOL    HW140196   1.654   0.477   8.836  0.8316 -0.3777  1.1690
 9520SOL    HW240197   1.558   0.567   8.893 -1.4426  1.0092 -2.8138
 9521SOL     OW40198   2.075   2.464  13.514  0.1665 -0.4017 -0.3552
 9521SOL    HW140199   2.145   2.409  13.549 -1.5015 -1.2109  1.6901
 9521SOL    HW240200   1.998   2.413  13.542 -0.9236  1.9523  0.9134
 9522SOL     OW40201   2.957   3.216   3.072 -0.2775  0.2352 -0.7205
 9522SOL    HW140202   3.030   3.273   3.094  0.2105 -0.0989 -1.4518
 9522SOL    HW240203   2.906   3.226   3.152 -2.0951 -0.8899 -1.7377
 9523SOL     OW40204   1.533   3.499   9.564  0.2020  0.9191 -0.3084
 9523SOL    HW140205   1.582   3.572   9.527 -0.2736  0.6846 -1.3859
 9523SOL    HW240206   1.447   3.541   9.567 -0.5007 -0.5419 -0.2497
 9524SOL     OW40207   1.389   2.421   0.471  0.4028 -0.6055  0.6748
 9524SOL    HW140208   1.350   2.504   0.499 -0.4620 -0.7818 -0.0356
 9524SOL    HW240209   1.454   2.439   0.403 -0.7382  0.0984 -0.2226
 9525SOL     OW40210   2.237   0.651  14.561  0.1459  0.0811  0.5819
 9525SOL    HW140211   2.201   0.683  14.478 -0.2159 -0.5872  0.4814
 9525SOL    HW240212   2.296   0.724  14.577  1.2499 -1.1117  1.9742
 9526SOL     OW40213   0.543   3.255   6.187  0.4881  0.0551  0.3716
 9526SOL    HW140214   0.461   3.207   6.176  0.6488 -0.2301  0.4158
 9526SOL    HW240215   0.537   3.315   6.113 -2.0939 -0.0392  0.4976
 9527SOL     OW40216   0.762   0.650  10.771  0.0248  0.1581 -0.2028
 9527SOL    HW140217   0.852   0.627  10.748 -0.0399  0.1108 -0.4128
 9527SOL    HW240218   0.776   0.698  10.853  0.8622  0.1096 -0.3257
 9528SOL     OW40219   4.423   1.482   4.459 -0.2222  0.2611  0.3327
 9528SOL    HW140220   4.404   1.547   4.392  4.2048  2.4279  1.1664
 9528SOL    HW240221   4.393   1.406   4.410 -0.4621  0.4058  0.2547
 9529SOL     OW40222   2.296   3.407  17.744 -0.5489  0.1253  0.0045
 9529SOL    HW140223   2.239   3.399  17.668 -0.1803 -0.0393 -0.2541
 9529SOL    HW240224   2.240   3.362   0.050 -0.1080 -0.4654 -0.0248
 9530SOL     OW40225   0.716   1.261  15.074  0.1555  0.1065 -0.3945
 9530SOL    HW140226   0.767   1.253  14.993  1.1011 -1.9300  0.3775
 9530SOL    HW240227   0.779   1.262  15.146  0.4389  0.3974 -0.6446
 9531SOL     OW40228   2.147   2.871   3.282  0.8631  0.3124  0.3026
 9531SOL    HW140229   2.156   2.777   3.265 -0.5358  0.1648  0.3923
 9531SOL    HW240230   2.114   2.884   3.370  1.3033  0.0973  0.5011
 9532SOL     OW40231   1.343   2.191   3.313 -0.4315  0.2716 -0.0931
 9532SOL    HW140232   1.297   2.163   3.392  0.5206  1.0465  0.7472
 9532SOL    HW240233   1.413   2.126   3.320 -0.0391  0.6593 -0.3312
 9533SOL     OW40234   0.998   0.309   5.028  0.2467 -0.4577  0.2139
 9533SOL    HW140235   0.947   0.237   4.993  1.4110 -0.4763 -1.4033
 9533SOL    HW240236   1.084   0.296   4.988 -0.5257 -1.7642 -0.9851
 9534SOL     OW40237   1.225   2.915   2.829 -0.0524 -0.0126 -0.1952
 9534SOL    HW140238   1.132   2.893   2.827 -0.2059  0.6760 -0.5758
 9534SOL    HW240239   1.252   2.835   2.873 -2.2861 -0.1670  0.8919
 9535SOL     OW40240   2.822   0.680  10.367 -0.1342 -0.6247  0.4728
 9535SOL    HW140241   2.889   0.747  10.353 -0.9297 -0.2714 -1.6929
 9535SOL    HW240242   2.869   0.600  10.345 -1.0137 -0.9231 -0.3344
 9536SOL     OW40243   3.548   3.119   2.445  0.3627  0.0527 -0.0621
 9536SOL    HW140244   3.567   3.047   2.385  1.1783  0.2056  0.0178
 9536SOL    HW240245   3.543   3.069   2.527  2.1079 -0.5081 -0.2923
 9537SOL     OW40246   1.257   2.252   7.395  0.0689  0.0499 -0.5356
 9537SOL    HW140247   1.309   2.238   7.316  3.0965 -1.3198  1.7236
 9537SOL    HW240248   1.187   2.187   7.381  0.1112 -0.2354  0.5958
 9538SOL     OW40249   4.032   0.510   7.727 -0.1623  0.1908 -0.6554
 9538SOL    HW140250   4.072   0.471   7.805 -1.0222  0.3699 -0.1280
 9538SOL    HW240251   3.956   0.453   7.715  2.6586 -3.1576 -2.6496
 9539SOL     OW40252   0.818   4.049  14.379 -0.3017 -0.0739 -0.2883
 9539SOL    HW140253   0.887   4.055  14.313  0.8959  2.4866  1.1627
 9539SOL    HW240254   0.759   4.121  14.355  1.3433  1.3942  0.0094
 9540SOL     OW40255   2.209   0.918   4.687 -0.1162  0.2521 -0.3548
 9540SOL    HW140256   2.224   0.870   4.768 -1.3714  0.0561 -0.2486
 9540SOL    HW240257   2.251   1.001   4.709 -0.8510  0.5715 -0.1681
 9541SOL     OW40258   3.196   1.442   8.524 -0.8811  0.4703  0.1091
 9541SOL    HW140259   3.288   1.453   8.549 -0.4457  1.4592 -1.9602
 9541SOL    HW240260   3.217   1.422   8.433  1.3497  1.4138  0.4066
 9542SOL     OW40261   3.173   2.383  12.145 -0.1052 -0.4860 -0.4983
 9542SOL    HW140262   3.116   2.341  12.209 -1.3899 -1.6099 -2.3622
 9542SOL    HW240263   3.244   2.321  12.134  0.5562 -0.4063  3.2979
 9543SOL     OW40264   1.224   3.536  10.962  0.1999 -0.1646 -0.0074
 9543SOL    HW140265   1.218   3.442  10.978  1.2378 -0.5827 -2.0523
 9543SOL    HW240266   1.143   3.569  11.000 -0.0914 -1.1832  0.2443
 9544SOL     OW40267   3.196   2.386   4.053  0.3564 -0.2196 -0.6383
 9544SOL    HW140268   3.210   2.480   4.059  0.9517 -0.2943 -0.7827
 9544SOL    HW240269   3.148   2.381   4.136 -0.4360  0.4432 -1.0640
 9545SOL     OW40270   1.131   3.702   1.657  0.4090  0.9393 -0.0311
 9545SOL    HW140271   1.119   3.664   1.570  1.0826  2.6335 -0.8594
 9545SOL    HW240272   1.176   3.783   1.634 -0.1944  1.4643  0.6493
 9546SOL     OW40273   1.349   0.055   9.524  1.1314 -0.3579  0.5746
 9546SOL    HW140274   1.277   0.065   9.586  0.2599 -0.3744 -0.4279
 9546SOL    HW240275   1.323   4.717   9.476 -0.2321  1.0031 -0.9222
 9547SOL     OW40276   3.574   4.085   3.627  0.3677 -0.0724 -0.1327
 9547SOL    HW140277   3.568   4.092   3.722  0.2420 -1.2223 -0.0541
 9547SOL    HW240278   3.666   4.069   3.610  0.5454 -2.8597  3.5437
 9548SOL     OW40279   1.650   0.086   6.157 -0.0365 -0.4067  0.2046
 9548SOL    HW140280   1.586   0.116   6.093  0.3738 -2.2303 -1.0649
 9548SOL    HW240281   1.594   0.065   6.232 -1.9436 -1.2221 -1.4448
 9549SOL     OW40282   0.283   3.459   2.873  0.2347  0.1600  0.5674
 9549SOL    HW140283   0.329   3.485   2.794 -0.0030  2.8289  1.3144
 9549SOL    HW240284   0.346   3.479   2.942  0.3860 -1.2067  0.8199
 9550SOL     OW40285   2.137   4.550   3.039 -0.6397 -0.3094 -0.1221
 9550SOL    HW140286   2.125   4.544   3.134 -2.1083 -1.7599 -0.3989
 9550SOL    HW240287   2.067   4.504   2.993 -0.8200  0.5274 -0.6898
 9551SOL     OW40288   2.622   1.615   9.209 -0.5676  0.0201  0.4417
 9551SOL    HW140289   2.594   1.525   9.227  2.0669 -1.0903 -1.0405
 9551SOL    HW240290   2.638   1.647   9.297  0.7671 -0.2205  0.2909
 9552SOL     OW40291   4.682   3.869   2.283  0.3201 -0.4164  0.0148
 9552SOL    HW140292   4.655   3.780   2.261  1.6010 -0.6890 -0.4392
 9552SOL    HW240293   4.672   3.911   2.198 -0.4364 -1.2530 -0.3075
 9553SOL     OW40294   1.512   2.323   5.102 -0.5553  0.3094  0.4704
 9553SOL    HW140295   1.585   2.372   5.140  0.0625  1.6276 -2.3739
 9553SOL    HW240296   1.448   2.323   5.173 -1.9503  1.8243 -0.7811
 9554SOL     OW40297   3.236   3.709   0.373  0.0934  0.1349 -0.4758
 9554SOL    HW140298   3.167   3.723   0.437  0.8544  2.8850 -0.2434
 9554SOL    HW240299   3.263   3.619   0.388 -0.1689  0.1807  0.2233
 9555SOL     OW40300   3.059   1.918   3.182 -0.4090  0.2666  0.1650
 9555SOL    HW140301   2.965   1.935   3.188 -0.4053  0.1169  0.6039
 9555SOL    HW240302   3.088   2.005   3.154  1.2721 -0.5189 -0.5066
 9556SOL     OW40303   4.161   3.002   3.776 -0.1982  0.0310  0.3884
 9556SOL    HW140304   4.252   3.016   3.803  0.6698  1.7602 -3.4183
 9556SOL    HW240305   4.158   2.909   3.752 -2.1923  0.7489 -2.1610
 9557SOL     OW40306   1.491   1.702   1.982 -0.0000  0.0532 -0.0727
 9557SOL    HW140307   1.401   1.725   2.000 -0.2569 -0.4101 -0.7433
 9557SOL    HW240308   1.528   1.777   2.028 -0.6864  0.5555 -0.3470
 9558SOL     OW40309   3.435   3.473  15.263  0.2585  0.0102 -0.4139
 9558SOL    HW140310   3.362   3.527  15.233 -0.1593 -0.9323 -1.0898
 9558SOL    HW240311   3.397   3.394  15.226 -0.3849  0.8429 -1.5324
 9559SOL     OW40312   0.491   0.236   9.433 -0.1320 -0.0577  0.7134
 9559SOL    HW140313   0.401   0.204   9.423  0.4271 -0.1713 -4.1139
 9559SOL    HW240314   0.528   0.251   9.346  1.2223  1.8746  1.6246
 9560SOL     OW40315   3.371   1.905   9.724  0.4226  0.8642 -0.2772
 9560SOL    HW140316   3.398   1.948   9.643 -2.9956 -0.5659 -2.2092
 9560SOL    HW240317   3.454   1.895   9.771  0.4772 -2.3557 -1.0875
 9561SOL     OW40318   3.051   3.949   8.880 -0.1343  0.4293 -0.1724
 9561SOL    HW140319   3.122   3.891   8.908 -0.4967  0.0807  0.0343
 9561SOL    HW240320   3.000   3.894   8.821  0.9972 -2.4512  1.5155
 9562SOL     OW40321   3.099   2.774   9.065 -0.3084  0.0555 -0.1885
 9562SOL    HW140322   3.118   2.681   9.052  0.1494  0.4151 -2.0678
 9562SOL    HW240323   3.027   2.789   9.004 -0.4383 -1.3999 -0.3940
 9563SOL     OW40324   1.926   4.143   6.419 -0.5003 -0.3707  0.3263
 9563SOL    HW140325   1.898   4.057   6.450 -0.5214 -0.8423 -0.9940
 9563SOL    HW240326   1.993   4.130   6.352 -0.9741 -2.1758  0.2088
 9564SOL     OW40327   0.997   2.120   2.833 -0.1918 -0.5602 -0.0880
 9564SOL    HW140328   1.061   2.170   2.783  1.4852 -0.3433  2.2735
 9564SOL    HW240329   0.989   2.187   2.901 -0.9120  0.0854 -0.8111
 9565SOL     OW40330   2.826   4.175   2.780  0.5475 -0.1920 -0.2142
 9565SOL    HW140331   2.818   4.235   2.706  2.3808  0.9685  0.5492
 9565SOL    HW240332   2.912   4.199   2.813 -0.2263  2.7975 -0.3546
 9566SOL     OW40333   2.105   0.341   5.031 -0.1322 -0.8059  0.5796
 9566SOL    HW140334   2.029   0.355   5.087  0.3809  0.7326  0.8899
 9566SOL    HW240335   2.169   0.326   5.100 -1.4266 -1.5589  1.6150
 9567SOL     OW40336   2.711   2.416   4.676  0.7869 -0.0519 -0.3316
 9567SOL    HW140337   2.727   2.425   4.582 -1.2611 -2.9162 -0.9680
 9567SOL    HW240338   2.692   2.503   4.710 -0.8472 -0.0962 -1.1018
 9568SOL     OW40339   2.257   1.419  11.486 -0.1872  0.0631  0.0959
 9568SOL    HW140340   2.257   1.396  11.393  1.5794  1.8496 -0.3616
 9568SOL    HW240341   2.338   1.391  11.529 -0.2928 -0.6273 -0.1649
 9569SOL     OW40342   3.628   1.408   0.463  0.4387 -0.5114  0.2296
 9569SOL    HW140343   3.632   1.462   0.542  2.0304  2.2220 -1.7154
 9569SOL    HW240344   3.633   1.477   0.397  0.5435  0.0965  0.8717
   4.74020   4.74020  17.75835
